bcc Fe                                  
   2.80000000000000     
    -0.500000    0.500000    0.500000
     0.500000   -0.500000    0.500000
     0.500000    0.500000   -0.500000
   Fe
     1
Direct
  0.000000  0.000000  0.000000
 
   20   20   20
  92.820      87.567      73.604      55.230      36.979      22.032      11.900      6.5883      4.7217      4.1336    
  3.9418      4.1336      4.7217      6.5883      11.900      22.032      36.979      55.230      73.604      87.567    
  87.567      85.853      74.924      58.309      40.493      25.039      13.908      7.5394      4.9827      4.2223    
  3.9111      3.9728      4.4103      5.5253      9.1727      17.103      29.816      46.377      64.269      79.470    
  73.604      74.924      67.784      54.582      39.171      25.050      14.393      7.9365      5.1016      4.2186    
  3.8231      3.7700      4.0561      4.7102      6.6932      11.878      21.264      34.537      49.937      64.269    
  55.230      58.309      54.582      45.362      33.537      22.116      13.177      7.5723      4.9856      4.1181    
  3.6895      3.5567      3.7075      4.1590      5.0636      7.7497      13.576      22.839      34.537      46.377    
  36.979      40.493      39.171      33.537      25.502      17.341      10.783      6.6113      4.6550      3.9347    
  3.5256      3.3577      3.4116      3.6990      4.2379      5.3209      8.1704      13.576      21.264      29.816    
  22.032      25.039      25.050      22.116      17.341      12.251      8.0925      5.4614      4.2356      3.6973    
  3.3482      3.1866      3.1885      3.3510      3.7081      4.2677      5.3209      7.7497      11.878      17.103    
  11.900      13.908      14.393      13.177      10.783      8.0925      5.8797      4.5079      3.8483      3.4436    
  3.1748      3.0472      3.0344      3.1235      3.3364      3.7081      4.2379      5.0636      6.6932      9.1727    
  6.5883      7.5394      7.9365      7.5723      6.6113      5.4614      4.5079      3.9037      3.5097      3.2096    
  3.0224      2.9389      2.9344      2.9934      3.1235      3.3510      3.6990      4.1590      4.7102      5.5253    
  4.7217      4.9827      5.1016      4.9856      4.6550      4.2356      3.8483      3.5097      3.2261      3.0224    
  2.9049      2.8627      2.8770      2.9344      3.0344      3.1885      3.4116      3.7075      4.0561      4.4103    
  4.1336      4.2223      4.2186      4.1181      3.9347      3.6973      3.4436      3.2096      3.0224      2.8958    
  2.8317      2.8239      2.8627      2.9389      3.0472      3.1866      3.3577      3.5567      3.7700      3.9728    
  3.9418      3.9111      3.8231      3.6895      3.5256      3.3482      3.1748      3.0224      2.9049      2.8317    
  2.8069      2.8317      2.9049      3.0224      3.1748      3.3482      3.5256      3.6895      3.8231      3.9111    
  4.1336      3.9728      3.7700      3.5567      3.3577      3.1866      3.0472      2.9389      2.8627      2.8239    
  2.8317      2.8958      3.0224      3.2096      3.4436      3.6973      3.9347      4.1181      4.2186      4.2223    
  4.7217      4.4103      4.0561      3.7075      3.4116      3.1885      3.0344      2.9344      2.8770      2.8627    
  2.9049      3.0224      3.2261      3.5097      3.8483      4.2356      4.6550      4.9856      5.1016      4.9827    
  6.5883      5.5253      4.7102      4.1590      3.6990      3.3510      3.1235      2.9934      2.9344      2.9389    
  3.0224      3.2096      3.5097      3.9037      4.5079      5.4614      6.6113      7.5723      7.9365      7.5394    
  11.900      9.1727      6.6932      5.0636      4.2379      3.7081      3.3364      3.1235      3.0344      3.0472    
  3.1748      3.4436      3.8483      4.5079      5.8797      8.0925      10.783      13.177      14.393      13.908    
  22.032      17.103      11.878      7.7497      5.3209      4.2677      3.7081      3.3510      3.1885      3.1866    
  3.3482      3.6973      4.2356      5.4614      8.0925      12.251      17.341      22.116      25.050      25.039    
  36.979      29.816      21.264      13.576      8.1704      5.3209      4.2379      3.6990      3.4116      3.3577    
  3.5256      3.9347      4.6550      6.6113      10.783      17.341      25.502      33.537      39.171      40.493    
  55.230      46.377      34.537      22.839      13.576      7.7497      5.0636      4.1590      3.7075      3.5567    
  3.6895      4.1181      4.9856      7.5723      13.177      22.116      33.537      45.362      54.582      58.309    
  73.604      64.269      49.937      34.537      21.264      11.878      6.6932      4.7102      4.0561      3.7700    
  3.8231      4.2186      5.1016      7.9365      14.393      25.050      39.171      54.582      67.784      74.924    
  87.567      79.470      64.269      46.377      29.816      17.103      9.1727      5.5253      4.4103      3.9728    
  3.9111      4.2223      4.9827      7.5394      13.908      25.039      40.493      58.309      74.924      85.853    
  87.567      85.853      74.924      58.309      40.493      25.039      13.908      7.5394      4.9827      4.2223    
  3.9111      3.9728      4.4103      5.5253      9.1727      17.103      29.816      46.377      64.269      79.470    
  85.853      87.561      79.462      64.261      46.373      29.814      17.102      9.1729      5.5257      4.4108    
  3.9729      3.9106      4.2218      4.9827      7.5398      13.908      25.041      40.497      58.315      74.929    
  74.924      79.462      74.920      62.852      46.985      31.291      18.585      10.168      5.9300      4.4977    
  3.9691      3.7950      3.9691      4.4978      5.9299      10.168      18.586      31.294      46.990      62.858    
  58.309      64.261      62.852      54.582      42.149      28.975      17.800      10.081      5.9727      4.4658    
  3.8966      3.6442      3.6981      4.0648      4.8059      7.0366      12.367      21.448      33.651      46.987    
  40.493      46.373      46.985      42.149      33.539      23.747      15.096      8.9558      5.6016      4.3083    
  3.7622      3.4779      3.4478      3.6669      4.1568      5.1092      7.7752      13.213      21.447      31.291    
  25.039      29.814      31.291      28.975      23.747      17.343      11.487      7.2783      4.9781      4.0581    
  3.5824      3.3120      3.2409      3.3520      3.6704      4.2107      5.2387      7.7754      12.367      18.585    
  13.908      17.102      18.585      17.800      15.096      11.487      8.0928      5.6581      4.3507      3.7665    
  3.3811      3.1579      3.0831      3.1330      3.3188      3.6767      4.2110      5.1096      7.0366      10.168    
  7.5394      9.1729      10.168      10.081      8.9558      7.2783      5.6581      4.5076      3.8740      3.4736    
  3.1856      3.0239      2.9687      2.9957      3.1040      3.3191      3.6708      4.1569      4.8056      5.9293    
  4.9827      5.5257      5.9300      5.9727      5.6016      4.9781      4.3507      3.8740      3.5095      3.2171    
  3.0199      2.9173      2.8903      2.9187      2.9958      3.1331      3.3519      3.6665      4.0643      4.4974    
  4.2223      4.4108      4.4977      4.4658      4.3083      4.0581      3.7665      3.4736      3.2171      3.0225    
  2.8998      2.8454      2.8467      2.8903      2.9686      3.0829      3.2407      3.4475      3.6980      3.9693    
  3.9111      3.9729      3.9691      3.8966      3.7622      3.5824      3.3811      3.1856      3.0199      2.8998    
  2.8317      2.8149      2.8453      2.9172      3.0237      3.1578      3.3119      3.4780      3.6446      3.7955    
  3.9728      3.9106      3.7950      3.6442      3.4779      3.3120      3.1579      3.0239      2.9173      2.8454    
  2.8149      2.8316      2.8997      3.0198      3.1856      3.3812      3.5827      3.7626      3.8970      3.9693    
  4.4103      4.2218      3.9691      3.6981      3.4478      3.2409      3.0831      2.9687      2.8903      2.8467    
  2.8453      2.8997      3.0224      3.2172      3.4739      3.7669      4.0584      4.3085      4.4658      4.4974    
  5.5253      4.9827      4.4978      4.0648      3.6669      3.3520      3.1330      2.9957      2.9187      2.8903    
  2.9172      3.0198      3.2172      3.5099      3.8745      4.3510      4.9780      5.6011      5.9720      5.9293    
  9.1727      7.5398      5.9299      4.8059      4.1568      3.6704      3.3188      3.1040      2.9958      2.9686    
  3.0237      3.1856      3.4739      3.8745      4.5079      5.6579      7.2775      8.9546      10.079      10.168    
  17.103      13.908      10.168      7.0366      5.1092      4.2107      3.6767      3.3191      3.1331      3.0829    
  3.1578      3.3812      3.7669      4.3510      5.6579      8.0918      11.486      15.094      17.799      18.585    
  29.816      25.041      18.586      12.367      7.7752      5.2387      4.2110      3.6708      3.3519      3.2407    
  3.3119      3.5827      4.0584      4.9780      7.2775      11.486      17.340      23.745      28.974      31.291    
  46.377      40.497      31.294      21.448      13.213      7.7754      5.1096      4.1569      3.6665      3.4475    
  3.4780      3.7626      4.3085      5.6011      8.9546      15.094      23.745      33.537      42.149      46.987    
  64.269      58.315      46.990      33.651      21.447      12.367      7.0366      4.8056      4.0643      3.6980    
  3.6446      3.8970      4.4658      5.9720      10.079      17.799      28.974      42.149      54.585      62.858    
  79.470      74.929      62.858      46.987      31.291      18.585      10.168      5.9293      4.4974      3.9693    
  3.7955      3.9693      4.4974      5.9293      10.168      18.585      31.291      46.987      62.858      74.929    
  73.604      74.924      67.784      54.582      39.171      25.050      14.393      7.9365      5.1016      4.2186    
  3.8231      3.7700      4.0561      4.7102      6.6932      11.878      21.264      34.537      49.937      64.269    
  74.924      79.462      74.920      62.852      46.985      31.291      18.585      10.168      5.9300      4.4977    
  3.9691      3.7950      3.9691      4.4978      5.9299      10.168      18.586      31.294      46.990      62.858    
  67.784      74.920      73.597      64.262      49.932      34.536      21.265      11.878      6.6935      4.7102    
  4.0561      3.7700      3.8231      4.2186      5.1016      7.9367      14.393      25.052      39.174      54.585    
  54.582      62.852      64.262      58.310      46.988      33.652      21.449      12.368      7.0371      4.8056    
  4.0643      3.6980      3.6446      3.8970      4.4658      5.9721      10.080      17.800      28.975      42.149    
  39.171      46.985      49.932      46.988      39.175      28.978      19.094      11.440      6.7751      4.7178    
  3.9864      3.5870      3.4599      3.5870      3.9865      4.7178      6.7747      11.438      19.091      28.974    
  25.050      31.291      34.536      33.652      28.978      22.119      15.097      9.4950      6.0240      4.4595    
  3.8316      3.4483      3.2887      3.3281      3.5759      4.0550      4.8996      7.0976      11.438      17.799    
  14.393      18.585      21.265      21.449      19.094      15.097      10.783      7.2776      5.1111      4.1223    
  3.6244      3.2957      3.1420      3.1354      3.2715      3.5819      4.0798      4.8996      6.7747      10.079    
  7.9365      10.168      11.878      12.368      11.440      9.4950      7.2776      5.4604      4.3502      3.7880    
  3.3987      3.1448      3.0226      3.0040      3.0762      3.2578      3.5819      4.0550      4.7178      5.9720    
  5.1016      5.9300      6.6935      7.0371      6.7751      6.0240      5.1111      4.3502      3.8478      3.4737    
  3.1888      3.0116      2.9302      2.9203      2.9669      3.0762      3.2715      3.5759      3.9865      4.4658    
  4.2186      4.4977      4.7102      4.8056      4.7178      4.4595      4.1223      3.7880      3.4737      3.2098    
  3.0199      2.9090      2.8662      2.8741      2.9203      3.0040      3.1354      3.3280      3.5870      3.8970    
  3.8231      3.9691      4.0561      4.0643      3.9864      3.8316      3.6244      3.3987      3.1888      3.0199    
  2.9050      2.8453      2.8352      2.8662      2.9302      3.0226      3.1420      3.2887      3.4598      3.6446    
  3.7700      3.7950      3.7700      3.6980      3.5870      3.4483      3.2957      3.1448      3.0116      2.9090    
  2.8453      2.8238      2.8453      2.9090      3.0116      3.1448      3.2957      3.4483      3.5870      3.6980    
  4.0561      3.9691      3.8231      3.6446      3.4599      3.2887      3.1420      3.0226      2.9302      2.8662    
  2.8352      2.8453      2.9050      3.0199      3.1888      3.3988      3.6245      3.8317      3.9865      4.0643    
  4.7102      4.4978      4.2186      3.8970      3.5870      3.3281      3.1354      3.0040      2.9203      2.8741    
  2.8662      2.9090      3.0199      3.2099      3.4739      3.7883      4.1226      4.4596      4.7178      4.8056    
  6.6932      5.9299      5.1016      4.4658      3.9865      3.5759      3.2715      3.0762      2.9669      2.9203    
  2.9302      3.0116      3.1888      3.4739      3.8483      4.3507      5.1114      6.0239      6.7747      7.0366    
  11.878      10.168      7.9367      5.9721      4.7178      4.0550      3.5819      3.2578      3.0762      3.0040    
  3.0226      3.1448      3.3988      3.7883      4.3507      5.4608      7.2774      9.4940      11.438      12.367    
  21.264      18.586      14.393      10.080      6.7747      4.8996      4.0798      3.5819      3.2715      3.1354    
  3.1420      3.2957      3.6245      4.1226      5.1114      7.2774      10.782      15.095      19.091      21.447    
  34.537      31.294      25.052      17.800      11.438      7.0976      4.8996      4.0550      3.5759      3.3280    
  3.2887      3.4483      3.8317      4.4596      6.0239      9.4940      15.095      22.116      28.975      33.651    
  49.937      46.990      39.174      28.975      19.091      11.438      6.7747      4.7178      3.9865      3.5870    
  3.4598      3.5870      3.9865      4.7178      6.7747      11.438      19.091      28.975      39.174      46.990    
  64.269      62.858      54.585      42.149      28.974      17.799      10.079      5.9720      4.4658      3.8970    
  3.6446      3.6980      4.0643      4.8056      7.0366      12.367      21.447      33.651      46.990      58.315    
  55.230      58.309      54.582      45.362      33.537      22.116      13.177      7.5723      4.9856      4.1181    
  3.6895      3.5567      3.7075      4.1590      5.0636      7.7497      13.576      22.839      34.537      46.377    
  58.309      64.261      62.852      54.582      42.149      28.975      17.800      10.081      5.9727      4.4658    
  3.8966      3.6442      3.6981      4.0648      4.8059      7.0366      12.367      21.448      33.651      46.987    
  54.582      62.852      64.262      58.310      46.988      33.652      21.449      12.368      7.0371      4.8056    
  4.0643      3.6980      3.6446      3.8970      4.4658      5.9721      10.080      17.800      28.975      42.149    
  45.362      54.582      58.310      55.231      46.378      34.539      22.841      13.577      7.7500      5.0631    
  4.1586      3.7076      3.5572      3.6897      4.1178      4.9850      7.5720      13.177      22.116      33.537    
  33.537      42.149      46.988      46.378      40.499      31.296      21.450      13.214      7.7751      5.1089    
  4.1566      3.6669      3.4479      3.4779      3.7622      4.3083      5.6012      8.9549      15.095      23.745    
  22.116      28.975      33.652      34.539      31.296      25.054      17.801      11.438      7.0966      4.8987    
  4.0549      3.5762      3.3282      3.2885      3.4480      3.8318      4.4600      6.0242      9.4940      15.094    
  13.177      17.800      21.449      22.841      21.450      17.801      13.177      8.9537      6.0227      4.5217    
  3.8710      3.4453      3.2079      3.1355      3.2079      3.4454      3.8713      4.5225      6.0239      8.9546    
  7.5723      10.081      12.368      13.577      13.214      11.438      8.9537      6.6091      4.9765      4.1221    
  3.6390      3.2926      3.0947      3.0207      3.0461      3.1778      3.4473      3.8710      4.4596      5.6011    
  4.9856      5.9727      7.0371      7.7500      7.7751      7.0966      6.0227      4.9765      4.2346      3.7665    
  3.3988      3.1410      2.9956      2.9391      2.9486      3.0214      3.1776      3.4451      3.8317      4.3085    
  4.1181      4.4658      4.8056      5.0631      5.1089      4.8987      4.5217      4.1221      3.7665      3.4438    
  3.1857      3.0115      2.9174      2.8854      2.8978      2.9485      3.0460      3.2079      3.4483      3.7626    
  3.6895      3.8966      4.0643      4.1586      4.1566      4.0549      3.8710      3.6390      3.3988      3.1857    
  3.0225      2.9172      2.8662      2.8591      2.8855      2.9392      3.0208      3.1357      3.2887      3.4780    
  3.5567      3.6442      3.6980      3.7076      3.6669      3.5762      3.4453      3.2926      3.1410      3.0115    
  2.9172      2.8626      2.8467      2.8663      2.9175      2.9957      3.0948      3.2079      3.3280      3.4475    
  3.7075      3.6981      3.6446      3.5572      3.4479      3.3282      3.2079      3.0947      2.9956      2.9174    
  2.8662      2.8467      2.8627      2.9173      3.0116      3.1410      3.2924      3.4451      3.5759      3.6665    
  4.1590      4.0648      3.8970      3.6897      3.4779      3.2885      3.1355      3.0207      2.9391      2.8854    
  2.8591      2.8663      2.9173      3.0225      3.1856      3.3986      3.6388      3.8710      4.0550      4.1569    
  5.0636      4.8059      4.4658      4.1178      3.7622      3.4480      3.2079      3.0461      2.9486      2.8978    
  2.8855      2.9175      3.0116      3.1856      3.4436      3.7666      4.1226      4.5225      4.8996      5.1096    
  7.7497      7.0366      5.9721      4.9850      4.3083      3.8318      3.4454      3.1778      3.0214      2.9485    
  2.9392      2.9957      3.1410      3.3986      3.7666      4.2353      4.9780      6.0242      7.0976      7.7754    
  13.576      12.367      10.080      7.5720      5.6012      4.4600      3.8713      3.4473      3.1776      3.0460    
  3.0208      3.0948      3.2924      3.6388      4.1226      4.9780      6.6109      8.9549      11.438      13.213    
  22.839      21.448      17.800      13.177      8.9549      6.0242      4.5225      3.8710      3.4451      3.2079    
  3.1357      3.2079      3.4451      3.8710      4.5225      6.0242      8.9549      13.177      17.800      21.448    
  34.537      33.651      28.975      22.116      15.095      9.4940      6.0239      4.4596      3.8317      3.4483    
  3.2887      3.3280      3.5759      4.0550      4.8996      7.0976      11.438      17.800      25.052      31.294    
  46.377      46.987      42.149      33.537      23.745      15.094      8.9546      5.6011      4.3085      3.7626    
  3.4780      3.4475      3.6665      4.1569      5.1096      7.7754      13.213      21.448      31.294      40.497    
  36.979      40.493      39.171      33.537      25.502      17.341      10.783      6.6113      4.6550      3.9347    
  3.5256      3.3577      3.4116      3.6990      4.2379      5.3209      8.1704      13.576      21.264      29.816    
  40.493      46.373      46.985      42.149      33.539      23.747      15.096      8.9558      5.6016      4.3083    
  3.7622      3.4779      3.4478      3.6669      4.1568      5.1092      7.7752      13.213      21.447      31.291    
  39.171      46.985      49.932      46.988      39.175      28.978      19.094      11.440      6.7751      4.7178    
  3.9864      3.5870      3.4599      3.5870      3.9865      4.7178      6.7747      11.438      19.091      28.974    
  33.537      42.149      46.988      46.378      40.499      31.296      21.450      13.214      7.7751      5.1089    
  4.1566      3.6669      3.4479      3.4779      3.7622      4.3083      5.6012      8.9549      15.095      23.745    
  25.502      33.539      39.175      40.499      36.985      29.820      21.266      13.576      8.1694      5.3200    
  4.2376      3.6989      3.4117      3.3578      3.5256      3.9346      4.6549      6.6109      10.782      17.340    
  17.341      23.747      28.978      31.296      29.820      25.043      18.585      12.365      7.7731      5.2374    
  4.2105      3.6707      3.3519      3.2406      3.3119      3.5827      4.0584      4.9780      7.2774      11.486    
  10.783      15.096      19.094      21.450      21.266      18.585      14.391      10.077      6.7722      4.8983    
  4.0795      3.5819      3.2716      3.1354      3.1419      3.2957      3.6245      4.1226      5.1114      7.2775    
  6.6113      8.9558      11.440      13.214      13.576      12.365      10.077      7.5689      5.5992      4.4592    
  3.8713      3.4474      3.1777      3.0460      3.0208      3.0948      3.2924      3.6388      4.1226      4.9780    
  4.6550      5.6016      6.7751      7.7751      8.1694      7.7731      6.7722      5.5992      4.6539      4.0584    
  3.6248      3.2927      3.0815      2.9739      2.9423      2.9739      3.0814      3.2924      3.6245      4.0584    
  3.9347      4.3083      4.7178      5.1089      5.3200      5.2374      4.8983      4.4592      4.0584      3.6980    
  3.3817      3.1449      2.9957      2.9198      2.8965      2.9134      2.9739      3.0948      3.2957      3.5827    
  3.5256      3.7622      3.9864      4.1566      4.2376      4.2105      4.0795      3.8713      3.6248      3.3817    
  3.1753      3.0239      2.9303      2.8855      2.8772      2.8965      2.9422      3.0208      3.1420      3.3119    
  3.3577      3.4779      3.5870      3.6669      3.6989      3.6707      3.5819      3.4474      3.2927      3.1449    
  3.0239      2.9389      2.8903      2.8742      2.8855      2.9198      2.9739      3.0460      3.1354      3.2407    
  3.4116      3.4478      3.4599      3.4479      3.4117      3.3519      3.2716      3.1777      3.0815      2.9957    
  2.9303      2.8903      2.8770      2.8903      2.9302      2.9956      3.0814      3.1776      3.2715      3.3519    
  3.6990      3.6669      3.5870      3.4779      3.3578      3.2406      3.1354      3.0460      2.9739      2.9198    
  2.8855      2.8742      2.8903      2.9389      3.0237      3.1446      3.2924      3.4473      3.5819      3.6708    
  4.2379      4.1568      3.9865      3.7622      3.5256      3.3119      3.1419      3.0208      2.9423      2.8965    
  2.8772      2.8855      2.9302      3.0237      3.1748      3.3811      3.6245      3.8713      4.0798      4.2110    
  5.3209      5.1092      4.7178      4.3083      3.9346      3.5827      3.2957      3.0948      2.9739      2.9134    
  2.8965      2.9198      2.9956      3.1446      3.3811      3.6975      4.0584      4.4600      4.8996      5.2387    
  8.1704      7.7752      6.7747      5.6012      4.6549      4.0584      3.6245      3.2924      3.0814      2.9739    
  2.9422      2.9739      3.0814      3.2924      3.6245      4.0584      4.6549      5.6012      6.7747      7.7752    
  13.576      13.213      11.438      8.9549      6.6109      4.9780      4.1226      3.6388      3.2924      3.0948    
  3.0208      3.0460      3.1776      3.4473      3.8713      4.4600      5.6012      7.5720      10.080      12.367    
  21.264      21.447      19.091      15.095      10.782      7.2774      5.1114      4.1226      3.6245      3.2957    
  3.1420      3.1354      3.2715      3.5819      4.0798      4.8996      6.7747      10.080      14.393      18.586    
  29.816      31.291      28.974      23.745      17.340      11.486      7.2775      4.9780      4.0584      3.5827    
  3.3119      3.2407      3.3519      3.6708      4.2110      5.2387      7.7752      12.367      18.586      25.041    
  22.032      25.039      25.050      22.116      17.341      12.251      8.0925      5.4614      4.2356      3.6973    
  3.3482      3.1866      3.1885      3.3510      3.7081      4.2677      5.3209      7.7497      11.878      17.103    
  25.039      29.814      31.291      28.975      23.747      17.343      11.487      7.2783      4.9781      4.0581    
  3.5824      3.3120      3.2409      3.3520      3.6704      4.2107      5.2387      7.7754      12.367      18.585    
  25.050      31.291      34.536      33.652      28.978      22.119      15.097      9.4950      6.0240      4.4595    
  3.8316      3.4483      3.2887      3.3281      3.5759      4.0550      4.8996      7.0976      11.438      17.799    
  22.116      28.975      33.652      34.539      31.296      25.054      17.801      11.438      7.0966      4.8987    
  4.0549      3.5762      3.3282      3.2885      3.4480      3.8318      4.4600      6.0242      9.4940      15.094    
  17.341      23.747      28.978      31.296      29.820      25.043      18.585      12.365      7.7731      5.2374    
  4.2105      3.6707      3.3519      3.2406      3.3119      3.5827      4.0584      4.9780      7.2774      11.486    
  12.251      17.343      22.119      25.054      25.043      22.034      17.100      11.874      7.7465      5.3195    
  4.2677      3.7083      3.3509      3.1883      3.1867      3.3485      3.6975      4.2353      5.4608      8.0918    
  8.0925      11.487      15.097      17.801      18.585      17.100      13.904      10.163      7.0336      5.1084    
  4.2110      3.6770      3.3190      3.1330      3.0830      3.1579      3.3811      3.7666      4.3507      5.6579    
  5.4614      7.2783      9.4950      11.438      12.365      11.874      10.163      7.9329      5.9706      4.7182    
  4.0559      3.5824      3.2578      3.0762      3.0041      3.0225      3.1446      3.3986      3.7883      4.3510    
  4.2356      4.9781      6.0240      7.0966      7.7731      7.7465      7.0336      5.9706      4.9854      4.3097    
  3.8330      3.4459      3.1779      3.0214      2.9486      2.9391      2.9956      3.1410      3.3988      3.7669    
  3.6973      4.0581      4.4595      4.8987      5.2374      5.3195      5.1084      4.7182      4.3097      3.9363    
  3.5838      3.2961      3.0949      2.9740      2.9135      2.8965      2.9198      2.9957      3.1448      3.3812    
  3.3482      3.5824      3.8316      4.0549      4.2105      4.2677      4.2110      4.0559      3.8330      3.5838    
  3.3491      3.1581      3.0225      2.9391      2.8965      2.8837      2.8965      2.9392      3.0226      3.1578    
  3.1866      3.3120      3.4483      3.5762      3.6707      3.7083      3.6770      3.5824      3.4459      3.2961    
  3.1581      3.0472      2.9686      2.9203      2.8978      2.8965      2.9134      2.9485      3.0040      3.0829    
  3.1885      3.2409      3.2887      3.3282      3.3519      3.3509      3.3190      3.2578      3.1779      3.0949    
  3.0225      2.9686      2.9344      2.9186      2.9203      2.9391      2.9739      3.0214      3.0762      3.1331    
  3.3510      3.3520      3.3281      3.2885      3.2406      3.1883      3.1330      3.0762      3.0214      2.9740    
  2.9391      2.9203      2.9186      2.9344      2.9686      3.0225      3.0948      3.1778      3.2578      3.3191    
  3.7081      3.6704      3.5759      3.4480      3.3119      3.1867      3.0830      3.0041      2.9486      2.9135    
  2.8965      2.8978      2.9203      2.9686      3.0472      3.1579      3.2957      3.4454      3.5819      3.6767    
  4.2677      4.2107      4.0550      3.8318      3.5827      3.3485      3.1579      3.0225      2.9391      2.8965    
  2.8837      2.8965      2.9391      3.0225      3.1579      3.3485      3.5827      3.8318      4.0550      4.2107    
  5.3209      5.2387      4.8996      4.4600      4.0584      3.6975      3.3811      3.1446      2.9956      2.9198    
  2.8965      2.9134      2.9739      3.0948      3.2957      3.5827      3.9346      4.3083      4.7178      5.1092    
  7.7497      7.7754      7.0976      6.0242      4.9780      4.2353      3.7666      3.3986      3.1410      2.9957    
  2.9392      2.9485      3.0214      3.1778      3.4454      3.8318      4.3083      4.9850      5.9721      7.0366    
  11.878      12.367      11.438      9.4940      7.2774      5.4608      4.3507      3.7883      3.3988      3.1448    
  3.0226      3.0040      3.0762      3.2578      3.5819      4.0550      4.7178      5.9721      7.9367      10.168    
  17.103      18.585      17.799      15.094      11.486      8.0918      5.6579      4.3510      3.7669      3.3812    
  3.1578      3.0829      3.1331      3.3191      3.6767      4.2107      5.1092      7.0366      10.168      13.908    
  11.900      13.908      14.393      13.177      10.783      8.0925      5.8797      4.5079      3.8483      3.4436    
  3.1748      3.0472      3.0344      3.1235      3.3364      3.7081      4.2379      5.0636      6.6932      9.1727    
  13.908      17.102      18.585      17.800      15.096      11.487      8.0928      5.6581      4.3507      3.7665    
  3.3811      3.1579      3.0831      3.1330      3.3188      3.6767      4.2110      5.1096      7.0366      10.168    
  14.393      18.585      21.265      21.449      19.094      15.097      10.783      7.2776      5.1111      4.1223    