bcc Fe                                  
   2.80000000000000     
    -0.500000    0.500000    0.500000
     0.500000   -0.500000    0.500000
     0.500000    0.500000   -0.500000
   Fe
     1
Direct
  0.000000  0.000000  0.000000
 
   20   20   20
 0.92820127483E+02 0.87566589771E+02 0.73604443000E+02 0.55230445336E+02 0.36978759169E+02
 0.22032487073E+02 0.11899994767E+02 0.65883104205E+01 0.47216881531E+01 0.41336212278E+01
 0.39418329756E+01 0.41336212278E+01 0.47216881531E+01 0.65883104205E+01 0.11899994767E+02
 0.22032487073E+02 0.36978759169E+02 0.55230445336E+02 0.73604443000E+02 0.87566589771E+02
 0.87566589771E+02 0.85852675183E+02 0.74923974102E+02 0.58309433303E+02 0.40492701172E+02
 0.25038917016E+02 0.13907697541E+02 0.75393646858E+01 0.49826565958E+01 0.42223023325E+01
 0.39110578999E+01 0.39728025905E+01 0.44102533202E+01 0.55252895514E+01 0.91727355652E+01
 0.17102645495E+02 0.29815581562E+02 0.46376863881E+02 0.64268961471E+02 0.79470256052E+02
 0.73604443000E+02 0.74923974102E+02 0.67784144381E+02 0.54582328591E+02 0.39170569951E+02
 0.25049666219E+02 0.14392649494E+02 0.79365455049E+01 0.51015789474E+01 0.42185814034E+01
 0.38231138975E+01 0.37699923174E+01 0.40561129616E+01 0.47101904871E+01 0.66931780944E+01
 0.11877665317E+02 0.21264051062E+02 0.34537119990E+02 0.49936501370E+02 0.64268961471E+02
 0.55230445336E+02 0.58309433303E+02 0.54582328591E+02 0.45362365966E+02 0.33537318127E+02
 0.22115732909E+02 0.13176922775E+02 0.75723148920E+01 0.49855894515E+01 0.41181343351E+01
 0.36895154591E+01 0.35567192692E+01 0.37074691204E+01 0.41589940506E+01 0.50636375466E+01
 0.77496994843E+01 0.13575838062E+02 0.22838820602E+02 0.34537119990E+02 0.46376863881E+02
 0.36978759169E+02 0.40492701172E+02 0.39170569951E+02 0.33537318127E+02 0.25501511415E+02
 0.17341193185E+02 0.10782813976E+02 0.66113026234E+01 0.46550384913E+01 0.39346775517E+01
 0.35256029316E+01 0.33577331529E+01 0.34116496472E+01 0.36989957811E+01 0.42379128484E+01
 0.53208623014E+01 0.81704172299E+01 0.13575838062E+02 0.21264051062E+02 0.29815581562E+02
 0.22032487073E+02 0.25038917016E+02 0.25049666219E+02 0.22115732909E+02 0.17341193185E+02
 0.12250862844E+02 0.80924673337E+01 0.54614300936E+01 0.42355738684E+01 0.36973472681E+01
 0.33482152853E+01 0.31866427682E+01 0.31885496625E+01 0.33510316761E+01 0.37080828370E+01
 0.42677132154E+01 0.53208623014E+01 0.77496994843E+01 0.11877665317E+02 0.17102645495E+02
 0.11899994767E+02 0.13907697541E+02 0.14392649494E+02 0.13176922775E+02 0.10782813976E+02
 0.80924673337E+01 0.58796847633E+01 0.45079398912E+01 0.38482813345E+01 0.34435766121E+01
 0.31748166483E+01 0.30472216570E+01 0.30343903762E+01 0.31235133265E+01 0.33364271146E+01
 0.37080828370E+01 0.42379128484E+01 0.50636375466E+01 0.66931780944E+01 0.91727355652E+01
 0.65883104205E+01 0.75393646858E+01 0.79365455049E+01 0.75723148920E+01 0.66113026234E+01
 0.54614300936E+01 0.45079398912E+01 0.39036652827E+01 0.35096512916E+01 0.32096110769E+01
 0.30223527989E+01 0.29389112612E+01 0.29344477057E+01 0.29933903387E+01 0.31235133265E+01
 0.33510316761E+01 0.36989957811E+01 0.41589940506E+01 0.47101904871E+01 0.55252895514E+01
 0.47216881531E+01 0.49826565958E+01 0.51015789474E+01 0.49855894515E+01 0.46550384913E+01
 0.42355738684E+01 0.38482813345E+01 0.35096512916E+01 0.32260711511E+01 0.30223788153E+01
 0.29049149731E+01 0.28626698040E+01 0.28770329333E+01 0.29344477057E+01 0.30343903762E+01
 0.31885496625E+01 0.34116496472E+01 0.37074691204E+01 0.40561129616E+01 0.44102533202E+01
 0.41336212278E+01 0.42223023325E+01 0.42185814034E+01 0.41181343351E+01 0.39346775517E+01
 0.36973472681E+01 0.34435766121E+01 0.32096110769E+01 0.30223788153E+01 0.28957658454E+01
 0.28316702426E+01 0.28238860370E+01 0.28626698040E+01 0.29389112612E+01 0.30472216570E+01
 0.31866427682E+01 0.33577331529E+01 0.35567192692E+01 0.37699923174E+01 0.39728025905E+01
 0.39418329756E+01 0.39110578999E+01 0.38231138975E+01 0.36895154591E+01 0.35256029316E+01
 0.33482152853E+01 0.31748166483E+01 0.30223527989E+01 0.29049149731E+01 0.28316702426E+01
 0.28068934949E+01 0.28316702426E+01 0.29049149731E+01 0.30223527989E+01 0.31748166483E+01
 0.33482152853E+01 0.35256029316E+01 0.36895154591E+01 0.38231138975E+01 0.39110578999E+01
 0.41336212278E+01 0.39728025905E+01 0.37699923174E+01 0.35567192692E+01 0.33577331529E+01
 0.31866427682E+01 0.30472216570E+01 0.29389112612E+01 0.28626698040E+01 0.28238860370E+01
 0.28316702426E+01 0.28957658454E+01 0.30223788153E+01 0.32096110769E+01 0.34435766121E+01
 0.36973472681E+01 0.39346775517E+01 0.41181343351E+01 0.42185814034E+01 0.42223023325E+01
 0.47216881531E+01 0.44102533202E+01 0.40561129616E+01 0.37074691204E+01 0.34116496472E+01
 0.31885496625E+01 0.30343903762E+01 0.29344477057E+01 0.28770329333E+01 0.28626698040E+01
 0.29049149731E+01 0.30223788153E+01 0.32260711511E+01 0.35096512916E+01 0.38482813345E+01
 0.42355738684E+01 0.46550384913E+01 0.49855894515E+01 0.51015789474E+01 0.49826565958E+01
 0.65883104205E+01 0.55252895514E+01 0.47101904871E+01 0.41589940506E+01 0.36989957811E+01
 0.33510316761E+01 0.31235133265E+01 0.29933903387E+01 0.29344477057E+01 0.29389112612E+01
 0.30223527989E+01 0.32096110769E+01 0.35096512916E+01 0.39036652827E+01 0.45079398912E+01
 0.54614300936E+01 0.66113026234E+01 0.75723148920E+01 0.79365455049E+01 0.75393646858E+01
 0.11899994767E+02 0.91727355652E+01 0.66931780944E+01 0.50636375466E+01 0.42379128484E+01
 0.37080828370E+01 0.33364271146E+01 0.31235133265E+01 0.30343903762E+01 0.30472216570E+01
 0.31748166483E+01 0.34435766121E+01 0.38482813345E+01 0.45079398912E+01 0.58796847633E+01
 0.80924673337E+01 0.10782813976E+02 0.13176922775E+02 0.14392649494E+02 0.13907697541E+02
 0.22032487073E+02 0.17102645495E+02 0.11877665317E+02 0.77496994843E+01 0.53208623014E+01
 0.42677132154E+01 0.37080828370E+01 0.33510316761E+01 0.31885496625E+01 0.31866427682E+01
 0.33482152853E+01 0.36973472681E+01 0.42355738684E+01 0.54614300936E+01 0.80924673337E+01
 0.12250862844E+02 0.17341193185E+02 0.22115732909E+02 0.25049666219E+02 0.25038917016E+02
 0.36978759169E+02 0.29815581562E+02 0.21264051062E+02 0.13575838062E+02 0.81704172299E+01
 0.53208623014E+01 0.42379128484E+01 0.36989957811E+01 0.34116496472E+01 0.33577331529E+01
 0.35256029316E+01 0.39346775517E+01 0.46550384913E+01 0.66113026234E+01 0.10782813976E+02
 0.17341193185E+02 0.25501511415E+02 0.33537318127E+02 0.39170569951E+02 0.40492701172E+02
 0.55230445336E+02 0.46376863881E+02 0.34537119990E+02 0.22838820602E+02 0.13575838062E+02
 0.77496994843E+01 0.50636375466E+01 0.41589940506E+01 0.37074691204E+01 0.35567192692E+01
 0.36895154591E+01 0.41181343351E+01 0.49855894515E+01 0.75723148920E+01 0.13176922775E+02
 0.22115732909E+02 0.33537318127E+02 0.45362365966E+02 0.54582328591E+02 0.58309433303E+02
 0.73604443000E+02 0.64268961471E+02 0.49936501370E+02 0.34537119990E+02 0.21264051062E+02
 0.11877665317E+02 0.66931780944E+01 0.47101904871E+01 0.40561129616E+01 0.37699923174E+01
 0.38231138975E+01 0.42185814034E+01 0.51015789474E+01 0.79365455049E+01 0.14392649494E+02
 0.25049666219E+02 0.39170569951E+02 0.54582328591E+02 0.67784144381E+02 0.74923974102E+02
 0.87566589771E+02 0.79470256052E+02 0.64268961471E+02 0.46376863881E+02 0.29815581562E+02
 0.17102645495E+02 0.91727355652E+01 0.55252895514E+01 0.44102533202E+01 0.39728025905E+01
 0.39110578999E+01 0.42223023325E+01 0.49826565958E+01 0.75393646858E+01 0.13907697541E+02
 0.25038917016E+02 0.40492701172E+02 0.58309433303E+02 0.74923974102E+02 0.85852675183E+02
 0.87566589771E+02 0.85852675183E+02 0.74923974102E+02 0.58309433303E+02 0.40492701172E+02
 0.25038917016E+02 0.13907697541E+02 0.75393646858E+01 0.49826565958E+01 0.42223023325E+01
 0.39110578999E+01 0.39728025905E+01 0.44102533202E+01 0.55252895514E+01 0.91727355652E+01
 0.17102645495E+02 0.29815581562E+02 0.46376863881E+02 0.64268961471E+02 0.79470256052E+02
 0.85852675183E+02 0.87560904504E+02 0.79461606723E+02 0.64261430708E+02 0.46372680902E+02
 0.29814203656E+02 0.17102457004E+02 0.91728829942E+01 0.55257414774E+01 0.44108255398E+01
 0.39729459748E+01 0.39106083574E+01 0.42218066813E+01 0.49826547565E+01 0.75397843861E+01
 0.13908451427E+02 0.25040809041E+02 0.40496858841E+02 0.58315373026E+02 0.74928718524E+02
 0.74923974102E+02 0.79461606723E+02 0.74919646949E+02 0.62851595419E+02 0.46984904833E+02
 0.31291252094E+02 0.18585351515E+02 0.10168413440E+02 0.59299822109E+01 0.44977494617E+01
 0.39690997330E+01 0.37949715495E+01 0.39691165620E+01 0.44977570861E+01 0.59298646224E+01
 0.10168235032E+02 0.18585846941E+02 0.31293685038E+02 0.46989862054E+02 0.62857727820E+02
 0.58309433303E+02 0.64261430708E+02 0.62851595419E+02 0.54582498207E+02 0.42149009769E+02
 0.28975295813E+02 0.17800379925E+02 0.10080537811E+02 0.59727135493E+01 0.44658432489E+01
 0.38965610463E+01 0.36442354611E+01 0.36981395450E+01 0.40647994199E+01 0.48058954171E+01
 0.70366204171E+01 0.12367255792E+02 0.21447505449E+02 0.33650844346E+02 0.46987229285E+02
 0.40492701172E+02 0.46372680902E+02 0.46984904833E+02 0.42149009769E+02 0.33539274200E+02
 0.23747381667E+02 0.15096383256E+02 0.89557753493E+01 0.56015518428E+01 0.43083269643E+01
 0.37622199733E+01 0.34778721648E+01 0.34478100001E+01 0.36668548060E+01 0.41567911864E+01
 0.51092049039E+01 0.77751550186E+01 0.13213430201E+02 0.21446779384E+02 0.31291171581E+02
 0.25038917016E+02 0.29814203656E+02 0.31291252094E+02 0.28975295813E+02 0.23747381667E+02
 0.17342714324E+02 0.11487452831E+02 0.72783407151E+01 0.49780734750E+01 0.40580701421E+01
 0.35824172478E+01 0.33119901558E+01 0.32409295068E+01 0.33519621909E+01 0.36704254964E+01
 0.42106596205E+01 0.52386969560E+01 0.77753748049E+01 0.12366977429E+02 0.18584562811E+02
 0.13907697541E+02 0.17102457004E+02 0.18585351515E+02 0.17800379925E+02 0.15096383256E+02
 0.11487452831E+02 0.80928304692E+01 0.56581168526E+01 0.43507050517E+01 0.37665349109E+01
 0.33811323821E+01 0.31579272013E+01 0.30830712520E+01 0.31329719735E+01 0.33188355900E+01
 0.36767189138E+01 0.42110411571E+01 0.51096383976E+01 0.70365984604E+01 0.10167620691E+02
 0.75393646858E+01 0.91728829942E+01 0.10168413440E+02 0.10080537811E+02 0.89557753493E+01
 0.72783407151E+01 0.56581168526E+01 0.45075860906E+01 0.38740327916E+01 0.34736229974E+01
 0.31855894887E+01 0.30239069602E+01 0.29686600035E+01 0.29957276820E+01 0.31040040568E+01
 0.33190759873E+01 0.36707768286E+01 0.41569101961E+01 0.48055717416E+01 0.59292687017E+01
 0.49826565958E+01 0.55257414774E+01 0.59299822109E+01 0.59727135493E+01 0.56015518428E+01
 0.49780734750E+01 0.43507050517E+01 0.38740327916E+01 0.35095325365E+01 0.32171177839E+01
 0.30198913662E+01 0.29172876527E+01 0.28903091462E+01 0.29186731459E+01 0.29958031322E+01
 0.31330866263E+01 0.33519257340E+01 0.36665257271E+01 0.40642801780E+01 0.44973577552E+01
 0.42223023325E+01 0.44108255398E+01 0.44977494617E+01 0.44658432489E+01 0.43083269643E+01
 0.40580701421E+01 0.37665349109E+01 0.34736229974E+01 0.32171177839E+01 0.30224787890E+01
 0.28998206266E+01 0.28453553407E+01 0.28466638622E+01 0.28902781151E+01 0.29686034082E+01
 0.30829265539E+01 0.32406539234E+01 0.34474948036E+01 0.36979952115E+01 0.39693094261E+01
 0.39110578999E+01 0.39729459748E+01 0.39690997330E+01 0.38965610463E+01 0.37622199733E+01
 0.35824172478E+01 0.33811323821E+01 0.31855894887E+01 0.30198913662E+01 0.28998206266E+01
 0.28316825741E+01 0.28148778188E+01 0.28452859385E+01 0.29171646261E+01 0.30237439494E+01
 0.31577595291E+01 0.33119090622E+01 0.34779995863E+01 0.36446229580E+01 0.37955098922E+01
 0.39728025905E+01 0.39106083574E+01 0.37949715495E+01 0.36442354611E+01 0.34778721648E+01
 0.33119901558E+01 0.31579272013E+01 0.30239069602E+01 0.29172876527E+01 0.28453553407E+01
 0.28148778188E+01 0.28316093201E+01 0.28997020612E+01 0.30197833807E+01 0.31855588996E+01
 0.33812430420E+01 0.35827061321E+01 0.37626495384E+01 0.38969849123E+01 0.39693094261E+01
 0.44102533202E+01 0.42218066813E+01 0.39691165620E+01 0.36981395450E+01 0.34478100001E+01
 0.32409295068E+01 0.30830712520E+01 0.29686600035E+01 0.28903091462E+01 0.28466638622E+01
 0.28452859385E+01 0.28997020612E+01 0.30224112999E+01 0.32172064972E+01 0.34738935470E+01
 0.37669175174E+01 0.40584369475E+01 0.43085316767E+01 0.44657635644E+01 0.44973577552E+01
 0.55252895514E+01 0.49826547565E+01 0.44977570861E+01 0.40647994199E+01 0.36668548060E+01
 0.33519621909E+01 0.31329719735E+01 0.29957276820E+01 0.29186731459E+01 0.28902781151E+01
 0.29171646261E+01 0.30197833807E+01 0.32172064972E+01 0.35098751495E+01 0.38744784778E+01
 0.43509988991E+01 0.49780236626E+01 0.56011216104E+01 0.59720222698E+01 0.59292687017E+01
 0.91727355652E+01 0.75397843861E+01 0.59298646224E+01 0.48058954171E+01 0.41567911864E+01
 0.36704254964E+01 0.33188355900E+01 0.31040040568E+01 0.29958031322E+01 0.29686034082E+01
 0.30237439494E+01 0.31855588996E+01 0.34738935470E+01 0.38744784778E+01 0.45078506664E+01
 0.56578778012E+01 0.72775224821E+01 0.89545793553E+01 0.10079342145E+02 0.10167620691E+02
 0.17102645495E+02 0.13908451427E+02 0.10168235032E+02 0.70366204171E+01 0.51092049039E+01
 0.42106596205E+01 0.36767189138E+01 0.33190759873E+01 0.31330866263E+01 0.30829265539E+01
 0.31577595291E+01 0.33812430420E+01 0.37669175174E+01 0.43509988991E+01 0.56578778012E+01
 0.80918262806E+01 0.11485780943E+02 0.15094441976E+02 0.17798752280E+02 0.18584562811E+02
 0.29815581562E+02 0.25040809041E+02 0.18585846941E+02 0.12367255792E+02 0.77751550186E+01
 0.52386969560E+01 0.42110411571E+01 0.36707768286E+01 0.33519257340E+01 0.32406539234E+01
 0.33119090622E+01 0.35827061321E+01 0.40584369475E+01 0.49780236626E+01 0.72775224821E+01
 0.11485780943E+02 0.17340391909E+02 0.23744980987E+02 0.28973695548E+02 0.31291171581E+02
 0.46376863881E+02 0.40496858841E+02 0.31293685038E+02 0.21447505449E+02 0.13213430201E+02
 0.77753748049E+01 0.51096383976E+01 0.41569101961E+01 0.36665257271E+01 0.34474948036E+01
 0.34779995863E+01 0.37626495384E+01 0.43085316767E+01 0.56011216104E+01 0.89545793553E+01
 0.15094441976E+02 0.23744980987E+02 0.33537300532E+02 0.42148789627E+02 0.46987229285E+02
 0.64268961471E+02 0.58315373026E+02 0.46989862054E+02 0.33650844346E+02 0.21446779384E+02
 0.12366977429E+02 0.70365984604E+01 0.48055717416E+01 0.40642801780E+01 0.36979952115E+01
 0.36446229580E+01 0.38969849123E+01 0.44657635644E+01 0.59720222698E+01 0.10079342145E+02
 0.17798752280E+02 0.28973695548E+02 0.42148789627E+02 0.54585300607E+02 0.62857727820E+02
 0.79470256052E+02 0.74928718524E+02 0.62857727820E+02 0.46987229285E+02 0.31291171581E+02
 0.18584562811E+02 0.10167620691E+02 0.59292687017E+01 0.44973577552E+01 0.39693094261E+01
 0.37955098922E+01 0.39693094261E+01 0.44973577552E+01 0.59292687017E+01 0.10167620691E+02
 0.18584562811E+02 0.31291171581E+02 0.46987229285E+02 0.62857727820E+02 0.74928718524E+02
 0.73604443000E+02 0.74923974102E+02 0.67784144381E+02 0.54582328591E+02 0.39170569951E+02
 0.25049666219E+02 0.14392649494E+02 0.79365455049E+01 0.51015789474E+01 0.42185814034E+01
 0.38231138975E+01 0.37699923174E+01 0.40561129616E+01 0.47101904871E+01 0.66931780944E+01
 0.11877665317E+02 0.21264051062E+02 0.34537119990E+02 0.49936501370E+02 0.64268961471E+02
 0.74923974102E+02 0.79461606723E+02 0.74919646949E+02 0.62851595419E+02 0.46984904833E+02
 0.31291252094E+02 0.18585351515E+02 0.10168413440E+02 0.59299822109E+01 0.44977494617E+01
 0.39690997330E+01 0.37949715495E+01 0.39691165620E+01 0.44977570861E+01 0.59298646224E+01
 0.10168235032E+02 0.18585846941E+02 0.31293685038E+02 0.46989862054E+02 0.62857727820E+02
 0.67784144381E+02 0.74919646949E+02 0.73597057965E+02 0.64261661060E+02 0.49931961859E+02
 0.34535826486E+02 0.21264619494E+02 0.11878478233E+02 0.66935462554E+01 0.47102381822E+01
 0.40560948030E+01 0.37699839677E+01 0.38231254353E+01 0.42186191293E+01 0.51016014367E+01
 0.79366532838E+01 0.14393393238E+02 0.25051785596E+02 0.39173966382E+02 0.54585300607E+02
 0.54582328591E+02 0.62851595419E+02 0.64261661060E+02 0.58309846191E+02 0.46987840900E+02
 0.33651786672E+02 0.21448761812E+02 0.12368423569E+02 0.70371471853E+01 0.48056414824E+01
 0.40642643654E+01 0.36979943661E+01 0.36446355923E+01 0.38970203012E+01 0.44657972513E+01
 0.59721029139E+01 0.10079773303E+02 0.17799836829E+02 0.28974995018E+02 0.42148789627E+02
 0.39170569951E+02 0.46984904833E+02 0.49931961859E+02 0.46987840900E+02 0.39175058396E+02
 0.28977926437E+02 0.19094099511E+02 0.11439553757E+02 0.67751133509E+01 0.47178443123E+01
 0.39864309900E+01 0.35869818644E+01 0.34598699200E+01 0.35869907819E+01 0.39864621298E+01
 0.47178296261E+01 0.67747433603E+01 0.11438235663E+02 0.19091275626E+02 0.28973695548E+02
 0.25049666219E+02 0.31291252094E+02 0.34535826486E+02 0.33651786672E+02 0.28977926437E+02
 0.22119257701E+02 0.15097120533E+02 0.94950272185E+01 0.60240107678E+01 0.44594821686E+01
 0.38316247916E+01 0.34482878140E+01 0.32887470951E+01 0.33280566229E+01 0.35758879522E+01
 0.40549948816E+01 0.48995966714E+01 0.70975774142E+01 0.11437968104E+02 0.17798752280E+02
 0.14392649494E+02 0.18585351515E+02 0.21264619494E+02 0.21448761812E+02 0.19094099511E+02
 0.15097120533E+02 0.10783456267E+02 0.72775906092E+01 0.51111186417E+01 0.41222663127E+01
 0.36243708883E+01 0.32956783512E+01 0.31419867774E+01 0.31353938049E+01 0.32715483746E+01
 0.35819303960E+01 0.40798460868E+01 0.48996200094E+01 0.67746542415E+01 0.10079342145E+02
 0.79365455049E+01 0.10168413440E+02 0.11878478233E+02 0.12368423569E+02 0.11439553757E+02
 0.94950272185E+01 0.72775906092E+01 0.54604123267E+01 0.43501681437E+01 0.37879831314E+01
 0.33987198292E+01 0.31448101266E+01 0.30225539587E+01 0.30040292213E+01 0.30761774306E+01
 0.32577729482E+01 0.35819400676E+01 0.40550315217E+01 0.47178460739E+01 0.59720222698E+01
 0.51015789474E+01 0.59299822109E+01 0.66935462554E+01 0.70371471853E+01 0.67751133509E+01
 0.60240107678E+01 0.51111186417E+01 0.43501681437E+01 0.38478090532E+01 0.34736574978E+01
 0.31887583086E+01 0.30115530451E+01 0.29302145534E+01 0.29203337735E+01 0.29669310231E+01
 0.30761749257E+01 0.32715423616E+01 0.35758882238E+01 0.39864565656E+01 0.44657635644E+01
 0.42185814034E+01 0.44977494617E+01 0.47102381822E+01 0.48056414824E+01 0.47178443123E+01
 0.44594821686E+01 0.41222663127E+01 0.37879831314E+01 0.34736574978E+01 0.32097659060E+01
 0.30199129587E+01 0.29090178383E+01 0.28661629859E+01 0.28740969320E+01 0.29203442567E+01
 0.30040362644E+01 0.31353873623E+01 0.33280396320E+01 0.35869662960E+01 0.38969849123E+01
 0.38231138975E+01 0.39690997330E+01 0.40560948030E+01 0.40642643654E+01 0.39864309900E+01
 0.38316247916E+01 0.36243708883E+01 0.33987198292E+01 0.31887583086E+01 0.30199129587E+01
 0.29049548605E+01 0.28453088045E+01 0.28352314994E+01 0.28661718707E+01 0.29302328421E+01
 0.30225666418E+01 0.31419802525E+01 0.32887258496E+01 0.34598494606E+01 0.36446229580E+01
 0.37699923174E+01 0.37949715495E+01 0.37699839677E+01 0.36979943661E+01 0.35869818644E+01
 0.34482878140E+01 0.32956783512E+01 0.31448101266E+01 0.30115530451E+01 0.29090178383E+01
 0.28453088045E+01 0.28238228224E+01 0.28453087373E+01 0.29090273718E+01 0.30115736932E+01
 0.31448268101E+01 0.32956752058E+01 0.34482683723E+01 0.35869662960E+01 0.36979952115E+01
 0.40561129616E+01 0.39691165620E+01 0.38231254353E+01 0.36446355923E+01 0.34598699200E+01
 0.32887470951E+01 0.31419867774E+01 0.30225539587E+01 0.29302145534E+01 0.28661629859E+01
 0.28352314994E+01 0.28453087373E+01 0.29049591629E+01 0.30199436649E+01 0.31888312792E+01
 0.33988207167E+01 0.36244627786E+01 0.38316814423E+01 0.39864565656E+01 0.40642801780E+01
 0.47101904871E+01 0.44977570861E+01 0.42186191293E+01 0.38970203012E+01 0.35869907819E+01
 0.33280566229E+01 0.31353938049E+01 0.30040292213E+01 0.29203337735E+01 0.28740969320E+01
 0.28661718707E+01 0.29090273718E+01 0.30199436649E+01 0.32098760334E+01 0.34738910499E+01
 0.37883033078E+01 0.41225577326E+01 0.44596359118E+01 0.47178460739E+01 0.48055717416E+01
 0.66931780944E+01 0.59298646224E+01 0.51016014367E+01 0.44657972513E+01 0.39864621298E+01
 0.35758879522E+01 0.32715483746E+01 0.30761774306E+01 0.29669310231E+01 0.29203442567E+01
 0.29302328421E+01 0.30115736932E+01 0.31888312792E+01 0.34738910499E+01 0.38482547842E+01
 0.43506935257E+01 0.51114416723E+01 0.60239179127E+01 0.67746542415E+01 0.70365984604E+01
 0.11877665317E+02 0.10168235032E+02 0.79366532838E+01 0.59721029139E+01 0.47178296261E+01
 0.40549948816E+01 0.35819303960E+01 0.32577729482E+01 0.30761749257E+01 0.30040362644E+01
 0.30225666418E+01 0.31448268101E+01 0.33988207167E+01 0.37883033078E+01 0.43506935257E+01
 0.54608115305E+01 0.72773718147E+01 0.94939653972E+01 0.11437968104E+02 0.12366977429E+02
 0.21264051062E+02 0.18585846941E+02 0.14393393238E+02 0.10079773303E+02 0.67747433603E+01
 0.48995966714E+01 0.40798460868E+01 0.35819400676E+01 0.32715423616E+01 0.31353873623E+01
 0.31419802525E+01 0.32956752058E+01 0.36244627786E+01 0.41225577326E+01 0.51114416723E+01
 0.72773718147E+01 0.10782086238E+02 0.15094599905E+02 0.19091275626E+02 0.21446779384E+02
 0.34537119990E+02 0.31293685038E+02 0.25051785596E+02 0.17799836829E+02 0.11438235663E+02
 0.70975774142E+01 0.48996200094E+01 0.40550315217E+01 0.35758882238E+01 0.33280396320E+01
 0.32887258496E+01 0.34482683723E+01 0.38316814423E+01 0.44596359118E+01 0.60239179127E+01
 0.94939653972E+01 0.15094599905E+02 0.22115784958E+02 0.28974995018E+02 0.33650844346E+02
 0.49936501370E+02 0.46989862054E+02 0.39173966382E+02 0.28974995018E+02 0.19091275626E+02
 0.11437968104E+02 0.67746542415E+01 0.47178460739E+01 0.39864565656E+01 0.35869662960E+01
 0.34598494606E+01 0.35869662960E+01 0.39864565656E+01 0.47178460739E+01 0.67746542415E+01
 0.11437968104E+02 0.19091275626E+02 0.28974995018E+02 0.39173966382E+02 0.46989862054E+02
 0.64268961471E+02 0.62857727820E+02 0.54585300607E+02 0.42148789627E+02 0.28973695548E+02
 0.17798752280E+02 0.10079342145E+02 0.59720222698E+01 0.44657635644E+01 0.38969849123E+01
 0.36446229580E+01 0.36979952115E+01 0.40642801780E+01 0.48055717416E+01 0.70365984604E+01
 0.12366977429E+02 0.21446779384E+02 0.33650844346E+02 0.46989862054E+02 0.58315373026E+02
 0.55230445336E+02 0.58309433303E+02 0.54582328591E+02 0.45362365966E+02 0.33537318127E+02
 0.22115732909E+02 0.13176922775E+02 0.75723148920E+01 0.49855894515E+01 0.41181343351E+01
 0.36895154591E+01 0.35567192692E+01 0.37074691204E+01 0.41589940506E+01 0.50636375466E+01
 0.77496994843E+01 0.13575838062E+02 0.22838820602E+02 0.34537119990E+02 0.46376863881E+02
 0.58309433303E+02 0.64261430708E+02 0.62851595419E+02 0.54582498207E+02 0.42149009769E+02
 0.28975295813E+02 0.17800379925E+02 0.10080537811E+02 0.59727135493E+01 0.44658432489E+01
 0.38965610463E+01 0.36442354611E+01 0.36981395450E+01 0.40647994199E+01 0.48058954171E+01
 0.70366204171E+01 0.12367255792E+02 0.21447505449E+02 0.33650844346E+02 0.46987229285E+02
 0.54582328591E+02 0.62851595419E+02 0.64261661060E+02 0.58309846191E+02 0.46987840900E+02
 0.33651786672E+02 0.21448761812E+02 0.12368423569E+02 0.70371471853E+01 0.48056414824E+01
 0.40642643654E+01 0.36979943661E+01 0.36446355923E+01 0.38970203012E+01 0.44657972513E+01
 0.59721029139E+01 0.10079773303E+02 0.17799836829E+02 0.28974995018E+02 0.42148789627E+02
 0.45362365966E+02 0.54582498207E+02 0.58309846191E+02 0.55231197962E+02 0.46378148613E+02
 0.34538978159E+02 0.22840816368E+02 0.13577197700E+02 0.77499623138E+01 0.50631378776E+01
 0.41585624609E+01 0.37076158207E+01 0.35571955075E+01 0.36897138081E+01 0.41178060490E+01
 0.49850485877E+01 0.75719912842E+01 0.13176896824E+02 0.22115784958E+02 0.33537300532E+02
 0.33537318127E+02 0.42149009769E+02 0.46987840900E+02 0.46378148613E+02 0.40498997565E+02
 0.31296340850E+02 0.21449765387E+02 0.13214435106E+02 0.77750957341E+01 0.51089174629E+01
 0.41566429590E+01 0.36668503727E+01 0.34478530957E+01 0.34779061233E+01 0.37622262571E+01
 0.43082561741E+01 0.56012250882E+01 0.89548570017E+01 0.15094599905E+02 0.23744980987E+02
 0.22115732909E+02 0.28975295813E+02 0.33651786672E+02 0.34538978159E+02 0.31296340850E+02
 0.25054444588E+02 0.17801410300E+02 0.11438228973E+02 0.70965715135E+01 0.48987383233E+01
 0.40549076722E+01 0.35762313908E+01 0.33281951632E+01 0.32884855701E+01 0.34480012297E+01
 0.38317696936E+01 0.44600077650E+01 0.60242051742E+01 0.94939653972E+01 0.15094441976E+02
 0.13176922775E+02 0.17800379925E+02 0.21448761812E+02 0.22840816368E+02 0.21449765387E+02
 0.17801410300E+02 0.13177012777E+02 0.89536550058E+01 0.60226922775E+01 0.45217066203E+01
 0.38710361173E+01 0.34453222062E+01 0.32078820791E+01 0.31354522922E+01 0.32078720864E+01
 0.34453561247E+01 0.38713387628E+01 0.45225384511E+01 0.60239179127E+01 0.89545793553E+01
 0.75723148920E+01 0.10080537811E+02 0.12368423569E+02 0.13577197700E+02 0.13214435106E+02
 0.11438228973E+02 0.89536550058E+01 0.66091331322E+01 0.49765481429E+01 0.41220689497E+01
 0.36389728897E+01 0.32925553063E+01 0.30946990122E+01 0.30206908458E+01 0.30461306707E+01
 0.31778128875E+01 0.34472624083E+01 0.38710290547E+01 0.44596359118E+01 0.56011216104E+01
 0.49855894515E+01 0.59727135493E+01 0.70371471853E+01 0.77499623138E+01 0.77750957341E+01
 0.70965715135E+01 0.60226922775E+01 0.49765481429E+01 0.42345770094E+01 0.37665430020E+01
 0.33987963867E+01 0.31410132595E+01 0.29956221219E+01 0.29391238614E+01 0.29485978346E+01
 0.30213565205E+01 0.31776045647E+01 0.34450607318E+01 0.38316814423E+01 0.43085316767E+01
 0.41181343351E+01 0.44658432489E+01 0.48056414824E+01 0.50631378776E+01 0.51089174629E+01
 0.48987383233E+01 0.45217066203E+01 0.41220689497E+01 0.37665430020E+01 0.34438006741E+01
 0.31857208123E+01 0.30115322195E+01 0.29174197426E+01 0.28854166117E+01 0.28978418769E+01
 0.29485470314E+01 0.30460328625E+01 0.32078917268E+01 0.34482683723E+01 0.37626495384E+01
 0.36895154591E+01 0.38965610463E+01 0.40642643654E+01 0.41585624609E+01 0.41566429590E+01
 0.40549076722E+01 0.38710361173E+01 0.36389728897E+01 0.33987963867E+01 0.31857208123E+01
 0.30224887316E+01 0.29172312996E+01 0.28661750580E+01 0.28591114994E+01 0.28854725107E+01
 0.29392000413E+01 0.30208143621E+01 0.31356644914E+01 0.32887258496E+01 0.34779995863E+01
 0.35567192692E+01 0.36442354611E+01 0.36979943661E+01 0.37076158207E+01 0.36668503727E+01
 0.35762313908E+01 0.34453222062E+01 0.32925553063E+01 0.31410132595E+01 0.30115322195E+01
 0.29172312996E+01 0.28626324060E+01 0.28466834643E+01 0.28662512720E+01 0.29175386058E+01
 0.29957454635E+01 0.30947933949E+01 0.32078917268E+01 0.33280396320E+01 0.34474948036E+01
 0.37074691204E+01 0.36981395450E+01 0.36446355923E+01 0.35571955075E+01 0.34478530957E+01
 0.33281951632E+01 0.32078820791E+01 0.30946990122E+01 0.29956221219E+01 0.29174197426E+01
 0.28661750580E+01 0.28466834643E+01 0.28627006479E+01 0.29173122088E+01 0.30115624036E+01
 0.31409572979E+01 0.32924000577E+01 0.34450607318E+01 0.35758882238E+01 0.36665257271E+01
 0.41589940506E+01 0.40647994199E+01 0.38970203012E+01 0.36897138081E+01 0.34779061233E+01
 0.32884855701E+01 0.31354522922E+01 0.30206908458E+01 0.29391238614E+01 0.28854166117E+01
 0.28591114994E+01 0.28662512720E+01 0.29173122088E+01 0.30224612399E+01 0.31855542806E+01
 0.33985825784E+01 0.36388344576E+01 0.38710290547E+01 0.40550315217E+01 0.41569101961E+01
 0.50636375466E+01 0.48058954171E+01 0.44657972513E+01 0.41178060490E+01 0.37622262571E+01
 0.34480012297E+01 0.32078720864E+01 0.30461306707E+01 0.29485978346E+01 0.28978418769E+01
 0.28854725107E+01 0.29175386058E+01 0.30115624036E+01 0.31855542806E+01 0.34435808021E+01
 0.37665856518E+01 0.41225635604E+01 0.45225384511E+01 0.48996200094E+01 0.51096383976E+01
 0.77496994843E+01 0.70366204171E+01 0.59721029139E+01 0.49850485877E+01 0.43082561741E+01
 0.38317696936E+01 0.34453561247E+01 0.31778128875E+01 0.30213565205E+01 0.29485470314E+01
 0.29392000413E+01 0.29957454635E+01 0.31409572979E+01 0.33985825784E+01 0.37665856518E+01
 0.42353167370E+01 0.49779523161E+01 0.60242051742E+01 0.70975774142E+01 0.77753748049E+01
 0.13575838062E+02 0.12367255792E+02 0.10079773303E+02 0.75719912842E+01 0.56012250882E+01
 0.44600077650E+01 0.38713387628E+01 0.34472624083E+01 0.31776045647E+01 0.30460328625E+01
 0.30208143621E+01 0.30947933949E+01 0.32924000577E+01 0.36388344576E+01 0.41225635604E+01
 0.49779523161E+01 0.66109227213E+01 0.89548570017E+01 0.11438235663E+02 0.13213430201E+02
 0.22838820602E+02 0.21447505449E+02 0.17799836829E+02 0.13176896824E+02 0.89548570017E+01
 0.60242051742E+01 0.45225384511E+01 0.38710290547E+01 0.34450607318E+01 0.32078917268E+01
 0.31356644914E+01 0.32078917268E+01 0.34450607318E+01 0.38710290547E+01 0.45225384511E+01
 0.60242051742E+01 0.89548570017E+01 0.13176896824E+02 0.17799836829E+02 0.21447505449E+02
 0.34537119990E+02 0.33650844346E+02 0.28974995018E+02 0.22115784958E+02 0.15094599905E+02
 0.94939653972E+01 0.60239179127E+01 0.44596359118E+01 0.38316814423E+01 0.34482683723E+01
 0.32887258496E+01 0.33280396320E+01 0.35758882238E+01 0.40550315217E+01 0.48996200094E+01
 0.70975774142E+01 0.11438235663E+02 0.17799836829E+02 0.25051785596E+02 0.31293685038E+02
 0.46376863881E+02 0.46987229285E+02 0.42148789627E+02 0.33537300532E+02 0.23744980987E+02
 0.15094441976E+02 0.89545793553E+01 0.56011216104E+01 0.43085316767E+01 0.37626495384E+01
 0.34779995863E+01 0.34474948036E+01 0.36665257271E+01 0.41569101961E+01 0.51096383976E+01
 0.77753748049E+01 0.13213430201E+02 0.21447505449E+02 0.31293685038E+02 0.40496858841E+02
 0.36978759169E+02 0.40492701172E+02 0.39170569951E+02 0.33537318127E+02 0.25501511415E+02
 0.17341193185E+02 0.10782813976E+02 0.66113026234E+01 0.46550384913E+01 0.39346775517E+01
 0.35256029316E+01 0.33577331529E+01 0.34116496472E+01 0.36989957811E+01 0.42379128484E+01
 0.53208623014E+01 0.81704172299E+01 0.13575838062E+02 0.21264051062E+02 0.29815581562E+02
 0.40492701172E+02 0.46372680902E+02 0.46984904833E+02 0.42149009769E+02 0.33539274200E+02
 0.23747381667E+02 0.15096383256E+02 0.89557753493E+01 0.56015518428E+01 0.43083269643E+01