   1   1   1   0
  0.1097600E+02  0.2424871E-09  0.2424871E-09  0.2424871E-09  0.5000000E-15
  1.000000000000000E-004
  CAR 
 bcc Fe                                  
     48.50893057     -4.66885315  301      6.19405156      1.00000000
     -4.669  0.0000E+00  0.0000E+00  0.0000E+00  0.0000E+00
     -4.492  0.0000E+00  0.0000E+00  0.0000E+00  0.0000E+00
     -4.314  0.0000E+00  0.0000E+00  0.0000E+00  0.0000E+00
     -4.137  0.0000E+00  0.0000E+00  0.0000E+00  0.0000E+00
     -3.960 -0.1709E-32  0.0000E+00 -0.3029E-33  0.0000E+00
     -3.783 -0.2623E-26 -0.1888E-33 -0.4649E-27 -0.3346E-34
     -3.605 -0.8255E-21 -0.3648E-27 -0.1463E-21 -0.6466E-28
     -3.428 -0.5119E-16 -0.1446E-21 -0.9074E-17 -0.2563E-22
     -3.251 -0.6657E-12 -0.1171E-16 -0.1180E-12 -0.2076E-17
     -3.074 -0.1716E-08 -0.1857E-12 -0.3043E-09 -0.3292E-13
     -2.896 -0.8596E-06 -0.6058E-09 -0.1527E-06 -0.1074E-09
     -2.719 -0.7796E-04 -0.3861E-06 -0.1397E-04 -0.6855E-07
     -2.542 -0.9300E-03 -0.4528E-04 -0.1788E-03 -0.8096E-05
     -2.364  0.4257E-02 -0.7678E-03  0.5758E-03 -0.1442E-03
     -2.187  0.2166E-01  0.2243E-02  0.4414E-02  0.2535E-03
     -2.010  0.9913E-02  0.2043E-01  0.6172E-02  0.3874E-02
     -1.833  0.2149E-01  0.1186E-01  0.9980E-02  0.5977E-02
     -1.655  0.1897E-01  0.1763E-01  0.1334E-01  0.9102E-02
     -1.478  0.4996E-01  0.2195E-01  0.2220E-01  0.1299E-01
     -1.301  0.8320E-01  0.3388E-01  0.3695E-01  0.1900E-01
     -1.124  0.8442E-02  0.8996E-01  0.3844E-01  0.3495E-01
     -0.946 -0.8257E-02  0.2136E-01  0.3698E-01  0.3873E-01
     -0.769  0.3836E-01 -0.7770E-02  0.4378E-01  0.3735E-01
     -0.592  0.1095E+00  0.1061E-01  0.6319E-01  0.3923E-01
     -0.415  0.6190E-01  0.1015E+00  0.7416E-01  0.5723E-01
     -0.237  0.8741E-01  0.6898E-01  0.8965E-01  0.6946E-01
     -0.060  0.9071E-01  0.7258E-01  0.1057E+00  0.8233E-01
      0.117  0.5967E-01  0.6915E-01  0.1163E+00  0.9459E-01
      0.294 -0.9848E-02  0.8594E-01  0.1146E+00  0.1098E+00
      0.472  0.4048E-01  0.3878E-01  0.1217E+00  0.1167E+00
      0.649  0.2237E+00 -0.1204E-01  0.1614E+00  0.1146E+00
      0.826  0.1740E+00  0.4224E-01  0.1922E+00  0.1220E+00
      1.003  0.2583E+00  0.1890E+00  0.2380E+00  0.1556E+00
      1.181  0.2931E+00  0.1352E+00  0.2900E+00  0.1795E+00
      1.358  0.3128E+00  0.8850E-01  0.3454E+00  0.1952E+00
      1.535  0.7376E+00  0.1753E+00  0.4762E+00  0.2263E+00
      1.712  0.8194E+00  0.1117E+00  0.6214E+00  0.2461E+00
      1.890  0.7785E+00  0.7233E-01  0.7594E+00  0.2589E+00
      2.067  0.9076E+00  0.1533E-01  0.9203E+00  0.2616E+00
      2.244  0.5540E+00  0.1778E+00  0.1019E+01  0.2931E+00
      2.422  0.4272E+00  0.5158E+00  0.1094E+01  0.3846E+00
      2.599  0.5448E+00  0.4113E+00  0.1191E+01  0.4575E+00
      2.776  0.1338E+01  0.2290E+00  0.1428E+01  0.4981E+00
      2.953  0.1423E+01  0.3631E+00  0.1680E+01  0.5624E+00
      3.131  0.7586E+00  0.4079E+00  0.1815E+01  0.6347E+00
      3.308  0.9805E+00  0.4268E+00  0.1988E+01  0.7104E+00
      3.485  0.1628E+01  0.8316E+00  0.2277E+01  0.8578E+00
      3.662  0.1347E+01  0.6361E+00  0.2516E+01  0.9706E+00
      3.840  0.7564E+00  0.2425E+00  0.2650E+01  0.1014E+01
      4.017  0.3478E+00  0.3350E+00  0.2712E+01  0.1073E+01
      4.194  0.5014E+00  0.4412E+00  0.2801E+01  0.1151E+01
      4.371  0.7532E+00  0.8242E+00  0.2934E+01  0.1297E+01
      4.549  0.3611E+00  0.1473E+01  0.2998E+01  0.1558E+01
      4.726  0.5405E+00  0.1126E+01  0.3094E+01  0.1758E+01
      4.903  0.1329E+01  0.9548E+00  0.3330E+01  0.1927E+01
      5.080  0.1688E+01  0.1138E+01  0.3629E+01  0.2129E+01
      5.258  0.2071E+01  0.1121E+01  0.3996E+01  0.2328E+01
      5.435  0.2233E+01  0.1193E+01  0.4392E+01  0.2539E+01
      5.612  0.1372E+01  0.1003E+01  0.4635E+01  0.2717E+01
      5.789  0.6438E+00  0.5277E+00  0.4749E+01  0.2811E+01
      5.967  0.9691E+00  0.7999E-01  0.4921E+01  0.2825E+01
      6.144  0.8424E+00  0.2569E+00  0.5070E+01  0.2870E+01
      6.321  0.5571E+00  0.5696E+00  0.5169E+01  0.2971E+01
      6.498  0.3844E+00  0.2779E+00  0.5237E+01  0.3020E+01
      6.676  0.2781E+00  0.2229E+00  0.5286E+01  0.3060E+01
      6.853  0.2368E+00  0.2421E+00  0.5328E+01  0.3103E+01
      7.030  0.1048E+00  0.6785E+00  0.5347E+01  0.3223E+01
      7.208  0.6550E-01  0.9482E+00  0.5358E+01  0.3391E+01
      7.385  0.1578E+00  0.7605E+00  0.5386E+01  0.3526E+01
      7.562  0.3467E+00  0.1140E+01  0.5448E+01  0.3728E+01
      7.739  0.1543E+00  0.1310E+01  0.5475E+01  0.3960E+01
      7.917  0.8896E-01  0.1359E+01  0.5491E+01  0.4201E+01
      8.094  0.1316E+00  0.2021E+01  0.5514E+01  0.4560E+01
      8.271  0.7052E-01  0.2024E+01  0.5527E+01  0.4918E+01
      8.448 -0.1343E-01  0.1083E+01  0.5524E+01  0.5110E+01
      8.626  0.5674E-01  0.6102E+00  0.5534E+01  0.5219E+01
      8.803  0.2901E+00  0.3586E+00  0.5586E+01  0.5282E+01
      8.980  0.1983E+00  0.3390E+00  0.5621E+01  0.5342E+01
      9.157  0.6714E-01  0.1340E+00  0.5633E+01  0.5366E+01
      9.335  0.1943E+00  0.3119E+00  0.5667E+01  0.5421E+01
      9.512  0.1437E+00  0.2931E+00  0.5693E+01  0.5473E+01
      9.689  0.1090E+00  0.1507E+00  0.5712E+01  0.5500E+01
      9.866  0.3405E-01  0.1228E+00  0.5718E+01  0.5522E+01
     10.044  0.3241E-01  0.7511E-01  0.5724E+01  0.5535E+01
     10.221  0.1708E+00  0.1668E+00  0.5754E+01  0.5565E+01
     10.398  0.1304E+00  0.2285E+00  0.5777E+01  0.5605E+01
     10.575  0.1144E+00  0.1372E+00  0.5798E+01  0.5629E+01
     10.753  0.1769E+00  0.1680E+00  0.5829E+01  0.5659E+01
     10.930  0.8887E-01  0.9832E-01  0.5845E+01  0.5677E+01
     11.107  0.1478E-02  0.1307E+00  0.5845E+01  0.5700E+01
     11.284  0.3825E-01  0.1169E+00  0.5852E+01  0.5720E+01
     11.462  0.1796E-01  0.4730E-01  0.5855E+01  0.5729E+01
     11.639  0.4858E-01  0.2136E+00  0.5864E+01  0.5767E+01
     11.816  0.1685E+00  0.2378E+00  0.5893E+01  0.5809E+01
     11.994  0.8158E-01  0.1695E+00  0.5908E+01  0.5839E+01
     12.171  0.8291E-01  0.3419E-01  0.5923E+01  0.5845E+01
     12.348  0.3415E-01  0.9890E-02  0.5929E+01  0.5847E+01
     12.525 -0.7041E-02  0.4235E-01  0.5927E+01  0.5854E+01
     12.703  0.4881E-01  0.3726E-02  0.5936E+01  0.5855E+01
     12.880  0.8136E-01  0.8805E-01  0.5950E+01  0.5870E+01
     13.057  0.7702E-01  0.1665E+00  0.5964E+01  0.5900E+01
     13.234  0.1183E+00  0.5949E-01  0.5985E+01  0.5911E+01
     13.412  0.4288E-01  0.8365E-01  0.5993E+01  0.5925E+01
     13.589 -0.6728E-02  0.8430E-01  0.5991E+01  0.5940E+01
     13.766  0.4039E-02  0.6249E-01  0.5992E+01  0.5951E+01
     13.943  0.1078E+00  0.3806E-01  0.6011E+01  0.5958E+01
     14.121  0.2048E+00  0.8488E-01  0.6048E+01  0.5973E+01
     14.298  0.1993E+00  0.4587E-01  0.6083E+01  0.5981E+01
     14.475  0.8380E-01  0.5448E-01  0.6098E+01  0.5991E+01
     14.652  0.1720E+00  0.8471E-02  0.6128E+01  0.5992E+01
     14.830  0.3709E+00 -0.3465E-02  0.6194E+01  0.5992E+01
     15.007  0.2723E+00 -0.1211E-01  0.6242E+01  0.5990E+01
     15.184  0.1499E+00  0.5538E-01  0.6269E+01  0.5999E+01
     15.361  0.1903E+00  0.3032E+00  0.6303E+01  0.6053E+01
     15.539  0.2631E+00  0.2100E+00  0.6349E+01  0.6090E+01
     15.716  0.4358E-01  0.1128E+00  0.6357E+01  0.6110E+01
     15.893  0.5453E-02  0.3147E+00  0.6358E+01  0.6166E+01
     16.070  0.1244E+00  0.4320E+00  0.6380E+01  0.6243E+01
     16.248  0.2257E+00  0.2660E+00  0.6420E+01  0.6290E+01
     16.425  0.1941E+00  0.2439E+00  0.6454E+01  0.6333E+01
     16.602  0.1213E+00  0.1356E+00  0.6476E+01  0.6357E+01
     16.780  0.3417E+00  0.2666E-02  0.6536E+01  0.6358E+01
     16.957  0.4353E+00  0.5770E-01  0.6614E+01  0.6368E+01
     17.134  0.1921E+00  0.2248E+00  0.6648E+01  0.6408E+01
     17.311  0.3576E-02  0.2904E+00  0.6648E+01  0.6459E+01
     17.489  0.3674E-01  0.1810E+00  0.6655E+01  0.6491E+01
     17.666  0.1283E+00  0.2657E+00  0.6678E+01  0.6538E+01
     17.843  0.2063E+00  0.3492E+00  0.6714E+01  0.6600E+01
     18.020  0.1443E+00  0.2628E+00  0.6740E+01  0.6647E+01
     18.198  0.2181E+00  0.6345E-01  0.6778E+01  0.6658E+01
     18.375  0.4791E+00  0.7283E-01  0.6863E+01  0.6671E+01
     18.552  0.3431E+00  0.1183E+00  0.6924E+01  0.6692E+01
     18.729  0.8889E-01  0.2323E+00  0.6940E+01  0.6733E+01
     18.907 -0.8129E-02  0.2116E+00  0.6938E+01  0.6771E+01
     19.084 -0.9461E-02  0.3331E+00  0.6937E+01  0.6830E+01
     19.261  0.1369E-01  0.2532E+00  0.6939E+01  0.6875E+01
     19.438  0.1919E+00  0.2623E+00  0.6973E+01  0.6921E+01
     19.616  0.3006E+00  0.1032E+00  0.7026E+01  0.6939E+01
     19.793  0.2623E+00 -0.1125E-01  0.7073E+01  0.6937E+01
     19.970  0.5999E-01  0.1500E-01  0.7084E+01  0.6940E+01
     20.147  0.1809E+00  0.1607E+00  0.7116E+01  0.6969E+01
     20.325  0.2334E+00  0.3353E+00  0.7157E+01  0.7028E+01
     20.502  0.2664E+00  0.2769E+00  0.7204E+01  0.7077E+01
     20.679  0.3147E+00  0.3382E-01  0.7260E+01  0.7083E+01
     20.856  0.2579E+00  0.1383E+00  0.7306E+01  0.7108E+01
     21.034  0.1947E+00  0.2441E+00  0.7340E+01  0.7151E+01
     21.211  0.5814E-01  0.3359E+00  0.7351E+01  0.7210E+01
     21.388 -0.3933E-02  0.3978E+00  0.7350E+01  0.7281E+01
     21.566  0.1511E+00  0.1595E+00  0.7377E+01  0.7309E+01
     21.743  0.2654E+00  0.1265E+00  0.7424E+01  0.7332E+01
     21.920  0.1968E+00  0.8822E-01  0.7459E+01  0.7347E+01
     22.097  0.5720E-01  0.7445E-01  0.7469E+01  0.7360E+01
     22.275  0.4308E-01  0.2031E+00  0.7476E+01  0.7396E+01
     22.452  0.3091E+00  0.2629E+00  0.7531E+01  0.7443E+01
     22.629  0.2431E+00  0.1513E+00  0.7574E+01  0.7470E+01
     22.806  0.3993E-01  0.8498E-02  0.7581E+01  0.7471E+01
     22.984  0.7033E-01  0.1815E+00  0.7594E+01  0.7504E+01
     23.161  0.1797E+00  0.2687E+00  0.7626E+01  0.7551E+01
     23.338  0.1429E+00  0.1146E+00  0.7651E+01  0.7572E+01
     23.515  0.1800E+00  0.3510E-01  0.7683E+01  0.7578E+01
     23.693  0.3299E+00  0.7867E-01  0.7741E+01  0.7592E+01
     23.870  0.3259E+00  0.1432E+00  0.7799E+01  0.7617E+01
     24.047  0.2321E+00  0.3200E+00  0.7840E+01  0.7674E+01
     24.224  0.4254E+00  0.3273E+00  0.7916E+01  0.7732E+01
     24.402  0.2945E+00  0.3234E+00  0.7968E+01  0.7789E+01
     24.579  0.1755E+00  0.2554E+00  0.7999E+01  0.7834E+01
     24.756  0.1469E+00  0.3561E+00  0.8025E+01  0.7898E+01
     24.933  0.2343E+00  0.4246E+00  0.8067E+01  0.7973E+01
     25.111  0.3156E+00  0.2338E+00  0.8123E+01  0.8014E+01
     25.288  0.4242E+00  0.2145E+00  0.8198E+01  0.8052E+01
     25.465  0.2679E+00  0.1481E+00  0.8245E+01  0.8079E+01
     25.642  0.5664E-01  0.2346E+00  0.8255E+01  0.8120E+01
     25.820  0.5942E-01  0.3795E+00  0.8266E+01  0.8187E+01
     25.997  0.1279E+00  0.3592E+00  0.8288E+01  0.8251E+01
     26.174  0.1710E+00  0.1414E+00  0.8319E+01  0.8276E+01
     26.352  0.3464E+00  0.2324E-01  0.8380E+01  0.8280E+01
     26.529  0.2613E+00  0.5320E-01  0.8426E+01  0.8290E+01
     26.706  0.2813E+00  0.1401E+00  0.8476E+01  0.8315E+01
     26.883  0.2944E+00  0.3659E+00  0.8529E+01  0.8379E+01
     27.061  0.1974E+00  0.3805E+00  0.8564E+01  0.8447E+01
     27.238  0.4401E+00  0.3367E+00  0.8642E+01  0.8507E+01
     27.415  0.3312E+00  0.2663E+00  0.8700E+01  0.8554E+01
     27.592  0.2368E+00  0.2453E+00  0.8742E+01  0.8597E+01
     27.770  0.2579E+00  0.4996E+00  0.8788E+01  0.8686E+01
     27.947  0.2857E+00  0.2469E+00  0.8839E+01  0.8730E+01
     28.124  0.8331E-01  0.1196E+00  0.8853E+01  0.8751E+01
     28.301 -0.5669E-02  0.2291E+00  0.8852E+01  0.8791E+01
     28.479  0.8745E-01  0.1877E+00  0.8868E+01  0.8825E+01
     28.656  0.1372E+00  0.1212E+00  0.8892E+01  0.8846E+01
     28.833  0.1885E+00  0.3638E-01  0.8926E+01  0.8853E+01
     29.010  0.3436E+00  0.9447E-01  0.8986E+01  0.8869E+01
     29.188  0.2673E+00  0.2416E+00  0.9034E+01  0.8912E+01
     29.365  0.1131E+00  0.3130E+00  0.9054E+01  0.8968E+01
     29.542  0.2310E-01  0.2874E+00  0.9058E+01  0.9019E+01
     29.719  0.8204E-01  0.1102E+00  0.9073E+01  0.9038E+01
     29.897  0.1730E+00  0.1447E+00  0.9103E+01  0.9064E+01
     30.074  0.5165E-01  0.1027E+00  0.9112E+01  0.9082E+01
     30.251  0.2063E+00  0.1016E+00  0.9149E+01  0.9100E+01
     30.428  0.3309E+00  0.3615E-01  0.9208E+01  0.9106E+01
     30.606  0.1679E+00  0.1314E+00  0.9237E+01  0.9130E+01
     30.783  0.1403E+00  0.3820E+00  0.9262E+01  0.9197E+01
     30.960  0.2481E-01  0.2298E+00  0.9267E+01  0.9238E+01
     31.138  0.1840E+00  0.8191E-01  0.9299E+01  0.9253E+01
     31.315  0.2523E+00  0.1629E+00  0.9344E+01  0.9281E+01
     31.492  0.2765E+00  0.1022E+00  0.9393E+01  0.9300E+01
     31.669  0.5160E+00  0.5445E-01  0.9484E+01  0.9309E+01
     31.847  0.6186E+00  0.2197E+00  0.9594E+01  0.9348E+01
     32.024  0.2836E+00  0.3992E+00  0.9644E+01  0.9419E+01
     32.201  0.1751E+00  0.8538E+00  0.9675E+01  0.9570E+01
     32.378  0.7451E-01  0.6015E+00  0.9689E+01  0.9677E+01
     32.556  0.1782E+00  0.1800E+00  0.9720E+01  0.9709E+01
     32.733  0.1697E+00 -0.9953E-02  0.9750E+01  0.9707E+01
     32.910  0.8782E-01 -0.9770E-02  0.9766E+01  0.9705E+01
     33.087  0.7018E-01  0.1272E-01  0.9778E+01  0.9708E+01
     33.265  0.5258E-01  0.8320E-01  0.9788E+01  0.9722E+01
     33.442  0.3083E-01  0.1807E+00  0.9793E+01  0.9754E+01
     33.619  0.6156E-02  0.2245E+00  0.9794E+01  0.9794E+01
     33.796  0.2162E+00  0.9852E-01  0.9832E+01  0.9812E+01
     33.974  0.3563E+00  0.3594E-01  0.9896E+01  0.9818E+01
     34.151  0.3246E+00  0.2749E+00  0.9953E+01  0.9867E+01
     34.328  0.2119E+00  0.4461E+00  0.9991E+01  0.9946E+01
     34.505  0.4102E+00  0.1002E+00  0.1006E+02  0.9964E+01
     34.683  0.2379E+00 -0.5442E-02  0.1011E+02  0.9963E+01
     34.860  0.3140E+00  0.2121E+00  0.1016E+02  0.1000E+02
     35.037  0.7297E+00  0.3301E+00  0.1029E+02  0.1006E+02
     35.214  0.3660E+00  0.3401E+00  0.1036E+02  0.1012E+02
     35.392  0.1092E+00  0.5080E+00  0.1037E+02  0.1021E+02
     35.569  0.1644E+00  0.6074E+00  0.1040E+02  0.1032E+02
     35.746  0.9248E-01  0.2813E+00  0.1042E+02  0.1037E+02
     35.924  0.2200E+00  0.6323E-01  0.1046E+02  0.1038E+02
     36.101  0.4224E+00  0.1698E+00  0.1053E+02  0.1041E+02
     36.278  0.3050E+00  0.1668E+00  0.1059E+02  0.1044E+02
     36.455  0.1219E+00  0.3649E+00  0.1061E+02  0.1050E+02
     36.633  0.1937E+00  0.3899E+00  0.1064E+02  0.1057E+02
     36.810  0.1426E+00  0.1888E+00  0.1067E+02  0.1060E+02
     36.987  0.2555E-01  0.1778E+00  0.1067E+02  0.1064E+02
     37.164  0.1369E+00  0.9657E-01  0.1070E+02  0.1065E+02
     37.342  0.2632E+00  0.1611E+00  0.1074E+02  0.1068E+02
     37.519  0.2148E+00  0.1187E+00  0.1078E+02  0.1070E+02
     37.696  0.1809E+00  0.1606E+00  0.1082E+02  0.1073E+02
     37.873  0.3942E+00  0.3082E+00  0.1088E+02  0.1079E+02
     38.051  0.2937E+00  0.1421E+00  0.1094E+02  0.1081E+02
     38.228  0.1854E+00  0.2635E+00  0.1097E+02  0.1086E+02
     38.405  0.3965E+00  0.4013E+00  0.1104E+02  0.1093E+02
     38.582  0.5167E+00  0.2720E+00  0.1113E+02  0.1098E+02
     38.760  0.3927E+00  0.3970E+00  0.1120E+02  0.1105E+02
     38.937  0.1691E+00  0.2925E+00  0.1123E+02  0.1110E+02
     39.114  0.6571E-01  0.1914E+00  0.1124E+02  0.1113E+02
     39.291  0.5631E-01  0.1819E+00  0.1125E+02  0.1117E+02
     39.469  0.1809E+00  0.2736E+00  0.1129E+02  0.1121E+02
     39.646  0.4165E+00  0.2970E+00  0.1136E+02  0.1127E+02
     39.823  0.3524E+00  0.2090E+00  0.1142E+02  0.1130E+02
     40.000  0.3119E+00  0.2114E+00  0.1148E+02  0.1134E+02
     40.178  0.1112E+00  0.2277E+00  0.1150E+02  0.1138E+02
     40.355  0.2270E+00  0.1964E+00  0.1154E+02  0.1142E+02
     40.532  0.3535E+00  0.2760E+00  0.1160E+02  0.1147E+02
     40.710  0.9707E-01  0.5079E+00  0.1162E+02  0.1156E+02
     40.887  0.5686E-01  0.3310E+00  0.1163E+02  0.1161E+02
     41.064  0.7881E-01  0.1081E-01  0.1164E+02  0.1162E+02
     41.241  0.1819E-01  0.7394E-01  0.1164E+02  0.1163E+02
     41.419  0.9837E-01  0.7125E-01  0.1166E+02  0.1164E+02
     41.596  0.1454E+00  0.3877E-01  0.1169E+02  0.1165E+02
     41.773  0.1735E+00  0.1595E+00  0.1172E+02  0.1168E+02
     41.950  0.2807E+00  0.1352E+00  0.1177E+02  0.1170E+02
     42.128  0.9191E-01  0.4389E-01  0.1178E+02  0.1171E+02
     42.305  0.3041E-01  0.9134E-01  0.1179E+02  0.1172E+02
     42.482  0.8648E-01  0.1630E+00  0.1180E+02  0.1175E+02
     42.659  0.7576E-01  0.2395E+00  0.1182E+02  0.1180E+02
     42.837  0.1054E+00  0.6011E-01  0.1184E+02  0.1181E+02
     43.014  0.3428E-01  0.1187E-01  0.1184E+02  0.1181E+02
     43.191  0.1474E+00  0.1681E+00  0.1187E+02  0.1184E+02
     43.368  0.1999E+00  0.1903E+00  0.1190E+02  0.1187E+02
     43.546  0.2834E-01  0.5154E-01  0.1191E+02  0.1188E+02
     43.723 -0.5638E-02  0.1012E+00  0.1191E+02  0.1190E+02
     43.900  0.2474E-01  0.5280E-01  0.1191E+02  0.1191E+02
     44.077  0.1531E-01 -0.4278E-02  0.1192E+02  0.1191E+02
     44.255  0.3018E-01  0.2155E-01  0.1192E+02  0.1191E+02
     44.432  0.8737E-01  0.2234E-01  0.1194E+02  0.1192E+02
     44.609  0.7253E-01 -0.6137E-02  0.1195E+02  0.1191E+02
     44.786  0.7930E-01  0.3794E-01  0.1196E+02  0.1192E+02
     44.964  0.8286E-02  0.1656E+00  0.1196E+02  0.1195E+02
     45.141 -0.3042E-02  0.8088E-01  0.1196E+02  0.1197E+02
     45.318 -0.2590E-03 -0.5527E-02  0.1196E+02  0.1196E+02
     45.496 -0.1636E-02 -0.1188E-02  0.1196E+02  0.1196E+02
     45.673  0.2241E-03  0.1770E-01  0.1196E+02  0.1197E+02
     45.850  0.5237E-01  0.1061E-01  0.1197E+02  0.1197E+02
     46.027  0.1145E+00  0.4787E-01  0.1199E+02  0.1198E+02
     46.205  0.4310E-01  0.1110E+00  0.1200E+02  0.1200E+02
     46.382 -0.4366E-02  0.2063E-01  0.1200E+02  0.1200E+02
     46.559 -0.9860E-03 -0.4596E-02  0.1200E+02  0.1200E+02
     46.736 -0.2021E-04 -0.3764E-03  0.1200E+02  0.1200E+02
     46.914 -0.7186E-07 -0.4087E-05  0.1200E+02  0.1200E+02
     47.091 -0.4899E-10 -0.8052E-08  0.1200E+02  0.1200E+02
     47.268 -0.6644E-14 -0.3087E-11  0.1200E+02  0.1200E+02
     47.445  0.0000E+00 -0.2405E-15  0.1200E+02  0.1200E+02
     47.623  0.0000E+00  0.0000E+00  0.1200E+02  0.1200E+02
     47.800  0.0000E+00  0.0000E+00  0.1200E+02  0.1200E+02
     47.977  0.0000E+00  0.0000E+00  0.1200E+02  0.1200E+02
     48.154  0.0000E+00  0.0000E+00  0.1200E+02  0.1200E+02
     48.332  0.0000E+00  0.0000E+00  0.1200E+02  0.1200E+02
     48.509  0.0000E+00  0.0000E+00  0.1200E+02  0.1200E+02
     48.50893057     -4.66885315  301      6.19405156      1.00000000
     -4.669  0.0000E+00  0.0000E+00  0.0000E+00  0.0000E+00  0.0000E+00  0.0000E+00
     -4.492  0.0000E+00  0.0000E+00  0.0000E+00  0.0000E+00  0.0000E+00  0.0000E+00
     -4.314  0.0000E+00  0.0000E+00  0.0000E+00  0.0000E+00  0.0000E+00  0.0000E+00
     -4.137  0.0000E+00  0.0000E+00  0.0000E+00  0.0000E+00  0.0000E+00  0.0000E+00
     -3.960 -0.1072E-32  0.0000E+00 -0.2212E-34  0.0000E+00 -0.4295E-36  0.0000E+00
     -3.783 -0.1646E-26 -0.1165E-33 -0.3395E-28 -0.2451E-35 -0.6593E-30 -0.3329E-37
     -3.605 -0.5181E-21 -0.2252E-27 -0.1068E-22 -0.4736E-29 -0.2075E-24 -0.6432E-31
     -3.428 -0.3213E-16 -0.8925E-22 -0.6626E-18 -0.1877E-23 -0.1287E-19 -0.2549E-25
     -3.251 -0.4179E-12 -0.7231E-17 -0.8617E-14 -0.1521E-18 -0.1674E-15 -0.2065E-20
     -3.074 -0.1077E-08 -0.1146E-12 -0.2221E-10 -0.2411E-14 -0.4314E-12 -0.3275E-16
     -2.896 -0.5395E-06 -0.3739E-09 -0.1113E-07 -0.7865E-11 -0.2161E-09 -0.1068E-12
     -2.719 -0.4894E-04 -0.2383E-06 -0.1009E-05 -0.5013E-08 -0.1960E-07 -0.6808E-10
     -2.542 -0.5837E-03 -0.2795E-04 -0.1204E-04 -0.5879E-06 -0.2343E-06 -0.7985E-08
     -2.364  0.2673E-02 -0.4739E-03  0.5444E-04 -0.9969E-05  0.9947E-06 -0.1355E-06
     -2.187  0.1361E-01  0.1385E-02  0.2631E-03  0.2880E-04  0.3497E-05  0.3700E-06
     -2.010  0.6210E-02  0.1262E-01  0.1400E-03  0.2534E-03  0.3726E-05  0.2678E-05
     -1.833  0.1295E-01  0.7341E-02  0.7943E-03  0.1367E-03  0.5982E-04  0.7128E-06
     -1.655  0.1151E-01  0.1044E-01  0.6369E-03  0.6631E-03  0.3871E-04  0.3602E-04
     -1.478  0.2876E-01  0.1310E-01  0.2994E-02  0.7319E-03  0.4418E-03  0.3110E-04
     -1.301  0.4789E-01  0.1925E-01  0.5003E-02  0.2012E-02  0.7399E-03  0.1906E-03
     -1.124  0.4900E-02  0.5096E-01  0.4775E-03  0.5477E-02  0.5733E-04  0.5277E-03
     -0.946 -0.4475E-02  0.1211E-01 -0.6929E-03  0.1287E-02 -0.1905E-03  0.1214E-03
     -0.769  0.2003E-01 -0.4212E-02  0.3755E-02 -0.6255E-03  0.1206E-02 -0.1000E-03
     -0.592  0.5727E-01  0.5467E-02  0.1068E-01  0.1083E-02  0.3371E-02  0.2196E-03
     -0.415  0.3133E-01  0.5253E-01  0.6672E-02  0.1021E-01  0.2459E-02  0.2013E-02
     -0.237  0.4270E-01  0.3548E-01  0.1018E-01  0.7086E-02  0.4563E-02  0.1434E-02
     -0.060  0.4199E-01  0.3555E-01  0.1055E-01  0.8746E-02  0.8038E-02  0.2157E-02
      0.117  0.2715E-01  0.3346E-01  0.6914E-02  0.8435E-02  0.5982E-02  0.2489E-02
      0.294 -0.3923E-02  0.3982E-01 -0.1411E-02  0.1100E-01 -0.1385E-02  0.4838E-02
      0.472  0.1610E-01  0.1800E-01  0.6331E-02  0.4936E-02  0.4912E-02  0.2175E-02
      0.649  0.8786E-01 -0.5160E-02  0.3222E-01 -0.1833E-02  0.3304E-01 -0.8412E-03
      0.826  0.6417E-01  0.1742E-01  0.2294E-01  0.7029E-02  0.3476E-01  0.3032E-02
      1.003  0.7595E-01  0.7776E-01  0.2804E-01  0.3092E-01  0.8690E-01  0.1470E-01
      1.181  0.5757E-01  0.5406E-01  0.1564E-01  0.2086E-01  0.1609E+00  0.1461E-01
      1.358  0.3389E-01  0.3279E-01  0.8784E-02  0.1380E-01  0.2197E+00  0.1291E-01
      1.535  0.9065E-01  0.6280E-01  0.4437E-01  0.2918E-01  0.4701E+00  0.2574E-01
      1.712  0.9157E-01  0.3698E-01  0.4993E-01  0.1594E-01  0.5358E+00  0.2432E-01
      1.890  0.5731E-01  0.2143E-01  0.5048E-01  0.8221E-02  0.5434E+00  0.2219E-01
      2.067  0.4921E-01  0.5330E-02  0.5343E-01  0.3999E-02  0.6671E+00  0.1661E-03
      2.244  0.2698E-01  0.4457E-01  0.2642E-01  0.2763E-01  0.4291E+00  0.5468E-01
      2.422  0.1132E-01  0.1209E+00  0.2636E-01  0.6550E-01  0.3335E+00  0.1932E+00
      2.599  0.3920E-02  0.8574E-01  0.2153E-01  0.4072E-01  0.4645E+00  0.1857E+00
      2.776  0.3324E-02  0.4062E-01  0.5476E-01  0.1968E-01  0.1162E+01  0.1174E+00
      2.953  0.1848E-02  0.4887E-01  0.5523E-01  0.2789E-01  0.1244E+01  0.2114E+00
      3.131  0.1215E-02  0.4427E-01  0.1933E-01  0.3408E-01  0.6818E+00  0.2449E+00
      3.308  0.1343E-01  0.3201E-01  0.6419E-01  0.4052E-01  0.8089E+00  0.2647E+00
      3.485  0.2529E-01  0.5649E-01  0.1192E+00  0.6815E-01  0.1322E+01  0.5480E+00
      3.662  0.1445E-01  0.3575E-01  0.6473E-01  0.4592E-01  0.1161E+01  0.4401E+00
      3.840  0.5613E-02  0.4090E-02  0.3514E-01  0.1429E-01  0.6619E+00  0.1844E+00
      4.017  0.5033E-02  0.5270E-02  0.3446E-01  0.2409E-01  0.2711E+00  0.2491E+00
      4.194  0.8824E-02  0.3818E-02  0.6415E-01  0.3428E-01  0.3666E+00  0.3367E+00
      4.371  0.5938E-02  0.9003E-03  0.3776E-01  0.5894E-01  0.6576E+00  0.6665E+00
      4.549  0.1870E-02  0.3793E-02  0.5818E-02  0.1042E+00  0.3362E+00  0.1181E+01
      4.726  0.7223E-02  0.4112E-02  0.2857E-01  0.7833E-01  0.4665E+00  0.9110E+00
      4.903  0.1081E-01  0.3643E-02  0.3407E-01  0.7957E-01  0.1219E+01  0.7610E+00
      5.080  0.6676E-02  0.4877E-02  0.1488E-01  0.9025E-01  0.1612E+01  0.9072E+00
      5.258  0.4668E-02  0.8715E-02  0.1172E-01  0.8746E-01  0.2002E+01  0.8977E+00
      5.435  0.7037E-02  0.8931E-02  0.2052E-01  0.1227E+00  0.2151E+01  0.9159E+00
      5.612  0.1031E-01  0.5725E-02  0.2903E-01  0.9089E-01  0.1290E+01  0.7954E+00
      5.789  0.1024E-01  0.3340E-02  0.1557E-01  0.5345E-01  0.5965E+00  0.4131E+00
      5.967  0.1476E-01  0.3716E-03  0.2444E-01  0.3616E-02  0.8979E+00  0.7110E-01
      6.144  0.1279E-01  0.1776E-02  0.2266E-01  0.1360E-01  0.7780E+00  0.2217E+00
      6.321  0.1265E-02  0.4586E-02  0.7865E-02  0.5981E-01  0.5362E+00  0.4439E+00
      6.498  0.1147E-02  0.1221E-02  0.6161E-03  0.3595E-01  0.3779E+00  0.2063E+00
      6.676  0.1613E-01  0.1296E-04  0.1760E-01  0.4756E-02  0.2270E+00  0.2029E+00
      6.853  0.2208E-01  0.1779E-02  0.5362E-01  0.4021E-02  0.1207E+00  0.2226E+00
      7.030  0.4762E-02  0.3758E-02  0.3051E-01  0.9998E-02  0.4853E-01  0.6319E+00
      7.208  0.1655E-02  0.3487E-02  0.8264E-02  0.1053E-01  0.4908E-01  0.8885E+00
      7.385  0.9567E-02  0.1524E-02  0.1974E-01  0.9195E-02  0.1118E+00  0.7141E+00
      7.562  0.2269E-01  0.3477E-02  0.5400E-01  0.1155E-01  0.2273E+00  0.1078E+01
      7.739  0.1157E-01  0.3910E-02  0.2757E-01  0.9707E-02  0.9391E-01  0.1249E+01
      7.917  0.7974E-02  0.1899E-02  0.1658E-01  0.7874E-02  0.5141E-01  0.1310E+01
      8.094  0.1519E-01  0.4222E-02  0.3245E-01  0.1106E-01  0.5941E-01  0.1956E+01
      8.271  0.1065E-01  0.9672E-02  0.1632E-01  0.1238E-01  0.3053E-01  0.1956E+01
      8.448 -0.1149E-02  0.1116E-01 -0.4089E-02  0.1880E-01 -0.5435E-02  0.1022E+01
      8.626  0.3819E-02  0.2838E-02  0.2062E-01  0.1504E-01  0.1947E-01  0.5749E+00
      8.803  0.2428E-01  0.5118E-02  0.9291E-01  0.6086E-02  0.1118E+00  0.3387E+00
      8.980  0.1445E-01  0.1482E-01  0.6460E-01  0.1510E-01  0.7699E-01  0.2930E+00
      9.157  0.1705E-02  0.4968E-02  0.2080E-01  0.9188E-02  0.3045E-01  0.1115E+00
      9.335  0.8566E-02  0.9082E-02  0.5441E-01  0.3024E-01  0.9251E-01  0.2487E+00
      9.512  0.1071E-01  0.8295E-02  0.3296E-01  0.3020E-01  0.7406E-01  0.2313E+00
      9.689  0.9696E-02  0.7938E-02  0.2369E-01  0.1829E-01  0.5638E-01  0.1102E+00
      9.866  0.3423E-02  0.1435E-01  0.7530E-02  0.1582E-01  0.1693E-01  0.7885E-01
     10.044  0.4614E-02  0.5134E-02  0.1042E-01  0.1786E-01  0.9892E-02  0.4073E-01
     10.221  0.1106E-01  0.3598E-02  0.5493E-01  0.4275E-01  0.6791E-01  0.9502E-01
     10.398  0.1051E-01  0.1466E-01  0.4168E-01  0.4788E-01  0.4987E-01  0.1345E+00
     10.575  0.1598E-01  0.9589E-02  0.3919E-01  0.2633E-01  0.3264E-01  0.8278E-01
     10.753  0.1120E-01  0.2830E-02  0.7213E-01  0.3313E-01  0.5038E-01  0.1083E+00
     10.930  0.1572E-02  0.2767E-02  0.3951E-01  0.1768E-01  0.2550E-01  0.6458E-01
     11.107 -0.4213E-03  0.7949E-02  0.5837E-03  0.2104E-01  0.8845E-03  0.8443E-01
     11.284 -0.9940E-04  0.9075E-02  0.1377E-01  0.2104E-01  0.1490E-01  0.6985E-01
     11.462 -0.2643E-03  0.2515E-02  0.6503E-02  0.1093E-01  0.7120E-02  0.2631E-01
     11.639  0.2746E-02  0.1201E-01  0.1806E-01  0.5431E-01  0.1624E-01  0.1113E+00
     11.816  0.5780E-02  0.1853E-01  0.6311E-01  0.6966E-01  0.5852E-01  0.1051E+00
     11.994  0.2131E-02  0.6863E-02  0.2924E-01  0.6049E-01  0.2999E-01  0.6780E-01
     12.171  0.5376E-02 -0.2540E-03  0.2439E-01  0.1331E-01  0.3305E-01  0.1419E-01
     12.348  0.2154E-02 -0.2096E-03  0.9987E-02  0.2310E-02  0.1377E-01  0.5714E-02
     12.525 -0.5657E-03 -0.8170E-04 -0.2504E-02  0.1187E-01 -0.2173E-02  0.2181E-01
     12.703  0.5487E-02 -0.1368E-03  0.2092E-01  0.8935E-03  0.9026E-02  0.2188E-02
     12.880  0.8901E-02  0.2960E-02  0.3498E-01  0.2753E-01  0.1523E-01  0.3991E-01
     13.057  0.8969E-03  0.4236E-02  0.3717E-01  0.5179E-01  0.1828E-01  0.7672E-01
     13.234 -0.3231E-03  0.1936E-02  0.5360E-01  0.1588E-01  0.3388E-01  0.2945E-01
     13.412 -0.9891E-04  0.4228E-02  0.1722E-01  0.2035E-01  0.1472E-01  0.4164E-01
     13.589 -0.1476E-02  0.7637E-02 -0.1437E-02  0.3150E-01 -0.2360E-02  0.2417E-01
     13.766  0.2499E-02  0.6870E-02 -0.9093E-03  0.2591E-01  0.2000E-02  0.1322E-01
     13.943  0.4141E-01  0.1216E-03  0.2328E-02  0.1742E-01  0.4487E-01  0.1123E-01
     14.121  0.6184E-01 -0.2113E-03  0.2266E-01  0.3906E-01  0.7762E-01  0.2541E-01
     14.298  0.5395E-01 -0.8046E-05  0.2993E-01  0.1759E-01  0.7071E-01  0.1779E-01
     14.475  0.2872E-01 -0.5776E-07  0.5517E-02  0.1815E-01  0.3292E-01  0.2441E-01
     14.652  0.5381E-01 -0.3989E-05  0.1887E-01  0.2856E-02  0.6282E-01  0.3758E-02
     14.830  0.1023E+00 -0.3115E-03  0.6026E-01 -0.8936E-03  0.1236E+00 -0.1536E-02
     15.007  0.5757E-01 -0.3275E-02  0.6137E-01 -0.1160E-02  0.8650E-01 -0.5418E-02
     15.184  0.2066E-01  0.1484E-01  0.4263E-01  0.4795E-02  0.4749E-01  0.2561E-01
     15.361  0.1139E-01  0.8391E-01  0.7318E-01  0.2818E-01  0.5444E-01  0.1345E+00
     15.539  0.1629E-01  0.5522E-01  0.9913E-01  0.2904E-01  0.7400E-01  0.8303E-01
     15.716 -0.4836E-03  0.2510E-01  0.1728E-01  0.2612E-01  0.1351E-01  0.3584E-01
     15.893  0.5339E-02  0.8510E-01 -0.2552E-02  0.3906E-01  0.1763E-02  0.1272E+00
     16.070  0.4058E-01  0.9410E-01  0.1403E-01  0.7669E-01  0.3954E-01  0.1669E+00
     16.248  0.5569E-01  0.3766E-01  0.4224E-01  0.6876E-01  0.7067E-01  0.9706E-01
     16.425  0.3343E-01  0.1709E-01  0.6035E-01  0.7497E-01  0.4766E-01  0.9158E-01
     16.602  0.1375E-01  0.9180E-02  0.4709E-01  0.3999E-01  0.2440E-01  0.5167E-01
     16.780  0.6861E-01  0.1573E-02  0.9254E-01  0.1574E-02  0.8049E-01 -0.1997E-02
     16.957  0.8407E-01  0.1804E-01  0.1135E+00  0.1461E-01  0.1137E+00  0.8574E-02
     17.134  0.4583E-01  0.3773E-01  0.4134E-01  0.7102E-01  0.5073E-01  0.5526E-01
     17.311  0.5028E-02  0.5079E-01 -0.2243E-02  0.7409E-01 -0.3453E-03  0.9252E-01
     17.489  0.8168E-02  0.4522E-01  0.1401E-01  0.2886E-01  0.4027E-02  0.6218E-01
     17.666  0.1863E-01  0.6225E-01  0.4888E-01  0.5139E-01  0.2360E-01  0.7734E-01
     17.843  0.3736E-01  0.6821E-01  0.6050E-01  0.7374E-01  0.4920E-01  0.1115E+00
     18.020  0.3134E-01  0.5387E-01  0.3097E-01  0.5525E-01  0.4110E-01  0.8381E-01
     18.198  0.3350E-01  0.1213E-01  0.7761E-01  0.2112E-01  0.3996E-01  0.1235E-01
     18.375  0.7454E-01  0.1194E-01  0.1530E+00  0.2791E-01  0.1043E+00  0.1193E-01
     18.552  0.4054E-01  0.1769E-01  0.9410E-01  0.3833E-01  0.1038E+00  0.2890E-01
     18.729  0.2355E-02  0.2917E-01  0.2613E-01  0.8716E-01  0.3277E-01  0.4806E-01
     18.907 -0.1358E-02  0.3182E-01 -0.2016E-02  0.6625E-01 -0.2317E-02  0.5153E-01
     19.084 -0.8818E-03  0.6685E-01 -0.2847E-02  0.8286E-01 -0.2650E-02  0.8422E-01
     19.261  0.1470E-03  0.3957E-01  0.3437E-02  0.5916E-01  0.4612E-02  0.7835E-01
     19.438  0.2451E-01  0.2558E-01  0.5881E-01  0.6280E-01  0.4678E-01  0.9720E-01
     19.616  0.3987E-01  0.4834E-02  0.1017E+00  0.2810E-01  0.6395E-01  0.4016E-01