PROCAR new format
# of k-points:   44         # of bands:   12         # of ions:    1

 k-point     1 :    0.05000000 0.05000000 0.05000000     weight = 0.00800000

band     1 # energy   -1.83733090 # occ.  1.00000000
 
ion      s      p      d    tot
    1  0.602  0.037  0.003  0.642
 
band     2 # energy    3.66588838 # occ.  1.00000000
 
ion      s      p      d    tot
    1  0.000  0.002  0.966  0.968
 
band     3 # energy    3.66588838 # occ.  1.00000000
 
ion      s      p      d    tot
    1  0.000  0.002  0.966  0.968
 
band     4 # energy    4.21058293 # occ.  1.00000000
 
ion      s      p      d    tot
    1  0.001  0.006  0.967  0.973
 
band     5 # energy    5.08112044 # occ.  1.00000000
 
ion      s      p      d    tot
    1  0.000  0.000  0.968  0.968
 
band     6 # energy    5.08112044 # occ.  1.00000000
 
ion      s      p      d    tot
    1  0.000  0.000  0.968  0.968
 
band     7 # energy   29.03998091 # occ.  0.00000000
 
ion      s      p      d    tot
    1  0.000  0.062  0.223  0.284
 
band     8 # energy   29.03998091 # occ.  0.00000000
 
ion      s      p      d    tot
    1  0.000  0.062  0.223  0.284
 
band     9 # energy   32.10830734 # occ.  0.00000000
 
ion      s      p      d    tot
    1  0.000  0.000  0.000  0.000
 
band    10 # energy   33.87067265 # occ.  0.00000000
 
ion      s      p      d    tot
    1  0.052  0.485  0.275  0.811
 
band    11 # energy   37.36619458 # occ.  0.00000000
 
ion      s      p      d    tot
    1  0.000  0.305  0.065  0.370
 
band    12 # energy   37.36619519 # occ.  0.00000000
 
ion      s      p      d    tot
    1  0.000  0.305  0.065  0.370
 

 k-point     2 :    0.15000000 0.05000000 0.05000000     weight = 0.02400000

band     1 # energy   -0.69348515 # occ.  1.00000000
 
ion      s      p      d    tot
    1  0.523  0.097  0.033  0.652
 
band     2 # energy    3.34342755 # occ.  1.00000000
 
ion      s      p      d    tot
    1  0.000  0.002  0.957  0.959
 
band     3 # energy    3.49783110 # occ.  1.00000000
 
ion      s      p      d    tot
    1  0.003  0.016  0.926  0.945
 
band     4 # energy    4.91218955 # occ.  1.00000000
 
ion      s      p      d    tot
    1  0.005  0.016  0.947  0.968
 
band     5 # energy    4.96902877 # occ.  1.00000000
 
ion      s      p      d    tot
    1  0.000  0.001  0.968  0.969
 
band     6 # energy    5.15990678 # occ.  1.00000000
 
ion      s      p      d    tot
    1  0.000  0.000  0.973  0.973
 
band     7 # energy   24.82527235 # occ.  0.00000000
 
ion      s      p      d    tot
    1  0.026  0.180  0.310  0.517
 
band     8 # energy   27.12739432 # occ.  0.00000000
 
ion      s      p      d    tot
    1  0.000  0.144  0.245  0.389
 
band     9 # energy   30.35662831 # occ.  0.00000000
 
ion      s      p      d    tot
    1  0.097  0.478  0.190  0.765
 
band    10 # energy   32.44648584 # occ.  0.00000000
 
ion      s      p      d    tot
    1  0.000  0.002  0.131  0.133
 
band    11 # energy   37.19993457 # occ.  0.00000000
 
ion      s      p      d    tot
    1  0.026  0.325  0.279  0.631
 
band    12 # energy   37.40631171 # occ.  0.00000000
 
ion      s      p      d    tot
    1  0.000  0.242  0.108  0.349
 

 k-point     3 :    0.25000000 0.05000000 0.05000000     weight = 0.02400000

band     1 # energy    0.67894355 # occ.  1.00000000
 
ion      s      p      d    tot
    1  0.353  0.116  0.246  0.714
 
band     2 # energy    2.99431553 # occ.  1.00000000
 
ion      s      p      d    tot
    1  0.000  0.003  0.948  0.951
 
band     3 # energy    3.58029355 # occ.  1.00000000
 
ion      s      p      d    tot
    1  0.047  0.103  0.720  0.870
 
band     4 # energy    5.03519588 # occ.  1.00000000
 
ion      s      p      d    tot
    1  0.002  0.001  0.972  0.975
 
band     5 # energy    5.24449231 # occ.  1.00000000
 
ion      s      p      d    tot
    1  0.000  0.000  0.978  0.978
 
band     6 # energy    5.89897152 # occ.  1.02873344
 
ion      s      p      d    tot
    1  0.016  0.039  0.901  0.957
 
band     7 # energy   20.18289565 # occ.  0.00000000
 
ion      s      p      d    tot
    1  0.115  0.232  0.316  0.663
 
band     8 # energy   25.36585866 # occ.  0.00000000
 
ion      s      p      d    tot
    1  0.000  0.204  0.199  0.403
 
band     9 # energy   27.85062009 # occ.  0.00000000
 
ion      s      p      d    tot
    1  0.101  0.500  0.131  0.731
 
band    10 # energy   32.11672196 # occ.  0.00000000
 
ion      s      p      d    tot
    1  0.000  0.009  0.340  0.349
 
band    11 # energy   36.22865586 # occ.  0.00000000
 
ion      s      p      d    tot
    1  0.080  0.227  0.289  0.596
 
band    12 # energy   39.41456584 # occ.  0.00000000
 
ion      s      p      d    tot
    1  0.000  0.221  0.088  0.309
 

 k-point     4 :    0.35000000 0.05000000 0.05000000     weight = 0.02400000

band     1 # energy    1.20695809 # occ.  1.00000000
 
ion      s      p      d    tot
    1  0.157  0.034  0.635  0.826
 
band     2 # energy    2.73269107 # occ.  1.00000000
 
ion      s      p      d    tot
    1  0.000  0.004  0.943  0.947
 
band     3 # energy    4.68368705 # occ.  1.00000000
 
ion      s      p      d    tot
    1  0.068  0.245  0.481  0.794
 
band     4 # energy    5.18786530 # occ.  1.00000000
 
ion      s      p      d    tot
    1  0.001  0.019  0.952  0.972
 
band     5 # energy    5.31825196 # occ.  1.00000001
 
ion      s      p      d    tot
    1  0.000  0.000  0.983  0.983
 
band     6 # energy    7.07417700 # occ. -0.00000000
 
ion      s      p      d    tot
    1  0.037  0.139  0.714  0.891
 
band     7 # energy   16.01423000 # occ.  0.00000000
 
ion      s      p      d    tot
    1  0.255  0.153  0.348  0.757
 
band     8 # energy   24.14053287 # occ.  0.00000000
 
ion      s      p      d    tot
    1  0.000  0.236  0.153  0.389
 
band     9 # energy   26.16274834 # occ.  0.00000000
 
ion      s      p      d    tot
    1  0.094  0.547  0.066  0.707
 
band    10 # energy   31.76633489 # occ.  0.00000000
 
ion      s      p      d    tot
    1  0.000  0.010  0.465  0.475
 
band    11 # energy   35.90418026 # occ.  0.00000000
 
ion      s      p      d    tot
    1  0.138  0.136  0.327  0.601
 
band    12 # energy   41.65098552 # occ.  0.00000000
 
ion      s      p      d    tot
    1  0.030  0.040  0.085  0.155
 

 k-point     5 :    0.45000000 0.05000000 0.05000000     weight = 0.01200000

band     1 # energy    1.21757934 # occ.  1.00000000
 
ion      s      p      d    tot
    1  0.110  0.009  0.735  0.854
 
band     2 # energy    2.63641005 # occ.  1.00000000
 
ion      s      p      d    tot
    1  0.000  0.004  0.941  0.946
 
band     3 # energy    5.20773187 # occ.  1.00000000
 
ion      s      p      d    tot
    1  0.011  0.000  0.968  0.980
 
band     4 # energy    5.34406764 # occ.  1.00000002
 
ion      s      p      d    tot
    1  0.000  0.000  0.985  0.985
 
band     5 # energy    5.48012765 # occ.  1.00000272
 
ion      s      p      d    tot
    1  0.000  0.262  0.561  0.823
 
band     6 # energy    8.01593833 # occ. -0.00000000
 
ion      s      p      d    tot
    1  0.000  0.341  0.438  0.779
 
band     7 # energy   13.88654392 # occ.  0.00000000
 
ion      s      p      d    tot
    1  0.391  0.010  0.424  0.825
 
band     8 # energy   23.70093325 # occ.  0.00000000
 
ion      s      p      d    tot
    1  0.000  0.245  0.136  0.381
 
band     9 # energy   25.54222674 # occ.  0.00000000
 
ion      s      p      d    tot
    1  0.091  0.570  0.035  0.696
 
band    10 # energy   31.63587006 # occ.  0.00000000
 
ion      s      p      d    tot
    1  0.000  0.009  0.505  0.514
 
band    11 # energy   35.87461068 # occ.  0.00000000
 
ion      s      p      d    tot
    1  0.165  0.096  0.353  0.614
 
band    12 # energy   41.50617733 # occ.  0.00000000
 
ion      s      p      d    tot
    1  0.000  0.073  0.004  0.077
 

 k-point     6 :   -0.05000000 0.05000000 0.05000000     weight = 0.00600000

band     1 # energy   -2.25168117 # occ.  1.00000000
 
ion      s      p      d    tot
    1  0.628  0.013  0.000  0.641
 
band     2 # energy    3.79896306 # occ.  1.00000000
 
ion      s      p      d    tot
    1  0.000  0.001  0.971  0.973
 
band     3 # energy    3.79903553 # occ.  1.00000000
 
ion      s      p      d    tot
    1  0.000  0.001  0.971  0.973
 
band     4 # energy    3.86172158 # occ.  1.00000000
 
ion      s      p      d    tot
    1  0.000  0.000  0.974  0.974
 
band     5 # energy    5.03799047 # occ.  1.00000000
 
ion      s      p      d    tot
    1  0.000  0.000  0.966  0.966
 
band     6 # energy    5.17639386 # occ.  1.00000000
 
ion      s      p      d    tot
    1  0.000  0.000  0.972  0.972
 
band     7 # energy   30.32746229 # occ.  0.00000000
 
ion      s      p      d    tot
    1  0.000  0.000  0.108  0.108
 
band     8 # energy   31.36598676 # occ.  0.00000000
 
ion      s      p      d    tot
    1  0.000  0.008  0.079  0.087
 
band     9 # energy   31.36601591 # occ.  0.00000000
 
ion      s      p      d    tot
    1  0.000  0.008  0.079  0.087
 
band    10 # energy   35.27476003 # occ.  0.00000000
 
ion      s      p      d    tot
    1  0.010  0.245  0.194  0.449
 
band    11 # energy   37.46368349 # occ.  0.00000000
 
ion      s      p      d    tot
    1  0.000  0.447  0.313  0.760
 
band    12 # energy   37.46375296 # occ.  0.00000000
 
ion      s      p      d    tot
    1  0.000  0.447  0.313  0.760
 

 k-point     7 :    0.15000000 0.15000000 0.05000000     weight = 0.02400000

band     1 # energy    0.59142590 # occ.  1.00000000
 
ion      s      p      d    tot
    1  0.409  0.147  0.124  0.679
 
band     2 # energy    3.09610299 # occ.  1.00000000
 
ion      s      p      d    tot
    1  0.000  0.020  0.912  0.932
 
band     3 # energy    3.13420167 # occ.  1.00000000
 
ion      s      p      d    tot
    1  0.007  0.020  0.913  0.939
 
band     4 # energy    4.99178705 # occ.  1.00000000
 
ion      s      p      d    tot
    1  0.000  0.000  0.971  0.971
 
band     5 # energy    5.25647516 # occ.  1.00000000
 
ion      s      p      d    tot
    1  0.002  0.000  0.976  0.978
 
band     6 # energy    5.96098996 # occ.  1.03486825
 
ion      s      p      d    tot
    1  0.024  0.047  0.879  0.950
 
band     7 # energy   22.47593469 # occ.  0.00000000
 
ion      s      p      d    tot
    1  0.000  0.231  0.339  0.570
 
band     8 # energy   23.43239153 # occ.  0.00000000
 
ion      s      p      d    tot
    1  0.093  0.244  0.243  0.579
 
band     9 # energy   27.03932202 # occ.  0.00000000
 
ion      s      p      d    tot
    1  0.141  0.414  0.135  0.689
 
band    10 # energy   33.80347334 # occ.  0.00000000
 
ion      s      p      d    tot
    1  0.000  0.015  0.115  0.131
 
band    11 # energy   37.99537301 # occ.  0.00000000
 
ion      s      p      d    tot
    1  0.017  0.120  0.315  0.452
 
band    12 # energy   39.60598091 # occ.  0.00000000
 
ion      s      p      d    tot
    1  0.000  0.237  0.250  0.487
 

 k-point     8 :    0.25000000 0.15000000 0.05000000     weight = 0.04800000

band     1 # energy    1.60311033 # occ.  1.00000000
 
ion      s      p      d    tot
    1  0.199  0.098  0.493  0.789
 
band     2 # energy    2.79906981 # occ.  1.00000000
 
ion      s      p      d    tot
    1  0.000  0.022  0.909  0.931
 
band     3 # energy    3.38198086 # occ.  1.00000000
 
ion      s      p      d    tot
    1  0.050  0.130  0.677  0.856
 
band     4 # energy    5.09871307 # occ.  1.00000000
 
ion      s      p      d    tot
    1  0.001  0.002  0.974  0.976
 
band     5 # energy    5.36765266 # occ.  1.00000004
 
ion      s      p      d    tot
    1  0.006  0.002  0.973  0.981
 
band     6 # energy    7.40783262 # occ. -0.00000000
 
ion      s      p      d    tot
    1  0.061  0.118  0.718  0.898
 
band     7 # energy   18.37492824 # occ.  0.00000000
 
ion      s      p      d    tot
    1  0.132  0.246  0.311  0.689
 
band     8 # energy   21.54984060 # occ.  0.00000000
 
ion      s      p      d    tot
    1  0.098  0.268  0.235  0.601
 
band     9 # energy   25.17502366 # occ.  0.00000000
 
ion      s      p      d    tot
    1  0.130  0.394  0.119  0.642
 
band    10 # energy   34.10058033 # occ.  0.00000000
 
ion      s      p      d    tot
    1  0.005  0.023  0.240  0.268
 
band    11 # energy   38.77557282 # occ.  0.00000000
 
ion      s      p      d    tot
    1  0.003  0.108  0.308  0.420
 
band    12 # energy   40.31108543 # occ.  0.00000000
 
ion      s      p      d    tot
    1  0.063  0.170  0.203  0.435
 

 k-point     9 :    0.35000000 0.15000000 0.05000000     weight = 0.04800000

band     1 # energy    1.68078053 # occ.  1.00000000
 
ion      s      p      d    tot
    1  0.090  0.037  0.732  0.859
 
band     2 # energy    2.65760566 # occ.  1.00000000
 
ion      s      p      d    tot
    1  0.000  0.021  0.913  0.934
 
band     3 # energy    4.15188638 # occ.  1.00000000
 
ion      s      p      d    tot
    1  0.013  0.194  0.636  0.843
 
band     4 # energy    5.21937861 # occ.  1.00000000
 
ion      s      p      d    tot
    1  0.005  0.002  0.972  0.979
 
band     5 # energy    5.46957340 # occ.  1.00000189
 
ion      s      p      d    tot
    1  0.003  0.016  0.958  0.977
 
band     6 # energy    9.22803752 # occ. -0.00000000
 
ion      s      p      d    tot
    1  0.040  0.291  0.465  0.796
 
band     7 # energy   14.72725649 # occ.  0.00000000
 
ion      s      p      d    tot
    1  0.297  0.117  0.362  0.776
 
band     8 # energy   20.69559228 # occ.  0.00000000
 
ion      s      p      d    tot
    1  0.104  0.288  0.212  0.604
 
band     9 # energy   24.23353871 # occ.  0.00000000
 
ion      s      p      d    tot
    1  0.122  0.401  0.102  0.624
 
band    10 # energy   33.99795179 # occ.  0.00000000
 
ion      s      p      d    tot
    1  0.012  0.017  0.324  0.353
 
band    11 # energy   39.54933100 # occ.  0.00000000
 
ion      s      p      d    tot
    1  0.033  0.142  0.295  0.469
 
band    12 # energy   40.43730598 # occ.  0.00000000
 
ion      s      p      d    tot
    1  0.039  0.073  0.153  0.265
 

 k-point    10 :   -0.15000000 0.15000000 0.05000000     weight = 0.02400000

band     1 # energy   -1.43876057 # occ.  1.00000000
 
ion      s      p      d    tot
    1  0.576  0.060  0.009  0.645
 
band     2 # energy    3.60360417 # occ.  1.00000000
 
ion      s      p      d    tot
    1  0.000  0.001  0.966  0.967
 
band     3 # energy    3.75663864 # occ.  1.00000000
 
ion      s      p      d    tot
    1  0.001  0.009  0.949  0.960
 
band     4 # energy    4.28848709 # occ.  1.00000000
 
ion      s      p      d    tot
    1  0.000  0.004  0.969  0.973
 
band     5 # energy    4.82342781 # occ.  1.00000000
 
ion      s      p      d    tot
    1  0.000  0.000  0.959  0.960
 
band     6 # energy    5.24375615 # occ.  1.00000000
 
ion      s      p      d    tot
    1  0.002  0.000  0.972  0.974
 
band     7 # energy   27.09787486 # occ.  0.00000000
 
ion      s      p      d    tot
    1  0.010  0.103  0.283  0.396
 
band     8 # energy   29.78751082 # occ.  0.00000000
 
ion      s      p      d    tot
    1  0.013  0.100  0.137  0.250
 
band     9 # energy   30.60525975 # occ.  0.00000000
 
ion      s      p      d    tot
    1  0.000  0.083  0.281  0.365
 
band    10 # energy   34.47352648 # occ.  0.00000000
 
ion      s      p      d    tot
    1  0.008  0.289  0.135  0.431
 
band    11 # energy   34.86007875 # occ.  0.00000000
 
ion      s      p      d    tot
    1  0.000  0.429  0.247  0.676
 
band    12 # energy   35.81157851 # occ.  0.00000000
 
ion      s      p      d    tot
    1  0.062  0.366  0.095  0.524
 

 k-point    11 :    0.25000000 0.25000000 0.05000000     weight = 0.02400000

band     1 # energy    2.14905721 # occ.  1.00000000
 
ion      s      p      d    tot
    1  0.075  0.043  0.761  0.879
 
band     2 # energy    2.71829431 # occ.  1.00000000
 
ion      s      p      d    tot
    1  0.000  0.070  0.823  0.893
 
band     3 # energy    3.35733186 # occ.  1.00000000
 
ion      s      p      d    tot
    1  0.027  0.146  0.685  0.859
 
band     4 # energy    5.21334249 # occ.  1.00000000
 
ion      s      p      d    tot
    1  0.000  0.004  0.975  0.979
 
band     5 # energy    5.45985079 # occ.  1.00000135
 
ion      s      p      d    tot
    1  0.007  0.007  0.968  0.981
 
band     6 # energy    9.63380580 # occ. -0.00000000
 
ion      s      p      d    tot
    1  0.086  0.230  0.503  0.818
 
band     7 # energy   16.66823640 # occ.  0.00000000
 
ion      s      p      d    tot
    1  0.000  0.342  0.351  0.693
 
band     8 # energy   17.79664407 # occ.  0.00000000
 
ion      s      p      d    tot
    1  0.378  0.147  0.181  0.706
 
band     9 # energy   24.02859023 # occ.  0.00000000
 
ion      s      p      d    tot
    1  0.122  0.362  0.143  0.627
 
band    10 # energy   35.51313878 # occ.  0.00000000
 
ion      s      p      d    tot
    1  0.000  0.046  0.196  0.242
 
band    11 # energy   38.50242670 # occ.  0.00000000
 
ion      s      p      d    tot
    1  0.019  0.050  0.245  0.314
 
band    12 # energy   44.64663747 # occ.  0.00000000
 
ion      s      p      d    tot
    1  0.000  0.175  0.171  0.346
 

 k-point    12 :    0.35000000 0.25000000 0.05000000     weight = 0.02400000

band     1 # energy    2.19230398 # occ.  1.00000000
 
ion      s      p      d    tot
    1  0.047  0.028  0.823  0.898
 
band     2 # energy    2.76593286 # occ.  1.00000000
 
ion      s      p      d    tot
    1  0.000  0.078  0.817  0.895
 
band     3 # energy    3.42023408 # occ.  1.00000000
 
ion      s      p      d    tot
    1  0.000  0.152  0.709  0.861
 
band     4 # energy    5.31284857 # occ.  1.00000000
 
ion      s      p      d    tot
    1  0.002  0.005  0.974  0.980
 
band     5 # energy    5.46064149 # occ.  1.00000139
 
ion      s      p      d    tot
    1  0.000  0.011  0.970  0.981
 
band     6 # energy   11.77480740 # occ.  0.00000000
 
ion      s      p      d    tot
    1  0.000  0.376  0.370  0.746
 
band     7 # energy   14.12569735 # occ.  0.00000000
 
ion      s      p      d    tot
    1  0.188  0.210  0.361  0.759
 
band     8 # energy   17.03540199 # occ.  0.00000000
 
ion      s      p      d    tot
    1  0.343  0.159  0.208  0.709
 
band     9 # energy   23.67215292 # occ.  0.00000000
 
ion      s      p      d    tot
    1  0.121  0.357  0.151  0.630
 
band    10 # energy   36.06917508 # occ.  0.00000000
 
ion      s      p      d    tot
    1  0.005  0.044  0.217  0.266
 
band    11 # energy   38.41296879 # occ.  0.00000000
 
ion      s      p      d    tot
    1  0.000  0.054  0.161  0.216
 
band    12 # energy   44.33119648 # occ.  0.00000000
 
ion      s      p      d    tot
    1  0.000  0.127  0.374  0.501
 

 k-point    13 :   -0.25000000 0.25000000 0.05000000     weight = 0.02400000

band     1 # energy   -0.07002969 # occ.  1.00000000
 
ion      s      p      d    tot
    1  0.456  0.116  0.098  0.670
 
band     2 # energy    3.26432130 # occ.  1.00000000
 
ion      s      p      d    tot
    1  0.000  0.001  0.957  0.959
 
band     3 # energy    3.64280448 # occ.  1.00000000
 
ion      s      p      d    tot
    1  0.022  0.053  0.833  0.908
 
band     4 # energy    4.82964461 # occ.  1.00000000
 
ion      s      p      d    tot
    1  0.000  0.004  0.962  0.966
 
band     5 # energy    5.07115229 # occ.  1.00000000
 
ion      s      p      d    tot
    1  0.000  0.008  0.966  0.975
 
band     6 # energy    5.32297343 # occ.  1.00000001
 
ion      s      p      d    tot
    1  0.008  0.002  0.965  0.975
 
band     7 # energy   22.47681653 # occ.  0.00000000
 
ion      s      p      d    tot
    1  0.072  0.217  0.319  0.608
 
band     8 # energy   27.58797798 # occ.  0.00000000
 
ion      s      p      d    tot
    1  0.019  0.163  0.099  0.281
 
band     9 # energy   29.23805839 # occ.  0.00000000
 
ion      s      p      d    tot
    1  0.000  0.290  0.341  0.631
 
band    10 # energy   32.65320302 # occ.  0.00000000
 
ion      s      p      d    tot
    1  0.000  0.292  0.300  0.592
 
band    11 # energy   34.41072944 # occ.  0.00000000
 
ion      s      p      d    tot
    1  0.058  0.285  0.222  0.565
 
band    12 # energy   36.46784475 # occ.  0.00000000
 
ion      s      p      d    tot
    1  0.090  0.154  0.075  0.320
 

 k-point    14 :   -0.15000000 0.25000000 0.05000000     weight = 0.02400000

band     1 # energy   -0.34773419 # occ.  1.00000000
 
ion      s      p      d    tot
    1  0.491  0.115  0.050  0.656
 
band     2 # energy    3.51667734 # occ.  1.00000000
 
ion      s      p      d    tot
    1  0.000  0.013  0.930  0.943
 
band     3 # energy    3.52325170 # occ.  1.00000000
 
ion      s      p      d    tot
    1  0.004  0.011  0.940  0.955
 
band     4 # energy    4.62002034 # occ.  1.00000000
 
ion      s      p      d    tot
    1  0.000  0.001  0.956  0.957
 
band     5 # energy    4.87797220 # occ.  1.00000000
 
ion      s      p      d    tot
    1  0.003  0.014  0.953  0.970
 
band     6 # energy    5.39957926 # occ.  1.00000015
 
ion      s      p      d    tot
    1  0.013  0.004  0.958  0.975
 
band     7 # energy   24.66154840 # occ.  0.00000000
 
ion      s      p      d    tot
    1  0.000  0.157  0.342  0.499
 
band     8 # energy   26.01338523 # occ.  0.00000000
 
ion      s      p      d    tot
    1  0.082  0.250  0.228  0.560
 
band     9 # energy   30.68374966 # occ.  0.00000000
 
ion      s      p      d    tot
    1  0.000  0.090  0.261  0.351
 
band    10 # energy   31.78183847 # occ.  0.00000000
 
ion      s      p      d    tot
    1  0.003  0.476  0.132  0.611
 
band    11 # energy   34.44799401 # occ.  0.00000000
 
ion      s      p      d    tot
    1  0.084  0.130  0.224  0.437
 
band    12 # energy   37.80087502 # occ.  0.00000000
 
ion      s      p      d    tot
    1  0.000  0.353  0.062  0.415
 

 k-point    15 :   -0.35000000 0.35000000 0.05000000     weight = 0.02400000

band     1 # energy    0.97073775 # occ.  1.00000000
 
ion      s      p      d    tot
    1  0.241  0.068  0.467  0.777
 
band     2 # energy    2.94131153 # occ.  1.00000000
 
ion      s      p      d    tot
    1  0.000  0.001  0.951  0.952
 
band     3 # energy    4.12925112 # occ.  1.00000000
 
ion      s      p      d    tot
    1  0.072  0.175  0.571  0.818
 
band     4 # energy    5.08601452 # occ.  1.00000000
 
ion      s      p      d    tot
    1  0.000  0.024  0.943  0.967
 
band     5 # energy    5.57470578 # occ.  1.00005383
 
ion      s      p      d    tot
    1  0.039  0.064  0.829  0.933
 
band     6 # energy    5.93925181 # occ.  1.03510848
 
ion      s      p      d    tot
    1  0.000  0.007  0.975  0.982
 
band     7 # energy   17.94223119 # occ.  0.00000000
 
ion      s      p      d    tot
    1  0.184  0.205  0.329  0.718
 
band     8 # energy   25.83633181 # occ.  0.00000000
 
ion      s      p      d    tot
    1  0.017  0.205  0.057  0.279
 
band     9 # energy   27.51238277 # occ.  0.00000000
 
ion      s      p      d    tot
    1  0.000  0.500  0.210  0.710
 
band    10 # energy   31.56833795 # occ.  0.00000000
 
ion      s      p      d    tot
    1  0.000  0.146  0.458  0.605
 
band    11 # energy   34.33873071 # occ.  0.00000000
 
ion      s      p      d    tot
    1  0.146  0.142  0.290  0.577
 
band    12 # energy   38.34425671 # occ.  0.00000000
 
ion      s      p      d    tot
    1  0.069  0.094  0.156  0.319
 

 k-point    16 :   -0.25000000 0.35000000 0.05000000     weight = 0.04800000

band     1 # energy    0.94875226 # occ.  1.00000000
 
ion      s      p      d    tot
    1  0.322  0.131  0.265  0.718
 
band     2 # energy    3.13769044 # occ.  1.00000000
 
ion      s      p      d    tot
    1  0.001  0.017  0.913  0.932
 
band     3 # energy    3.47733588 # occ.  1.00000000
 
ion      s      p      d    tot
    1  0.024  0.064  0.813  0.902
 
band     4 # energy    4.76242742 # occ.  1.00000000
 
ion      s      p      d    tot
    1  0.000  0.008  0.956  0.964
 
band     5 # energy    5.46837876 # occ.  1.00000182
 
ion      s      p      d    tot
    1  0.011  0.003  0.966  0.980
 
band     6 # energy    6.02837193 # occ.  0.99696032
 
ion      s      p      d    tot
    1  0.044  0.056  0.838  0.938
 
band     7 # energy   20.45486281 # occ.  0.00000000
 
ion      s      p      d    tot
    1  0.094  0.245  0.320  0.659
 
band     8 # energy   23.66942266 # occ.  0.00000000
 
ion      s      p      d    tot
    1  0.084  0.261  0.231  0.576
 
band     9 # energy   28.94605613 # occ.  0.00000000
 
ion      s      p      d    tot
    1  0.002  0.387  0.118  0.507
 
band    10 # energy   31.42049559 # occ.  0.00000000
 
ion      s      p      d    tot
    1  0.026  0.164  0.295  0.484
 
band    11 # energy   34.98429106 # occ.  0.00000000
 
ion      s      p      d    tot
    1  0.056  0.111  0.306  0.472
 
band    12 # energy   38.43159390 # occ.  0.00000000
 
ion      s      p      d    tot
    1  0.069  0.197  0.172  0.439
 

 k-point    17 :   -0.45000000 0.45000000 0.05000000     weight = 0.02400000

band     1 # energy    1.13660266 # occ.  1.00000000
 
ion      s      p      d    tot
    1  0.125  0.009  0.712  0.846
 
band     2 # energy    2.74826683 # occ.  1.00000000
 
ion      s      p      d    tot
    1  0.000  0.001  0.948  0.949
 
band     3 # energy    4.81466951 # occ.  1.00000000
 
ion      s      p      d    tot
    1  0.012  0.105  0.781  0.898
 
band     4 # energy    5.15486915 # occ.  1.00000000
 
ion      s      p      d    tot
    1  0.008  0.008  0.958  0.974
 
band     5 # energy    6.53319599 # occ. -0.01873425
 
ion      s      p      d    tot
    1  0.000  0.001  0.989  0.990
 
band     6 # energy    6.82138036 # occ. -0.00004263
 
ion      s      p      d    tot
    1  0.033  0.425  0.266  0.724
 
band     7 # energy   14.47870270 # occ.  0.00000000
 
ion      s      p      d    tot
    1  0.346  0.061  0.398  0.806
 
band     8 # energy   24.88205007 # occ.  0.00000000
 
ion      s      p      d    tot
    1  0.016  0.224  0.032  0.271
 
band     9 # energy   26.33433106 # occ.  0.00000000
 
ion      s      p      d    tot
    1  0.000  0.590  0.111  0.701
 
band    10 # energy   31.17502542 # occ.  0.00000000
 
ion      s      p      d    tot
    1  0.000  0.096  0.549  0.645
 
band    11 # energy   34.49244996 # occ.  0.00000000
 
ion      s      p      d    tot
    1  0.206  0.046  0.359  0.611
 
band    12 # energy   39.54388009 # occ.  0.00000000
 
ion      s      p      d    tot
    1  0.014  0.064  0.120  0.199
 

 k-point    18 :   -0.35000000 0.45000000 0.05000000     weight = 0.04800000

band     1 # energy    1.45069491 # occ.  1.00000000
 
ion      s      p      d    tot
    1  0.136  0.045  0.647  0.829
 
band     2 # energy    2.93382390 # occ.  1.00000000
 
ion      s      p      d    tot
    1  0.001  0.013  0.926  0.940
 
band     3 # energy    3.84726136 # occ.  1.00000000
 
ion      s      p      d    tot
    1  0.027  0.144  0.679  0.850
 
band     4 # energy    5.01373259 # occ.  1.00000000
 
ion      s      p      d    tot
    1  0.004  0.011  0.955  0.969
 
band     5 # energy    5.86162256 # occ.  1.02022473
 
ion      s      p      d    tot
    1  0.017  0.034  0.913  0.964
 
band     6 # energy    7.52178335 # occ. -0.00000000
 
ion      s      p      d    tot
    1  0.070  0.200  0.582  0.852
 
band     7 # energy   16.22459823 # occ.  0.00000000
 
ion      s      p      d    tot
    1  0.230  0.183  0.337  0.750
 
band     8 # energy   22.38641859 # occ.  0.00000000
 
ion      s      p      d    tot
    1  0.082  0.300  0.203  0.585
 
band     9 # energy   27.28748111 # occ.  0.00000000
 
ion      s      p      d    tot
    1  0.002  0.438  0.050  0.490
 
band    10 # energy   31.61422512 # occ.  0.00000000
 
ion      s      p      d    tot
    1  0.054  0.064  0.438  0.557
 
band    11 # energy   36.07707092 # occ.  0.00000000
 
ion      s      p      d    tot
    1  0.004  0.142  0.264  0.410
 
band    12 # energy   38.21183537 # occ.  0.00000000
 
ion      s      p      d    tot
    1  0.109  0.091  0.269  0.470
 

 k-point    19 :   -0.25000000 0.45000000 0.05000000     weight = 0.02400000

band     1 # energy    1.84076864 # occ.  1.00000000
 
ion      s      p      d    tot
    1  0.162  0.095  0.548  0.805
 
band     2 # energy    2.77090297 # occ.  1.00000000
 
ion      s      p      d    tot
    1  0.000  0.043  0.854  0.896
 
band     3 # energy    3.47406520 # occ.  1.00000000
 
ion      s      p      d    tot
    1  0.014  0.085  0.801  0.900
 
band     4 # energy    4.89656889 # occ.  1.00000000
 
ion      s      p      d    tot
    1  0.000  0.008  0.960  0.968
 
band     5 # energy    5.63183131 # occ.  1.00025821
 
ion      s      p      d    tot
    1  0.021  0.009  0.946  0.975
 
band     6 # energy    7.78718925 # occ. -0.00000000
 
ion      s      p      d    tot
    1  0.093  0.161  0.614  0.868
 
band     7 # energy   18.55624061 # occ.  0.00000000
 
ion      s      p      d    tot
    1  0.000  0.323  0.358  0.681
 
band     8 # energy   19.43609828 # occ.  0.00000000
 
ion      s      p      d    tot
    1  0.291  0.214  0.182  0.686
 
band     9 # energy   28.55372356 # occ.  0.00000000
 
ion      s      p      d    tot
    1  0.022  0.453  0.078  0.553
 
band    10 # energy   31.11084346 # occ.  0.00000000
 
ion      s      p      d    tot
    1  0.000  0.091  0.286  0.377
 
band    11 # energy   34.89084364 # occ.  0.00000000
 
ion      s      p      d    tot
    1  0.082  0.024  0.358  0.465
 
band    12 # energy   42.76228963 # occ.  0.00000000
 
ion      s      p      d    tot
    1  0.000  0.247  0.142  0.389
 

 k-point    20 :   -0.45000000-0.45000000 0.05000000     weight = 0.02400000

band     1 # energy    1.44787138 # occ.  1.00000000
 
ion      s      p      d    tot
    1  0.092  0.018  0.747  0.857
 
band     2 # energy    2.86680110 # occ.  1.00000000
 
ion      s      p      d    tot
    1  0.001  0.010  0.932  0.943
 