<?xml version="1.0" encoding="ISO-8859-1"?>
<modeling>
 <generator>
  <i name="program" type="string">vasp </i>
  <i name="version" type="string">5.4.4.18Apr17-6-g9f103f2a35  </i>
  <i name="subversion" type="string">(build May 18 2018 14:42:58) complex            parallel </i>
  <i name="platform" type="string">LinuxIFC </i>
  <i name="date" type="string">2020 06 30 </i>
  <i name="time" type="string">16:50:50 </i>
 </generator>
 <incar>
  <i type="string" name="SYSTEM"> bcc Fe</i>
  <i type="string" name="PREC">normal</i>
  <i type="int" name="ISPIN">     2</i>
  <i name="EDIFF">      0.00010000</i>
  <i name="ENCUT">    268.00000000</i>
  <v name="RWIGS">      1.30200000</v>
  <v name="MAGMOM">      3.00000000</v>
  <v type="int" name="KPOINT_BSE">    -1     0     0     0</v>
 </incar>
 <structure name="primitive_cell" >
  <crystal>
   <varray name="basis" >
    <v>      -1.40000000       1.40000000       1.40000000 </v>
    <v>       1.40000000      -1.40000000       1.40000000 </v>
    <v>       1.40000000       1.40000000      -1.40000000 </v>
   </varray>
   <i name="volume">     10.97600000 </i>
   <varray name="rec_basis" >
    <v>       0.00000000       0.35714286       0.35714286 </v>
    <v>       0.35714286       0.00000000       0.35714286 </v>
    <v>       0.35714286       0.35714286       0.00000000 </v>
   </varray>
  </crystal>
  <varray name="positions" >
   <v>       0.00000000       0.00000000       0.00000000 </v>
  </varray>
 </structure>
 <varray name="primitive_index" >
  <v type="int" >        1 </v>
 </varray>
 <kpoints>
  <generation param="Monkhorst-Pack">
   <v type="int" name="divisions">      10       10       10 </v>
   <v name="usershift">      0.00000000       0.00000000       0.00000000 </v>
   <v name="genvec1">      0.10000000       0.00000000       0.00000000 </v>
   <v name="genvec2">      0.00000000       0.10000000       0.00000000 </v>
   <v name="genvec3">      0.00000000       0.00000000       0.10000000 </v>
   <v name="shift">      0.50000000       0.50000000       0.50000000 </v>
  </generation>
  <varray name="kpointlist" >
   <v>       0.05000000       0.05000000       0.05000000 </v>
   <v>       0.15000000       0.05000000       0.05000000 </v>
   <v>       0.25000000       0.05000000       0.05000000 </v>
   <v>       0.35000000       0.05000000       0.05000000 </v>
   <v>       0.45000000       0.05000000       0.05000000 </v>
   <v>      -0.05000000       0.05000000       0.05000000 </v>
   <v>       0.15000000       0.15000000       0.05000000 </v>
   <v>       0.25000000       0.15000000       0.05000000 </v>
   <v>       0.35000000       0.15000000       0.05000000 </v>
   <v>      -0.15000000       0.15000000       0.05000000 </v>
   <v>       0.25000000       0.25000000       0.05000000 </v>
   <v>       0.35000000       0.25000000       0.05000000 </v>
   <v>      -0.25000000       0.25000000       0.05000000 </v>
   <v>      -0.15000000       0.25000000       0.05000000 </v>
   <v>      -0.35000000       0.35000000       0.05000000 </v>
   <v>      -0.25000000       0.35000000       0.05000000 </v>
   <v>      -0.45000000       0.45000000       0.05000000 </v>
   <v>      -0.35000000       0.45000000       0.05000000 </v>
   <v>      -0.25000000       0.45000000       0.05000000 </v>
   <v>      -0.45000000      -0.45000000       0.05000000 </v>
   <v>      -0.35000000      -0.45000000       0.05000000 </v>
   <v>      -0.35000000      -0.35000000       0.05000000 </v>
   <v>       0.15000000       0.15000000       0.15000000 </v>
   <v>       0.25000000       0.15000000       0.15000000 </v>
   <v>       0.35000000       0.15000000       0.15000000 </v>
   <v>      -0.15000000       0.15000000       0.15000000 </v>
   <v>       0.25000000       0.25000000       0.15000000 </v>
   <v>      -0.25000000       0.25000000       0.15000000 </v>
   <v>      -0.35000000       0.35000000       0.15000000 </v>
   <v>      -0.25000000       0.35000000       0.15000000 </v>
   <v>      -0.45000000       0.45000000       0.15000000 </v>
   <v>      -0.35000000       0.45000000       0.15000000 </v>
   <v>      -0.45000000      -0.45000000       0.15000000 </v>
   <v>      -0.35000000      -0.45000000       0.15000000 </v>
   <v>       0.25000000       0.25000000       0.25000000 </v>
   <v>      -0.25000000       0.25000000       0.25000000 </v>
   <v>      -0.35000000       0.35000000       0.25000000 </v>
   <v>      -0.45000000       0.45000000       0.25000000 </v>
   <v>      -0.35000000       0.45000000       0.25000000 </v>
   <v>      -0.45000000      -0.45000000       0.25000000 </v>
   <v>      -0.35000000       0.35000000       0.35000000 </v>
   <v>      -0.45000000       0.45000000       0.35000000 </v>
   <v>      -0.45000000      -0.45000000       0.35000000 </v>
   <v>      -0.45000000       0.45000000       0.45000000 </v>
  </varray>
  <varray name="weights" >
   <v>       0.00800000 </v>
   <v>       0.02400000 </v>
   <v>       0.02400000 </v>
   <v>       0.02400000 </v>
   <v>       0.01200000 </v>
   <v>       0.00600000 </v>
   <v>       0.02400000 </v>
   <v>       0.04800000 </v>
   <v>       0.04800000 </v>
   <v>       0.02400000 </v>
   <v>       0.02400000 </v>
   <v>       0.02400000 </v>
   <v>       0.02400000 </v>
   <v>       0.02400000 </v>
   <v>       0.02400000 </v>
   <v>       0.04800000 </v>
   <v>       0.02400000 </v>
   <v>       0.04800000 </v>
   <v>       0.02400000 </v>
   <v>       0.02400000 </v>
   <v>       0.04800000 </v>
   <v>       0.00800000 </v>
   <v>       0.00800000 </v>
   <v>       0.02400000 </v>
   <v>       0.01200000 </v>
   <v>       0.00600000 </v>
   <v>       0.02400000 </v>
   <v>       0.02400000 </v>
   <v>       0.02400000 </v>
   <v>       0.02400000 </v>
   <v>       0.02400000 </v>
   <v>       0.04800000 </v>
   <v>       0.02400000 </v>
   <v>       0.02400000 </v>
   <v>       0.00200000 </v>
   <v>       0.00600000 </v>
   <v>       0.02400000 </v>
   <v>       0.02400000 </v>
   <v>       0.02400000 </v>
   <v>       0.02400000 </v>
   <v>       0.00600000 </v>
   <v>       0.02400000 </v>
   <v>       0.00800000 </v>
   <v>       0.00600000 </v>
  </varray>
 </kpoints>
 <parameters>
  <separator name="general" >
   <i type="string" name="SYSTEM">bcc Fe</i>
   <i type="logical" name="LCOMPAT"> F  </i>
  </separator>
  <separator name="electronic" >
   <i type="string" name="PREC">normal</i>
   <i name="ENMAX">    268.00000000</i>
   <i name="ENAUG">    511.36800000</i>
   <i name="EDIFF">      0.00010000</i>
   <i type="int" name="IALGO">    38</i>
   <i type="int" name="IWAVPR">    10</i>
   <i type="int" name="NBANDS">    12</i>
   <i name="NELECT">      8.00000000</i>
   <i type="int" name="TURBO">     0</i>
   <i type="int" name="IRESTART">     0</i>
   <i type="int" name="NREBOOT">     0</i>
   <i type="int" name="NMIN">     0</i>
   <i name="EREF">      0.00000000</i>
   <separator name="electronic smearing" >
    <i type="int" name="ISMEAR">     1</i>
    <i name="SIGMA">      0.20000000</i>
    <i name="KSPACING">      0.50000000</i>
    <i type="logical" name="KGAMMA"> T  </i>
   </separator>
   <separator name="electronic projectors" >
    <i type="logical" name="LREAL"> F  </i>
    <v name="ROPT">      0.00000000</v>
    <i type="int" name="LMAXPAW">  -100</i>
    <i type="int" name="LMAXMIX">     2</i>
    <i type="logical" name="NLSPLINE"> F  </i>
   </separator>
   <separator name="electronic startup" >
    <i type="int" name="ISTART">     0</i>
    <i type="int" name="ICHARG">     2</i>
    <i type="int" name="INIWAV">     1</i>
   </separator>
   <separator name="electronic spin" >
    <i type="int" name="ISPIN">     2</i>
    <i type="logical" name="LNONCOLLINEAR"> F  </i>
    <v name="MAGMOM">      3.00000000</v>
    <i name="NUPDOWN">     -1.00000000</i>
    <i type="logical" name="LSORBIT"> F  </i>
    <v name="SAXIS">      0.00000000      0.00000000      1.00000000</v>
    <i type="logical" name="LSPIRAL"> F  </i>
    <v name="QSPIRAL">      0.00000000      0.00000000      0.00000000</v>
    <i type="logical" name="LZEROZ"> F  </i>
   </separator>
   <separator name="electronic exchange-correlation" >
    <i type="logical" name="LASPH"> F  </i>
    <i type="logical" name="LMETAGGA"> F  </i>
   </separator>
   <separator name="electronic convergence" >
    <i type="int" name="NELM">    60</i>
    <i type="int" name="NELMDL">    -5</i>
    <i type="int" name="NELMIN">     2</i>
    <i name="ENINI">    268.00000000</i>
    <separator name="electronic convergence detail" >
     <i type="logical" name="LDIAG"> T  </i>
     <i type="logical" name="LSUBROT"> F  </i>
     <i name="WEIMIN">      0.00000000</i>
     <i name="EBREAK">      0.00000208</i>
     <i name="DEPER">      0.30000000</i>
     <i type="int" name="NRMM">     4</i>
     <i name="TIME">      0.40000000</i>
    </separator>
   </separator>
   <separator name="electronic mixer" >
    <i name="AMIX">      0.40000000</i>
    <i name="BMIX">      1.00000000</i>
    <i name="AMIN">      0.10000000</i>
    <i name="AMIX_MAG">      1.60000000</i>
    <i name="BMIX_MAG">      1.00000000</i>
    <separator name="electronic mixer details" >
     <i type="int" name="IMIX">     4</i>
     <i type="logical" name="MIXFIRST"> F  </i>
     <i type="int" name="MAXMIX">   -45</i>
     <i name="WC">    100.00000000</i>
     <i type="int" name="INIMIX">     1</i>
     <i type="int" name="MIXPRE">     1</i>
     <i type="int" name="MREMOVE">     5</i>
    </separator>
   </separator>
   <separator name="electronic dipolcorrection" >
    <i type="logical" name="LDIPOL"> F  </i>
    <i type="logical" name="LMONO"> F  </i>
    <i type="int" name="IDIPOL">     0</i>
    <i name="EPSILON">      1.00000000</i>
    <v name="DIPOL">   -100.00000000   -100.00000000   -100.00000000</v>
    <i name="EFIELD">      0.00000000</i>
   </separator>
  </separator>
  <separator name="grids" >
   <i type="int" name="NGX">    10</i>
   <i type="int" name="NGY">    10</i>
   <i type="int" name="NGZ">    10</i>
   <i type="int" name="NGXF">    20</i>
   <i type="int" name="NGYF">    20</i>
   <i type="int" name="NGZF">    20</i>
   <i type="logical" name="ADDGRID"> F  </i>
  </separator>
  <separator name="ionic" >
   <i type="int" name="NSW">     0</i>
   <i type="int" name="IBRION">    -1</i>
   <i type="int" name="MDALGO">     0</i>
   <i type="int" name="ISIF">     2</i>
   <i name="PSTRESS">      0.00000000</i>
   <i name="EDIFFG">      0.00100000</i>
   <i type="int" name="NFREE">     0</i>
   <i name="POTIM">      0.50000000</i>
   <i name="SMASS">     -3.00000000</i>
   <i name="SCALEE">      1.00000000</i>
  </separator>
  <separator name="ionic md" >
   <i name="TEBEG">      0.00010000</i>
   <i name="TEEND">      0.00010000</i>
   <i type="int" name="NBLOCK">     1</i>
   <i type="int" name="KBLOCK">     1</i>
   <i type="int" name="NPACO">   256</i>
   <i name="APACO">     16.00000000</i>
  </separator>
  <separator name="symmetry" >
   <i type="int" name="ISYM">     2</i>
   <i name="SYMPREC">      0.00001000</i>
  </separator>
  <separator name="dos" >
   <i type="int" name="LORBIT">     0</i>
   <v name="RWIGS">      1.30200000</v>
   <i type="int" name="NEDOS">   301</i>
   <i name="EMIN">     10.00000000</i>
   <i name="EMAX">    -10.00000000</i>
   <i name="EFERMI">      0.00000000</i>
  </separator>
  <separator name="writing" >
   <i type="int" name="NWRITE">     2</i>
   <i type="logical" name="LWAVE"> T  </i>
   <i type="logical" name="LDOWNSAMPLE"> F  </i>
   <i type="logical" name="LCHARG"> T  </i>
   <i type="logical" name="LPARD"> F  </i>
   <i type="logical" name="LVTOT"> F  </i>
   <i type="logical" name="LVHAR"> F  </i>
   <i type="logical" name="LELF"> F  </i>
   <i type="logical" name="LOPTICS"> F  </i>
   <v name="STM">      0.00000000      0.00000000      0.00000000      0.00000000      0.00000000      0.00000000      0.00000000</v>
  </separator>
  <separator name="performance" >
   <i type="int" name="NPAR">     4</i>
   <i type="int" name="NSIM">     4</i>
   <i type="int" name="NBLK">    -1</i>
   <i type="logical" name="LPLANE"> T  </i>
   <i type="logical" name="LSCALAPACK"> T  </i>
   <i type="logical" name="LSCAAWARE"> F  </i>
   <i type="logical" name="LSCALU"> F  </i>
   <i type="logical" name="LASYNC"> F  </i>
   <i type="logical" name="LORBITALREAL"> F  </i>
  </separator>
  <separator name="miscellaneous" >
   <i type="int" name="IDIOT">     3</i>
   <i type="int" name="ISPECIAL">     0</i>
   <i type="logical" name="LMUSIC"> F  </i>
   <v name="POMASS">     55.84700000</v>
   <v name="DARWINR">      0.00000000</v>
   <v name="DARWINV">      1.00000000</v>
   <i type="logical" name="LCORR"> T  </i>
  </separator>
  <i type="logical" name="GGA_COMPAT"> T  </i>
  <i type="logical" name="LBERRY"> F  </i>
  <i type="int" name="ICORELEVEL">     0</i>
  <i type="logical" name="LDAU"> F  </i>
  <i type="int" name="I_CONSTRAINED_M">     0</i>
  <separator name="electronic exchange-correlation" >
   <i type="string" name="GGA">--</i>
   <i type="int" name="VOSKOWN">     0</i>
   <i type="logical" name="LHFCALC"> F  </i>
   <i type="string" name="PRECFOCK"></i>
   <i type="logical" name="LSYMGRAD"> F  </i>
   <i type="logical" name="LHFONE"> F  </i>
   <i type="logical" name="LRHFCALC"> F  </i>
   <i type="logical" name="LTHOMAS"> F  </i>
   <i type="logical" name="LMODELHF"> F  </i>
   <i name="ENCUT4O">     -1.00000000</i>
   <i type="int" name="EXXOEP">     0</i>
   <i type="int" name="FOURORBIT">     0</i>
   <i name="AEXX">      0.00000000</i>
   <i name="HFALPHA">      0.00000000</i>
   <i name="MCALPHA">      0.00000000</i>
   <i name="ALDAX">      1.00000000</i>
   <i name="AGGAX">      1.00000000</i>
   <i name="ALDAC">      1.00000000</i>
   <i name="AGGAC">      1.00000000</i>
   <i type="int" name="NKREDX">     1</i>
   <i type="int" name="NKREDY">     1</i>
   <i type="int" name="NKREDZ">     1</i>
   <i type="logical" name="SHIFTRED"> F  </i>
   <i type="logical" name="ODDONLY"> F  </i>
   <i type="logical" name="EVENONLY"> F  </i>
   <i type="int" name="LMAXFOCK">     0</i>
   <i type="int" name="NMAXFOCKAE">     0</i>
   <i type="logical" name="LFOCKAEDFT"> F  </i>
   <i name="HFSCREEN">      0.00000000</i>
   <i name="HFSCREENC">      0.00000000</i>
   <i type="int" name="NBANDSGWLOW">     0</i>
  </separator>
  <separator name="vdW DFT" >
   <i type="logical" name="LUSE_VDW"> F  </i>
   <i name="Zab_VDW">     -0.84910000</i>
   <i name="PARAM1">      0.12340000</i>
   <i name="PARAM2">      1.00000000</i>
   <i name="PARAM3">      0.00000000</i>
  </separator>
  <separator name="model GW" >
   <i type="int" name="MODEL_GW">     0</i>
   <i name="MODEL_EPS0">      6.58560000</i>
   <i name="MODEL_ALPHA">      1.00000000</i>
  </separator>
  <separator name="linear response parameters" >
   <i type="logical" name="LEPSILON"> F  </i>
   <i type="logical" name="LRPA"> F  </i>
   <i type="logical" name="LNABLA"> F  </i>
   <i type="logical" name="LVEL"> F  </i>
   <i type="int" name="KINTER">     0</i>
   <i name="CSHIFT">      0.10000000</i>
   <i name="OMEGAMAX">     -1.00000000</i>
   <i name="DEG_THRESHOLD">      0.00200000</i>
   <i name="RTIME">     -0.10000000</i>
   <i name="WPLASMAI">      0.00000000</i>
   <v name="DFIELD">      0.00000000      0.00000000      0.00000000</v>
   <v name="WPLASMA">      0.00000000      0.00000000      0.00000000      0.00000000      0.00000000      0.00000000      0.00000000      0.00000000      0.00000000</v>
  </separator>
  <separator name="orbital magnetization" >
   <i type="logical" name="NUCIND"> F  </i>
   <v name="MAGPOS">      0.00000000      0.00000000      0.00000000</v>
   <i type="logical" name="LNICSALL"> T  </i>
   <i type="logical" name="ORBITALMAG"> F  </i>
   <i type="logical" name="LMAGBLOCH"> F  </i>
   <i type="logical" name="LCHIMAG"> F  </i>
   <i type="logical" name="LGAUGE"> T  </i>
   <i type="int" name="MAGATOM">     0</i>
   <v name="MAGDIPOL">      0.00000000      0.00000000      0.00000000</v>
   <v name="AVECCONST">      0.00000000      0.00000000      0.00000000</v>
  </separator>
  <separator name="response functions" >
   <i type="logical" name="LADDER"> F  </i>
   <i type="logical" name="LRPAFORCE"> F  </i>
   <i type="logical" name="LFXC"> F  </i>
   <i type="logical" name="LHARTREE"> T  </i>
   <i type="int" name="IBSE">     0</i>
   <v type="int" name="KPOINT">    -1     0     0     0</v>
   <i type="logical" name="LTCTE"> F  </i>
   <i type="logical" name="LTETE"> F  </i>
   <i type="logical" name="LTRIPLET"> F  </i>
   <i type="logical" name="LFXCEPS"> F  </i>
   <i type="logical" name="LFXHEG"> F  </i>
   <i type="int" name="NATURALO">     2</i>
   <i type="logical" name="L2ORDER"> F  </i>
   <i type="logical" name="LMP2LT"> F  </i>
   <i type="logical" name="LUSEW"> F  </i>
   <i name="ENCUTGW">     -2.00000000</i>
   <i name="ENCUTGWSOFT">     -2.00000000</i>
   <i name="ENCUTLF">     -1.00000000</i>
   <i type="int" name="LMAXMP2">    -1</i>
   <i name="SCISSOR">      0.00000000</i>
   <i type="int" name="NOMEGA">     0</i>
   <i type="int" name="NOMEGAR">     0</i>
   <i type="int" name="NBANDSGW">    -1</i>
   <i type="int" name="NBANDSO">    -1</i>
   <i type="int" name="NBANDSV">    -1</i>
   <i type="int" name="NELM">     1</i>
   <i type="int" name="NELMHF">     1</i>
   <i type="int" name="DIM">     3</i>
   <i type="int" name="ANTIRES">     0</i>
   <i name="OMEGAMAX">    -30.00000000</i>
   <i name="OMEGAMIN">    -30.00000000</i>
   <i name="OMEGATL">   -200.00000000</i>
   <i type="int" name="OMEGAGRID">   140</i>
   <i name="CSHIFT">     -0.10000000</i>
   <i type="logical" name="SELFENERGY"> F  </i>
   <i type="logical" name="LSPECTRAL"> F  </i>
   <i type="logical" name="LSPECTRALGW"> F  </i>
   <i type="logical" name="LSINGLES"> F  </i>
   <i type="logical" name="LFERMIGW"> F  </i>
   <i type="logical" name="ODDONLYGW"> F  </i>
   <i type="logical" name="EVENONLYGW"> F  </i>
   <i type="int" name="NKREDLFX">     1</i>
   <i type="int" name="NKREDLFY">     1</i>
   <i type="int" name="NKREDLFZ">     1</i>
   <i type="int" name="MAXMEM">  2800</i>
   <i type="int" name="TELESCOPE">     0</i>
   <i type="int" name="TAUPAR">     1</i>
   <i type="int" name="OMEGAPAR">    -1</i>
   <i name="LAMBDA">      1.00000000</i>
  </separator>
  <separator name="External order field" >
   <i name="OFIELD_KAPPA">      0.00000000</i>
   <v name="OFIELD_K">      0.00000000      0.00000000      0.00000000</v>
   <i name="OFIELD_Q6_NEAR">      0.00000000</i>
   <i name="OFIELD_Q6_FAR">      0.00000000</i>
   <i name="OFIELD_A">      0.00000000</i>
  </separator>
 </parameters>
 <atominfo>
  <atoms>       1 </atoms>
  <types>       1 </types>
  <array name="atoms" >
   <dimension dim="1">ion</dimension>
   <field type="string">element</field>
   <field type="int">atomtype</field>
   <set>
    <rc><c>Fe</c><c>   1</c></rc>
   </set>
  </array>
  <array name="atomtypes" >
   <dimension dim="1">type</dimension>
   <field type="int">atomspertype</field>
   <field type="string">element</field>
   <field>mass</field>
   <field>valence</field>
   <field type="string">pseudopotential</field>
   <set>
    <rc><c>   1</c><c>Fe</c><c>     55.84700000</c><c>      8.00000000</c><c>  PAW_PBE Fe 06Sep2000                  </c></rc>
   </set>
  </array>
 </atominfo>
 <structure name="initialpos" >
  <crystal>
   <varray name="basis" >
    <v>      -1.40000000       1.40000000       1.40000000 </v>
    <v>       1.40000000      -1.40000000       1.40000000 </v>
    <v>       1.40000000       1.40000000      -1.40000000 </v>
   </varray>
   <i name="volume">     10.97600000 </i>
   <varray name="rec_basis" >
    <v>       0.00000000       0.35714286       0.35714286 </v>
    <v>       0.35714286       0.00000000       0.35714286 </v>
    <v>       0.35714286       0.35714286       0.00000000 </v>
   </varray>
  </crystal>
  <varray name="positions" >
   <v>       0.00000000       0.00000000       0.00000000 </v>
  </varray>
 </structure>
 <calculation>
  <scstep>
   <time name="dav">    0.20    0.20</time>
   <time name="total">    0.21    0.22</time>
   <energy>
    <i name="alphaZ">     62.96809038 </i>
    <i name="ewald">   -598.90499562 </i>
    <i name="hartreedc">   -108.91249834 </i>
    <i name="XCdc">      5.18098948 </i>
    <i name="pawpsdc">    553.75926685 </i>
    <i name="pawaedc">   -561.48528711 </i>
    <i name="eentropy">     -0.00268777 </i>
    <i name="bandstr">     63.13211008 </i>
    <i name="atom">    594.28084496 </i>
    <i name="e_fr_energy">     10.01583292 </i>
    <i name="e_wo_entrp">     10.01852068 </i>
    <i name="e_0_energy">     10.01672884 </i>
   </energy>
  </scstep>
  <scstep>
   <time name="dav">    0.19    0.20</time>
   <time name="total">    0.19    0.20</time>
   <energy>
    <i name="e_fr_energy">     -8.81854134 </i>
    <i name="e_wo_entrp">     -8.81878897 </i>
    <i name="e_0_energy">     -8.81862388 </i>
   </energy>
  </scstep>
  <scstep>
   <time name="dav">    0.21    0.21</time>
   <time name="total">    0.21    0.21</time>
   <energy>
    <i name="e_fr_energy">     -9.09356215 </i>
    <i name="e_wo_entrp">     -9.09470236 </i>
    <i name="e_0_energy">     -9.09394222 </i>
   </energy>
  </scstep>
  <scstep>
   <time name="dav">    0.19    0.20</time>
   <time name="total">    0.19    0.20</time>
   <energy>
    <i name="e_fr_energy">     -9.09420434 </i>
    <i name="e_wo_entrp">     -9.09534598 </i>
    <i name="e_0_energy">     -9.09458489 </i>
   </energy>
  </scstep>
  <scstep>
   <time name="dav">    0.18    0.18</time>
   <time name="total">    0.18    0.19</time>
   <energy>
    <i name="e_fr_energy">     -9.09420708 </i>
    <i name="e_wo_entrp">     -9.09534872 </i>
    <i name="e_0_energy">     -9.09458763 </i>
   </energy>
  </scstep>
  <scstep>
   <time name="dav">    0.21    0.21</time>
   <time name="total">    0.22    0.23</time>
   <energy>
    <i name="e_fr_energy">     -8.28452489 </i>
    <i name="e_wo_entrp">     -8.28585727 </i>
    <i name="e_0_energy">     -8.28496901 </i>
   </energy>
  </scstep>
  <scstep>
   <time name="dav">    0.20    0.21</time>
   <time name="total">    0.22    0.22</time>
   <energy>
    <i name="e_fr_energy">     -8.23683249 </i>
    <i name="e_wo_entrp">     -8.23483675 </i>
    <i name="e_0_energy">     -8.23616725 </i>
   </energy>
  </scstep>
  <scstep>
   <time name="dav">    0.20    0.20</time>
   <time name="total">    0.21    0.22</time>
   <energy>
    <i name="e_fr_energy">     -8.22949682 </i>
    <i name="e_wo_entrp">     -8.22713534 </i>
    <i name="e_0_energy">     -8.22870966 </i>
   </energy>
  </scstep>
  <scstep>
   <time name="dav">    0.22    0.23</time>
   <time name="total">    0.23    0.24</time>
   <energy>
    <i name="e_fr_energy">     -8.22322575 </i>
    <i name="e_wo_entrp">     -8.22075024 </i>
    <i name="e_0_energy">     -8.22240058 </i>
   </energy>
  </scstep>
  <scstep>
   <time name="dav">    0.17    0.18</time>
   <time name="total">    0.18    0.19</time>
   <energy>
    <i name="alphaZ">     62.96809038 </i>
    <i name="ewald">   -598.90499562 </i>
    <i name="hartreedc">    -92.51303382 </i>
    <i name="XCdc">      4.40753714 </i>
    <i name="pawpsdc">    738.71448564 </i>
    <i name="pawaedc">   -747.94971467 </i>
    <i name="eentropy">     -0.00244227 </i>
    <i name="bandstr">     30.77595436 </i>
    <i name="atom">    594.28084496 </i>
    <i name="e_fr_energy">     -8.22327390 </i>
    <i name="e_wo_entrp">     -8.22083164 </i>
    <i name="e_0_energy">     -8.22245981 </i>
   </energy>
  </scstep>
  <structure>
   <crystal>
    <varray name="basis" >
     <v>      -1.40000000       1.40000000       1.40000000 </v>
     <v>       1.40000000      -1.40000000       1.40000000 </v>
     <v>       1.40000000       1.40000000      -1.40000000 </v>
    </varray>
    <i name="volume">     10.97600000 </i>
    <varray name="rec_basis" >
     <v>       0.00000000       0.35714286       0.35714286 </v>
     <v>       0.35714286       0.00000000       0.35714286 </v>
     <v>       0.35714286       0.35714286       0.00000000 </v>
    </varray>
   </crystal>
   <varray name="positions" >
    <v>       0.00000000       0.00000000       0.00000000 </v>
   </varray>
  </structure>
  <varray name="forces" >
   <v>      -0.00000000      -0.00000000       0.00000000 </v>
  </varray>
  <varray name="stress" >
   <v>      12.32768348       0.00000000      -0.00000000 </v>
   <v>       0.00000000      12.32768348      -0.00000000 </v>
   <v>       0.00000000      -0.00000000      12.32768348 </v>
  </varray>
  <energy>
   <i name="e_fr_energy">     -8.22327390 </i>
   <i name="e_wo_entrp">     -8.22245981 </i>
   <i name="e_0_energy">     -0.00244227 </i>
  </energy>
  <time name="totalsc">    2.19    2.26</time>
  <eigenvalues>
   <array>
    <dimension dim="1">band</dimension>
    <dimension dim="2">kpoint</dimension>
    <dimension dim="3">spin</dimension>
    <field>eigene</field>
    <field>occ</field>
    <set>
     <set comment="spin 1">
      <set comment="kpoint 1">
       <r>   -1.8373    1.0000 </r>
       <r>    3.6659    1.0000 </r>
       <r>    3.6659    1.0000 </r>
       <r>    4.2106    1.0000 </r>
       <r>    5.0811    1.0000 </r>
       <r>    5.0811    1.0000 </r>
       <r>   29.0400    0.0000 </r>
       <r>   29.0400    0.0000 </r>
       <r>   32.1083    0.0000 </r>
       <r>   33.8707    0.0000 </r>
       <r>   37.3662    0.0000 </r>
       <r>   37.3662    0.0000 </r>
      </set>
      <set comment="kpoint 2">
       <r>   -0.6935    1.0000 </r>
       <r>    3.3434    1.0000 </r>
       <r>    3.4978    1.0000 </r>
       <r>    4.9122    1.0000 </r>
       <r>    4.9690    1.0000 </r>
       <r>    5.1599    1.0000 </r>
       <r>   24.8253    0.0000 </r>
       <r>   27.1274    0.0000 </r>
       <r>   30.3566    0.0000 </r>
       <r>   32.4465    0.0000 </r>
       <r>   37.1999    0.0000 </r>
       <r>   37.4063    0.0000 </r>
      </set>
      <set comment="kpoint 3">
       <r>    0.6789    1.0000 </r>
       <r>    2.9943    1.0000 </r>
       <r>    3.5803    1.0000 </r>
       <r>    5.0352    1.0000 </r>
       <r>    5.2445    1.0000 </r>
       <r>    5.8990    1.0287 </r>
       <r>   20.1829    0.0000 </r>
       <r>   25.3659    0.0000 </r>
       <r>   27.8506    0.0000 </r>
       <r>   32.1167    0.0000 </r>
       <r>   36.2287    0.0000 </r>
       <r>   39.4146    0.0000 </r>
      </set>
      <set comment="kpoint 4">
       <r>    1.2070    1.0000 </r>
       <r>    2.7327    1.0000 </r>
       <r>    4.6837    1.0000 </r>
       <r>    5.1879    1.0000 </r>
       <r>    5.3183    1.0000 </r>
       <r>    7.0742   -0.0000 </r>
       <r>   16.0142    0.0000 </r>
       <r>   24.1405    0.0000 </r>
       <r>   26.1627    0.0000 </r>
       <r>   31.7663    0.0000 </r>
       <r>   35.9042    0.0000 </r>
       <r>   41.6510    0.0000 </r>
      </set>
      <set comment="kpoint 5">
       <r>    1.2176    1.0000 </r>
       <r>    2.6364    1.0000 </r>
       <r>    5.2077    1.0000 </r>
       <r>    5.3441    1.0000 </r>
       <r>    5.4801    1.0000 </r>
       <r>    8.0159   -0.0000 </r>
       <r>   13.8865    0.0000 </r>
       <r>   23.7009    0.0000 </r>
       <r>   25.5422    0.0000 </r>
       <r>   31.6359    0.0000 </r>
       <r>   35.8746    0.0000 </r>
       <r>   41.5062    0.0000 </r>
      </set>
      <set comment="kpoint 6">
       <r>   -2.2517    1.0000 </r>
       <r>    3.7990    1.0000 </r>
       <r>    3.7990    1.0000 </r>
       <r>    3.8617    1.0000 </r>
       <r>    5.0380    1.0000 </r>
       <r>    5.1764    1.0000 </r>
       <r>   30.3275    0.0000 </r>
       <r>   31.3660    0.0000 </r>
       <r>   31.3660    0.0000 </r>
       <r>   35.2748    0.0000 </r>
       <r>   37.4637    0.0000 </r>
       <r>   37.4638    0.0000 </r>
      </set>
      <set comment="kpoint 7">
       <r>    0.5914    1.0000 </r>
       <r>    3.0961    1.0000 </r>
       <r>    3.1342    1.0000 </r>
       <r>    4.9918    1.0000 </r>
       <r>    5.2565    1.0000 </r>
       <r>    5.9610    1.0349 </r>
       <r>   22.4759    0.0000 </r>
       <r>   23.4324    0.0000 </r>
       <r>   27.0393    0.0000 </r>
       <r>   33.8035    0.0000 </r>
       <r>   37.9954    0.0000 </r>
       <r>   39.6060    0.0000 </r>
      </set>
      <set comment="kpoint 8">
       <r>    1.6031    1.0000 </r>
       <r>    2.7991    1.0000 </r>
       <r>    3.3820    1.0000 </r>
       <r>    5.0987    1.0000 </r>
       <r>    5.3677    1.0000 </r>
       <r>    7.4078   -0.0000 </r>
       <r>   18.3749    0.0000 </r>
       <r>   21.5498    0.0000 </r>
       <r>   25.1750    0.0000 </r>
       <r>   34.1006    0.0000 </r>
       <r>   38.7756    0.0000 </r>
       <r>   40.3111    0.0000 </r>
      </set>
      <set comment="kpoint 9">
       <r>    1.6808    1.0000 </r>
       <r>    2.6576    1.0000 </r>
       <r>    4.1519    1.0000 </r>
       <r>    5.2194    1.0000 </r>
       <r>    5.4696    1.0000 </r>
       <r>    9.2280   -0.0000 </r>
       <r>   14.7273    0.0000 </r>
       <r>   20.6956    0.0000 </r>
       <r>   24.2335    0.0000 </r>
       <r>   33.9980    0.0000 </r>
       <r>   39.5493    0.0000 </r>
       <r>   40.4373    0.0000 </r>
      </set>
      <set comment="kpoint 10">
       <r>   -1.4388    1.0000 </r>
       <r>    3.6036    1.0000 </r>
       <r>    3.7566    1.0000 </r>
       <r>    4.2885    1.0000 </r>
       <r>    4.8234    1.0000 </r>
       <r>    5.2438    1.0000 </r>
       <r>   27.0979    0.0000 </r>
       <r>   29.7875    0.0000 </r>
       <r>   30.6053    0.0000 </r>
       <r>   34.4735    0.0000 </r>
       <r>   34.8601    0.0000 </r>
       <r>   35.8116    0.0000 </r>
      </set>
      <set comment="kpoint 11">
       <r>    2.1491    1.0000 </r>
       <r>    2.7183    1.0000 </r>
       <r>    3.3573    1.0000 </r>
       <r>    5.2133    1.0000 </r>
       <r>    5.4599    1.0000 </r>
       <r>    9.6338   -0.0000 </r>
       <r>   16.6682    0.0000 </r>
       <r>   17.7966    0.0000 </r>
       <r>   24.0286    0.0000 </r>
       <r>   35.5131    0.0000 </r>
       <r>   38.5024    0.0000 </r>
       <r>   44.6466    0.0000 </r>
      </set>
      <set comment="kpoint 12">
       <r>    2.1923    1.0000 </r>
       <r>    2.7659    1.0000 </r>
       <r>    3.4202    1.0000 </r>
       <r>    5.3128    1.0000 </r>
       <r>    5.4606    1.0000 </r>
       <r>   11.7748    0.0000 </r>
       <r>   14.1257    0.0000 </r>
       <r>   17.0354    0.0000 </r>
       <r>   23.6722    0.0000 </r>
       <r>   36.0692    0.0000 </r>
       <r>   38.4130    0.0000 </r>
       <r>   44.3312    0.0000 </r>
      </set>
      <set comment="kpoint 13">
       <r>   -0.0700    1.0000 </r>
       <r>    3.2643    1.0000 </r>
       <r>    3.6428    1.0000 </r>
       <r>    4.8296    1.0000 </r>
       <r>    5.0712    1.0000 </r>
       <r>    5.3230    1.0000 </r>
       <r>   22.4768    0.0000 </r>
       <r>   27.5880    0.0000 </r>
       <r>   29.2381    0.0000 </r>
       <r>   32.6532    0.0000 </r>
       <r>   34.4107    0.0000 </r>
       <r>   36.4678    0.0000 </r>
      </set>
      <set comment="kpoint 14">
       <r>   -0.3477    1.0000 </r>
       <r>    3.5167    1.0000 </r>
       <r>    3.5233    1.0000 </r>
       <r>    4.6200    1.0000 </r>
       <r>    4.8780    1.0000 </r>
       <r>    5.3996    1.0000 </r>
       <r>   24.6615    0.0000 </r>
       <r>   26.0134    0.0000 </r>
       <r>   30.6837    0.0000 </r>
       <r>   31.7818    0.0000 </r>
       <r>   34.4480    0.0000 </r>
       <r>   37.8009    0.0000 </r>
      </set>
      <set comment="kpoint 15">
       <r>    0.9707    1.0000 </r>
       <r>    2.9413    1.0000 </r>
       <r>    4.1293    1.0000 </r>
       <r>    5.0860    1.0000 </r>
       <r>    5.5747    1.0001 </r>
       <r>    5.9393    1.0351 </r>
       <r>   17.9422    0.0000 </r>
       <r>   25.8363    0.0000 </r>
       <r>   27.5124    0.0000 </r>
       <r>   31.5683    0.0000 </r>
       <r>   34.3387    0.0000 </r>
       <r>   38.3443    0.0000 </r>
      </set>
      <set comment="kpoint 16">
       <r>    0.9488    1.0000 </r>
       <r>    3.1377    1.0000 </r>
       <r>    3.4773    1.0000 </r>
       <r>    4.7624    1.0000 </r>
       <r>    5.4684    1.0000 </r>
       <r>    6.0284    0.9970 </r>
       <r>   20.4549    0.0000 </r>
       <r>   23.6694    0.0000 </r>
       <r>   28.9461    0.0000 </r>
       <r>   31.4205    0.0000 </r>
       <r>   34.9843    0.0000 </r>
       <r>   38.4316    0.0000 </r>
      </set>
      <set comment="kpoint 17">
       <r>    1.1366    1.0000 </r>
       <r>    2.7483    1.0000 </r>
       <r>    4.8147    1.0000 </r>
       <r>    5.1549    1.0000 </r>
       <r>    6.5332   -0.0187 </r>
       <r>    6.8214   -0.0000 </r>
       <r>   14.4787    0.0000 </r>
       <r>   24.8821    0.0000 </r>
       <r>   26.3343    0.0000 </r>
       <r>   31.1750    0.0000 </r>
       <r>   34.4924    0.0000 </r>
       <r>   39.5439    0.0000 </r>
      </set>
      <set comment="kpoint 18">
       <r>    1.4507    1.0000 </r>
       <r>    2.9338    1.0000 </r>
       <r>    3.8473    1.0000 </r>
       <r>    5.0137    1.0000 </r>
       <r>    5.8616    1.0202 </r>
       <r>    7.5218   -0.0000 </r>
       <r>   16.2246    0.0000 </r>
       <r>   22.3864    0.0000 </r>
       <r>   27.2875    0.0000 </r>
       <r>   31.6142    0.0000 </r>
       <r>   36.0771    0.0000 </r>
       <r>   38.2118    0.0000 </r>
      </set>
      <set comment="kpoint 19">
       <r>    1.8408    1.0000 </r>
       <r>    2.7709    1.0000 </r>
       <r>    3.4741    1.0000 </r>
       <r>    4.8966    1.0000 </r>
       <r>    5.6318    1.0003 </r>
       <r>    7.7872   -0.0000 </r>
       <r>   18.5562    0.0000 </r>
       <r>   19.4361    0.0000 </r>
       <r>   28.5537    0.0000 </r>
       <r>   31.1108    0.0000 </r>
       <r>   34.8908    0.0000 </r>
       <r>   42.7623    0.0000 </r>
      </set>
      <set comment="kpoint 20">
       <r>    1.4479    1.0000 </r>
       <r>    2.8668    1.0000 </r>
       <r>    4.1057    1.0000 </r>
       <r>    5.0492    1.0000 </r>
       <r>    6.1755    0.5780 </r>
       <r>    8.8424   -0.0000 </r>
       <r>   13.9428    0.0000 </r>
       <r>   21.9242    0.0000 </r>
       <r>   26.6979    0.0000 </r>
       <r>   31.6869    0.0000 </r>
       <r>   37.1907    0.0000 </r>
       <r>   37.5983    0.0000 </r>
      </set>
      <set comment="kpoint 21">
       <r>    2.0469    1.0000 </r>
       <r>    2.8158    1.0000 </r>
       <r>    3.3774    1.0000 </r>
       <r>    5.1333    1.0000 </r>
       <r>    5.7841    1.0068 </r>
       <r>   10.1861   -0.0000 </r>
       <r>   14.9899    0.0000 </r>
       <r>   18.2265    0.0000 </r>
       <r>   27.8407    0.0000 </r>
       <r>   31.8239    0.0000 </r>
       <r>   34.9734    0.0000 </r>
       <r>   41.8745    0.0000 </r>
      </set>
      <set comment="kpoint 22">
       <r>    2.5317    1.0000 </r>
       <r>    2.8310    1.0000 </r>
       <r>    2.8310    1.0000 </r>
       <r>    5.4956    1.0000 </r>
       <r>    5.4957    1.0000 </r>
       <r>   13.2200    0.0000 </r>
       <r>   13.2201    0.0000 </r>
       <r>   15.9983    0.0000 </r>
       <r>   27.9920    0.0000 </r>
       <r>   33.2471    0.0000 </r>
       <r>   33.2472    0.0000 </r>
       <r>   41.5446    0.0000 </r>
      </set>
      <set comment="kpoint 23">
       <r>    1.8548    1.0000 </r>
       <r>    2.7942    1.0000 </r>
       <r>    2.7942    1.0000 </r>
       <r>    5.2288    1.0000 </r>
       <r>    5.2288    1.0000 </r>
       <r>    7.4342   -0.0000 </r>
       <r>   20.7856    0.0000 </r>
       <r>   20.7856    0.0000 </r>
       <r>   22.7016    0.0000 </r>
       <r>   36.6915    0.0000 </r>
       <r>   40.9385    0.0000 </r>
       <r>   40.9385    0.0000 </r>
      </set>
      <set comment="kpoint 24">
       <r>    2.2523    1.0000 </r>
       <r>    2.6279    1.0000 </r>
       <r>    3.2772    1.0000 </r>
       <r>    5.2866    1.0000 </r>
       <r>    5.3373    1.0000 </r>
       <r>    9.4310   -0.0000 </r>
       <r>   16.8758    0.0000 </r>
       <r>   19.7165    0.0000 </r>
       <r>   20.9186    0.0000 </r>
       <r>   37.8357    0.0000 </r>
       <r>   41.8805    0.0000 </r>
       <r>   43.1545    0.0000 </r>
      </set>
      <set comment="kpoint 25">
       <r>    2.1543    1.0000 </r>
       <r>    2.5744    1.0000 </r>
       <r>    3.7416    1.0000 </r>
       <r>    5.3253    1.0000 </r>
       <r>    5.3709    1.0000 </r>
       <r>   11.2455   -0.0000 </r>
       <r>   14.2419    0.0000 </r>
       <r>   19.3396    0.0000 </r>
       <r>   20.4240    0.0000 </r>
       <r>   37.8680    0.0000 </r>
       <r>   42.6110    0.0000 </r>
       <r>   43.2015    0.0000 </r>
      </set>
      <set comment="kpoint 26">
       <r>   -0.6829    1.0000 </r>
       <r>    3.8579    1.0000 </r>
       <r>    3.8580    1.0000 </r>
       <r>    4.2970    1.0000 </r>
       <r>    4.3029    1.0000 </r>
       <r>    5.4701    1.0000 </r>
       <r>   26.5755    0.0000 </r>
       <r>   28.4454    0.0000 </r>
       <r>   28.4454    0.0000 </r>
       <r>   30.2105    0.0000 </r>
       <r>   37.1220    0.0000 </r>
       <r>   37.1220    0.0000 </r>
      </set>
      <set comment="kpoint 27">
       <r>    2.4576    1.0000 </r>
       <r>    2.7784    1.0000 </r>
       <r>    3.1720    1.0000 </r>
       <r>    5.3548    1.0000 </r>
       <r>    5.3806    1.0000 </r>
       <r>   12.1046    0.0000 </r>
       <r>   15.4772    0.0000 </r>
       <r>   16.7577    0.0000 </r>
       <r>   19.7062    0.0000 </r>
       <r>   40.5027    0.0000 </r>
       <r>   42.3540    0.0000 </r>
       <r>   45.9761    0.0000 </r>
      </set>
      <set comment="kpoint 28">
       <r>    0.5511    1.0000 </r>
       <r>    3.5221    1.0000 </r>
       <r>    3.6994    1.0000 </r>
       <r>    4.3386    1.0000 </r>
       <r>    4.9793    1.0000 </r>
       <r>    5.7749    1.0058 </r>
       <r>   23.0419    0.0000 </r>
       <r>   26.2907    0.0000 </r>
       <r>   26.3766    0.0000 </r>
       <r>   30.1722    0.0000 </r>
       <r>   36.5382    0.0000 </r>
       <r>   37.8716    0.0000 </r>
      </set>
      <set comment="kpoint 29">
       <r>    1.4620    1.0000 </r>
       <r>    3.2486    1.0000 </r>
       <r>    3.4382    1.0000 </r>
       <r>    4.7464    1.0000 </r>
       <r>    5.8613    1.0201 </r>
       <r>    6.7057   -0.0009 </r>
       <r>   18.4670    0.0000 </r>
       <r>   24.4725    0.0000 </r>
       <r>   25.0983    0.0000 </r>
       <r>   31.7484    0.0000 </r>
       <r>   35.4550    0.0000 </r>
       <r>   37.7839    0.0000 </r>
      </set>
      <set comment="kpoint 30">
       <r>    1.5329    1.0000 </r>
       <r>    2.9601    1.0000 </r>
       <r>    3.8360    1.0000 </r>
       <r>    4.4922    1.0000 </r>
       <r>    5.5229    1.0000 </r>
       <r>    6.7014   -0.0010 </r>
       <r>   21.0041    0.0000 </r>
       <r>   21.7461    0.0000 </r>
       <r>   27.2865    0.0000 </r>
       <r>   28.8698    0.0000 </r>
       <r>   36.0860    0.0000 </r>
       <r>   41.3601    0.0000 </r>
      </set>
      <set comment="kpoint 31">
       <r>    1.5579    1.0000 </r>
       <r>    3.2721    1.0000 </r>
       <r>    3.4606    1.0000 </r>
       <r>    4.8283    1.0000 </r>
       <r>    6.4784   -0.0310 </r>
       <r>    8.6637   -0.0000 </r>
       <r>   14.7346    0.0000 </r>
       <r>   23.3785    0.0000 </r>
       <r>   24.4085    0.0000 </r>
       <r>   33.8055    0.0000 </r>
       <r>   34.8668    0.0000 </r>
       <r>   36.7262    0.0000 </r>
      </set>
      <set comment="kpoint 32">
       <r>    1.9463    1.0000 </r>
       <r>    2.7204    1.0000 </r>
       <r>    3.6294    1.0000 </r>
       <r>    4.8519    1.0000 </r>
       <r>    6.0292    0.9960 </r>
       <r>    8.7778   -0.0000 </r>
       <r>   16.9000    0.0000 </r>
       <r>   20.1334    0.0000 </r>
       <r>   26.7239    0.0000 </r>
       <r>   30.3141    0.0000 </r>
       <r>   35.0165    0.0000 </r>
       <r>   39.8959    0.0000 </r>
      </set>
      <set comment="kpoint 33">
       <r>    1.8841    1.0000 </r>
       <r>    2.8936    1.0000 </r>
       <r>    3.4340    1.0000 </r>
       <r>    4.9511    1.0000 </r>
       <r>    6.3019    0.1091 </r>
       <r>   10.7558   -0.0000 </r>
       <r>   14.1725    0.0000 </r>
       <r>   19.6309    0.0000 </r>
       <r>   26.3537    0.0000 </r>
       <r>   32.0558    0.0000 </r>
       <r>   33.7462    0.0000 </r>
       <r>   38.5753    0.0000 </r>
      </set>
      <set comment="kpoint 34">
       <r>    2.3345    1.0000 </r>
       <r>    2.3914    1.0000 </r>
       <r>    3.3516    1.0000 </r>
       <r>    5.3791    1.0000 </r>
       <r>    5.9300    1.0342 </r>
       <r>   11.6971    0.0000 </r>
       <r>   15.3072    0.0000 </r>
       <r>   16.7029    0.0000 </r>
       <r>   28.7583    0.0000 </r>
       <r>   29.7958    0.0000 </r>
       <r>   32.9211    0.0000 </r>
       <r>   38.6042    0.0000 </r>
      </set>
      <set comment="kpoint 35">
       <r>    2.8238    1.0000 </r>
       <r>    2.8238    1.0000 </r>
       <r>    2.8238    1.0000 </r>
       <r>    5.3837    1.0000 </r>
       <r>    5.3837    1.0000 </r>
       <r>   15.0672    0.0000 </r>
       <r>   15.0672    0.0000 </r>
       <r>   15.0673    0.0000 </r>
       <r>   17.4560    0.0000 </r>
       <r>   45.8433    0.0000 </r>
       <r>   45.8433    0.0000 </r>
       <r>   45.8434    0.0000 </r>
      </set>
      <set comment="kpoint 36">
       <r>    1.3971    1.0000 </r>
       <r>    3.1057    1.0000 </r>
       <r>    4.2633    1.0000 </r>
       <r>    4.2634    1.0000 </r>
       <r>    5.0403    1.0000 </r>
       <r>    6.5032   -0.0256 </r>
       <r>   23.7515    0.0000 </r>
       <r>   23.7516    0.0000 </r>
       <r>   24.1025    0.0000 </r>
       <r>   26.6085    0.0000 </r>
       <r>   40.8555    0.0000 </r>
       <r>   40.8557    0.0000 </r>
      </set>
      <set comment="kpoint 37">
       <r>    1.8801    1.0000 </r>
       <r>    2.5153    1.0000 </r>
       <r>    4.3033    1.0000 </r>
       <r>    4.6630    1.0000 </r>
       <r>    5.7486    1.0036 </r>
       <r>    8.0742   -0.0000 </r>
       <r>   19.4340    0.0000 </r>
       <r>   21.7296    0.0000 </r>
       <r>   24.1273    0.0000 </r>
       <r>   27.1460    0.0000 </r>
       <r>   38.6634    0.0000 </r>
       <r>   39.7445    0.0000 </r>
      </set>
      <set comment="kpoint 38">
       <r>    1.8401    1.0000 </r>
       <r>    2.3629    1.0000 </r>
       <r>    4.2165    1.0000 </r>
       <r>    4.8410    1.0000 </r>
       <r>    6.3881   -0.0217 </r>
       <r>   10.6581   -0.0000 </r>
       <r>   15.3859    0.0000 </r>
       <r>   20.5436    0.0000 </r>
       <r>   23.8227    0.0000 </r>
       <r>   29.1131    0.0000 </r>
       <r>   35.1988    0.0000 </r>
       <r>   39.1041    0.0000 </r>
      </set>
      <set comment="kpoint 39">
       <r>    1.9486    1.0000 </r>
       <r>    2.0373    1.0000 </r>
       <r>    4.3841    1.0000 </r>
       <r>    5.2288    1.0000 </r>
       <r>    6.0885    0.8849 </r>
       <r>   10.4725   -0.0000 </r>
       <r>   17.7460    0.0000 </r>
       <r>   18.3011    0.0000 </r>
       <r>   25.0073    0.0000 </r>
       <r>   26.7475    0.0000 </r>
       <r>   34.6914    0.0000 </r>
       <r>   40.0026    0.0000 </r>
      </set>
      <set comment="kpoint 40">
       <r>    1.8224    1.0000 </r>
       <r>    1.9823    1.0000 </r>
       <r>    4.3254    1.0000 </r>
       <r>    5.5184    1.0000 </r>
       <r>    6.2536    0.2601 </r>
       <r>   13.0625    0.0000 </r>
       <r>   14.7577    0.0000 </r>
       <r>   17.5395    0.0000 </r>
       <r>   25.2719    0.0000 </r>
       <r>   27.6039    0.0000 </r>
       <r>   32.5401    0.0000 </r>
       <r>   39.7952    0.0000 </r>
      </set>
      <set comment="kpoint 41">
       <r>    1.7663    1.0000 </r>
       <r>    1.9423    1.0000 </r>
       <r>    5.1640    1.0000 </r>
       <r>    5.1641    1.0000 </r>
       <r>    5.7956    1.0082 </r>
       <r>    9.9972   -0.0000 </r>
       <r>   19.5204    0.0000 </r>
       <r>   19.5205    0.0000 </r>
       <r>   22.8248    0.0000 </r>
       <r>   24.9444    0.0000 </r>
       <r>   34.4644    0.0000 </r>
       <r>   43.2355    0.0000 </r>
      </set>
      <set comment="kpoint 42">
       <r>    1.5612    1.0000 </r>
       <r>    1.6175    1.0000 </r>
       <r>    5.3393    1.0000 </r>
       <r>    5.5447    1.0000 </r>
       <r>    6.2975    0.1206 </r>
       <r>   12.7387    0.0000 </r>
       <r>   16.4266    0.0000 </r>
       <r>   18.1998    0.0000 </r>
       <r>   23.1079    0.0000 </r>
       <r>   25.2991    0.0000 </r>
       <r>   31.1345    0.0000 </r>
       <r>   43.2834    0.0000 </r>
      </set>
      <set comment="kpoint 43">
       <r>    1.4285    1.0000 </r>
       <r>    1.4285    1.0000 </r>
       <r>    5.4505    1.0000 </r>
       <r>    6.1887    0.5226 </r>
       <r>    6.1889    0.5217 </r>
       <r>   15.4108    0.0000 </r>
       <r>   15.4109    0.0000 </r>
       <r>   16.2869    0.0000 </r>
       <r>   24.0511    0.0000 </r>
       <r>   24.0511    0.0000 </r>
       <r>   29.5154    0.0000 </r>
       <r>   43.8780    0.0000 </r>
      </set>
      <set comment="kpoint 44">
       <r>    1.2421    1.0000 </r>
       <r>    1.2455    1.0000 </r>
       <r>    6.1569    0.6542 </r>
       <r>    6.1571    0.6535 </r>
       <r>    6.2728    0.1937 </r>
       <r>   14.9978    0.0000 </r>
       <r>   16.7639    0.0000 </r>
       <r>   16.7641    0.0000 </r>
       <r>   22.2953    0.0000 </r>
       <r>   23.2038    0.0000 </r>
       <r>   28.4252    0.0000 </r>
       <r>   45.7993    0.0000 </r>
      </set>
     </set>
     <set comment="spin 2">
      <set comment="kpoint 1">
       <r>   -1.6304    1.0000 </r>
       <r>    5.5852    1.0001 </r>
       <r>    5.5852    1.0001 </r>
       <r>    6.1947    0.4971 </r>
       <r>    7.7670   -0.0000 </r>
       <r>    7.7670   -0.0000 </r>
       <r>   29.1803    0.0000 </r>
       <r>   29.1803    0.0000 </r>
       <r>   31.8994    0.0000 </r>
       <r>   34.7647    0.0000 </r>
       <r>   37.7045    0.0000 </r>
       <r>   37.7045    0.0000 </r>
      </set>
      <set comment="kpoint 2">
       <r>   -0.4548    1.0000 </r>
       <r>    5.2029    1.0000 </r>
       <r>    5.3587    1.0000 </r>
       <r>    6.9459   -0.0000 </r>
       <r>    7.5745   -0.0000 </r>
       <r>    7.8636   -0.0000 </r>
       <r>   25.3237    0.0000 </r>
       <r>   27.4196    0.0000 </r>
       <r>   31.1717    0.0000 </r>
       <r>   32.3806    0.0000 </r>
       <r>   37.7168    0.0000 </r>
       <r>   37.8655    0.0000 </r>
      </set>
      <set comment="kpoint 3">
       <r>    1.1464    1.0000 </r>
       <r>    4.7854    1.0000 </r>
       <r>    5.1653    1.0000 </r>
       <r>    7.5815   -0.0000 </r>
       <r>    7.9611   -0.0000 </r>
       <r>    7.9776   -0.0000 </r>
       <r>   20.9778    0.0000 </r>
       <r>   25.6786    0.0000 </r>
       <r>   28.5863    0.0000 </r>
       <r>   32.2966    0.0000 </r>
       <r>   36.8398    0.0000 </r>
       <r>   39.6822    0.0000 </r>
      </set>
      <set comment="kpoint 4">
       <r>    2.2862    1.0000 </r>
       <r>    4.4744    1.0000 </r>
       <r>    5.6808    1.0009 </r>
       <r>    7.7001   -0.0000 </r>
       <r>    8.0816   -0.0000 </r>
       <r>    8.9862   -0.0000 </r>
       <r>   17.1155    0.0000 </r>
       <r>   24.4235    0.0000 </r>
       <r>   26.8270    0.0000 </r>
       <r>   32.0966    0.0000 </r>
       <r>   36.5236    0.0000 </r>
       <r>   41.8130    0.0000 </r>
      </set>
      <set comment="kpoint 5">
       <r>    2.5251    1.0000 </r>
       <r>    4.3606    1.0000 </r>
       <r>    6.3655   -0.0032 </r>
       <r>    7.7501   -0.0000 </r>
       <r>    8.1216   -0.0000 </r>
       <r>    9.5549   -0.0000 </r>
       <r>   15.2720    0.0000 </r>
       <r>   23.9665    0.0000 </r>
       <r>   26.1704    0.0000 </r>
       <r>   32.0143    0.0000 </r>
       <r>   36.5137    0.0000 </r>
       <r>   41.5876    0.0000 </r>
      </set>
      <set comment="kpoint 6">
       <r>   -2.0486    1.0000 </r>
       <r>    5.7425    1.0032 </r>
       <r>    5.7427    1.0032 </r>
       <r>    5.8193    1.0118 </r>
       <r>    7.7199   -0.0000 </r>
       <r>    7.8953   -0.0000 </r>
       <r>   30.2505    0.0000 </r>
       <r>   31.2457    0.0000 </r>
       <r>   31.2457    0.0000 </r>
       <r>   35.6672    0.0000 </r>
       <r>   38.3182    0.0000 </r>
       <r>   38.3184    0.0000 </r>
      </set>
      <set comment="kpoint 7">
       <r>    0.9285    1.0000 </r>
       <r>    4.8926    1.0000 </r>
       <r>    4.8985    1.0000 </r>
       <r>    7.5769   -0.0000 </r>
       <r>    7.9248   -0.0000 </r>
       <r>    8.0295   -0.0000 </r>
       <r>   23.0916    0.0000 </r>
       <r>   24.0024    0.0000 </r>
       <r>   27.7409    0.0000 </r>
       <r>   33.7374    0.0000 </r>
       <r>   38.3844    0.0000 </r>
       <r>   40.0713    0.0000 </r>
      </set>
      <set comment="kpoint 8">
       <r>    2.4008    1.0000 </r>
       <r>    4.5145    1.0000 </r>
       <r>    4.8205    1.0000 </r>
       <r>    7.6599   -0.0000 </r>
       <r>    8.0835   -0.0000 </r>
       <r>    9.2906   -0.0000 </r>
       <r>   19.2418    0.0000 </r>
       <r>   22.1634    0.0000 </r>
       <r>   25.7889    0.0000 </r>
       <r>   34.1952    0.0000 </r>
       <r>   39.1170    0.0000 </r>
       <r>   40.7497    0.0000 </r>
      </set>
      <set comment="kpoint 9">
       <r>    2.9849    1.0000 </r>
       <r>    4.3348    1.0000 </r>
       <r>    5.3611    1.0000 </r>
       <r>    7.7824   -0.0000 </r>
       <r>    8.1478   -0.0000 </r>
       <r>   10.6802   -0.0000 </r>
       <r>   15.9126    0.0000 </r>
       <r>   21.3025    0.0000 </r>
       <r>   24.8052    0.0000 </r>
       <r>   34.1973    0.0000 </r>
       <r>   39.9475    0.0000 </r>
       <r>   40.6985    0.0000 </r>
      </set>
      <set comment="kpoint 10">
       <r>   -1.2245    1.0000 </r>
       <r>    5.5071    1.0000 </r>
       <r>    5.6690    1.0007 </r>
       <r>    6.2851    0.1555 </r>
       <r>    7.4269   -0.0000 </r>
       <r>    7.9710   -0.0000 </r>
       <r>   27.4072    0.0000 </r>
       <r>   29.8947    0.0000 </r>
       <r>   30.7952    0.0000 </r>
       <r>   34.8486    0.0000 </r>
       <r>   35.5836    0.0000 </r>
       <r>   36.4281    0.0000 </r>
      </set>
      <set comment="kpoint 11">
       <r>    3.4270    1.0000 </r>
       <r>    4.3095    1.0000 </r>
       <r>    4.7116    1.0000 </r>
       <r>    7.7837   -0.0000 </r>
       <r>    8.1273   -0.0000 </r>
       <r>   11.1586   -0.0000 </r>
       <r>   17.6011    0.0000 </r>
       <r>   18.5992    0.0000 </r>
       <r>   24.6190    0.0000 </r>
       <r>   35.5947    0.0000 </r>
       <r>   38.7166    0.0000 </r>
       <r>   44.9486    0.0000 </r>
      </set>
      <set comment="kpoint 12">
       <r>    3.6561    1.0000 </r>
       <r>    4.3197    1.0000 </r>
       <r>    4.7898    1.0000 </r>
       <r>    7.8988   -0.0000 </r>
       <r>    8.0867   -0.0000 </r>
       <r>   12.9473    0.0000 </r>
       <r>   15.2737    0.0000 </r>
       <r>   17.8702    0.0000 </r>
       <r>   24.2665    0.0000 </r>
       <r>   36.1881    0.0000 </r>
       <r>   38.5089    0.0000 </r>
       <r>   44.8562    0.0000 </r>
      </set>
      <set comment="kpoint 13">
       <r>    0.2371    1.0000 </r>
       <r>    5.1054    1.0000 </r>
       <r>    5.4302    1.0000 </r>
       <r>    7.1475   -0.0000 </r>
       <r>    7.3245   -0.0000 </r>
       <r>    8.0490   -0.0000 </r>
       <r>   23.1479    0.0000 </r>
       <r>   27.7549    0.0000 </r>
       <r>   29.7777    0.0000 </r>
       <r>   33.2017    0.0000 </r>
       <r>   34.9810    0.0000 </r>
       <r>   36.7750    0.0000 </r>
      </set>
      <set comment="kpoint 14">
       <r>   -0.0873    1.0000 </r>
       <r>    5.3720    1.0000 </r>
       <r>    5.4137    1.0000 </r>
       <r>    6.9116   -0.0000 </r>
       <r>    7.1057   -0.0000 </r>
       <r>    8.1264   -0.0000 </r>
       <r>   25.1594    0.0000 </r>
       <r>   26.5256    0.0000 </r>
       <r>   30.8856    0.0000 </r>
       <r>   32.3961    0.0000 </r>
       <r>   34.8451    0.0000 </r>
       <r>   38.2496    0.0000 </r>
      </set>
      <set comment="kpoint 15">
       <r>    1.7466    1.0000 </r>
       <r>    4.7261    1.0000 </r>
       <r>    5.4704    1.0000 </r>
       <r>    7.4947   -0.0000 </r>
       <r>    8.1200   -0.0000 </r>
       <r>    8.1721   -0.0000 </r>
       <r>   18.8983    0.0000 </r>
       <r>   25.9927    0.0000 </r>
       <r>   28.1621    0.0000 </r>
       <r>   32.0756    0.0000 </r>
       <r>   34.9380    0.0000 </r>
       <r>   38.6249    0.0000 </r>
      </set>
      <set comment="kpoint 16">
       <r>    1.4559    1.0000 </r>
       <r>    4.9597    1.0000 </r>
       <r>    5.1825    1.0000 </r>
       <r>    7.1485   -0.0000 </r>
       <r>    7.8444   -0.0000 </r>
       <r>    8.3603   -0.0000 </r>
       <r>   21.2394    0.0000 </r>
       <r>   24.2282    0.0000 </r>
       <r>   29.3768    0.0000 </r>
       <r>   31.8261    0.0000 </r>
       <r>   35.3937    0.0000 </r>
       <r>   38.8801    0.0000 </r>
      </set>
      <set comment="kpoint 17">
       <r>    2.3949    1.0000 </r>
       <r>    4.5011    1.0000 </r>
       <r>    6.2438    0.2966 </r>
       <r>    7.6292   -0.0000 </r>
       <r>    8.4798   -0.0000 </r>
       <r>    8.7979   -0.0000 </r>
       <r>   15.7814    0.0000 </r>
       <r>   25.0143    0.0000 </r>
       <r>   26.9474    0.0000 </r>
       <r>   31.7192    0.0000 </r>
       <r>   35.1426    0.0000 </r>
       <r>   39.6800    0.0000 </r>
      </set>
      <set comment="kpoint 18">
       <r>    2.5771    1.0000 </r>
       <r>    4.6888    1.0000 </r>
       <r>    5.3032    1.0000 </r>
       <r>    7.4069   -0.0000 </r>
       <r>    8.2677   -0.0000 </r>
       <r>    9.3393   -0.0000 </r>
       <r>   17.2913    0.0000 </r>
       <r>   22.9487    0.0000 </r>
       <r>   27.6816    0.0000 </r>
       <r>   32.0966    0.0000 </r>
       <r>   36.3994    0.0000 </r>
       <r>   38.6839    0.0000 </r>
      </set>
      <set comment="kpoint 19">
       <r>    2.7757    1.0000 </r>
       <r>    4.5324    1.0000 </r>
       <r>    5.0837    1.0000 </r>
       <r>    7.2565   -0.0000 </r>
       <r>    8.1290   -0.0000 </r>
       <r>    9.6271   -0.0000 </r>
       <r>   19.4410    0.0000 </r>
       <r>   20.1751    0.0000 </r>
       <r>   29.0544    0.0000 </r>
       <r>   31.3645    0.0000 </r>
       <r>   35.2822    0.0000 </r>
       <r>   43.1518    0.0000 </r>
      </set>
      <set comment="kpoint 20">
       <r>    2.8145    1.0000 </r>
       <r>    4.6092    1.0000 </r>
       <r>    5.6100    1.0001 </r>
       <r>    7.4889   -0.0000 </r>
       <r>    8.4762   -0.0000 </r>
       <r>   10.2088   -0.0000 </r>
       <r>   15.2885    0.0000 </r>
       <r>   22.4777    0.0000 </r>
       <r>   27.0655    0.0000 </r>
       <r>   32.2071    0.0000 </r>
       <r>   37.3241    0.0000 </r>
       <r>   38.1620    0.0000 </r>
      </set>
      <set comment="kpoint 21">
       <r>    3.4555    1.0000 </r>
       <r>    4.4897    1.0000 </r>
       <r>    4.9325    1.0000 </r>
       <r>    7.5150   -0.0000 </r>
       <r>    8.1772   -0.0000 </r>
       <r>   11.5708   -0.0000 </r>
       <r>   16.1017    0.0000 </r>
       <r>   19.0028    0.0000 </r>
       <r>   28.3188    0.0000 </r>
       <r>   32.1419    0.0000 </r>
       <r>   35.1920    0.0000 </r>
       <r>   42.5890    0.0000 </r>
      </set>
      <set comment="kpoint 22">
       <r>    4.1128    1.0000 </r>
       <r>    4.4152    1.0000 </r>
       <r>    4.4153    1.0000 </r>
       <r>    7.8737   -0.0000 </r>
       <r>    7.8739   -0.0000 </r>
       <r>   14.3506    0.0000 </r>
       <r>   14.3508    0.0000 </r>
       <r>   16.9361    0.0000 </r>
       <r>   28.5484    0.0000 </r>
       <r>   33.4493    0.0000 </r>
       <r>   33.4494    0.0000 </r>
       <r>   42.4880    0.0000 </r>
      </set>
      <set comment="kpoint 23">
       <r>    2.3676    1.0000 </r>
       <r>    4.4880    1.0000 </r>
       <r>    4.4880    1.0000 </r>
       <r>    7.9147   -0.0000 </r>
       <r>    7.9147   -0.0000 </r>
       <r>    9.3337   -0.0000 </r>
       <r>   21.4503    0.0000 </r>
       <r>   21.4503    0.0000 </r>
       <r>   23.4584    0.0000 </r>
       <r>   36.4890    0.0000 </r>
       <r>   41.2317    0.0000 </r>
       <r>   41.2317    0.0000 </r>
      </set>
      <set comment="kpoint 24">
       <r>    3.4340    1.0000 </r>
       <r>    4.2497    1.0000 </r>
       <r>    4.5439    1.0000 </r>
       <r>    7.9573   -0.0000 </r>
       <r>    8.0949   -0.0000 </r>
       <r>   10.9940   -0.0000 </r>
       <r>   17.7841    0.0000 </r>
       <r>   20.3944    0.0000 </r>
       <r>   21.6200    0.0000 </r>
       <r>   37.7835    0.0000 </r>
       <r>   42.1814    0.0000 </r>
       <r>   43.2673    0.0000 </r>
      </set>
      <set comment="kpoint 25">
       <r>    3.5299    1.0000 </r>
       <r>    4.1710    1.0000 </r>
       <r>    4.9735    1.0000 </r>
       <r>    7.9923   -0.0000 </r>
       <r>    8.1546   -0.0000 </r>
       <r>   12.4218    0.0000 </r>
       <r>   15.4263    0.0000 </r>
       <r>   20.0203    0.0000 </r>
       <r>   21.1085    0.0000 </r>
       <r>   37.8990    0.0000 </r>
       <r>   43.0800    0.0000 </r>
       <r>   43.3014    0.0000 </r>
      </set>
      <set comment="kpoint 26">
       <r>   -0.4450    1.0000 </r>
       <r>    5.7587    1.0043 </r>
       <r>    5.7589    1.0043 </r>
       <r>    6.3081    0.0938 </r>
       <r>    6.7787   -0.0001 </r>
       <r>    8.2090   -0.0000 </r>
       <r>   26.8443    0.0000 </r>
       <r>   28.9460    0.0000 </r>
       <r>   28.9461    0.0000 </r>
       <r>   30.6536    0.0000 </r>
       <r>   37.5249    0.0000 </r>
       <r>   37.5249    0.0000 </r>
      </set>
      <set comment="kpoint 27">
       <r>    3.9292    1.0000 </r>
       <r>    4.2469    1.0000 </r>
       <r>    4.4707    1.0000 </r>
       <r>    8.0811   -0.0000 </r>
       <r>    8.1433   -0.0000 </r>
       <r>   13.3013    0.0000 </r>
       <r>   16.4255    0.0000 </r>
       <r>   17.6133    0.0000 </r>
       <r>   20.3978    0.0000 </r>
       <r>   40.4625    0.0000 </r>
       <r>   42.4209    0.0000 </r>
       <r>   46.0918    0.0000 </r>
      </set>
      <set comment="kpoint 28">
       <r>    0.9186    1.0000 </r>
       <r>    5.5163    1.0000 </r>
       <r>    5.5654    1.0000 </r>
       <r>    6.5405   -0.0172 </r>
       <r>    7.0449   -0.0000 </r>
       <r>    8.4124   -0.0000 </r>
       <r>   23.7009    0.0000 </r>
       <r>   26.7645    0.0000 </r>
       <r>   26.9261    0.0000 </r>
       <r>   30.6272    0.0000 </r>
       <r>   36.9958    0.0000 </r>
       <r>   38.2649    0.0000 </r>
      </set>
      <set comment="kpoint 29">
       <r>    2.3199    1.0000 </r>
       <r>    5.0336    1.0000 </r>
       <r>    5.2590    1.0000 </r>
       <r>    6.9446   -0.0000 </r>
       <r>    8.0303   -0.0000 </r>
       <r>    8.8633   -0.0000 </r>
       <r>   19.3758    0.0000 </r>
       <r>   25.1239    0.0000 </r>
       <r>   25.4884    0.0000 </r>
       <r>   32.1474    0.0000 </r>
       <r>   35.9453    0.0000 </r>
       <r>   38.2510    0.0000 </r>
      </set>
      <set comment="kpoint 30">
       <r>    2.2273    1.0000 </r>
       <r>    4.9442    1.0000 </r>
       <r>    5.6570    1.0005 </r>
       <r>    6.5969   -0.0076 </r>
       <r>    7.7147   -0.0000 </r>
       <r>    8.9037   -0.0000 </r>
       <r>   21.7940    0.0000 </r>
       <r>   22.4232    0.0000 </r>
       <r>   27.7366    0.0000 </r>
       <r>   29.3291    0.0000 </r>
       <r>   36.5610    0.0000 </r>
       <r>   41.7448    0.0000 </r>
      </set>
      <set comment="kpoint 31">
       <r>    2.9387    1.0000 </r>
       <r>    5.0658    1.0000 </r>
       <r>    5.0821    1.0000 </r>
       <r>    7.1218   -0.0000 </r>
       <r>    8.7354   -0.0000 </r>
       <r>   10.0736   -0.0000 </r>
       <r>   15.9451    0.0000 </r>
       <r>   23.9946    0.0000 </r>
       <r>   24.8001    0.0000 </r>
       <r>   34.0814    0.0000 </r>
       <r>   35.3778    0.0000 </r>
       <r>   37.2742    0.0000 </r>
      </set>
      <set comment="kpoint 32">
       <r>    3.2245    1.0000 </r>
       <r>    4.4882    1.0000 </r>
       <r>    5.4389    1.0000 </r>
       <r>    7.0132   -0.0000 </r>
       <r>    8.2743   -0.0000 </r>
       <r>   10.3604   -0.0000 </r>
       <r>   17.8666    0.0000 </r>
       <r>   20.8490    0.0000 </r>
       <r>   27.1680    0.0000 </r>
       <r>   30.7060    0.0000 </r>
       <r>   35.5003    0.0000 </r>
       <r>   40.6120    0.0000 </r>
      </set>
      <set comment="kpoint 33">
       <r>    3.4527    1.0000 </r>
       <r>    4.5469    1.0000 </r>
       <r>    5.2279    1.0000 </r>
       <r>    7.1430   -0.0000 </r>
       <r>    8.5525   -0.0000 </r>
       <r>   11.9293    0.0000 </r>
       <r>   15.3839    0.0000 </r>
       <r>   20.3321    0.0000 </r>
       <r>   26.7940    0.0000 </r>
       <r>   32.3061    0.0000 </r>
       <r>   34.3253    0.0000 </r>
       <r>   39.3693    0.0000 </r>
      </set>
      <set comment="kpoint 34">
       <r>    3.9598    1.0000 </r>
       <r>    4.0992    1.0000 </r>
       <r>    5.0910    1.0000 </r>
       <r>    7.5547   -0.0000 </r>
       <r>    8.1616   -0.0000 </r>
       <r>   12.9098    0.0000 </r>
       <r>   16.3270    0.0000 </r>
       <r>   17.5398    0.0000 </r>
       <r>   29.1356    0.0000 </r>
       <r>   30.1750    0.0000 </r>
       <r>   33.4674    0.0000 </r>
       <r>   39.4530    0.0000 </r>
      </set>
      <set comment="kpoint 35">
       <r>    4.2440    1.0000 </r>
       <r>    4.2440    1.0000 </r>
       <r>    4.2442    1.0000 </r>
       <r>    8.1713   -0.0000 </r>
       <r>    8.1713   -0.0000 </r>
       <r>   16.0182    0.0000 </r>
       <r>   16.0182    0.0000 </r>
       <r>   16.0184    0.0000 </r>
       <r>   18.2213    0.0000 </r>
       <r>   45.6585    0.0000 </r>
       <r>   45.6585    0.0000 </r>
       <r>   45.6585    0.0000 </r>
      </set>
      <set comment="kpoint 36">
       <r>    2.0168    1.0000 </r>
       <r>    5.2958    1.0000 </r>
       <r>    6.1492    0.6847 </r>
       <r>    6.1494    0.6839 </r>
       <r>    7.1272   -0.0000 </r>
       <r>    8.8292   -0.0000 </r>
       <r>   24.4209    0.0000 </r>
       <r>   24.4209    0.0000 </r>
       <r>   24.7141    0.0000 </r>
       <r>   27.0793    0.0000 </r>
       <r>   41.2288    0.0000 </r>
       <r>   41.2288    0.0000 </r>
      </set>
      <set comment="kpoint 37">
       <r>    3.0104    1.0000 </r>
       <r>    4.5057    1.0000 </r>
       <r>    6.1961    0.4913 </r>
       <r>    6.6477   -0.0031 </r>
       <r>    7.9054   -0.0000 </r>
       <r>    9.7843   -0.0000 </r>
       <r>   20.2342    0.0000 </r>
       <r>   22.3720    0.0000 </r>
       <r>   24.7639    0.0000 </r>
       <r>   27.6472    0.0000 </r>
       <r>   39.3883    0.0000 </r>
       <r>   40.2168    0.0000 </r>
      </set>
      <set comment="kpoint 38">
       <r>    3.4705    1.0000 </r>
       <r>    4.1012    1.0000 </r>
       <r>    6.0995    0.8546 </r>
       <r>    6.8740   -0.0000 </r>
       <r>    8.6335   -0.0000 </r>
       <r>   11.8311    0.0000 </r>
       <r>   16.3929    0.0000 </r>
       <r>   21.1311    0.0000 </r>
       <r>   24.4819    0.0000 </r>
       <r>   29.5101    0.0000 </r>
       <r>   36.0565    0.0000 </r>
       <r>   39.5704    0.0000 </r>
      </set>
      <set comment="kpoint 39">
       <r>    3.4755    1.0000 </r>
       <r>    3.9327    1.0000 </r>
       <r>    6.2678    0.2103 </r>
       <r>    7.2606   -0.0000 </r>
       <r>    8.2900   -0.0000 </r>
       <r>   11.6922    0.0000 </r>
       <r>   18.5727    0.0000 </r>
       <r>   18.9894    0.0000 </r>
       <r>   25.6251    0.0000 </r>
       <r>   27.2748    0.0000 </r>
       <r>   35.5207    0.0000 </r>
       <r>   40.4966    0.0000 </r>
      </set>
      <set comment="kpoint 40">
       <r>    3.6080    1.0000 </r>
       <r>    3.7256    1.0000 </r>
       <r>    6.1711    0.5966 </r>
       <r>    7.6032   -0.0000 </r>
       <r>    8.4712   -0.0000 </r>
       <r>   14.0077    0.0000 </r>
       <r>   15.7121    0.0000 </r>
       <r>   18.2356    0.0000 </r>
       <r>   25.8711    0.0000 </r>
       <r>   28.0540    0.0000 </r>
       <r>   33.4902    0.0000 </r>
       <r>   40.2944    0.0000 </r>
      </set>
      <set comment="kpoint 41">
       <r>    3.2716    1.0000 </r>
       <r>    3.8882    1.0000 </r>
       <r>    7.1400   -0.0000 </r>
       <r>    7.1402   -0.0000 </r>
       <r>    7.9725   -0.0000 </r>
       <r>   11.1992   -0.0000 </r>
       <r>   20.1032    0.0000 </r>
       <r>   20.1032    0.0000 </r>
       <r>   23.7037    0.0000 </r>
       <r>   25.5902    0.0000 </r>
       <r>   35.3081    0.0000 </r>
       <r>   43.6447    0.0000 </r>
      </set>
      <set comment="kpoint 42">
       <r>    3.3068    1.0000 </r>
       <r>    3.4407    1.0000 </r>
       <r>    7.3696   -0.0000 </r>
       <r>    7.5809   -0.0000 </r>
       <r>    8.5323   -0.0000 </r>
       <r>   13.5919    0.0000 </r>
       <r>   17.1074    0.0000 </r>
       <r>   18.6951    0.0000 </r>
       <r>   23.9646    0.0000 </r>
       <r>   25.9346    0.0000 </r>
       <r>   32.1151    0.0000 </r>
       <r>   43.6766    0.0000 </r>
      </set>
      <set comment="kpoint 43">
       <r>    3.2271    1.0000 </r>
       <r>    3.2271    1.0000 </r>
       <r>    7.4789   -0.0000 </r>
       <r>    8.3844   -0.0000 </r>
       <r>    8.3848   -0.0000 </r>
       <r>   16.0445    0.0000 </r>
       <r>   16.0446    0.0000 </r>
       <r>   16.8365    0.0000 </r>
       <r>   24.8002    0.0000 </r>
       <r>   24.8002    0.0000 </r>
       <r>   30.5821    0.0000 </r>
       <r>   44.2561    0.0000 </r>
      </set>
      <set comment="kpoint 44">
       <r>    3.0294    1.0000 </r>
       <r>    3.0603    1.0000 </r>
       <r>    8.3452   -0.0000 </r>
       <r>    8.3455   -0.0000 </r>
       <r>    8.5092   -0.0000 </r>
       <r>   15.5096    0.0000 </r>
       <r>   17.1251    0.0000 </r>
       <r>   17.1252    0.0000 </r>
       <r>   23.3165    0.0000 </r>
       <r>   24.0780    0.0000 </r>
       <r>   29.5206    0.0000 </r>
       <r>   46.0826    0.0000 </r>
      </set>
     </set>
    </set>
   </array>
  </eigenvalues>
  <separator name="orbital magnetization" >
   <v name="MAGDIPOLOUT">      0.00000000      0.00000000      0.00000000</v>
  </separator>
  <dos>
   <i name="efermi">      6.19405156 </i>
   <total>
    <array>
     <dimension dim="1">gridpoints</dimension>
     <dimension dim="2">spin</dimension>
     <field>energy</field>
     <field>total</field>
     <field>integrated</field>
     <set>
      <set comment="spin 1">
       <r>    -4.6689     0.0000     0.0000 </r>
       <r>    -4.4916     0.0000     0.0000 </r>
       <r>    -4.3143     0.0000     0.0000 </r>
       <r>    -4.1371     0.0000     0.0000 </r>
       <r>    -3.9598    -0.0000    -0.0000 </r>
       <r>    -3.7826    -0.0000    -0.0000 </r>
       <r>    -3.6053    -0.0000    -0.0000 </r>
       <r>    -3.4280    -0.0000    -0.0000 </r>
       <r>    -3.2508    -0.0000    -0.0000 </r>
       <r>    -3.0735    -0.0000    -0.0000 </r>
       <r>    -2.8963    -0.0000    -0.0000 </r>
       <r>    -2.7190    -0.0001    -0.0000 </r>
       <r>    -2.5417    -0.0009    -0.0002 </r>
       <r>    -2.3645     0.0043     0.0006 </r>
       <r>    -2.1872     0.0217     0.0044 </r>
       <r>    -2.0100     0.0099     0.0062 </r>
       <r>    -1.8327     0.0215     0.0100 </r>
       <r>    -1.6554     0.0190     0.0133 </r>
       <r>    -1.4782     0.0500     0.0222 </r>
       <r>    -1.3009     0.0832     0.0369 </r>
       <r>    -1.1237     0.0084     0.0384 </r>
       <r>    -0.9464    -0.0083     0.0370 </r>
       <r>    -0.7691     0.0384     0.0438 </r>
       <r>    -0.5919     0.1095     0.0632 </r>
       <r>    -0.4146     0.0619     0.0742 </r>
       <r>    -0.2374     0.0874     0.0897 </r>
       <r>    -0.0601     0.0907     0.1057 </r>
       <r>     0.1171     0.0597     0.1163 </r>
       <r>     0.2944    -0.0098     0.1146 </r>
       <r>     0.4717     0.0405     0.1217 </r>
       <r>     0.6489     0.2237     0.1614 </r>
       <r>     0.8262     0.1740     0.1922 </r>
       <r>     1.0034     0.2583     0.2380 </r>
       <r>     1.1807     0.2931     0.2900 </r>
       <r>     1.3580     0.3128     0.3454 </r>
       <r>     1.5352     0.7376     0.4762 </r>
       <r>     1.7125     0.8194     0.6214 </r>
       <r>     1.8897     0.7785     0.7594 </r>
       <r>     2.0670     0.9076     0.9203 </r>
       <r>     2.2443     0.5540     1.0185 </r>
       <r>     2.4215     0.4272     1.0942 </r>
       <r>     2.5988     0.5448     1.1908 </r>
       <r>     2.7760     1.3379     1.4280 </r>
       <r>     2.9533     1.4230     1.6802 </r>
       <r>     3.1306     0.7586     1.8147 </r>
       <r>     3.3078     0.9805     1.9885 </r>
       <r>     3.4851     1.6283     2.2771 </r>
       <r>     3.6623     1.3474     2.5160 </r>
       <r>     3.8396     0.7564     2.6500 </r>
       <r>     4.0169     0.3478     2.7117 </r>
       <r>     4.1941     0.5014     2.8006 </r>
       <r>     4.3714     0.7532     2.9341 </r>
       <r>     4.5486     0.3611     2.9981 </r>
       <r>     4.7259     0.5405     3.0939 </r>
       <r>     4.9031     1.3291     3.3295 </r>
       <r>     5.0804     1.6879     3.6287 </r>
       <r>     5.2577     2.0708     3.9958 </r>
       <r>     5.4349     2.2328     4.3916 </r>
       <r>     5.6122     1.3723     4.6348 </r>
       <r>     5.7894     0.6438     4.7489 </r>
       <r>     5.9667     0.9691     4.9207 </r>
       <r>     6.1440     0.8424     5.0700 </r>
       <r>     6.3212     0.5571     5.1688 </r>
       <r>     6.4985     0.3844     5.2369 </r>
       <r>     6.6757     0.2781     5.2862 </r>
       <r>     6.8530     0.2368     5.3282 </r>
       <r>     7.0303     0.1048     5.3468 </r>
       <r>     7.2075     0.0655     5.3584 </r>
       <r>     7.3848     0.1578     5.3863 </r>
       <r>     7.5620     0.3467     5.4478 </r>
       <r>     7.7393     0.1543     5.4752 </r>
       <r>     7.9166     0.0890     5.4909 </r>
       <r>     8.0938     0.1316     5.5143 </r>
       <r>     8.2711     0.0705     5.5268 </r>
       <r>     8.4483    -0.0134     5.5244 </r>
       <r>     8.6256     0.0567     5.5344 </r>
       <r>     8.8029     0.2901     5.5859 </r>
       <r>     8.9801     0.1983     5.6210 </r>
       <r>     9.1574     0.0671     5.6329 </r>
       <r>     9.3346     0.1943     5.6673 </r>
       <r>     9.5119     0.1437     5.6928 </r>
       <r>     9.6891     0.1090     5.7121 </r>
       <r>     9.8664     0.0340     5.7182 </r>
       <r>    10.0437     0.0324     5.7239 </r>
       <r>    10.2209     0.1708     5.7542 </r>
       <r>    10.3982     0.1304     5.7773 </r>
       <r>    10.5754     0.1144     5.7976 </r>
       <r>    10.7527     0.1769     5.8290 </r>
       <r>    10.9300     0.0889     5.8447 </r>
       <r>    11.1072     0.0015     5.8450 </r>
       <r>    11.2845     0.0382     5.8518 </r>
       <r>    11.4617     0.0180     5.8549 </r>
       <r>    11.6390     0.0486     5.8636 </r>
       <r>    11.8163     0.1685     5.8934 </r>
       <r>    11.9935     0.0816     5.9079 </r>
       <r>    12.1708     0.0829     5.9226 </r>
       <r>    12.3480     0.0341     5.9286 </r>
       <r>    12.5253    -0.0070     5.9274 </r>
       <r>    12.7026     0.0488     5.9360 </r>
       <r>    12.8798     0.0814     5.9505 </r>
       <r>    13.0571     0.0770     5.9641 </r>
       <r>    13.2343     0.1183     5.9851 </r>
       <r>    13.4116     0.0429     5.9927 </r>
       <r>    13.5889    -0.0067     5.9915 </r>
       <r>    13.7661     0.0040     5.9922 </r>
       <r>    13.9434     0.1078     6.0113 </r>
       <r>    14.1206     0.2048     6.0476 </r>
       <r>    14.2979     0.1993     6.0829 </r>
       <r>    14.4751     0.0838     6.0978 </r>
       <r>    14.6524     0.1720     6.1283 </r>
       <r>    14.8297     0.3709     6.1940 </r>
       <r>    15.0069     0.2723     6.2423 </r>
       <r>    15.1842     0.1499     6.2689 </r>
       <r>    15.3614     0.1903     6.3026 </r>
       <r>    15.5387     0.2631     6.3492 </r>
       <r>    15.7160     0.0436     6.3570 </r>
       <r>    15.8932     0.0055     6.3579 </r>
       <r>    16.0705     0.1244     6.3800 </r>
       <r>    16.2477     0.2257     6.4200 </r>
       <r>    16.4250     0.1941     6.4544 </r>
       <r>    16.6023     0.1213     6.4759 </r>
       <r>    16.7795     0.3417     6.5365 </r>
       <r>    16.9568     0.4353     6.6136 </r>
       <r>    17.1340     0.1921     6.6477 </r>
       <r>    17.3113     0.0036     6.6483 </r>
       <r>    17.4886     0.0367     6.6548 </r>
       <r>    17.6658     0.1283     6.6776 </r>
       <r>    17.8431     0.2063     6.7141 </r>
       <r>    18.0203     0.1443     6.7397 </r>
       <r>    18.1976     0.2181     6.7784 </r>
       <r>    18.3749     0.4791     6.8633 </r>
       <r>    18.5521     0.3431     6.9241 </r>
       <r>    18.7294     0.0889     6.9399 </r>
       <r>    18.9066    -0.0081     6.9384 </r>
       <r>    19.0839    -0.0095     6.9368 </r>
       <r>    19.2611     0.0137     6.9392 </r>
       <r>    19.4384     0.1919     6.9732 </r>
       <r>    19.6157     0.3006     7.0265 </r>
       <r>    19.7929     0.2623     7.0730 </r>
       <r>    19.9702     0.0600     7.0836 </r>
       <r>    20.1474     0.1809     7.1157 </r>
       <r>    20.3247     0.2334     7.1570 </r>
       <r>    20.5020     0.2664     7.2043 </r>
       <r>    20.6792     0.3147     7.2600 </r>
       <r>    20.8565     0.2579     7.3058 </r>
       <r>    21.0337     0.1947     7.3403 </r>
       <r>    21.2110     0.0581     7.3506 </r>
       <r>    21.3883    -0.0039     7.3499 </r>
       <r>    21.5655     0.1511     7.3767 </r>
       <r>    21.7428     0.2654     7.4237 </r>
       <r>    21.9200     0.1968     7.4586 </r>
       <r>    22.0973     0.0572     7.4687 </r>
       <r>    22.2746     0.0431     7.4764 </r>
       <r>    22.4518     0.3091     7.5312 </r>
       <r>    22.6291     0.2431     7.5742 </r>
       <r>    22.8063     0.0399     7.5813 </r>
       <r>    22.9836     0.0703     7.5938 </r>
       <r>    23.1609     0.1797     7.6256 </r>
       <r>    23.3381     0.1429     7.6510 </r>
       <r>    23.5154     0.1800     7.6829 </r>
       <r>    23.6926     0.3299     7.7414 </r>
       <r>    23.8699     0.3259     7.7991 </r>
       <r>    24.0472     0.2321     7.8403 </r>
       <r>    24.2244     0.4254     7.9157 </r>
       <r>    24.4017     0.2945     7.9679 </r>
       <r>    24.5789     0.1755     7.9990 </r>
       <r>    24.7562     0.1469     8.0250 </r>
       <r>    24.9334     0.2343     8.0666 </r>
       <r>    25.1107     0.3156     8.1225 </r>
       <r>    25.2880     0.4242     8.1977 </r>
       <r>    25.4652     0.2679     8.2452 </r>
       <r>    25.6425     0.0566     8.2552 </r>
       <r>    25.8197     0.0594     8.2658 </r>
       <r>    25.9970     0.1279     8.2884 </r>
       <r>    26.1743     0.1710     8.3188 </r>
       <r>    26.3515     0.3464     8.3802 </r>
       <r>    26.5288     0.2613     8.4265 </r>
       <r>    26.7060     0.2813     8.4763 </r>
       <r>    26.8833     0.2944     8.5285 </r>
       <r>    27.0606     0.1974     8.5635 </r>
       <r>    27.2378     0.4401     8.6415 </r>
       <r>    27.4151     0.3312     8.7002 </r>
       <r>    27.5923     0.2368     8.7422 </r>
       <r>    27.7696     0.2579     8.7879 </r>
       <r>    27.9469     0.2857     8.8386 </r>
       <r>    28.1241     0.0833     8.8533 </r>
       <r>    28.3014    -0.0057     8.8523 </r>
       <r>    28.4786     0.0874     8.8678 </r>
       <r>    28.6559     0.1372     8.8921 </r>
       <r>    28.8332     0.1885     8.9256 </r>
       <r>    29.0104     0.3436     8.9865 </r>
       <r>    29.1877     0.2673     9.0338 </r>
       <r>    29.3649     0.1131     9.0539 </r>
       <r>    29.5422     0.0231     9.0580 </r>
       <r>    29.7194     0.0820     9.0725 </r>
       <r>    29.8967     0.1730     9.1032 </r>
       <r>    30.0740     0.0517     9.1123 </r>
       <r>    30.2512     0.2063     9.1489 </r>
       <r>    30.4285     0.3309     9.2076 </r>
       <r>    30.6057     0.1679     9.2373 </r>
       <r>    30.7830     0.1403     9.2622 </r>
       <r>    30.9603     0.0248     9.2666 </r>
       <r>    31.1375     0.1840     9.2992 </r>
       <r>    31.3148     0.2523     9.3439 </r>
       <r>    31.4920     0.2765     9.3929 </r>
       <r>    31.6693     0.5160     9.4844 </r>
       <r>    31.8466     0.6186     9.5940 </r>
       <r>    32.0238     0.2836     9.6443 </r>
       <r>    32.2011     0.1751     9.6753 </r>
       <r>    32.3783     0.0745     9.6886 </r>
       <r>    32.5556     0.1782     9.7201 </r>
       <r>    32.7329     0.1697     9.7502 </r>
       <r>    32.9101     0.0878     9.7658 </r>
       <r>    33.0874     0.0702     9.7782 </r>
       <r>    33.2646     0.0526     9.7875 </r>
       <r>    33.4419     0.0308     9.7930 </r>
       <r>    33.6192     0.0062     9.7941 </r>
       <r>    33.7964     0.2162     9.8324 </r>
       <r>    33.9737     0.3563     9.8956 </r>
       <r>    34.1509     0.3246     9.9531 </r>
       <r>    34.3282     0.2119     9.9907 </r>
       <r>    34.5054     0.4102    10.0634 </r>
       <r>    34.6827     0.2379    10.1056 </r>
       <r>    34.8600     0.3140    10.1612 </r>
       <r>    35.0372     0.7297    10.2906 </r>
       <r>    35.2145     0.3660    10.3554 </r>
       <r>    35.3917     0.1092    10.3748 </r>
       <r>    35.5690     0.1644    10.4040 </r>
       <r>    35.7463     0.0925    10.4203 </r>
       <r>    35.9235     0.2200    10.4593 </r>
       <r>    36.1008     0.4224    10.5342 </r>
       <r>    36.2780     0.3050    10.5883 </r>
       <r>    36.4553     0.1219    10.6099 </r>
       <r>    36.6326     0.1937    10.6442 </r>
       <r>    36.8098     0.1426    10.6695 </r>
       <r>    36.9871     0.0256    10.6740 </r>
       <r>    37.1643     0.1369    10.6983 </r>
       <r>    37.3416     0.2632    10.7450 </r>
       <r>    37.5189     0.2148    10.7830 </r>
       <r>    37.6961     0.1809    10.8151 </r>
       <r>    37.8734     0.3942    10.8850 </r>
       <r>    38.0506     0.2937    10.9370 </r>
       <r>    38.2279     0.1854    10.9699 </r>
       <r>    38.4052     0.3965    11.0402 </r>
       <r>    38.5824     0.5167    11.1318 </r>
       <r>    38.7597     0.3927    11.2014 </r>
       <r>    38.9369     0.1691    11.2314 </r>
       <r>    39.1142     0.0657    11.2430 </r>
       <r>    39.2914     0.0563    11.2530 </r>
       <r>    39.4687     0.1809    11.2851 </r>
       <r>    39.6460     0.4165    11.3589 </r>
       <r>    39.8232     0.3524    11.4214 </r>
[...]
      </set>
      <set comment="kpoint 27">
       <set comment="band 1">
        <r>  0.0288  0.0801  0.7605 </r>
       </set>
       <set comment="band 2">
        <r>  0.0000  0.1218  0.7380 </r>
       </set>
       <set comment="band 3">
        <r>  0.0101  0.1841  0.6341 </r>
       </set>
       <set comment="band 4">
        <r>  0.0000  0.0003  0.9817 </r>
       </set>
       <set comment="band 5">
        <r>  0.0002  0.0002  0.9835 </r>
       </set>
       <set comment="band 6">
        <r>  0.0483  0.2474  0.4965 </r>
       </set>
       <set comment="band 7">
        <r>  0.0000  0.3101  0.4080 </r>
       </set>
       <set comment="band 8">
        <r>  0.3482  0.1268  0.2435 </r>
       </set>
       <set comment="band 9">
        <r>  0.2982  0.2503  0.1356 </r>
       </set>
       <set comment="band 10">
        <r>  0.0000  0.0165  0.0891 </r>
       </set>
       <set comment="band 11">
        <r>  0.0012  0.0249  0.1257 </r>
       </set>
       <set comment="band 12">
        <r>  0.0002  0.0564  0.1045 </r>
       </set>
      </set>
      <set comment="kpoint 28">
       <set comment="band 1">
        <r>  0.4068  0.1674  0.0761 </r>
       </set>
       <set comment="band 2">
        <r>  0.0016  0.0309  0.8718 </r>
       </set>
       <set comment="band 3">
        <r>  0.0000  0.0144  0.9325 </r>
       </set>
       <set comment="band 4">
        <r>  0.0002  0.0076  0.9211 </r>
       </set>
       <set comment="band 5">
        <r>  0.0000  0.0072  0.9611 </r>
       </set>
       <set comment="band 6">
        <r>  0.0309  0.0106  0.9296 </r>
       </set>
       <set comment="band 7">
        <r>  0.0416  0.1975  0.3606 </r>
       </set>
       <set comment="band 8">
        <r>  0.0729  0.1099  0.2270 </r>
       </set>
       <set comment="band 9">
        <r>  0.0000  0.3452  0.3359 </r>
       </set>
       <set comment="band 10">
        <r>  0.0511  0.2786  0.1422 </r>
       </set>
       <set comment="band 11">
        <r>  0.0000  0.2389  0.2515 </r>
       </set>
       <set comment="band 12">
        <r>  0.0666  0.2323  0.0765 </r>
       </set>
      </set>
      <set comment="kpoint 29">
       <set comment="band 1">
        <r>  0.2472  0.1592  0.3053 </r>
       </set>
       <set comment="band 2">
        <r>  0.0088  0.1017  0.7238 </r>
       </set>
       <set comment="band 3">
        <r>  0.0000  0.0141  0.9264 </r>
       </set>
       <set comment="band 4">
        <r>  0.0004  0.0232  0.9177 </r>
       </set>
       <set comment="band 5">
        <r>  0.0000  0.0080  0.9686 </r>
       </set>
       <set comment="band 6">
        <r>  0.0662  0.0716  0.7950 </r>
       </set>
       <set comment="band 7">
        <r>  0.1451  0.2237  0.3553 </r>
       </set>
       <set comment="band 8">
        <r>  0.0000  0.4483  0.2631 </r>
       </set>
       <set comment="band 9">
        <r>  0.0817  0.0945  0.2110 </r>
       </set>
       <set comment="band 10">
        <r>  0.0136  0.2401  0.1855 </r>
       </set>
       <set comment="band 11">
        <r>  0.0000  0.1780  0.3756 </r>
       </set>
       <set comment="band 12">
        <r>  0.1260  0.1080  0.2224 </r>
       </set>
      </set>
      <set comment="kpoint 30">
       <set comment="band 1">
        <r>  0.2707  0.1977  0.2164 </r>
       </set>
       <set comment="band 2">
        <r>  0.0000  0.0275  0.8456 </r>
       </set>
       <set comment="band 3">
        <r>  0.0006  0.0385  0.8906 </r>
       </set>
       <set comment="band 4">
        <r>  0.0000  0.0151  0.9257 </r>
       </set>
       <set comment="band 5">
        <r>  0.0009  0.0084  0.9621 </r>
       </set>
       <set comment="band 6">
        <r>  0.0769  0.0578  0.8027 </r>
       </set>
       <set comment="band 7">
        <r>  0.0000  0.2697  0.3995 </r>
       </set>
       <set comment="band 8">
        <r>  0.1620  0.2817  0.2206 </r>
       </set>
       <set comment="band 9">
        <r>  0.0000  0.1390  0.3581 </r>
       </set>
       <set comment="band 10">
        <r>  0.0678  0.3283  0.0741 </r>
       </set>
       <set comment="band 11">
        <r>  0.0545  0.1290  0.3278 </r>
       </set>
       <set comment="band 12">
        <r>  0.0000  0.2752  0.0790 </r>
       </set>
      </set>
      <set comment="kpoint 31">
       <set comment="band 1">
        <r>  0.1180  0.0478  0.6409 </r>
       </set>
       <set comment="band 2">
        <r>  0.0000  0.0142  0.9229 </r>
       </set>
       <set comment="band 3">
        <r>  0.0052  0.2238  0.5433 </r>
       </set>
       <set comment="band 4">
        <r>  0.0147  0.0060  0.9250 </r>
       </set>
       <set comment="band 5">
        <r>  0.0000  0.0015  0.9866 </r>
       </set>
       <set comment="band 6">
        <r>  0.0331  0.2717  0.5366 </r>
       </set>
       <set comment="band 7">
        <r>  0.2862  0.1024  0.4209 </r>
       </set>
       <set comment="band 8">
        <r>  0.0000  0.5107  0.1945 </r>
       </set>
       <set comment="band 9">
        <r>  0.0808  0.1040  0.1991 </r>
       </set>
       <set comment="band 10">
        <r>  0.0004  0.1373  0.2152 </r>
       </set>
       <set comment="band 11">
        <r>  0.0000  0.1534  0.4288 </r>
       </set>
       <set comment="band 12">
        <r>  0.0702  0.2042  0.2645 </r>
       </set>
      </set>
      <set comment="kpoint 32">
       <set comment="band 1">
        <r>  0.1243  0.1342  0.5068 </r>
       </set>
       <set comment="band 2">
        <r>  0.0037  0.0862  0.7409 </r>
       </set>
       <set comment="band 3">
        <r>  0.0013  0.0425  0.8749 </r>
       </set>
       <set comment="band 4">
        <r>  0.0047  0.0173  0.9244 </r>
       </set>
       <set comment="band 5">
        <r>  0.0088  0.0076  0.9596 </r>
       </set>
       <set comment="band 6">
        <r>  0.0880  0.1925  0.5866 </r>
       </set>
       <set comment="band 7">
        <r>  0.1555  0.2444  0.3499 </r>
       </set>
       <set comment="band 8">
        <r>  0.1106  0.3200  0.2504 </r>
       </set>
       <set comment="band 9">
        <r>  0.0250  0.1894  0.2609 </r>
       </set>
       <set comment="band 10">
        <r>  0.0181  0.2307  0.1870 </r>
       </set>
       <set comment="band 11">
        <r>  0.0342  0.1500  0.3465 </r>
       </set>
       <set comment="band 12">
        <r>  0.0436  0.2799  0.2906 </r>
       </set>
      </set>
      <set comment="kpoint 33">
       <set comment="band 1">
        <r>  0.0616  0.0501  0.7118 </r>
       </set>
       <set comment="band 2">
        <r>  0.0000  0.1780  0.6100 </r>
       </set>
       <set comment="band 3">
        <r>  0.0105  0.0213  0.8916 </r>
       </set>
       <set comment="band 4">
        <r>  0.0165  0.0091  0.9209 </r>
       </set>
       <set comment="band 5">
        <r>  0.0000  0.0149  0.9653 </r>
       </set>
       <set comment="band 6">
        <r>  0.0000  0.3727  0.4266 </r>
       </set>
       <set comment="band 7">
        <r>  0.2941  0.1075  0.4093 </r>
       </set>
       <set comment="band 8">
        <r>  0.1073  0.3452  0.2291 </r>
       </set>
       <set comment="band 9">
        <r>  0.0300  0.2024  0.2357 </r>
       </set>
       <set comment="band 10">
        <r>  0.0000  0.0816  0.2730 </r>
       </set>
       <set comment="band 11">
        <r>  0.0050  0.3164  0.2583 </r>
       </set>
       <set comment="band 12">
        <r>  0.0970  0.2571  0.3162 </r>
       </set>
      </set>
      <set comment="kpoint 34">
       <set comment="band 1">
        <r>  0.0338  0.1249  0.6424 </r>
       </set>
       <set comment="band 2">
        <r>  0.0000  0.0805  0.7475 </r>
       </set>
       <set comment="band 3">
        <r>  0.0292  0.0280  0.8476 </r>
       </set>
       <set comment="band 4">
        <r>  0.0000  0.0230  0.9360 </r>
       </set>
       <set comment="band 5">
        <r>  0.0048  0.0179  0.9480 </r>
       </set>
       <set comment="band 6">
        <r>  0.0549  0.3175  0.4336 </r>
       </set>
       <set comment="band 7">
        <r>  0.0000  0.3771  0.3850 </r>
       </set>
       <set comment="band 8">
        <r>  0.3716  0.1434  0.2157 </r>
       </set>
       <set comment="band 9">
        <r>  0.0000  0.0976  0.3434 </r>
       </set>
       <set comment="band 10">
        <r>  0.0128  0.2112  0.2044 </r>
       </set>
       <set comment="band 11">
        <r>  0.0004  0.3597  0.1895 </r>
       </set>
       <set comment="band 12">
        <r>  0.2331  0.1329  0.3227 </r>
       </set>
      </set>
      <set comment="kpoint 35">
       <set comment="band 1">
        <r>  0.0000  0.1325  0.7258 </r>
       </set>
       <set comment="band 2">
        <r>  0.0000  0.1325  0.7258 </r>
       </set>
       <set comment="band 3">
        <r>  0.0000  0.1325  0.7258 </r>
       </set>
       <set comment="band 4">
        <r>  0.0000  0.0000  0.9850 </r>
       </set>
       <set comment="band 5">
        <r>  0.0000  0.0000  0.9850 </r>
       </set>
       <set comment="band 6">
        <r>  0.0000  0.3091  0.4114 </r>
       </set>
       <set comment="band 7">
        <r>  0.0000  0.3091  0.4114 </r>
       </set>
       <set comment="band 8">
        <r>  0.0000  0.3091  0.4114 </r>
       </set>
       <set comment="band 9">
        <r>  0.7499  0.0000  0.0000 </r>
       </set>
       <set comment="band 10">
        <r>  0.0000  0.0000  0.0000 </r>
       </set>
       <set comment="band 11">
        <r>  0.0000  0.0000  0.0000 </r>
       </set>
       <set comment="band 12">
        <r>  0.0000  0.0000  0.0000 </r>
       </set>
      </set>
      <set comment="kpoint 36">
       <set comment="band 1">
        <r>  0.2886  0.2096  0.1721 </r>
       </set>
       <set comment="band 2">
        <r>  0.0000  0.0000  0.8689 </r>
       </set>
       <set comment="band 3">
        <r>  0.0000  0.0339  0.9065 </r>
       </set>
       <set comment="band 4">
        <r>  0.0000  0.0339  0.9065 </r>
       </set>
       <set comment="band 5">
        <r>  0.0000  0.0000  0.9694 </r>
       </set>
       <set comment="band 6">
        <r>  0.0853  0.0389  0.8206 </r>
       </set>
       <set comment="band 7">
        <r>  0.0000  0.4189  0.2972 </r>
       </set>
       <set comment="band 8">
        <r>  0.0000  0.4189  0.2972 </r>
       </set>
       <set comment="band 9">
        <r>  0.0000  0.0000  0.4880 </r>
       </set>
       <set comment="band 10">
        <r>  0.2320  0.1578  0.0366 </r>
       </set>
       <set comment="band 11">
        <r>  0.0000  0.2849  0.0535 </r>
       </set>
       <set comment="band 12">
        <r>  0.0000  0.2848  0.0535 </r>
       </set>
      </set>
      <set comment="kpoint 37">
       <set comment="band 1">
        <r>  0.1404  0.1854  0.4020 </r>
       </set>
       <set comment="band 2">
        <r>  0.0002  0.0180  0.8302 </r>
       </set>
       <set comment="band 3">
        <r>  0.0000  0.0321  0.9074 </r>
       </set>
       <set comment="band 4">
        <r>  0.0035  0.0347  0.8989 </r>
       </set>
       <set comment="band 5">
        <r>  0.0000  0.0058  0.9684 </r>
       </set>
       <set comment="band 6">
        <r>  0.1384  0.1410  0.5977 </r>
       </set>
       <set comment="band 7">
        <r>  0.0772  0.3309  0.3077 </r>
       </set>
       <set comment="band 8">
        <r>  0.0000  0.4843  0.2334 </r>
       </set>
       <set comment="band 9">
        <r>  0.0746  0.0325  0.4076 </r>
       </set>
       <set comment="band 10">
        <r>  0.1248  0.1744  0.1834 </r>
       </set>
       <set comment="band 11">
        <r>  0.0532  0.3498  0.2159 </r>
       </set>
       <set comment="band 12">
        <r>  0.0000  0.1207  0.3622 </r>
       </set>
      </set>
      <set comment="kpoint 38">
       <set comment="band 1">
        <r>  0.0457  0.0727  0.6882 </r>
       </set>
       <set comment="band 2">
        <r>  0.0008  0.1007  0.7079 </r>
       </set>
       <set comment="band 3">
        <r>  0.0000  0.0301  0.9082 </r>
       </set>
       <set comment="band 4">
        <r>  0.0269  0.0192  0.8866 </r>
       </set>
       <set comment="band 5">
        <r>  0.0000  0.0016  0.9846 </r>
       </set>
       <set comment="band 6">
        <r>  0.0724  0.3397  0.3853 </r>
       </set>
       <set comment="band 7">
        <r>  0.2075  0.2300  0.3337 </r>
       </set>
       <set comment="band 8">
        <r>  0.0000  0.5302  0.1740 </r>
       </set>
       <set comment="band 9">
        <r>  0.1095  0.0199  0.3859 </r>
       </set>
       <set comment="band 10">
        <r>  0.0243  0.1172  0.2999 </r>
       </set>
       <set comment="band 11">
        <r>  0.1258  0.4329  0.1330 </r>
       </set>
       <set comment="band 12">
        <r>  0.0000  0.1160  0.3707 </r>
       </set>
      </set>
      <set comment="kpoint 39">
       <set comment="band 1">
        <r>  0.0417  0.1277  0.6121 </r>
       </set>
       <set comment="band 2">
        <r>  0.0000  0.0227  0.8141 </r>
       </set>
       <set comment="band 3">
        <r>  0.0141  0.0311  0.8850 </r>
       </set>
       <set comment="band 4">
        <r>  0.0000  0.0367  0.9115 </r>
       </set>
       <set comment="band 5">
        <r>  0.0060  0.0059  0.9643 </r>
       </set>
       <set comment="band 6">
        <r>  0.1298  0.2794  0.3973 </r>
       </set>
       <set comment="band 7">
        <r>  0.0000  0.4259  0.3064 </r>
       </set>
       <set comment="band 8">
        <r>  0.1666  0.3526  0.1889 </r>
       </set>
       <set comment="band 9">
        <r>  0.0000  0.0900  0.4565 </r>
       </set>
       <set comment="band 10">
        <r>  0.1226  0.1344  0.2355 </r>
       </set>
       <set comment="band 11">
        <r>  0.1609  0.3780  0.1337 </r>
       </set>
       <set comment="band 12">
        <r>  0.0762  0.0607  0.3338 </r>
       </set>
      </set>
      <set comment="kpoint 40">
       <set comment="band 1">
        <r>  0.0074  0.0432  0.7739 </r>
       </set>
       <set comment="band 2">
        <r>  0.0000  0.0834  0.7281 </r>
       </set>
       <set comment="band 3">
        <r>  0.0249  0.0292  0.8706 </r>
       </set>
       <set comment="band 4">
        <r>  0.0060  0.0298  0.9177 </r>
       </set>
       <set comment="band 5">
        <r>  0.0000  0.0123  0.9664 </r>
       </set>
       <set comment="band 6">
        <r>  0.0000  0.4556  0.3016 </r>
       </set>
       <set comment="band 7">
        <r>  0.1950  0.2686  0.2990 </r>
       </set>
       <set comment="band 8">
        <r>  0.1224  0.3916  0.1958 </r>
       </set>
       <set comment="band 9">
        <r>  0.0339  0.0877  0.4111 </r>
       </set>
       <set comment="band 10">
        <r>  0.0000  0.0898  0.3835 </r>
       </set>
       <set comment="band 11">
        <r>  0.2551  0.4327  0.0372 </r>
       </set>
       <set comment="band 12">
        <r>  0.0915  0.0447  0.3353 </r>
       </set>
      </set>
      <set comment="kpoint 41">
       <set comment="band 1">
        <r>  0.0450  0.1264  0.6052 </r>
       </set>
       <set comment="band 2">
        <r>  0.0000  0.0000  0.8402 </r>
       </set>
       <set comment="band 3">
        <r>  0.0000  0.0435  0.9002 </r>
       </set>
       <set comment="band 4">
        <r>  0.0000  0.0435  0.9002 </r>
       </set>
       <set comment="band 5">
        <r>  0.0000  0.0000  0.9767 </r>
       </set>
       <set comment="band 6">
        <r>  0.1741  0.2549  0.3709 </r>
       </set>
       <set comment="band 7">
        <r>  0.0000  0.5308  0.1752 </r>
       </set>
       <set comment="band 8">
        <r>  0.0000  0.5308  0.1752 </r>
       </set>
       <set comment="band 9">
        <r>  0.0000  0.0000  0.6013 </r>
       </set>
       <set comment="band 10">
        <r>  0.2578  0.0198  0.2391 </r>
       </set>
       <set comment="band 11">
        <r>  0.2277  0.2956  0.1545 </r>
       </set>
       <set comment="band 12">
        <r>  0.0000  0.0000  0.3440 </r>
       </set>
      </set>
      <set comment="kpoint 42">
       <set comment="band 1">
        <r>  0.0072  0.0573  0.7483 </r>
       </set>
       <set comment="band 2">
        <r>  0.0001  0.0150  0.8149 </r>
       </set>
       <set comment="band 3">
        <r>  0.0000  0.0323  0.9193 </r>
       </set>
       <set comment="band 4">
        <r>  0.0101  0.0351  0.9025 </r>
       </set>
       <set comment="band 5">
        <r>  0.0000  0.0015  0.9830 </r>
       </set>
       <set comment="band 6">
        <r>  0.1003  0.4079  0.2321 </r>
       </set>
       <set comment="band 7">
        <r>  0.0827  0.4422  0.1872 </r>
       </set>
       <set comment="band 8">
        <r>  0.0000  0.5715  0.1131 </r>
       </set>
       <set comment="band 9">
        <r>  0.0435  0.0080  0.5542 </r>
       </set>
       <set comment="band 10">
        <r>  0.0726  0.0624  0.4078 </r>
       </set>
       <set comment="band 11">
        <r>  0.4072  0.2613  0.0651 </r>
       </set>
       <set comment="band 12">
        <r>  0.0000  0.0455  0.2640 </r>
       </set>
      </set>
      <set comment="kpoint 43">
       <set comment="band 1">
        <r>  0.0000  0.0218  0.8037 </r>
       </set>
       <set comment="band 2">
        <r>  0.0000  0.0218  0.8037 </r>
       </set>
       <set comment="band 3">
        <r>  0.0081  0.0312  0.9095 </r>
       </set>
       <set comment="band 4">
        <r>  0.0000  0.0126  0.9638 </r>
       </set>
       <set comment="band 5">
        <r>  0.0000  0.0126  0.9638 </r>
       </set>
       <set comment="band 6">
        <r>  0.0000  0.5411  0.1596 </r>
       </set>
       <set comment="band 7">
        <r>  0.0000  0.5411  0.1596 </r>
       </set>
       <set comment="band 8">
        <r>  0.1670  0.4151  0.1058 </r>
       </set>
       <set comment="band 9">
        <r>  0.0000  0.0597  0.5289 </r>
       </set>
       <set comment="band 10">
        <r>  0.0000  0.0597  0.5289 </r>
       </set>
       <set comment="band 11">
        <r>  0.5637  0.1921  0.0035 </r>
       </set>
       <set comment="band 12">
        <r>  0.0127  0.0406  0.2142 </r>
       </set>
      </set>
      <set comment="kpoint 44">
       <set comment="band 1">
        <r>  0.0005  0.0146  0.8103 </r>
       </set>
       <set comment="band 2">
        <r>  0.0000  0.0000  0.8303 </r>
       </set>
       <set comment="band 3">
        <r>  0.0000  0.0130  0.9625 </r>
       </set>
       <set comment="band 4">
        <r>  0.0000  0.0130  0.9625 </r>
       </set>
       <set comment="band 5">
        <r>  0.0000  0.0000  0.9848 </r>
       </set>
       <set comment="band 6">
        <r>  0.0535  0.5376  0.0846 </r>
       </set>
       <set comment="band 7">
        <r>  0.0000  0.6196  0.0342 </r>
       </set>
       <set comment="band 8">
        <r>  0.0000  0.6196  0.0342 </r>
       </set>
       <set comment="band 9">
        <r>  0.0000  0.0000  0.6579 </r>
       </set>
       <set comment="band 10">
        <r>  0.0281  0.0223  0.5718 </r>
       </set>
       <set comment="band 11">
        <r>  0.6769  0.0740  0.0101 </r>
       </set>
       <set comment="band 12">
        <r>  0.0000  0.0000  0.0742 </r>
       </set>
      </set>
     </set>
    </set>
   </array>
  </projected>
 </calculation>
 <structure name="finalpos" >
  <crystal>
   <varray name="basis" >
    <v>      -1.40000000       1.40000000       1.40000000 </v>
    <v>       1.40000000      -1.40000000       1.40000000 </v>
    <v>       1.40000000       1.40000000      -1.40000000 </v>
   </varray>
   <i name="volume">     10.97600000 </i>
   <varray name="rec_basis" >
    <v>       0.00000000       0.35714286       0.35714286 </v>
    <v>       0.35714286       0.00000000       0.35714286 </v>
    <v>       0.35714286       0.35714286       0.00000000 </v>
   </varray>
  </crystal>
  <varray name="positions" >
   <v>       0.00000000       0.00000000       0.00000000 </v>
  </varray>
 </structure>
</modeling>
