   1   1   1   0
  0.1145291E+02  0.2459495E-09  0.2459495E-09  0.2459495E-09  0.5000000E-15
  1.000000000000000E-004
  CAR 
 bcc Fe                                  
     47.14374727     -4.81289839 3001      5.73255554      1.00000000
     -4.813  0.0000E+00  0.0000E+00  0.0000E+00  0.0000E+00
     -4.796  0.0000E+00  0.0000E+00  0.0000E+00  0.0000E+00
     -4.778  0.0000E+00  0.0000E+00  0.0000E+00  0.0000E+00
     -4.761  0.0000E+00  0.0000E+00  0.0000E+00  0.0000E+00
     -4.744  0.0000E+00  0.0000E+00  0.0000E+00  0.0000E+00
     -4.726  0.0000E+00  0.0000E+00  0.0000E+00  0.0000E+00
     -4.709  0.0000E+00  0.0000E+00  0.0000E+00  0.0000E+00
     -4.692  0.0000E+00  0.0000E+00  0.0000E+00  0.0000E+00
     -4.674  0.0000E+00  0.0000E+00  0.0000E+00  0.0000E+00
     -4.657  0.0000E+00  0.0000E+00  0.0000E+00  0.0000E+00
     -4.640  0.0000E+00  0.0000E+00  0.0000E+00  0.0000E+00
     -4.622  0.0000E+00  0.0000E+00  0.0000E+00  0.0000E+00
     -4.605  0.0000E+00  0.0000E+00  0.0000E+00  0.0000E+00
     -4.588  0.0000E+00  0.0000E+00  0.0000E+00  0.0000E+00
     -4.570  0.0000E+00  0.0000E+00  0.0000E+00  0.0000E+00
     -4.553  0.0000E+00  0.0000E+00  0.0000E+00  0.0000E+00
     -4.536  0.0000E+00  0.0000E+00  0.0000E+00  0.0000E+00
     -4.518  0.0000E+00  0.0000E+00  0.0000E+00  0.0000E+00
     -4.501  0.0000E+00  0.0000E+00  0.0000E+00  0.0000E+00
     -4.484  0.0000E+00  0.0000E+00  0.0000E+00  0.0000E+00
     -4.467  0.0000E+00  0.0000E+00  0.0000E+00  0.0000E+00
     -4.449  0.0000E+00  0.0000E+00  0.0000E+00  0.0000E+00
     -4.432  0.0000E+00  0.0000E+00  0.0000E+00  0.0000E+00
     -4.415  0.0000E+00  0.0000E+00  0.0000E+00  0.0000E+00
     -4.397  0.0000E+00  0.0000E+00  0.0000E+00  0.0000E+00
     -4.380  0.0000E+00  0.0000E+00  0.0000E+00  0.0000E+00
     -4.363  0.0000E+00  0.0000E+00  0.0000E+00  0.0000E+00
     -4.345  0.0000E+00  0.0000E+00  0.0000E+00  0.0000E+00
     -4.328  0.0000E+00  0.0000E+00  0.0000E+00  0.0000E+00
     -4.311  0.0000E+00  0.0000E+00  0.0000E+00  0.0000E+00
     -4.293  0.0000E+00  0.0000E+00  0.0000E+00  0.0000E+00
     -4.276  0.0000E+00  0.0000E+00  0.0000E+00  0.0000E+00
     -4.259  0.0000E+00  0.0000E+00  0.0000E+00  0.0000E+00
     -4.241  0.0000E+00  0.0000E+00  0.0000E+00  0.0000E+00
     -4.224  0.0000E+00  0.0000E+00  0.0000E+00  0.0000E+00
     -4.207  0.0000E+00  0.0000E+00  0.0000E+00  0.0000E+00
     -4.189  0.0000E+00  0.0000E+00  0.0000E+00  0.0000E+00
     -4.172  0.0000E+00  0.0000E+00  0.0000E+00  0.0000E+00
     -4.155  0.0000E+00  0.0000E+00  0.0000E+00  0.0000E+00
     -4.137  0.0000E+00  0.0000E+00  0.0000E+00  0.0000E+00
     -4.120  0.0000E+00  0.0000E+00  0.0000E+00  0.0000E+00
     -4.103  0.0000E+00  0.0000E+00  0.0000E+00  0.0000E+00
     -4.086  0.0000E+00  0.0000E+00  0.0000E+00  0.0000E+00
     -4.068 -0.3241E-28  0.0000E+00 -0.5613E-30  0.0000E+00
     -4.051 -0.9667E-28  0.0000E+00 -0.2235E-29  0.0000E+00
     -4.034 -0.3773E-27  0.0000E+00 -0.8769E-29  0.0000E+00
     -4.016 -0.1450E-26  0.0000E+00 -0.3388E-28  0.0000E+00
     -3.999 -0.5490E-26  0.0000E+00 -0.1290E-27  0.0000E+00
     -3.982 -0.2047E-25  0.0000E+00 -0.4835E-27  0.0000E+00
     -3.964 -0.7517E-25  0.0000E+00 -0.1785E-26  0.0000E+00
     -3.947 -0.2718E-24  0.0000E+00 -0.6493E-26  0.0000E+00
     -3.930 -0.9682E-24  0.0000E+00 -0.2326E-25  0.0000E+00
     -3.912 -0.3396E-23  0.0000E+00 -0.8209E-25  0.0000E+00
     -3.895 -0.1173E-22  0.0000E+00 -0.2853E-24  0.0000E+00
     -3.878 -0.3992E-22  0.0000E+00 -0.9767E-24  0.0000E+00
     -3.860 -0.1338E-21 -0.8157E-28 -0.3294E-23 -0.1413E-29
     -3.843 -0.4414E-21 -0.2400E-27 -0.1094E-22 -0.5570E-29
     -3.826 -0.1435E-20 -0.9273E-27 -0.3578E-22 -0.2163E-28
     -3.808 -0.4591E-20 -0.3528E-26 -0.1153E-21 -0.8274E-28
     -3.791 -0.1447E-19 -0.1322E-25 -0.3659E-21 -0.3117E-27
     -3.774 -0.4492E-19 -0.4880E-25 -0.1144E-20 -0.1157E-26
     -3.756 -0.1373E-18 -0.1774E-24 -0.3522E-20 -0.4229E-26
     -3.739 -0.4133E-18 -0.6351E-24 -0.1068E-19 -0.1523E-25
     -3.722 -0.1225E-17 -0.2239E-23 -0.3190E-19 -0.5401E-25
     -3.704 -0.3577E-17 -0.7775E-23 -0.9384E-19 -0.1887E-24
     -3.687 -0.1028E-16 -0.2659E-22 -0.2719E-18 -0.6491E-24
     -3.670 -0.2910E-16 -0.8955E-22 -0.7760E-18 -0.2200E-23
     -3.653 -0.8113E-16 -0.2970E-21 -0.2181E-17 -0.7344E-23
     -3.635 -0.2035E-15 -0.9702E-21 -0.5705E-17 -0.2415E-22
     -3.618 -0.6019E-15 -0.3121E-20 -0.1613E-16 -0.7820E-22
     -3.601 -0.1544E-14 -0.9887E-20 -0.4287E-16 -0.2494E-21
     -3.583 -0.4064E-14 -0.3085E-19 -0.1133E-15 -0.7836E-21
     -3.566 -0.1049E-13 -0.9477E-19 -0.2949E-15 -0.2425E-20
     -3.549 -0.2660E-13 -0.2867E-18 -0.7556E-15 -0.7391E-20
     -3.531 -0.6650E-13 -0.8543E-18 -0.1907E-14 -0.2219E-19
     -3.514 -0.1636E-12 -0.2507E-17 -0.4741E-14 -0.6560E-19
     -3.497 -0.3963E-12 -0.7243E-17 -0.1160E-13 -0.1910E-18
     -3.479 -0.9451E-12 -0.2061E-16 -0.2797E-13 -0.5480E-18
     -3.462 -0.2219E-11 -0.5774E-16 -0.6640E-13 -0.1548E-17
     -3.445 -0.5128E-11 -0.1593E-15 -0.1552E-12 -0.4307E-17
     -3.427 -0.1167E-10 -0.4136E-15 -0.3573E-12 -0.1147E-16
     -3.410 -0.2613E-10 -0.1119E-14 -0.8099E-12 -0.3086E-16
     -3.393 -0.5762E-10 -0.2954E-14 -0.1808E-11 -0.8202E-16
     -3.375 -0.1250E-09 -0.7662E-14 -0.3974E-11 -0.2147E-15
     -3.358 -0.2671E-09 -0.1953E-13 -0.8600E-11 -0.5530E-15
     -3.341 -0.5616E-09 -0.4910E-13 -0.1833E-10 -0.1403E-14
     -3.323 -0.1162E-08 -0.1214E-12 -0.3845E-10 -0.3506E-14
     -3.306 -0.2367E-08 -0.2956E-12 -0.7944E-10 -0.8625E-14
     -3.289 -0.4744E-08 -0.7086E-12 -0.1616E-09 -0.2090E-13
     -3.272 -0.9356E-08 -0.1672E-11 -0.3236E-09 -0.4986E-13
     -3.254 -0.1816E-07 -0.3885E-11 -0.6381E-09 -0.1172E-12
     -3.237 -0.3467E-07 -0.8887E-11 -0.1239E-08 -0.2711E-12
     -3.220 -0.6514E-07 -0.2001E-10 -0.2367E-08 -0.6176E-12
     -3.202 -0.1204E-06 -0.4435E-10 -0.4452E-08 -0.1386E-11
     -3.185 -0.2189E-06 -0.9675E-10 -0.8244E-08 -0.3061E-11
     -3.168 -0.3916E-06 -0.2078E-09 -0.1503E-07 -0.6660E-11
     -3.150 -0.6888E-06 -0.4392E-09 -0.2695E-07 -0.1427E-10
     -3.133 -0.1192E-05 -0.9136E-09 -0.4759E-07 -0.3009E-10
     -3.116 -0.2027E-05 -0.1871E-08 -0.8270E-07 -0.6248E-10
     -3.098 -0.3390E-05 -0.3769E-08 -0.1414E-06 -0.1278E-09
     -3.081 -0.5573E-05 -0.7473E-08 -0.2379E-06 -0.2572E-09
     -3.064 -0.9005E-05 -0.1458E-07 -0.3939E-06 -0.5097E-09
     -3.046 -0.1430E-04 -0.2800E-07 -0.6415E-06 -0.9946E-09
     -3.029 -0.2230E-04 -0.5289E-07 -0.1028E-05 -0.1911E-08
     -3.012 -0.3417E-04 -0.9829E-07 -0.1620E-05 -0.3613E-08
     -2.994 -0.5140E-04 -0.1797E-06 -0.2510E-05 -0.6725E-08
     -2.977 -0.7589E-04 -0.3232E-06 -0.3824E-05 -0.1232E-07
     -2.960 -0.1099E-03 -0.5717E-06 -0.5728E-05 -0.2222E-07
     -2.942 -0.1562E-03 -0.9945E-06 -0.8433E-05 -0.3945E-07
     -2.925 -0.2174E-03 -0.1701E-05 -0.1220E-04 -0.6891E-07
     -2.908 -0.2965E-03 -0.2861E-05 -0.1733E-04 -0.1185E-06
     -2.891 -0.3955E-03 -0.4731E-05 -0.2418E-04 -0.2004E-06
     -2.873 -0.5157E-03 -0.7689E-05 -0.3311E-04 -0.3336E-06
     -2.856 -0.6562E-03 -0.1228E-04 -0.4448E-04 -0.5462E-06
     -2.839 -0.8132E-03 -0.1927E-04 -0.5856E-04 -0.8799E-06
     -2.821 -0.9790E-03 -0.2970E-04 -0.7552E-04 -0.1394E-05
     -2.804 -0.1141E-02 -0.4495E-04 -0.9527E-04 -0.2173E-05
     -2.787 -0.1279E-02 -0.6679E-04 -0.1174E-03 -0.3330E-05
     -2.769 -0.1369E-02 -0.9737E-04 -0.1411E-03 -0.5016E-05
     -2.752 -0.1377E-02 -0.1392E-03 -0.1650E-03 -0.7427E-05
     -2.735 -0.1264E-02 -0.1952E-03 -0.1869E-03 -0.1081E-04
     -2.717 -0.9863E-03 -0.2680E-03 -0.2039E-03 -0.1545E-04
     -2.700 -0.4994E-03 -0.3602E-03 -0.2126E-03 -0.2169E-04
     -2.683  0.2407E-03 -0.4733E-03 -0.2084E-03 -0.2988E-04
     -2.665  0.1271E-02 -0.6072E-03 -0.1864E-03 -0.4040E-04
     -2.648  0.2615E-02 -0.7594E-03 -0.1411E-03 -0.5355E-04
     -2.631  0.4282E-02 -0.9234E-03 -0.6697E-04 -0.6954E-04
     -2.613  0.6256E-02 -0.1088E-02  0.4138E-04 -0.8839E-04
     -2.596  0.8498E-02 -0.1237E-02  0.1886E-03 -0.1098E-03
     -2.579  0.1094E-01 -0.1346E-02  0.3781E-03 -0.1331E-03
     -2.561  0.1350E-01 -0.1385E-02  0.6118E-03 -0.1571E-03
     -2.544  0.1604E-01 -0.1317E-02  0.8897E-03 -0.1799E-03
     -2.527  0.1846E-01 -0.1100E-02  0.1209E-02 -0.1990E-03
     -2.509  0.2061E-01 -0.6874E-03  0.1566E-02 -0.2109E-03
     -2.492  0.2237E-01 -0.3599E-04  0.1954E-02 -0.2115E-03
     -2.475  0.2362E-01  0.8942E-03  0.2363E-02 -0.1960E-03
     -2.458  0.2428E-01  0.2133E-02  0.2784E-02 -0.1591E-03
     -2.440  0.2431E-01  0.3693E-02  0.3204E-02 -0.9513E-04
     -2.423  0.2369E-01  0.5569E-02  0.3615E-02  0.1317E-05
     -2.406  0.2246E-01  0.7729E-02  0.4004E-02  0.1352E-03
     -2.388  0.2072E-01  0.1012E-01  0.4363E-02  0.3104E-03
     -2.371  0.1859E-01  0.1265E-01  0.4685E-02  0.5295E-03
     -2.354  0.1623E-01  0.1522E-01  0.4966E-02  0.7930E-03
     -2.336  0.1381E-01  0.1770E-01  0.5205E-02  0.1099E-02
     -2.319  0.1152E-01  0.1996E-01  0.5404E-02  0.1445E-02
     -2.302  0.9544E-02  0.2186E-01  0.5570E-02  0.1824E-02
     -2.284  0.8042E-02  0.2330E-01  0.5709E-02  0.2227E-02
     -2.267  0.7145E-02  0.2417E-01  0.5833E-02  0.2646E-02
     -2.250  0.6945E-02  0.2442E-01  0.5953E-02  0.3069E-02
     -2.232  0.7485E-02  0.2401E-01  0.6083E-02  0.3485E-02
     -2.215  0.8754E-02  0.2298E-01  0.6234E-02  0.3883E-02
     -2.198  0.1069E-01  0.2140E-01  0.6419E-02  0.4253E-02
     -2.180  0.1316E-01  0.1937E-01  0.6647E-02  0.4589E-02
     -2.163  0.1602E-01  0.1704E-01  0.6925E-02  0.4884E-02
     -2.146  0.1906E-01  0.1458E-01  0.7255E-02  0.5136E-02
     -2.128  0.2207E-01  0.1219E-01  0.7637E-02  0.5347E-02
     -2.111  0.2482E-01  0.1003E-01  0.8067E-02  0.5521E-02
     -2.094  0.2708E-01  0.8277E-02  0.8536E-02  0.5664E-02
     -2.077  0.2869E-01  0.7085E-02  0.9033E-02  0.5787E-02
     -2.059  0.2951E-01  0.6558E-02  0.9544E-02  0.5901E-02
     -2.042  0.2946E-01  0.6761E-02  0.1005E-01  0.6018E-02
     -2.025  0.2855E-01  0.7709E-02  0.1055E-01  0.6151E-02
     -2.007  0.2686E-01  0.9362E-02  0.1101E-01  0.6313E-02
     -1.990  0.2455E-01  0.1163E-01  0.1144E-01  0.6515E-02
     -1.973  0.2185E-01  0.1437E-01  0.1182E-01  0.6764E-02
     -1.955  0.1907E-01  0.1740E-01  0.1215E-01  0.7065E-02
     -1.938  0.1654E-01  0.2051E-01  0.1243E-01  0.7420E-02
     -1.921  0.1461E-01  0.2348E-01  0.1269E-01  0.7827E-02
     -1.903  0.1363E-01  0.2609E-01  0.1292E-01  0.8279E-02
     -1.886  0.1392E-01  0.2813E-01  0.1316E-01  0.8766E-02
     -1.869  0.1573E-01  0.2943E-01  0.1344E-01  0.9276E-02
     -1.851  0.1919E-01  0.2989E-01  0.1377E-01  0.9793E-02
     -1.834  0.2436E-01  0.2946E-01  0.1419E-01  0.1030E-01
     -1.817  0.3115E-01  0.2817E-01  0.1473E-01  0.1079E-01
     -1.799  0.3933E-01  0.2613E-01  0.1541E-01  0.1124E-01
     -1.782  0.4858E-01  0.2352E-01  0.1625E-01  0.1165E-01
     -1.765  0.5843E-01  0.2059E-01  0.1727E-01  0.1201E-01
     -1.747  0.6836E-01  0.1766E-01  0.1845E-01  0.1231E-01
     -1.730  0.7779E-01  0.1507E-01  0.1980E-01  0.1257E-01
     -1.713  0.8615E-01  0.1317E-01  0.2129E-01  0.1280E-01
     -1.695  0.9291E-01  0.1229E-01  0.2290E-01  0.1302E-01
     -1.678  0.9763E-01  0.1275E-01  0.2459E-01  0.1324E-01
     -1.661  0.1000E+00  0.1476E-01  0.2632E-01  0.1349E-01
     -1.644  0.9987E-01  0.1846E-01  0.2805E-01  0.1381E-01
     -1.626  0.9724E-01  0.2387E-01  0.2973E-01  0.1423E-01
     -1.609  0.9227E-01  0.3090E-01  0.3133E-01  0.1476E-01
     -1.592  0.8528E-01  0.3930E-01  0.3281E-01  0.1544E-01
     -1.574  0.7667E-01  0.4872E-01  0.3414E-01  0.1628E-01
     -1.557  0.6695E-01  0.5871E-01  0.3530E-01  0.1730E-01
     -1.540  0.5663E-01  0.6872E-01  0.3628E-01  0.1849E-01
     -1.522  0.4622E-01  0.7818E-01  0.3708E-01  0.1985E-01
     -1.505  0.3617E-01  0.8652E-01  0.3770E-01  0.2134E-01
     -1.488  0.2686E-01  0.9323E-01  0.3817E-01  0.2296E-01
     -1.470  0.1856E-01  0.9787E-01  0.3849E-01  0.2465E-01
     -1.453  0.1143E-01  0.1001E+00  0.3869E-01  0.2639E-01
     -1.436  0.5540E-02  0.9989E-01  0.3878E-01  0.2812E-01
     -1.418  0.8613E-03  0.9715E-01  0.3880E-01  0.2980E-01
     -1.401 -0.2709E-02  0.9208E-01  0.3875E-01  0.3140E-01
     -1.384 -0.5323E-02  0.8500E-01  0.3866E-01  0.3287E-01
     -1.366 -0.7161E-02  0.7633E-01  0.3854E-01  0.3419E-01
     -1.349 -0.8404E-02  0.6657E-01  0.3839E-01  0.3534E-01
     -1.332 -0.9218E-02  0.5623E-01  0.3823E-01  0.3632E-01
     -1.314 -0.9736E-02  0.4584E-01  0.3806E-01  0.3711E-01
     -1.297 -0.1004E-01  0.3583E-01  0.3789E-01  0.3773E-01
     -1.280 -0.1017E-01  0.2659E-01  0.3771E-01  0.3819E-01
     -1.263 -0.1007E-01  0.1837E-01  0.3754E-01  0.3851E-01
     -1.245 -0.9680E-02  0.1135E-01  0.3737E-01  0.3871E-01
     -1.228 -0.8837E-02  0.5591E-02  0.3722E-01  0.3880E-01
     -1.211 -0.7355E-02  0.1057E-02  0.3709E-01  0.3882E-01
     -1.193 -0.5018E-02 -0.2355E-02  0.3700E-01  0.3878E-01
     -1.176 -0.1601E-02 -0.4799E-02  0.3698E-01  0.3870E-01
     -1.159  0.3102E-02 -0.6461E-02  0.3703E-01  0.3858E-01
     -1.141  0.9253E-02 -0.7533E-02  0.3719E-01  0.3845E-01
     -1.124  0.1694E-01 -0.8196E-02  0.3748E-01  0.3831E-01
     -1.107  0.2615E-01 -0.8605E-02  0.3794E-01  0.3816E-01
     -1.089  0.3675E-01 -0.8873E-02  0.3857E-01  0.3801E-01
     -1.072  0.4847E-01 -0.9067E-02  0.3941E-01  0.3785E-01
     -1.055  0.6093E-01 -0.9198E-02  0.4047E-01  0.3769E-01
     -1.037  0.7361E-01 -0.9222E-02  0.4174E-01  0.3753E-01
     -1.020  0.8592E-01 -0.9038E-02  0.4323E-01  0.3738E-01
     -1.003  0.9723E-01 -0.8496E-02  0.4491E-01  0.3723E-01
     -0.985  0.1069E+00 -0.7401E-02  0.4677E-01  0.3710E-01
     -0.968  0.1144E+00 -0.5531E-02  0.4875E-01  0.3701E-01
     -0.951  0.1193E+00 -0.2651E-02  0.5081E-01  0.3696E-01
     -0.933  0.1213E+00  0.1460E-02  0.5291E-01  0.3699E-01
     -0.916  0.1204E+00  0.6989E-02  0.5500E-01  0.3711E-01
     -0.899  0.1167E+00  0.1406E-01  0.5702E-01  0.3735E-01
     -0.882  0.1107E+00  0.2269E-01  0.5894E-01  0.3774E-01
     -0.864  0.1028E+00  0.3281E-01  0.6072E-01  0.3831E-01
     -0.847  0.9379E-01  0.4419E-01  0.6234E-01  0.3908E-01
     -0.830  0.8446E-01  0.5649E-01  0.6380E-01  0.4005E-01
     -0.812  0.7559E-01  0.6925E-01  0.6511E-01  0.4125E-01
     -0.795  0.6787E-01  0.8188E-01  0.6629E-01  0.4267E-01
     -0.778  0.6189E-01  0.9376E-01  0.6736E-01  0.4430E-01
     -0.760  0.5804E-01  0.1042E+00  0.6837E-01  0.4610E-01
     -0.743  0.5651E-01  0.1127E+00  0.6934E-01  0.4805E-01
     -0.726  0.5723E-01  0.1186E+00  0.7033E-01  0.5011E-01
     -0.708  0.5995E-01  0.1217E+00  0.7137E-01  0.5222E-01
     -0.691  0.6423E-01  0.1217E+00  0.7249E-01  0.5432E-01
     -0.674  0.6952E-01  0.1188E+00  0.7369E-01  0.5638E-01
     -0.656  0.7520E-01  0.1131E+00  0.7499E-01  0.5834E-01
     -0.639  0.8068E-01  0.1051E+00  0.7639E-01  0.6016E-01
     -0.622  0.8544E-01  0.9562E-01  0.7787E-01  0.6181E-01
     -0.604  0.8909E-01  0.8527E-01  0.7941E-01  0.6329E-01
     -0.587  0.9143E-01  0.7493E-01  0.8100E-01  0.6459E-01
     -0.570  0.9242E-01  0.6537E-01  0.8260E-01  0.6572E-01
     -0.552  0.9222E-01  0.5733E-01  0.8419E-01  0.6671E-01
     -0.535  0.9112E-01  0.5135E-01  0.8577E-01  0.6760E-01
     -0.518  0.8953E-01  0.4782E-01  0.8732E-01  0.6843E-01
     -0.500  0.8788E-01  0.4689E-01  0.8884E-01  0.6924E-01
     -0.483  0.8658E-01  0.4845E-01  0.9034E-01  0.7008E-01
     -0.466  0.8597E-01  0.5222E-01  0.9183E-01  0.7099E-01
     -0.449  0.8622E-01  0.5769E-01  0.9333E-01  0.7199E-01
     -0.431  0.8739E-01  0.6424E-01  0.9484E-01  0.7310E-01
     -0.414  0.8933E-01  0.7117E-01  0.9639E-01  0.7433E-01
     -0.397  0.9178E-01  0.7776E-01  0.9798E-01  0.7568E-01
     -0.379  0.9434E-01  0.8338E-01  0.9961E-01  0.7712E-01
     -0.362  0.9654E-01  0.8749E-01  0.1013E+00  0.7864E-01
     -0.345  0.9792E-01  0.8974E-01  0.1030E+00  0.8019E-01
     -0.327  0.9805E-01  0.8999E-01  0.1047E+00  0.8175E-01
     -0.310  0.9661E-01  0.8832E-01  0.1063E+00  0.8328E-01
     -0.293  0.9342E-01  0.8498E-01  0.1080E+00  0.8475E-01
     -0.275  0.8842E-01  0.8044E-01  0.1095E+00  0.8615E-01
     -0.258  0.8173E-01  0.7527E-01  0.1109E+00  0.8745E-01
     -0.241  0.7359E-01  0.7008E-01  0.1122E+00  0.8866E-01
     -0.223  0.6434E-01  0.6552E-01  0.1133E+00  0.8980E-01
     -0.206  0.5440E-01  0.6212E-01  0.1142E+00  0.9087E-01
     -0.189  0.4418E-01  0.6031E-01  0.1150E+00  0.9192E-01
     -0.171  0.3409E-01  0.6032E-01  0.1156E+00  0.9296E-01
     -0.154  0.2446E-01  0.6218E-01  0.1160E+00  0.9404E-01
     -0.137  0.1558E-01  0.6573E-01  0.1163E+00  0.9518E-01
     -0.119  0.7616E-02  0.7060E-01  0.1164E+00  0.9640E-01
     -0.102  0.6817E-03  0.7629E-01  0.1164E+00  0.9772E-01
     -0.085 -0.5188E-02  0.8219E-01  0.1163E+00  0.9914E-01
     -0.068 -0.9998E-02  0.8766E-01  0.1162E+00  0.1007E+00
     -0.050 -0.1377E-01  0.9210E-01  0.1159E+00  0.1023E+00
     -0.033 -0.1651E-01  0.9497E-01  0.1156E+00  0.1039E+00
     -0.016 -0.1817E-01  0.9590E-01  0.1153E+00  0.1056E+00
      0.002 -0.1867E-01  0.9465E-01  0.1150E+00  0.1072E+00
      0.019 -0.1785E-01  0.9120E-01  0.1147E+00  0.1088E+00
      0.036 -0.1547E-01  0.8566E-01  0.1144E+00  0.1103E+00
      0.054 -0.1124E-01  0.7833E-01  0.1142E+00  0.1116E+00
      0.071 -0.4861E-02  0.6959E-01  0.1142E+00  0.1128E+00
      0.088  0.3972E-02  0.5992E-01  0.1142E+00  0.1139E+00
      0.106  0.1551E-01  0.4980E-01  0.1145E+00  0.1147E+00
      0.123  0.2990E-01  0.3970E-01  0.1150E+00  0.1154E+00
      0.140  0.4715E-01  0.3002E-01  0.1158E+00  0.1159E+00
      0.158  0.6710E-01  0.2108E-01  0.1170E+00  0.1163E+00
      0.175  0.8936E-01  0.1310E-01  0.1185E+00  0.1165E+00
      0.192  0.1134E+00  0.6188E-02  0.1205E+00  0.1166E+00
      0.210  0.1383E+00  0.3785E-03  0.1229E+00  0.1166E+00
      0.227  0.1632E+00 -0.4385E-02  0.1257E+00  0.1166E+00
      0.244  0.1871E+00 -0.8198E-02  0.1290E+00  0.1164E+00
      0.262  0.2089E+00 -0.1118E-01  0.1326E+00  0.1162E+00
      0.279  0.2275E+00 -0.1343E-01  0.1365E+00  0.1160E+00
      0.296  0.2420E+00 -0.1502E-01  0.1407E+00  0.1157E+00
      0.313  0.2516E+00 -0.1596E-01  0.1451E+00  0.1155E+00
      0.331  0.2561E+00 -0.1618E-01  0.1495E+00  0.1152E+00
      0.348  0.2553E+00 -0.1554E-01  0.1539E+00  0.1149E+00
      0.365  0.2494E+00 -0.1382E-01  0.1582E+00  0.1147E+00
      0.383  0.2390E+00 -0.1075E-01  0.1624E+00  0.1145E+00
      0.400  0.2253E+00 -0.6018E-02  0.1663E+00  0.1144E+00
      0.417  0.2092E+00  0.6772E-03  0.1699E+00  0.1144E+00
      0.435  0.1923E+00  0.9593E-02  0.1732E+00  0.1146E+00
      0.452  0.1759E+00  0.2090E-01  0.1763E+00  0.1149E+00
      0.469  0.1616E+00  0.3463E-01  0.1791E+00  0.1155E+00
      0.487  0.1506E+00  0.5067E-01  0.1817E+00  0.1164E+00
      0.504  0.1440E+00  0.6869E-01  0.1842E+00  0.1176E+00
      0.521  0.1423E+00  0.8820E-01  0.1867E+00  0.1191E+00
      0.539  0.1460E+00  0.1085E+00  0.1892E+00  0.1210E+00
      0.556  0.1547E+00  0.1289E+00  0.1919E+00  0.1232E+00
      0.573  0.1679E+00  0.1483E+00  0.1948E+00  0.1258E+00
      0.591  0.1846E+00  0.1660E+00  0.1980E+00  0.1287E+00
      0.608  0.2035E+00  0.1812E+00  0.2015E+00  0.1318E+00
      0.625  0.2232E+00  0.1931E+00  0.2054E+00  0.1352E+00
      0.643  0.2423E+00  0.2013E+00  0.2095E+00  0.1386E+00
      0.660  0.2594E+00  0.2057E+00  0.2140E+00  0.1422E+00
      0.677  0.2733E+00  0.2061E+00  0.2188E+00  0.1458E+00
      0.695  0.2833E+00  0.2031E+00  0.2237E+00  0.1493E+00
      0.712  0.2891E+00  0.1970E+00  0.2287E+00  0.1527E+00
      0.729  0.2907E+00  0.1885E+00  0.2337E+00  0.1560E+00
      0.746  0.2884E+00  0.1783E+00  0.2387E+00  0.1591E+00
      0.764  0.2830E+00  0.1671E+00  0.2436E+00  0.1619E+00
      0.781  0.2754E+00  0.1555E+00  0.2484E+00  0.1646E+00
      0.798  0.2665E+00  0.1440E+00  0.2530E+00  0.1671E+00
      0.816  0.2573E+00  0.1330E+00  0.2575E+00  0.1694E+00
      0.833  0.2485E+00  0.1226E+00  0.2618E+00  0.1716E+00
      0.850  0.2407E+00  0.1131E+00  0.2659E+00  0.1735E+00
      0.868  0.2344E+00  0.1043E+00  0.2700E+00  0.1753E+00
      0.885  0.2298E+00  0.9646E-01  0.2740E+00  0.1770E+00
      0.902  0.2269E+00  0.8957E-01  0.2779E+00  0.1786E+00
      0.920  0.2257E+00  0.8380E-01  0.2818E+00  0.1800E+00
      0.937  0.2265E+00  0.7941E-01  0.2857E+00  0.1814E+00
      0.954  0.2294E+00  0.7670E-01  0.2897E+00  0.1827E+00
      0.972  0.2348E+00  0.7604E-01  0.2938E+00  0.1840E+00
      0.989  0.2434E+00  0.7775E-01  0.2980E+00  0.1854E+00
      1.006  0.2558E+00  0.8210E-01  0.3024E+00  0.1868E+00
      1.024  0.2729E+00  0.8919E-01  0.3071E+00  0.1883E+00
      1.041  0.2955E+00  0.9890E-01  0.3123E+00  0.1900E+00
      1.058  0.3243E+00  0.1109E+00  0.3179E+00  0.1920E+00
      1.076  0.3596E+00  0.1246E+00  0.3241E+00  0.1941E+00
      1.093  0.4015E+00  0.1392E+00  0.3311E+00  0.1965E+00
      1.110  0.4495E+00  0.1537E+00  0.3388E+00  0.1992E+00
      1.127  0.5026E+00  0.1670E+00  0.3476E+00  0.2021E+00
      1.145  0.5595E+00  0.1782E+00  0.3572E+00  0.2052E+00
      1.162  0.6184E+00  0.1863E+00  0.3680E+00  0.2084E+00
      1.179  0.6773E+00  0.1907E+00  0.3797E+00  0.2117E+00
      1.197  0.7339E+00  0.1909E+00  0.3924E+00  0.2150E+00
      1.214  0.7861E+00  0.1870E+00  0.4060E+00  0.2183E+00
      1.231  0.8319E+00  0.1791E+00  0.4204E+00  0.2214E+00
      1.249  0.8694E+00  0.1679E+00  0.4355E+00  0.2243E+00
      1.266  0.8975E+00  0.1544E+00  0.4510E+00  0.2269E+00
      1.283  0.9151E+00  0.1395E+00  0.4669E+00  0.2294E+00
      1.301  0.9221E+00  0.1243E+00  0.4828E+00  0.2315E+00
      1.318  0.9185E+00  0.1100E+00  0.4987E+00  0.2334E+00
      1.335  0.9052E+00  0.9735E-01  0.5144E+00  0.2351E+00
      1.353  0.8834E+00  0.8716E-01  0.5297E+00  0.2366E+00
      1.370  0.8547E+00  0.7981E-01  0.5445E+00  0.2380E+00
      1.387  0.8212E+00  0.7541E-01  0.5587E+00  0.2393E+00
      1.405  0.7852E+00  0.7379E-01  0.5723E+00  0.2406E+00
      1.422  0.7491E+00  0.7450E-01  0.5853E+00  0.2419E+00
      1.439  0.7154E+00  0.7692E-01  0.5977E+00  0.2432E+00
      1.457  0.6863E+00  0.8032E-01  0.6096E+00  0.2446E+00
      1.474  0.6640E+00  0.8394E-01  0.6211E+00  0.2460E+00
      1.491  0.6503E+00  0.8705E-01  0.6324E+00  0.2475E+00
      1.508  0.6463E+00  0.8904E-01  0.6435E+00  0.2491E+00
      1.526  0.6527E+00  0.8949E-01  0.6548E+00  0.2506E+00
      1.543  0.6696E+00  0.8813E-01  0.6664E+00  0.2522E+00
      1.560  0.6963E+00  0.8490E-01  0.6785E+00  0.2536E+00
      1.578  0.7316E+00  0.7992E-01  0.6912E+00  0.2550E+00
      1.595  0.7738E+00  0.7345E-01  0.7046E+00  0.2563E+00
      1.612  0.8206E+00  0.6586E-01  0.7188E+00  0.2574E+00
      1.630  0.8696E+00  0.5759E-01  0.7338E+00  0.2584E+00
      1.647  0.9179E+00  0.4911E-01  0.7497E+00  0.2593E+00
      1.664  0.9630E+00  0.4087E-01  0.7664E+00  0.2600E+00
      1.682  0.1002E+01  0.3330E-01  0.7838E+00  0.2606E+00
      1.699  0.1034E+01  0.2680E-01  0.8017E+00  0.2610E+00
      1.716  0.1055E+01  0.2174E-01  0.8200E+00  0.2614E+00
      1.734  0.1065E+01  0.1845E-01  0.8384E+00  0.2617E+00
      1.751  0.1063E+01  0.1722E-01  0.8568E+00  0.2620E+00
      1.768  0.1049E+01  0.1838E-01  0.8750E+00  0.2623E+00
      1.786  0.1022E+01  0.2220E-01  0.8927E+00  0.2627E+00
      1.803  0.9841E+00  0.2900E-01  0.9097E+00  0.2632E+00
      1.820  0.9358E+00  0.3905E-01  0.9259E+00  0.2639E+00
      1.838  0.8791E+00  0.5261E-01  0.9412E+00  0.2648E+00
      1.855  0.8161E+00  0.6989E-01  0.9553E+00  0.2660E+00
      1.872  0.7492E+00  0.9101E-01  0.9683E+00  0.2676E+00
      1.890  0.6809E+00  0.1160E+00  0.9801E+00  0.2696E+00
      1.907  0.6139E+00  0.1446E+00  0.9907E+00  0.2721E+00
      1.924  0.5506E+00  0.1766E+00  0.1000E+01  0.2752E+00
      1.941  0.4935E+00  0.2114E+00  0.1009E+01  0.2788E+00
      1.959  0.4444E+00  0.2483E+00  0.1016E+01  0.2831E+00
      1.976  0.4048E+00  0.2863E+00  0.1023E+01  0.2881E+00
      1.993  0.3756E+00  0.3244E+00  0.1030E+01  0.2937E+00
      2.011  0.3573E+00  0.3612E+00  0.1036E+01  0.3000E+00
      2.028  0.3495E+00  0.3957E+00  0.1042E+01  0.3068E+00
      2.045  0.3518E+00  0.4265E+00  0.1048E+01  0.3142E+00
      2.063  0.3631E+00  0.4526E+00  0.1055E+01  0.3220E+00
      2.080  0.3820E+00  0.4731E+00  0.1061E+01  0.3302E+00
      2.097  0.4075E+00  0.4874E+00  0.1068E+01  0.3387E+00
      2.115  0.4381E+00  0.4954E+00  0.1076E+01  0.3473E+00
      2.132  0.4731E+00  0.4972E+00  0.1084E+01  0.3559E+00
      2.149  0.5117E+00  0.4933E+00  0.1093E+01  0.3644E+00
      2.167  0.5539E+00  0.4845E+00  0.1103E+01  0.3728E+00
      2.184  0.5997E+00  0.4718E+00  0.1113E+01  0.3810E+00
      2.201  0.6496E+00  0.4563E+00  0.1124E+01  0.3889E+00
      2.219  0.7044E+00  0.4392E+00  0.1136E+01  0.3965E+00
      2.236  0.7649E+00  0.4216E+00  0.1150E+01  0.4038E+00
      2.253  0.8316E+00  0.4042E+00  0.1164E+01  0.4108E+00
      2.271  0.9049E+00  0.3877E+00  0.1180E+01  0.4175E+00
      2.288  0.9846E+00  0.3724E+00  0.1197E+01  0.4239E+00
      2.305  0.1070E+01  0.3583E+00  0.1215E+01  0.4302E+00
      2.322  0.1159E+01  0.3452E+00  0.1235E+01  0.4361E+00
      2.340  0.1251E+01  0.3328E+00  0.1257E+01  0.4419E+00
      2.357  0.1341E+01  0.3206E+00  0.1280E+01  0.4474E+00
      2.374  0.1428E+01  0.3084E+00  0.1305E+01  0.4528E+00
      2.392  0.1508E+01  0.2958E+00  0.1331E+01  0.4579E+00
      2.409  0.1576E+01  0.2826E+00  0.1358E+01  0.4628E+00
      2.426  0.1631E+01  0.2691E+00  0.1387E+01  0.4675E+00
      2.444  0.1668E+01  0.2556E+00  0.1416E+01  0.4719E+00
      2.461  0.1687E+01  0.2425E+00  0.1445E+01  0.4761E+00
      2.478  0.1687E+01  0.2307E+00  0.1474E+01  0.4801E+00
      2.496  0.1666E+01  0.2209E+00  0.1503E+01  0.4839E+00
      2.513  0.1627E+01  0.2139E+00  0.1531E+01  0.4876E+00
      2.530  0.1571E+01  0.2106E+00  0.1558E+01  0.4913E+00
      2.548  0.1502E+01  0.2115E+00  0.1584E+01  0.4949E+00
      2.565  0.1422E+01  0.2172E+00  0.1609E+01  0.4987E+00
      2.582  0.1337E+01  0.2277E+00  0.1632E+01  0.5026E+00
      2.600  0.1248E+01  0.2430E+00  0.1654E+01  0.5068E+00
      2.617  0.1162E+01  0.2626E+00  0.1674E+01  0.5114E+00
      2.634  0.1080E+01  0.2859E+00  0.1692E+01  0.5163E+00
      2.652  0.1006E+01  0.3118E+00  0.1710E+01  0.5217E+00
      2.669  0.9423E+00  0.3390E+00  0.1726E+01  0.5276E+00
      2.686  0.8894E+00  0.3663E+00  0.1742E+01  0.5340E+00
      2.703  0.8486E+00  0.3921E+00  0.1756E+01  0.5407E+00
      2.721  0.8201E+00  0.4152E+00  0.1771E+01  0.5479E+00
      2.738  0.8035E+00  0.4344E+00  0.1784E+01  0.5555E+00
      2.755  0.7986E+00  0.4487E+00  0.1798E+01  0.5632E+00
      2.773  0.8047E+00  0.4577E+00  0.1812E+01  0.5712E+00
      2.790  0.8211E+00  0.4611E+00  0.1826E+01  0.5791E+00
      2.807  0.8473E+00  0.4591E+00  0.1841E+01  0.5871E+00
      2.825  0.8828E+00  0.4525E+00  0.1856E+01  0.5949E+00
      2.842  0.9272E+00  0.4420E+00  0.1872E+01  0.6026E+00
      2.859  0.9800E+00  0.4288E+00  0.1889E+01  0.6100E+00
      2.877  0.1041E+01  0.4142E+00  0.1907E+01  0.6172E+00
      2.894  0.1108E+01  0.3996E+00  0.1927E+01  0.6241E+00
      2.911  0.1182E+01  0.3863E+00  0.1947E+01  0.6308E+00
      2.929  0.1261E+01  0.3755E+00  0.1969E+01  0.6373E+00
      2.946  0.1342E+01  0.3683E+00  0.1992E+01  0.6437E+00
      2.963  0.1424E+01  0.3658E+00  0.2017E+01  0.6500E+00
      2.981  0.1504E+01  0.3687E+00  0.2043E+01  0.6564E+00
      2.998  0.1581E+01  0.3778E+00  0.2070E+01  0.6629E+00
      3.015  0.1650E+01  0.3934E+00  0.2099E+01  0.6698E+00
      3.033  0.1710E+01  0.4160E+00  0.2128E+01  0.6770E+00
      3.050  0.1759E+01  0.4455E+00  0.2159E+01  0.6847E+00
      3.067  0.1794E+01  0.4818E+00  0.2190E+01  0.6930E+00
      3.085  0.1814E+01  0.5243E+00  0.2221E+01  0.7021E+00
      3.102  0.1819E+01  0.5720E+00  0.2253E+01  0.7120E+00
      3.119  0.1808E+01  0.6233E+00  0.2284E+01  0.7228E+00
      3.136  0.1781E+01  0.6765E+00  0.2315E+01  0.7345E+00
      3.154  0.1740E+01  0.7293E+00  0.2345E+01  0.7471E+00
      3.171  0.1686E+01  0.7792E+00  0.2374E+01  0.7606E+00
      3.188  0.1620E+01  0.8235E+00  0.2402E+01  0.7749E+00
      3.206  0.1544E+01  0.8599E+00  0.2429E+01  0.7898E+00
      3.223  0.1461E+01  0.8861E+00  0.2455E+01  0.8051E+00
      3.240  0.1373E+01  0.9005E+00  0.2478E+01  0.8207E+00
      3.258  0.1282E+01  0.9020E+00  0.2500E+01  0.8364E+00
      3.275  0.1189E+01  0.8905E+00  0.2521E+01  0.8518E+00
      3.292  0.1098E+01  0.8663E+00  0.2540E+01  0.8668E+00
      3.310  0.1008E+01  0.8309E+00  0.2558E+01  0.8812E+00
      3.327  0.9228E+00  0.7859E+00  0.2574E+01  0.8948E+00
      3.344  0.8415E+00  0.7338E+00  0.2588E+01  0.9075E+00
      3.362  0.7652E+00  0.6769E+00  0.2601E+01  0.9192E+00
      3.379  0.6942E+00  0.6178E+00  0.2613E+01  0.9299E+00
      3.396  0.6284E+00  0.5589E+00  0.2624E+01  0.9396E+00
      3.414  0.5676E+00  0.5020E+00  0.2634E+01  0.9483E+00
      3.431  0.5115E+00  0.4488E+00  0.2643E+01  0.9561E+00
      3.448  0.4600E+00  0.4005E+00  0.2651E+01  0.9630E+00
      3.466  0.4130E+00  0.3580E+00  0.2658E+01  0.9692E+00
      3.483  0.3707E+00  0.3216E+00  0.2665E+01  0.9748E+00
      3.500  0.3335E+00  0.2917E+00  0.2670E+01  0.9798E+00
      3.517  0.3024E+00  0.2683E+00  0.2676E+01  0.9845E+00
      3.535  0.2785E+00  0.2514E+00  0.2680E+01  0.9888E+00
      3.552  0.2630E+00  0.2406E+00  0.2685E+01  0.9930E+00
      3.569  0.2574E+00  0.2359E+00  0.2689E+01  0.9971E+00
      3.587  0.2628E+00  0.2369E+00  0.2694E+01  0.1001E+01
      3.604  0.2802E+00  0.2431E+00  0.2699E+01  0.1005E+01
      3.621  0.3101E+00  0.2539E+00  0.2704E+01  0.1010E+01
      3.639  0.3522E+00  0.2683E+00  0.2710E+01  0.1014E+01
      3.656  0.4054E+00  0.2856E+00  0.2717E+01  0.1019E+01
      3.673  0.4682E+00  0.3044E+00  0.2725E+01  0.1025E+01
      3.691  0.5378E+00  0.3236E+00  0.2735E+01  0.1030E+01
      3.708  0.6113E+00  0.3421E+00  0.2745E+01  0.1036E+01
      3.725  0.6849E+00  0.3586E+00  0.2757E+01  0.1042E+01
      3.743  0.7550E+00  0.3723E+00  0.2770E+01  0.1049E+01
      3.760  0.8179E+00  0.3826E+00  0.2784E+01  0.1055E+01