    1    1    1    2
  0.1145291E+02  0.2459495E-09  0.2459495E-09  0.2459495E-09  0.5000000E-15
  1.000000000000000E-004
  CAR 
 bcc Fe                                  
      8     44     12
 
  0.5000000E-01  0.5000000E-01  0.5000000E-01  0.8000000E-02
    1       -2.050161     -1.850052   1.000000   1.000000
    2        3.245619      5.361492   1.000000   1.012397
    3        3.245619      5.361492   1.000000   1.012397
    4        3.749464      5.938136   1.000000  -0.027786
    5        4.700950      7.361555   1.000000  -0.000000
    6        4.700950      7.361555   1.000000  -0.000000
    7       28.129644     28.256246   0.000000   0.000000
    8       28.129644     28.256246   0.000000   0.000000
    9       31.232807     30.994298   0.000000   0.000000
   10       32.438014     33.388462   0.000000   0.000000
   11       36.108681     36.453092   0.000000   0.000000
   12       36.108695     36.453093   0.000000   0.000000
 
  0.1500000E+00  0.5000000E-01  0.5000000E-01  0.2400000E-01
    1       -0.939030     -0.706460   1.000000   1.000000
    2        2.949392      4.998154   1.000000   1.000001
    3        3.107783      5.138794   1.000000   1.000111
    4        4.413228      6.652495   1.000000  -0.000000
    5        4.581470      7.189096   1.000000  -0.000000
    6        4.778508      7.457574   1.000000  -0.000000
    7       23.894376     24.400221   0.000000   0.000000
    8       26.205451     26.492603   0.000000   0.000000
    9       29.061909     29.916816   0.000000   0.000000
   10       31.504775     31.429074   0.000000   0.000000
   11       35.836452     36.485776   0.000000   0.000000
   12       36.174365     36.512494   0.000000   0.000000
 
  0.2500000E+00  0.5000000E-01  0.5000000E-01  0.2400000E-01
    1        0.412423      0.878385   1.000000   1.000000
    2        2.622314      4.598422   1.000000   1.000000
    3        3.206800      4.920215   1.000000   1.000000
    4        4.624508      7.204504   1.000000  -0.000000
    5        4.857499      7.564123   1.000000  -0.000000
    6        5.339964      7.613857   1.008995  -0.000000
    7       19.274938     20.096820   0.000000   0.000000
    8       24.473617     24.784808   0.000000   0.000000
    9       26.653990     27.421991   0.000000   0.000000
   10       31.069139     31.269260   0.000000   0.000000
   11       34.906589     35.511387   0.000000   0.000000
   12       38.154807     38.417098   0.000000   0.000000
 
  0.3500000E+00  0.5000000E-01  0.5000000E-01  0.2400000E-01
    1        0.960984      2.082339   1.000000   1.000000
    2        2.378783      4.302509   1.000000   1.000000
    3        4.267731      5.335857   1.000000   1.008430
    4        4.749796      7.319891   1.000000  -0.000000
    5        4.925161      7.659013   1.000000  -0.000000
    6        6.479409      8.579700  -0.000001  -0.000000
    7       15.151992     16.306215   0.000000   0.000000
    8       23.283461     23.566679   0.000000   0.000000
    9       25.031622     25.723307   0.000000   0.000000
   10       30.690054     31.051034   0.000000   0.000000
   11       34.582801     35.187133   0.000000   0.000000
   12       40.407866     40.562035   0.000000   0.000000
 
  0.4500000E+00  0.5000000E-01  0.5000000E-01  0.1200000E-01
    1        0.983943      2.364305   1.000000   1.000000
    2        2.288442      4.193685   1.000000   1.000000
    3        4.778595      5.968360   1.000000  -0.035115
    4        4.952103      7.365366   1.000000  -0.000000
    5        4.997614      7.698543   1.000001  -0.000000
    6        7.446306      9.112000  -0.000000  -0.000000
    7       13.030303     14.503745   0.000000   0.000000
    8       22.859921     23.126490   0.000000   0.000000
    9       24.435881     25.088901   0.000000   0.000000
   10       30.545354     30.958989   0.000000   0.000000
   11       34.553170     35.171477   0.000000   0.000000
   12       40.308219     40.374586   0.000000   0.000000
 
 -0.5000000E-01  0.5000000E-01  0.5000000E-01  0.6000000E-02
    1       -2.451233     -2.254952   1.000000   1.000000
    2        3.371574      5.515402   1.000000   1.031891
    3        3.371685      5.515576   1.000000   1.031842
    4        3.421937      5.582251   1.000000   0.976586
    5        4.666850      7.319943   1.000000  -0.000000
    6        4.794549      7.483618   1.000000  -0.000000
    7       29.468860     29.352369   0.000000   0.000000
    8       30.473316     30.340633   0.000000   0.000000
    9       30.473321     30.340648   0.000000   0.000000
   10       34.085988     34.456256   0.000000   0.000000
   11       35.992069     36.896571   0.000000   0.000000
   12       35.992135     36.896735   0.000000   0.000000
 
  0.1500000E+00  0.1500000E+00  0.5000000E-01  0.2400000E-01
    1        0.313674      0.649967   1.000000   1.000000
    2        2.742442      4.689371   1.000000   1.000000
    3        2.759114      4.701745   1.000000   1.000000
    4        4.597748      7.196095   1.000000  -0.000000
    5        4.860283      7.538650   1.000000  -0.000000
    6        5.400733      7.649133   1.020361  -0.000000
    7       21.592246     22.215318   0.000000   0.000000
    8       22.478004     23.078422   0.000000   0.000000
    9       25.886520     26.608485   0.000000   0.000000
   10       32.822677     32.742839   0.000000   0.000000
   11       36.726343     37.135320   0.000000   0.000000
   12       38.267122     38.729780   0.000000   0.000000
 
  0.2500000E+00  0.1500000E+00  0.5000000E-01  0.4800000E-01
    1        1.318066      2.138182   1.000000   1.000000
    2        2.453880      4.328065   1.000000   1.000000
    3        3.010260      4.585794   1.000000   1.000000
    4        4.684166      7.278322   1.000000  -0.000000
    5        4.961392      7.665638   1.000000  -0.000000
    6        6.790328      8.854412  -0.000000  -0.000000
    7       17.497248     18.398770   0.000000   0.000000
    8       20.634224     21.276909   0.000000   0.000000
    9       24.113261     24.744579   0.000000   0.000000
   10       33.041064     33.136465   0.000000   0.000000
   11       37.518973     37.870625   0.000000   0.000000
   12       38.947569     39.377207   0.000000   0.000000
 
  0.3500000E+00  0.1500000E+00  0.5000000E-01  0.4800000E-01
    1        1.415777      2.798452   1.000000   1.000000
    2        2.314125      4.161277   1.000000   1.000000
    3        3.756566      5.044970   1.000000   1.000007
    4        4.795573      7.397148   1.000000  -0.000000
    5        5.042306      7.726572   1.000006  -0.000000
    6        8.595097     10.165670  -0.000000  -0.000000
    7       13.886139     15.138320   0.000000   0.000000
    8       19.802715     20.439592   0.000000   0.000000
    9       23.214285     23.802829   0.000000   0.000000
   10       32.919689     33.124044   0.000000   0.000000
   11       38.225576     38.651661   0.000000   0.000000
   12       39.179981     39.390187   0.000000   0.000000
 
 -0.1500000E+00  0.1500000E+00  0.5000000E-01  0.2400000E-01
    1       -1.663271     -1.456194   1.000000   1.000000
    2        3.184492      5.286414   1.000000   1.003539
    3        3.337991      5.438460   1.000000   1.028946
    4        3.827259      6.028795   1.000000  -0.028481
    5        4.457847      7.045653   1.000000  -0.000000
    6        4.857439      7.555586   1.000000  -0.000000
    7       26.176610     26.479442   0.000000   0.000000
    8       28.848883     28.938988   0.000000   0.000000
    9       29.577503     29.808354   0.000000   0.000000
   10       33.279990     33.667548   0.000000   0.000000
   11       33.511686     34.265629   0.000000   0.000000
   12       34.496902     35.098064   0.000000   0.000000
 
  0.2500000E+00  0.2500000E+00  0.5000000E-01  0.2400000E-01
    1        1.837336      3.207732   1.000000   1.000000
    2        2.404072      4.103810   1.000000   1.000000
    3        2.986179      4.473528   1.000000   1.000000
    4        4.784700      7.392396   1.000000  -0.000000
    5        5.032500      7.710394   1.000004  -0.000000
    6        8.962253     10.610016  -0.000000  -0.000000
    7       15.869057     16.836553   0.000000   0.000000
    8       16.880200     17.731502   0.000000   0.000000
    9       23.013344     23.627027   0.000000   0.000000
   10       34.415654     34.486089   0.000000   0.000000
   11       37.280800     37.499736   0.000000   0.000000
   12       43.293238     43.529040   0.000000   0.000000
 
  0.3500000E+00  0.2500000E+00  0.5000000E-01  0.2400000E-01
    1        1.881832      3.475262   1.000000   1.000000
    2        2.438619      4.118004   1.000000   1.000000
    3        3.068065      4.520635   1.000000   1.000000
    4        4.876338      7.499449   1.000000  -0.000000
    5        5.021986      7.676669   1.000003  -0.000000
    6       11.089671     12.332265  -0.000000   0.000000
    7       13.323627     14.538618   0.000000   0.000000
    8       16.155208     17.037305   0.000000   0.000000
    9       22.669179     23.288358   0.000000   0.000000
   10       34.951124     35.059771   0.000000   0.000000
   11       37.265381     37.340324   0.000000   0.000000
   12       42.862112     43.403857   0.000000   0.000000
 
 -0.2500000E+00  0.2500000E+00  0.5000000E-01  0.2400000E-01
    1       -0.326160     -0.026196   1.000000   1.000000
    2        2.872668      4.906067   1.000000   1.000000
    3        3.266934      5.187144   1.000000   1.000396
    4        4.427420      6.845913   1.000000  -0.000000
    5        4.556656      6.957822   1.000000  -0.000000
    6        4.930931      7.629074   1.000000  -0.000000
    7       21.543190     22.231405   0.000000   0.000000
    8       26.696760     26.834297   0.000000   0.000000
    9       28.103359     28.706659   0.000000   0.000000
   10       31.427507     32.002829   0.000000   0.000000
   11       33.142668     33.706666   0.000000   0.000000
   12       35.243614     35.543461   0.000000   0.000000
 
 -0.1500000E+00  0.2500000E+00  0.5000000E-01  0.2400000E-01
    1       -0.600206     -0.347801   1.000000   1.000000
    2        3.118634      5.158901   1.000000   1.000191
    3        3.136953      5.189909   1.000000   1.000424
    4        4.250547      6.622033   1.000000  -0.000000
    5        4.380019      6.753383   1.000000  -0.000000
    6        5.002112      7.701455   1.000002  -0.000000
    7       23.768937     24.255236   0.000000   0.000000
    8       24.990459     25.538043   0.000000   0.000000
    9       29.693271     29.898066   0.000000   0.000000
   10       30.563894     31.191425   0.000000   0.000000
   11       33.253364     33.664046   0.000000   0.000000
   12       36.515077     36.951055   0.000000   0.000000
 
 -0.3500000E+00  0.3500000E+00  0.5000000E-01  0.2400000E-01
    1        0.719743      1.504846   1.000000   1.000000
    2        2.574062      4.545357   1.000000   1.000000
    3        3.774101      5.162786   1.000000   1.000212
    4        4.644380      7.129124   1.000000  -0.000000
    5        5.159640      7.743521   1.000195  -0.000000
    6        5.370138      7.772694   1.013971  -0.000000
    7       17.055338     18.048806   0.000000   0.000000
    8       24.994419     25.120709   0.000000   0.000000
    9       26.373296     27.070484   0.000000   0.000000
   10       30.421549     30.972150   0.000000   0.000000
   11       33.072095     33.649010   0.000000   0.000000
   12       37.089882     37.366874   0.000000   0.000000
 
 -0.2500000E+00  0.3500000E+00  0.5000000E-01  0.4800000E-01
    1        0.678863      1.181643   1.000000   1.000000
    2        2.783513      4.750682   1.000000   1.000000
    3        3.109597      4.952154   1.000000   1.000000
    4        4.348332      6.803645   1.000000  -0.000000
    5        5.011089      7.497556   1.000002  -0.000000
    6        5.513103      7.923543   1.032499  -0.000000
    7       19.551747     20.356621   0.000000   0.000000
    8       22.712641     23.294294   0.000000   0.000000
    9       27.877832     28.318546   0.000000   0.000000
   10       30.318485     30.724272   0.000000   0.000000
   11       33.773464     34.202197   0.000000   0.000000
   12       37.115598     37.554785   0.000000   0.000000
 
 -0.4500000E+00  0.4500000E+00  0.5000000E-01  0.2400000E-01
    1        0.906792      2.225439   1.000000   1.000000
    2        2.393418      4.329894   1.000000   1.000000
    3        4.447371      5.844316   1.000000   0.099330
    4        4.725054      7.252252   1.000000  -0.000000
    5        5.920893      8.021393  -0.017969  -0.000000
    6        6.358670      8.415303  -0.000044  -0.000000
    7       13.618340     14.994710   0.000000   0.000000
    8       24.068207     24.171860   0.000000   0.000000
    9       25.225418     25.876528   0.000000   0.000000
   10       30.026112     30.624087   0.000000   0.000000
   11       33.194265     33.819424   0.000000   0.000000
   12       38.344251     38.465706   0.000000   0.000000
 
 -0.3500000E+00  0.4500000E+00  0.5000000E-01  0.4800000E-01
    1        1.199626      2.362869   1.000000   1.000000
    2        2.575745      4.498471   1.000000   1.000000
    3        3.512217      5.000334   1.000000   1.000001
    4        4.580568      7.049988   1.000000  -0.000000
    5        5.355339      7.865163   1.011349  -0.000000
    6        6.952577      8.875619  -0.000000  -0.000000
    7       15.368772     16.481196   0.000000   0.000000
    8       21.461643     22.045240   0.000000   0.000000
    9       26.273253     26.667529   0.000000   0.000000
   10       30.491738     30.989541   0.000000   0.000000
   11       34.886560     35.214115   0.000000   0.000000
   12       36.902285     37.355259   0.000000   0.000000
 
 -0.2500000E+00  0.4500000E+00  0.5000000E-01  0.2400000E-01
    1        1.554986      2.517271   1.000000   1.000000
    2        2.476867      4.317343   1.000000   1.000000
    3        3.094897      4.856450   1.000000   1.000000
    4        4.464182      6.912955   1.000000  -0.000000
    5        5.157990      7.729983   1.000187  -0.000000
    6        7.191331      9.142810  -0.000000  -0.000000
    7       17.707461     18.606553   0.000000   0.000000
    8       18.496911     19.281108   0.000000   0.000000
    9       27.457065     27.969301   0.000000   0.000000
   10       30.103402     30.338056   0.000000   0.000000
   11       33.688580     34.096886   0.000000   0.000000
   12       41.372375     41.755051   0.000000   0.000000
 
 -0.4500000E+00 -0.4500000E+00  0.5000000E-01  0.2400000E-01
    1        1.208203      2.643203   1.000000   1.000000
    2        2.506653      4.427718   1.000000   1.000000
    3        3.769251      5.265017   1.000000   1.002318
    4        4.618103      7.121723   1.000000  -0.000000
    5        5.623968      8.069457   0.892764  -0.000000
    6        8.274761      9.688189  -0.000000  -0.000000
    7       13.087208     14.513698   0.000000   0.000000
    8       21.009084     21.583901   0.000000   0.000000
    9       25.706636     26.071430   0.000000   0.000000
   10       30.524309     31.071435   0.000000   0.000000
   11       36.054851     36.164746   0.000000   0.000000
   12       36.247110     36.807017   0.000000   0.000000
 
 -0.3500000E+00 -0.4500000E+00  0.5000000E-01  0.4800000E-01
    1        1.771122      3.254574   1.000000   1.000000
    2        2.493533      4.272780   1.000000   1.000000
    3        3.053780      4.674219   1.000000   1.000000
    4        4.683520      7.156791   1.000000  -0.000000
    5        5.277727      7.785403   1.002991  -0.000000
    6        9.541728     10.988550  -0.000000  -0.000000
    7       14.175686     15.333801   0.000000   0.000000
    8       17.342216     18.153874   0.000000   0.000000
    9       26.771873     27.263381   0.000000   0.000000
   10       30.767875     31.072367   0.000000   0.000000
   11       33.866127     34.067611   0.000000   0.000000
   12       40.393224     41.137771   0.000000   0.000000
 
 -0.3500000E+00 -0.3500000E+00  0.5000000E-01  0.8000000E-02
    1        2.190049      3.934589   1.000000   1.000000
    2        2.546126      4.170572   1.000000   1.000000
    3        2.546172      4.170626   1.000000   1.000000
    4        5.006403      7.496971   1.000002  -0.000000
    5        5.006527      7.497149   1.000002  -0.000000
    6       12.503110     13.665860   0.000000   0.000000
    7       12.503156     13.665979   0.000000   0.000000
    8       15.089575     16.095654   0.000000   0.000000
    9       26.886117     27.462406   0.000000   0.000000
   10       32.177135     32.356873   0.000000   0.000000
   11       32.177179     32.356997   0.000000   0.000000
   12       39.936497     40.918067   0.000000   0.000000
 
  0.1500000E+00  0.1500000E+00  0.1500000E+00  0.8000000E-02
    1        1.537983      2.073292   1.000000   1.000000
    2        2.450193      4.300748   1.000000   1.000000
    3        2.450193      4.300748   1.000000   1.000000
    4        4.823428      7.504623   1.000000  -0.000000
    5        4.823428      7.504623   1.000000  -0.000000
    6        6.802235      8.895990  -0.000000  -0.000000
    7       19.916683     20.605939   0.000000   0.000000
    8       19.916683     20.605939   0.000000   0.000000
    9       21.594179     22.386727   0.000000   0.000000
   10       35.687117     35.455500   0.000000   0.000000
   11       39.589759     39.904044   0.000000   0.000000
   12       39.589760     39.904066   0.000000   0.000000
 
  0.2500000E+00  0.1500000E+00  0.1500000E+00  0.2400000E-01
    1        1.942984      3.194457   1.000000   1.000000
    2        2.284475      4.070779   1.000000   1.000000
    3        2.904597      4.305750   1.000000   1.000000
    4        4.873502      7.549915   1.000000  -0.000000
    5        4.940136      7.674114   1.000000  -0.000000
    6        8.754676     10.464929  -0.000000  -0.000000
    7       16.032784     16.987888   0.000000   0.000000
    8       18.858186     19.574178   0.000000   0.000000
    9       19.899323     20.629555   0.000000   0.000000
   10       36.731337     36.671246   0.000000   0.000000
   11       40.544861     40.853092   0.000000   0.000000
   12       41.845195     41.956542   0.000000   0.000000
 
  0.3500000E+00  0.1500000E+00  0.1500000E+00  0.1200000E-01
    1        1.856486      3.338617   1.000000   1.000000
    2        2.233230      3.996832   1.000000   1.000000
    3        3.340908      4.693104   1.000000   1.000000
    4        4.904812      7.581424   1.000000  -0.000000
    5        4.972188      7.725044   1.000001  -0.000000
    6       10.566342     11.835789  -0.000000   0.000000
    7       13.409021     14.672091   0.000000   0.000000
    8       18.497671     19.219553   0.000000   0.000000
    9       19.426394     20.138028   0.000000   0.000000
   10       36.741134     36.768387   0.000000   0.000000
   11       41.161222     41.628498   0.000000   0.000000
   12       41.952573     42.039753   0.000000   0.000000
 
 -0.1500000E+00  0.1500000E+00  0.1500000E+00  0.6000000E-02
    1       -0.926838     -0.698402   1.000000   1.000000
    2        3.429437      5.526781   1.000000   1.027870
    3        3.429547      5.526954   1.000000   1.027795
    4        3.843812      6.054818   1.000000  -0.022544
    5        3.974582      6.436641   1.000000  -0.000004
    6        5.068545      7.777578   1.000014  -0.000000
    7       25.756107     25.958670   0.000000   0.000000
    8       27.366680     27.923301   0.000000   0.000000
    9       27.366731     27.923370   0.000000   0.000000
   10       29.095736     29.535087   0.000000   0.000000
   11       35.865710     36.255741   0.000000   0.000000
   12       35.865733     36.255744   0.000000   0.000000
 
  0.2500000E+00  0.2500000E+00  0.1500000E+00  0.2400000E-01
    1        2.124318      3.739263   1.000000   1.000000
    2        2.438554      4.040712   1.000000   1.000000
    3        2.803027      4.231781   1.000000   1.000000
    4        4.942230      7.658623   1.000000  -0.000000
    5        4.977451      7.717353   1.000001  -0.000000
    6       11.377868     12.669526   0.000000   0.000000
    7       14.696295     15.702317   0.000000   0.000000
    8       15.871156     16.779332   0.000000   0.000000
    9       18.754781     19.482457   0.000000   0.000000
   10       39.336117     39.280415   0.000000   0.000000
   11       41.108138     41.166231   0.000000   0.000000
   12       44.621336     44.721326   0.000000   0.000000
 
 -0.2500000E+00  0.2500000E+00  0.1500000E+00  0.2400000E-01
    1        0.286438      0.640013   1.000000   1.000000
    2        3.198722      5.267895   1.000000   1.002458
    3        3.280515      5.340916   1.000000   1.009129
    4        3.929703      6.232195   1.000000  -0.001167
    5        4.470118      6.748029   1.000000  -0.000000
    6        5.347144      7.962661   1.010047  -0.000000
    7       22.115203     22.779926   0.000000   0.000000
    8       25.205200     25.810608   0.000000   0.000000
    9       25.452574     25.896700   0.000000   0.000000
   10       29.061000     29.523610   0.000000   0.000000
   11       35.248432     35.735957   0.000000   0.000000
   12       36.587460     36.968962   0.000000   0.000000
 
 -0.3500000E+00  0.3500000E+00  0.1500000E+00  0.2400000E-01
    1        1.205434      2.061015   1.000000   1.000000
    2        2.966089      4.770186   1.000000   1.000000
    3        3.037259      5.048268   1.000000   1.000007
    4        4.312450      6.622163   1.000000  -0.000000
    5        5.295688      7.685796   1.004215  -0.000000
    6        6.214786      8.377380  -0.001706  -0.000000
    7       17.580101     18.516948   0.000000   0.000000
    8       23.422712     24.124061   0.000000   0.000000
    9       24.222464     24.574638   0.000000   0.000000
   10       30.640793     31.032730   0.000000   0.000000
   11       34.177239     34.711533   0.000000   0.000000
   12       36.463683     36.913641   0.000000   0.000000
 
 -0.2500000E+00  0.3500000E+00  0.1500000E+00  0.2400000E-01
    1        1.267300      1.946941   1.000000   1.000000
    2        2.689752      4.710237   1.000000   1.000000
    3        3.417600      5.418452   1.000000   1.024431
    4        4.050944      6.300522   1.000000  -0.000222
    5        4.995592      7.379233   1.000001  -0.000000
    6        6.198404      8.415804  -0.002400  -0.000000
    7       20.114000     20.903623   0.000000   0.000000
    8       20.763790     21.484472   0.000000   0.000000
    9       26.325738     26.753534   0.000000   0.000000
   10       27.782428     28.248509   0.000000   0.000000
   11       34.780772     35.286006   0.000000   0.000000
   12       40.010918     40.389055   0.000000   0.000000
 
 -0.4500000E+00  0.4500000E+00  0.1500000E+00  0.2400000E-01
    1        1.326062      2.750376   1.000000   1.000000
    2        2.885527      4.774523   1.000000   1.000000
    3        3.171150      4.866367   1.000000   1.000000
    4        4.398425      6.780918   1.000000  -0.000000
    5        5.870598      8.356588   0.043590  -0.000000
    6        8.116548      9.519439  -0.000000  -0.000000
    7       13.893184     15.162592   0.000000   0.000000
    8       22.363518     23.022965   0.000000   0.000000
    9       23.549165     23.903279   0.000000   0.000000
   10       32.694674     32.953968   0.000000   0.000000
   11       33.629790     34.184178   0.000000   0.000000
   12       35.427110     35.946589   0.000000   0.000000
 
 -0.3500000E+00  0.4500000E+00  0.1500000E+00  0.4800000E-01
    1        1.699300      2.986978   1.000000   1.000000
    2        2.462839      4.252069   1.000000   1.000000
    3        3.232694      5.205588   1.000000   1.000621
    4        4.395047      6.694636   1.000000  -0.000000
    5        5.468934      7.901448   1.034279  -0.000000
    6        8.187971      9.802355  -0.000000  -0.000000
    7       16.050001     17.045226   0.000000   0.000000
    8       19.214342     19.957670   0.000000   0.000000
    9       25.766472     26.188351   0.000000   0.000000
   10       29.250296     29.630488   0.000000   0.000000
   11       33.772880     34.271978   0.000000   0.000000
   12       38.428562     39.161025   0.000000   0.000000
 
 -0.4500000E+00 -0.4500000E+00  0.1500000E+00  0.2400000E-01
    1        1.654515      3.259837   1.000000   1.000000
    2        2.636642      4.277240   1.000000   1.000000
    3        3.043001      5.010459   1.000000   1.000002
    4        4.491834      6.812455   1.000000  -0.000000
    5        5.718142      8.171552   0.560815  -0.000000
    6       10.142874     11.313092  -0.000000   0.000000
    7       13.346277     14.618135   0.000000   0.000000
    8       18.733057     19.459183   0.000000   0.000000
    9       25.402819     25.819975   0.000000   0.000000
   10       31.027900     31.243467   0.000000   0.000000
   11       32.510413     33.102164   0.000000   0.000000
   12       37.105342     37.931645   0.000000   0.000000
 
 -0.3500000E+00 -0.4500000E+00  0.1500000E+00  0.2400000E-01
    1        2.104648      3.725061   1.000000   1.000000
    2        2.143009      3.882486   1.000000   1.000000
    3        2.968626      4.866992   1.000000   1.000000
    4        4.872820      7.214567   1.000000  -0.000000
    5        5.381102      7.791375   1.016127  -0.000000
    6       11.019020     12.252205  -0.000000   0.000000
    7       14.540108     15.569809   0.000000   0.000000
    8       15.808696     16.699358   0.000000   0.000000
    9       27.799620     28.138644   0.000000   0.000000
   10       28.745375     29.111059   0.000000   0.000000
   11       31.712043     32.260248   0.000000   0.000000
   12       37.060536     37.944838   0.000000   0.000000
 
  0.2500000E+00  0.2500000E+00  0.2500000E+00  0.2000000E-02
    1        2.473936      4.037957   1.000000   1.000000
    2        2.473936      4.037957   1.000000   1.000000
    3        2.474045      4.038085   1.000000   1.000000
    4        4.992118      7.748059   1.000001  -0.000000
    5        4.992118      7.748059   1.000001  -0.000000
    6       14.299795     15.317988   0.000000   0.000000
    7       14.299795     15.317988   0.000000   0.000000
    8       14.299914     15.318222   0.000000   0.000000
    9       16.468694     17.273072   0.000000   0.000000
   10       44.583301     44.370437   0.000000   0.000000
   11       44.586440     44.370546   0.000000   0.000000
   12       44.652635     44.371973   0.000000   0.000000
 
 -0.2500000E+00  0.2500000E+00  0.2500000E+00  0.6000000E-02
    1        1.139018      1.730587   1.000000   1.000000
    2        2.855623      5.035246   1.000000   1.000005
    3        3.807807      5.890273   1.000000   0.012931
    4        3.807932      5.890467   1.000000   0.012672
    5        4.529793      6.831006   1.000000  -0.000000
    6        6.020113      8.336886  -0.030313  -0.000000
    7       22.714457     23.437413   0.000000   0.000000
    8       22.714478     23.437430   0.000000   0.000000
    9       23.290831     23.819083   0.000000   0.000000
   10       25.572042     26.042139   0.000000   0.000000
   11       39.520087     39.889113   0.000000   0.000000
   12       39.638674     39.890461   0.000000   0.000000
 
 -0.3500000E+00  0.3500000E+00  0.2500000E+00  0.2400000E-01
    1        1.643391      2.751129   1.000000   1.000000
    2        2.292263      4.282391   1.000000   1.000000
    3        3.847148      5.936676   1.000000  -0.027135
    4        4.196254      6.356058   1.000000  -0.000048
    5        5.192090      7.569195   1.000447  -0.000000
    6        7.518921      9.230828  -0.000000  -0.000000
    7       18.535029     19.357726   0.000000   0.000000
    8       20.756987     21.446829   0.000000   0.000000
    9       23.251561     23.831426   0.000000   0.000000
   10       26.113387     26.607662   0.000000   0.000000
   11       37.218212     37.930065   0.000000   0.000000
   12       38.412150     38.920705   0.000000   0.000000
 
 -0.4500000E+00  0.4500000E+00  0.2500000E+00  0.2400000E-01
    1        1.633388      3.266165   1.000000   1.000000
    2        2.141228      3.871798   1.000000   1.000000
    3        3.767029      5.845757   1.000000   0.095823
    4        4.372883      6.561719   1.000000  -0.000000
    5        5.784219      8.257834   0.289270  -0.000000
    6       10.032980     11.200059  -0.000000   0.000000
    7       14.562432     15.605092   0.000000   0.000000
    8       19.615755     20.243500   0.000000   0.000000
    9       22.936772     23.543294   0.000000   0.000000
   10       28.109495     28.475942   0.000000   0.000000
   11       33.782950     34.637303   0.000000   0.000000
   12       37.767455     38.276209   0.000000   0.000000
 
 -0.3500000E+00  0.4500000E+00  0.2500000E+00  0.2400000E-01
    1        1.739212      3.251825   1.000000   1.000000
    2        1.840830      3.734826   1.000000   1.000000
    3        3.928634      5.999683   1.000000  -0.033836
    4        4.719265      6.945489   1.000000  -0.000000
    5        5.510097      7.926625   1.033198  -0.000000
    6        9.842218     11.066215  -0.000000  -0.000000
    7       16.917717     17.753178   0.000000   0.000000
    8       17.413244     18.141702   0.000000   0.000000
    9       24.118747     24.681051   0.000000   0.000000
   10       25.742765     26.253152   0.000000   0.000000
   11       33.300881     34.121975   0.000000   0.000000
   12       38.627302     39.153747   0.000000   0.000000
 
 -0.4500000E+00 -0.4500000E+00  0.2500000E+00  0.2400000E-01
    1        1.632912      3.417207   1.000000   1.000000
    2        1.784705      3.518095   1.000000   1.000000