 running on    4 total cores
 distrk:  each k-point on    4 cores,    1 groups
 distr:  one band on    1 cores,    4 groups
 using from now: INCAR     
 vasp.5.4.4.18Apr17-6-g9f103f2a35 (build Jul 01 2019 03:25:34) complex          
  
 POSCAR found type information on POSCAR  Fe
 POSCAR found :  1 types and       1 ions
 scaLAPACK will be used
 LDA part: xc-table for Pade appr. of Perdew
 WARNING: stress and forces are not correct
 POSCAR, INCAR and KPOINTS ok, starting setup
 FFT: planning ...
 WAVECAR not read
 reading imaginary part of occupancies ...
 charge-density read from file: bcc                                     
 reading imaginary part of occupancies ...
 magnetization density read from file 1
 entering main loop
       N       E                     dE             d eps       ncg     rms          rms(c)
DAV:   1     0.116968317950E+02    0.11697E+02   -0.26989E+03  2328   0.472E+02
DAV:   2    -0.788238220345E+01   -0.19579E+02   -0.17939E+02  2224   0.949E+01
DAV:   3    -0.822657647405E+01   -0.34419E+00   -0.34359E+00  2420   0.144E+01
DAV:   4    -0.822754932383E+01   -0.97285E-03   -0.97281E-03  2420   0.728E-01
DAV:   5    -0.822755422556E+01   -0.49017E-05   -0.49018E-05  1924   0.520E-02
DAV:   6    -0.822755441917E+01   -0.19361E-06   -0.19349E-06  1700   0.111E-02
   1 F= -.82275544E+01 E0= -.82283339E+01  d E =0.233830E-02  mag=     2.3256
 writing wavefunctions
