       N       E                     dE             d eps       ncg     rms          rms(c)
DAV:   1     0.116968317950E+02    0.11697E+02   -0.26989E+03  2328   0.472E+02
DAV:   2    -0.788238220345E+01   -0.19579E+02   -0.17939E+02  2224   0.949E+01
DAV:   3    -0.822657647405E+01   -0.34419E+00   -0.34359E+00  2420   0.144E+01
DAV:   4    -0.822754932383E+01   -0.97285E-03   -0.97281E-03  2420   0.728E-01
DAV:   5    -0.822755422556E+01   -0.49017E-05   -0.49018E-05  1924   0.520E-02
DAV:   6    -0.822755441917E+01   -0.19361E-06   -0.19349E-06  1700   0.111E-02
   1 F= -.82275544E+01 E0= -.82283339E+01  d E =0.233830E-02  mag=     2.3256
