PROCAR new format
# of k-points:   44         # of bands:   12         # of ions:    1

 k-point     1 :    0.05000000 0.05000000 0.05000000     weight = 0.00800000

band     1 # energy   -2.05016065 # occ.  1.00000000
 
ion      s      p      d    tot
    1  0.575  0.034  0.003  0.612
 
band     2 # energy    3.24561852 # occ.  1.00000000
 
ion      s      p      d    tot
    1  0.000  0.001  0.962  0.964
 
band     3 # energy    3.24561852 # occ.  1.00000000
 
ion      s      p      d    tot
    1  0.000  0.001  0.962  0.964
 
band     4 # energy    3.74946380 # occ.  1.00000000
 
ion      s      p      d    tot
    1  0.001  0.005  0.964  0.970
 
band     5 # energy    4.70095001 # occ.  1.00000000
 
ion      s      p      d    tot
    1  0.000  0.000  0.968  0.968
 
band     6 # energy    4.70095002 # occ.  1.00000000
 
ion      s      p      d    tot
    1  0.000  0.000  0.968  0.968
 
band     7 # energy   28.12964401 # occ.  0.00000000
 
ion      s      p      d    tot
    1  0.000  0.066  0.216  0.282
 
band     8 # energy   28.12964403 # occ.  0.00000000
 
ion      s      p      d    tot
    1  0.000  0.066  0.216  0.282
 
band     9 # energy   31.23280710 # occ.  0.00000000
 
ion      s      p      d    tot
    1  0.000  0.000  0.000  0.000
 
band    10 # energy   32.43801372 # occ.  0.00000000
 
ion      s      p      d    tot
    1  0.053  0.482  0.257  0.793
 
band    11 # energy   36.10868125 # occ.  0.00000000
 
ion      s      p      d    tot
    1  0.000  0.332  0.052  0.383
 
band    12 # energy   36.10869471 # occ.  0.00000000
 
ion      s      p      d    tot
    1  0.000  0.331  0.052  0.383
 

 k-point     2 :    0.15000000 0.05000000 0.05000000     weight = 0.02400000

band     1 # energy   -0.93902971 # occ.  1.00000000
 
ion      s      p      d    tot
    1  0.501  0.090  0.032  0.622
 
band     2 # energy    2.94939236 # occ.  1.00000000
 
ion      s      p      d    tot
    1  0.000  0.002  0.952  0.955
 
band     3 # energy    3.10778304 # occ.  1.00000000
 
ion      s      p      d    tot
    1  0.003  0.014  0.925  0.942
 
band     4 # energy    4.41322824 # occ.  1.00000000
 
ion      s      p      d    tot
    1  0.005  0.015  0.946  0.966
 
band     5 # energy    4.58147042 # occ.  1.00000000
 
ion      s      p      d    tot
    1  0.000  0.000  0.966  0.967
 
band     6 # energy    4.77850751 # occ.  1.00000000
 
ion      s      p      d    tot
    1  0.000  0.000  0.972  0.972
 
band     7 # energy   23.89437582 # occ.  0.00000000
 
ion      s      p      d    tot
    1  0.028  0.185  0.294  0.507
 
band     8 # energy   26.20545064 # occ.  0.00000000
 
ion      s      p      d    tot
    1  0.000  0.147  0.236  0.383
 
band     9 # energy   29.06190942 # occ.  0.00000000
 
ion      s      p      d    tot
    1  0.096  0.471  0.178  0.745
 
band    10 # energy   31.50477489 # occ.  0.00000000
 
ion      s      p      d    tot
    1  0.000  0.003  0.131  0.134
 
band    11 # energy   35.83645250 # occ.  0.00000000
 
ion      s      p      d    tot
    1  0.027  0.323  0.259  0.609
 
band    12 # energy   36.17436543 # occ.  0.00000000
 
ion      s      p      d    tot
    1  0.000  0.249  0.101  0.351
 

 k-point     3 :    0.25000000 0.05000000 0.05000000     weight = 0.02400000

band     1 # energy    0.41242277 # occ.  1.00000000
 
ion      s      p      d    tot
    1  0.341  0.109  0.237  0.687
 
band     2 # energy    2.62231389 # occ.  1.00000000
 
ion      s      p      d    tot
    1  0.000  0.003  0.943  0.946
 
band     3 # energy    3.20679995 # occ.  1.00000000
 
ion      s      p      d    tot
    1  0.044  0.094  0.727  0.864
 
band     4 # energy    4.62450837 # occ.  1.00000000
 
ion      s      p      d    tot
    1  0.002  0.001  0.970  0.973
 
band     5 # energy    4.85749901 # occ.  1.00000001
 
ion      s      p      d    tot
    1  0.000  0.000  0.977  0.977
 
band     6 # energy    5.33996398 # occ.  1.00899450
 
ion      s      p      d    tot
    1  0.017  0.036  0.900  0.953
 
band     7 # energy   19.27493776 # occ.  0.00000000
 
ion      s      p      d    tot
    1  0.116  0.231  0.297  0.645
 
band     8 # energy   24.47361724 # occ.  0.00000000
 
ion      s      p      d    tot
    1  0.000  0.203  0.194  0.397
 
band     9 # energy   26.65399007 # occ.  0.00000000
 
ion      s      p      d    tot
    1  0.098  0.492  0.123  0.713
 
band    10 # energy   31.06913895 # occ.  0.00000000
 
ion      s      p      d    tot
    1  0.000  0.011  0.328  0.339
 
band    11 # energy   34.90658923 # occ.  0.00000000
 
ion      s      p      d    tot
    1  0.081  0.223  0.275  0.579
 
band    12 # energy   38.15480707 # occ.  0.00000000
 
ion      s      p      d    tot
    1  0.000  0.226  0.084  0.310
 

 k-point     4 :    0.35000000 0.05000000 0.05000000     weight = 0.02400000

band     1 # energy    0.96098414 # occ.  1.00000000
 
ion      s      p      d    tot
    1  0.152  0.032  0.627  0.811
 
band     2 # energy    2.37878336 # occ.  1.00000000
 
ion      s      p      d    tot
    1  0.000  0.004  0.938  0.941
 
band     3 # energy    4.26773128 # occ.  1.00000000
 
ion      s      p      d    tot
    1  0.062  0.227  0.494  0.783
 
band     4 # energy    4.74979604 # occ.  1.00000000
 
ion      s      p      d    tot
    1  0.001  0.011  0.962  0.974
 
band     5 # energy    4.92516072 # occ.  1.00000009
 
ion      s      p      d    tot
    1  0.000  0.000  0.982  0.982
 
band     6 # energy    6.47940940 # occ. -0.00000086
 
ion      s      p      d    tot
    1  0.040  0.140  0.696  0.876
 
band     7 # energy   15.15199210 # occ.  0.00000000
 
ion      s      p      d    tot
    1  0.253  0.152  0.331  0.736
 
band     8 # energy   23.28346143 # occ.  0.00000000
 
ion      s      p      d    tot
    1  0.000  0.234  0.151  0.385
 
band     9 # energy   25.03162232 # occ.  0.00000000
 
ion      s      p      d    tot
    1  0.091  0.536  0.063  0.691
 
band    10 # energy   30.69005417 # occ.  0.00000000
 
ion      s      p      d    tot
    1  0.000  0.012  0.441  0.453
 
band    11 # energy   34.58280064 # occ.  0.00000000
 
ion      s      p      d    tot
    1  0.138  0.134  0.314  0.585
 
band    12 # energy   40.40786629 # occ.  0.00000000
 
ion      s      p      d    tot
    1  0.030  0.039  0.084  0.153
 

 k-point     5 :    0.45000000 0.05000000 0.05000000     weight = 0.01200000

band     1 # energy    0.98394295 # occ.  1.00000000
 
ion      s      p      d    tot
    1  0.106  0.008  0.728  0.842
 
band     2 # energy    2.28844184 # occ.  1.00000000
 
ion      s      p      d    tot
    1  0.000  0.004  0.936  0.939
 
band     3 # energy    4.77859495 # occ.  1.00000000
 
ion      s      p      d    tot
    1  0.009  0.000  0.969  0.978
 
band     4 # energy    4.95210259 # occ.  1.00000025
 
ion      s      p      d    tot
    1  0.000  0.000  0.984  0.984
 
band     5 # energy    4.99761415 # occ.  1.00000131
 
ion      s      p      d    tot
    1  0.000  0.226  0.598  0.824
 
band     6 # energy    7.44630558 # occ. -0.00000000
 
ion      s      p      d    tot
    1  0.000  0.346  0.400  0.746
 
band     7 # energy   13.03030322 # occ.  0.00000000
 
ion      s      p      d    tot
    1  0.390  0.009  0.410  0.808
 
band     8 # energy   22.85992074 # occ.  0.00000000
 
ion      s      p      d    tot
    1  0.000  0.243  0.135  0.378
 
band     9 # energy   24.43588093 # occ.  0.00000000
 
ion      s      p      d    tot
    1  0.089  0.557  0.034  0.680
 
band    10 # energy   30.54535352 # occ.  0.00000000
 
ion      s      p      d    tot
    1  0.000  0.011  0.478  0.489
 
band    11 # energy   34.55317050 # occ.  0.00000000
 
ion      s      p      d    tot
    1  0.164  0.095  0.338  0.597
 
band    12 # energy   40.30821941 # occ.  0.00000000
 
ion      s      p      d    tot
    1  0.000  0.072  0.004  0.075
 

 k-point     6 :   -0.05000000 0.05000000 0.05000000     weight = 0.00600000

band     1 # energy   -2.45123268 # occ.  1.00000000
 
ion      s      p      d    tot
    1  0.599  0.012  0.000  0.611
 
band     2 # energy    3.37157428 # occ.  1.00000000
 
ion      s      p      d    tot
    1  0.000  0.001  0.967  0.969
 
band     3 # energy    3.37168505 # occ.  1.00000000
 
ion      s      p      d    tot
    1  0.000  0.001  0.967  0.969
 
band     4 # energy    3.42193699 # occ.  1.00000000
 
ion      s      p      d    tot
    1  0.000  0.000  0.970  0.970
 
band     5 # energy    4.66685035 # occ.  1.00000000
 
ion      s      p      d    tot
    1  0.000  0.000  0.965  0.965
 
band     6 # energy    4.79454892 # occ.  1.00000000
 
ion      s      p      d    tot
    1  0.000  0.000  0.971  0.971
 
band     7 # energy   29.46885972 # occ.  0.00000000
 
ion      s      p      d    tot
    1  0.000  0.000  0.105  0.105
 
band     8 # energy   30.47331638 # occ.  0.00000000
 
ion      s      p      d    tot
    1  0.000  0.010  0.082  0.091
 
band     9 # energy   30.47332056 # occ.  0.00000000
 
ion      s      p      d    tot
    1  0.000  0.010  0.082  0.091
 
band    10 # energy   34.08598781 # occ.  0.00000000
 
ion      s      p      d    tot
    1  0.011  0.266  0.175  0.452
 
band    11 # energy   35.99206855 # occ.  0.00000000
 
ion      s      p      d    tot
    1  0.000  0.456  0.281  0.737
 
band    12 # energy   35.99213545 # occ.  0.00000000
 
ion      s      p      d    tot
    1  0.000  0.456  0.281  0.737
 

 k-point     7 :    0.15000000 0.15000000 0.05000000     weight = 0.02400000

band     1 # energy    0.31367412 # occ.  1.00000000
 
ion      s      p      d    tot
    1  0.393  0.137  0.121  0.651
 
band     2 # energy    2.74244247 # occ.  1.00000000
 
ion      s      p      d    tot
    1  0.000  0.018  0.910  0.928
 
band     3 # energy    2.75911381 # occ.  1.00000000
 
ion      s      p      d    tot
    1  0.006  0.018  0.911  0.934
 
band     4 # energy    4.59774812 # occ.  1.00000000
 
ion      s      p      d    tot
    1  0.000  0.000  0.969  0.969
 
band     5 # energy    4.86028256 # occ.  1.00000001
 
ion      s      p      d    tot
    1  0.002  0.000  0.976  0.977
 
band     6 # energy    5.40073338 # occ.  1.02036131
 
ion      s      p      d    tot
    1  0.025  0.044  0.878  0.946
 
band     7 # energy   21.59224636 # occ.  0.00000000
 
ion      s      p      d    tot
    1  0.000  0.231  0.322  0.553
 
band     8 # energy   22.47800363 # occ.  0.00000000
 
ion      s      p      d    tot
    1  0.100  0.247  0.225  0.573
 
band     9 # energy   25.88652016 # occ.  0.00000000
 
ion      s      p      d    tot
    1  0.133  0.402  0.132  0.666
 
band    10 # energy   32.82267734 # occ.  0.00000000
 
ion      s      p      d    tot
    1  0.000  0.016  0.116  0.132
 
band    11 # energy   36.72634314 # occ.  0.00000000
 
ion      s      p      d    tot
    1  0.018  0.126  0.304  0.447
 
band    12 # energy   38.26712151 # occ.  0.00000000
 
ion      s      p      d    tot
    1  0.000  0.240  0.229  0.469
 

 k-point     8 :    0.25000000 0.15000000 0.05000000     weight = 0.04800000

band     1 # energy    1.31806613 # occ.  1.00000000
 
ion      s      p      d    tot
    1  0.192  0.092  0.487  0.771
 
band     2 # energy    2.45387984 # occ.  1.00000000
 
ion      s      p      d    tot
    1  0.000  0.020  0.907  0.926
 
band     3 # energy    3.01026010 # occ.  1.00000000
 
ion      s      p      d    tot
    1  0.047  0.119  0.682  0.848
 
band     4 # energy    4.68416641 # occ.  1.00000000
 
ion      s      p      d    tot
    1  0.001  0.001  0.972  0.974
 
band     5 # energy    4.96139173 # occ.  1.00000036
 
ion      s      p      d    tot
    1  0.005  0.001  0.974  0.980
 
band     6 # energy    6.79032809 # occ. -0.00000000
 
ion      s      p      d    tot
    1  0.063  0.113  0.711  0.888
 
band     7 # energy   17.49724840 # occ.  0.00000000
 
ion      s      p      d    tot
    1  0.135  0.242  0.293  0.669
 
band     8 # energy   20.63422428 # occ.  0.00000000
 
ion      s      p      d    tot
    1  0.100  0.268  0.222  0.590
 
band     9 # energy   24.11326100 # occ.  0.00000000
 
ion      s      p      d    tot
    1  0.121  0.383  0.119  0.622
 
band    10 # energy   33.04106413 # occ.  0.00000000
 
ion      s      p      d    tot
    1  0.006  0.024  0.233  0.263
 
band    11 # energy   37.51897302 # occ.  0.00000000
 
ion      s      p      d    tot
    1  0.003  0.113  0.298  0.414
 
band    12 # energy   38.94756940 # occ.  0.00000000
 
ion      s      p      d    tot
    1  0.064  0.168  0.194  0.427
 

 k-point     9 :    0.35000000 0.15000000 0.05000000     weight = 0.04800000

band     1 # energy    1.41577730 # occ.  1.00000000
 
ion      s      p      d    tot
    1  0.086  0.034  0.728  0.848
 
band     2 # energy    2.31412545 # occ.  1.00000000
 
ion      s      p      d    tot
    1  0.000  0.019  0.908  0.927
 
band     3 # energy    3.75656552 # occ.  1.00000000
 
ion      s      p      d    tot
    1  0.012  0.179  0.643  0.834
 
band     4 # energy    4.79557337 # occ.  1.00000000
 
ion      s      p      d    tot
    1  0.004  0.002  0.972  0.978
 
band     5 # energy    5.04230596 # occ.  1.00000601
 
ion      s      p      d    tot
    1  0.002  0.011  0.965  0.978
 
band     6 # energy    8.59509711 # occ. -0.00000000
 
ion      s      p      d    tot
    1  0.042  0.283  0.449  0.774
 
band     7 # energy   13.88613873 # occ.  0.00000000
 
ion      s      p      d    tot
    1  0.296  0.115  0.345  0.757
 
band     8 # energy   19.80271518 # occ.  0.00000000
 
ion      s      p      d    tot
    1  0.105  0.287  0.200  0.592
 
band     9 # energy   23.21428491 # occ.  0.00000000
 
ion      s      p      d    tot
    1  0.113  0.390  0.103  0.606
 
band    10 # energy   32.91968918 # occ.  0.00000000
 
ion      s      p      d    tot
    1  0.012  0.019  0.309  0.340
 
band    11 # energy   38.22557561 # occ.  0.00000000
 
ion      s      p      d    tot
    1  0.038  0.147  0.294  0.479
 
band    12 # energy   39.17998107 # occ.  0.00000000
 
ion      s      p      d    tot
    1  0.033  0.067  0.140  0.241
 

 k-point    10 :   -0.15000000 0.15000000 0.05000000     weight = 0.02400000

band     1 # energy   -1.66327060 # occ.  1.00000000
 
ion      s      p      d    tot
    1  0.550  0.056  0.008  0.614
 
band     2 # energy    3.18449237 # occ.  1.00000000
 
ion      s      p      d    tot
    1  0.000  0.001  0.961  0.963
 
band     3 # energy    3.33799088 # occ.  1.00000000
 
ion      s      p      d    tot
    1  0.001  0.009  0.947  0.957
 
band     4 # energy    3.82725886 # occ.  1.00000000
 
ion      s      p      d    tot
    1  0.000  0.004  0.966  0.970
 
band     5 # energy    4.45784743 # occ.  1.00000000
 
ion      s      p      d    tot
    1  0.000  0.000  0.958  0.958
 
band     6 # energy    4.85743901 # occ.  1.00000001
 
ion      s      p      d    tot
    1  0.002  0.000  0.971  0.973
 
band     7 # energy   26.17660979 # occ.  0.00000000
 
ion      s      p      d    tot
    1  0.012  0.111  0.272  0.395
 
band     8 # energy   28.84888281 # occ.  0.00000000
 
ion      s      p      d    tot
    1  0.014  0.105  0.132  0.251
 
band     9 # energy   29.57750262 # occ.  0.00000000
 
ion      s      p      d    tot
    1  0.000  0.096  0.279  0.375
 
band    10 # energy   33.27998992 # occ.  0.00000000
 
ion      s      p      d    tot
    1  0.006  0.302  0.137  0.446
 
band    11 # energy   33.51168556 # occ.  0.00000000
 
ion      s      p      d    tot
    1  0.000  0.416  0.232  0.649
 
band    12 # energy   34.49690250 # occ.  0.00000000
 
ion      s      p      d    tot
    1  0.064  0.349  0.074  0.488
 

 k-point    11 :    0.25000000 0.25000000 0.05000000     weight = 0.02400000

band     1 # energy    1.83733569 # occ.  1.00000000
 
ion      s      p      d    tot
    1  0.071  0.038  0.760  0.870
 
band     2 # energy    2.40407188 # occ.  1.00000000
 
ion      s      p      d    tot
    1  0.000  0.064  0.822  0.887
 
band     3 # energy    2.98617853 # occ.  1.00000000
 
ion      s      p      d    tot
    1  0.027  0.135  0.685  0.848
 
band     4 # energy    4.78469955 # occ.  1.00000000
 
ion      s      p      d    tot
    1  0.000  0.003  0.975  0.977
 
band     5 # energy    5.03250016 # occ.  1.00000434
 
ion      s      p      d    tot
    1  0.005  0.005  0.971  0.981
 
band     6 # energy    8.96225278 # occ. -0.00000000
 
ion      s      p      d    tot
    1  0.089  0.221  0.490  0.800
 
band     7 # energy   15.86905672 # occ.  0.00000000
 
ion      s      p      d    tot
    1  0.000  0.335  0.335  0.670
 
band     8 # energy   16.88019978 # occ.  0.00000000
 
ion      s      p      d    tot
    1  0.376  0.146  0.169  0.692
 
band     9 # energy   23.01334393 # occ.  0.00000000
 
ion      s      p      d    tot
    1  0.115  0.354  0.141  0.609
 
band    10 # energy   34.41565391 # occ.  0.00000000
 
ion      s      p      d    tot
    1  0.000  0.046  0.192  0.238
 
band    11 # energy   37.28080010 # occ.  0.00000000
 
ion      s      p      d    tot
    1  0.021  0.054  0.239  0.313
 
band    12 # energy   43.29323847 # occ.  0.00000000
 
ion      s      p      d    tot
    1  0.001  0.181  0.174  0.356
 

 k-point    12 :    0.35000000 0.25000000 0.05000000     weight = 0.02400000

band     1 # energy    1.88183163 # occ.  1.00000000
 
ion      s      p      d    tot
    1  0.044  0.024  0.822  0.891
 
band     2 # energy    2.43861886 # occ.  1.00000000
 
ion      s      p      d    tot
    1  0.001  0.073  0.813  0.887
 
band     3 # energy    3.06806462 # occ.  1.00000000
 
ion      s      p      d    tot
    1  0.000  0.141  0.712  0.852
 
band     4 # energy    4.87633816 # occ.  1.00000001
 
ion      s      p      d    tot
    1  0.001  0.003  0.974  0.979
 
band     5 # energy    5.02198588 # occ.  1.00000305
 
ion      s      p      d    tot
    1  0.000  0.008  0.973  0.981
 
band     6 # energy   11.08967071 # occ. -0.00000000
 
ion      s      p      d    tot
    1  0.000  0.366  0.356  0.722
 
band     7 # energy   13.32362684 # occ.  0.00000000
 
ion      s      p      d    tot
    1  0.198  0.197  0.345  0.739
 
band     8 # energy   16.15520755 # occ.  0.00000000
 
ion      s      p      d    tot
    1  0.332  0.162  0.198  0.691
 
band     9 # energy   22.66917949 # occ.  0.00000000
 
ion      s      p      d    tot
    1  0.114  0.350  0.148  0.612
 
band    10 # energy   34.95112358 # occ.  0.00000000
 
ion      s      p      d    tot
    1  0.005  0.045  0.212  0.261
 
band    11 # energy   37.26538055 # occ.  0.00000000
 
ion      s      p      d    tot
    1  0.000  0.053  0.158  0.211
 
band    12 # energy   42.86211220 # occ.  0.00000000
 
ion      s      p      d    tot
    1  0.000  0.131  0.369  0.499
 

 k-point    13 :   -0.25000000 0.25000000 0.05000000     weight = 0.02400000

band     1 # energy   -0.32616019 # occ.  1.00000000
 
ion      s      p      d    tot
    1  0.439  0.109  0.093  0.641
 
band     2 # energy    2.87266834 # occ.  1.00000000
 
ion      s      p      d    tot
    1  0.000  0.001  0.953  0.954
 
band     3 # energy    3.26693351 # occ.  1.00000000
 
ion      s      p      d    tot
    1  0.021  0.049  0.834  0.904
 
band     4 # energy    4.42741956 # occ.  1.00000000
 
ion      s      p      d    tot
    1  0.000  0.002  0.962  0.964
 
band     5 # energy    4.55665567 # occ.  1.00000000
 
ion      s      p      d    tot
    1  0.000  0.007  0.966  0.973
 
band     6 # energy    4.93093063 # occ.  1.00000011
 
ion      s      p      d    tot
    1  0.007  0.002  0.964  0.974
 
band     7 # energy   21.54318952 # occ.  0.00000000
 
ion      s      p      d    tot
    1  0.074  0.220  0.300  0.594
 
band     8 # energy   26.69675998 # occ.  0.00000000
 
ion      s      p      d    tot
    1  0.019  0.167  0.094  0.280
 
band     9 # energy   28.10335911 # occ.  0.00000000
 
ion      s      p      d    tot
    1  0.000  0.308  0.317  0.624
 
band    10 # energy   31.42750731 # occ.  0.00000000
 
ion      s      p      d    tot
    1  0.000  0.269  0.299  0.568
 
band    11 # energy   33.14266841 # occ.  0.00000000
 
ion      s      p      d    tot
    1  0.060  0.278  0.212  0.550
 
band    12 # energy   35.24361356 # occ.  0.00000000
 
ion      s      p      d    tot
    1  0.089  0.155  0.078  0.321
 

 k-point    14 :   -0.15000000 0.25000000 0.05000000     weight = 0.02400000

band     1 # energy   -0.60020618 # occ.  1.00000000
 
ion      s      p      d    tot
    1  0.472  0.108  0.047  0.627
 
band     2 # energy    3.11863445 # occ.  1.00000000
 
ion      s      p      d    tot
    1  0.003  0.010  0.937  0.950
 
band     3 # energy    3.13695327 # occ.  1.00000000
 
ion      s      p      d    tot
    1  0.000  0.012  0.929  0.941
 
band     4 # energy    4.25054678 # occ.  1.00000000
 
ion      s      p      d    tot
    1  0.000  0.001  0.954  0.955
 
band     5 # energy    4.38001929 # occ.  1.00000000
 
ion      s      p      d    tot
    1  0.003  0.013  0.952  0.967
 
band     6 # energy    5.00211227 # occ.  1.00000154
 
ion      s      p      d    tot
    1  0.012  0.003  0.959  0.974
 
band     7 # energy   23.76893715 # occ.  0.00000000
 
ion      s      p      d    tot
    1  0.000  0.162  0.325  0.487
 
band     8 # energy   24.99045875 # occ.  0.00000000
 
ion      s      p      d    tot
    1  0.085  0.257  0.216  0.557
 
band     9 # energy   29.69327055 # occ.  0.00000000
 
ion      s      p      d    tot
    1  0.000  0.091  0.251  0.342
 
band    10 # energy   30.56389449 # occ.  0.00000000
 
ion      s      p      d    tot
    1  0.002  0.472  0.122  0.595
 
band    11 # energy   33.25336446 # occ.  0.00000000
 
ion      s      p      d    tot
    1  0.084  0.127  0.221  0.432
 
band    12 # energy   36.51507739 # occ.  0.00000000
 
ion      s      p      d    tot
    1  0.000  0.345  0.054  0.399
 

 k-point    15 :   -0.35000000 0.35000000 0.05000000     weight = 0.02400000

band     1 # energy    0.71974261 # occ.  1.00000000
 
ion      s      p      d    tot
    1  0.233  0.065  0.457  0.756
 
band     2 # energy    2.57406201 # occ.  1.00000000
 
ion      s      p      d    tot
    1  0.000  0.001  0.946  0.947
 
band     3 # energy    3.77410145 # occ.  1.00000000
 
ion      s      p      d    tot
    1  0.070  0.169  0.562  0.802
 
band     4 # energy    4.64437978 # occ.  1.00000000
 
ion      s      p      d    tot
    1  0.000  0.021  0.944  0.965
 
band     5 # energy    5.15963961 # occ.  1.00019517
 
ion      s      p      d    tot
    1  0.036  0.054  0.843  0.933
 
band     6 # energy    5.37013767 # occ.  1.01397106
 
ion      s      p      d    tot
    1  0.000  0.006  0.975  0.981
 
band     7 # energy   17.05533772 # occ.  0.00000000
 
ion      s      p      d    tot
    1  0.184  0.204  0.310  0.698
 
band     8 # energy   24.99441940 # occ.  0.00000000
 
ion      s      p      d    tot
    1  0.017  0.206  0.055  0.278
 
band     9 # energy   26.37329603 # occ.  0.00000000
 
ion      s      p      d    tot
    1  0.000  0.500  0.192  0.692
 
band    10 # energy   30.42154931 # occ.  0.00000000
 
ion      s      p      d    tot
    1  0.000  0.135  0.447  0.582
 
band    11 # energy   33.07209547 # occ.  0.00000000
 
ion      s      p      d    tot
    1  0.146  0.137  0.278  0.561
 
band    12 # energy   37.08988241 # occ.  0.00000000
 
ion      s      p      d    tot
    1  0.068  0.098  0.153  0.319
 

 k-point    16 :   -0.25000000 0.35000000 0.05000000     weight = 0.04800000

band     1 # energy    0.67886331 # occ.  1.00000000
 
ion      s      p      d    tot
    1  0.312  0.124  0.257  0.692
 
band     2 # energy    2.78351269 # occ.  1.00000000
 
ion      s      p      d    tot
    1  0.000  0.014  0.917  0.931
 
band     3 # energy    3.10959698 # occ.  1.00000000
 
ion      s      p      d    tot
    1  0.024  0.063  0.805  0.891
 
band     4 # energy    4.34833202 # occ.  1.00000000
 
ion      s      p      d    tot
    1  0.000  0.006  0.956  0.962
 
band     5 # energy    5.01108860 # occ.  1.00000210
 
ion      s      p      d    tot
    1  0.005  0.002  0.973  0.980
 
band     6 # energy    5.51310337 # occ.  1.03249899
 
ion      s      p      d    tot
    1  0.047  0.052  0.834  0.933
 
band     7 # energy   19.55174718 # occ.  0.00000000
 
ion      s      p      d    tot
    1  0.096  0.245  0.300  0.641
 
band     8 # energy   22.71264096 # occ.  0.00000000
 
ion      s      p      d    tot
    1  0.083  0.264  0.221  0.568
 
band     9 # energy   27.87783230 # occ.  0.00000000
 
ion      s      p      d    tot
    1  0.001  0.390  0.105  0.496
 
band    10 # energy   30.31848476 # occ.  0.00000000
 
ion      s      p      d    tot
    1  0.025  0.149  0.291  0.466
 
band    11 # energy   33.77346448 # occ.  0.00000000
 
ion      s      p      d    tot
    1  0.056  0.114  0.295  0.465
 
band    12 # energy   37.11559803 # occ.  0.00000000
 
ion      s      p      d    tot
    1  0.070  0.191  0.168  0.428
 

 k-point    17 :   -0.45000000 0.45000000 0.05000000     weight = 0.02400000

band     1 # energy    0.90679193 # occ.  1.00000000
 
ion      s      p      d    tot
    1  0.120  0.009  0.705  0.833
 
band     2 # energy    2.39341785 # occ.  1.00000000
 
ion      s      p      d    tot
    1  0.000  0.001  0.942  0.943
 
band     3 # energy    4.44737083 # occ.  1.00000000
 
ion      s      p      d    tot
    1  0.012  0.096  0.787  0.894
 
band     4 # energy    4.72505374 # occ.  1.00000000
 
ion      s      p      d    tot
    1  0.005  0.011  0.955  0.971
 
band     5 # energy    5.92089256 # occ. -0.01796907
 
ion      s      p      d    tot
    1  0.000  0.001  0.989  0.990
 
band     6 # energy    6.35866956 # occ. -0.00004418
 
ion      s      p      d    tot
    1  0.034  0.401  0.265  0.700
 
band     7 # energy   13.61834047 # occ.  0.00000000
 
ion      s      p      d    tot
    1  0.343  0.062  0.382  0.787
 
band     8 # energy   24.06820657 # occ.  0.00000000
 
ion      s      p      d    tot
    1  0.016  0.224  0.031  0.271
 
band     9 # energy   25.22541810 # occ.  0.00000000
 
ion      s      p      d    tot
    1  0.000  0.581  0.102  0.683
 
band    10 # energy   30.02611222 # occ.  0.00000000
 
ion      s      p      d    tot
    1  0.000  0.091  0.529  0.619
 
band    11 # energy   33.19426500 # occ.  0.00000000
 
ion      s      p      d    tot
    1  0.205  0.045  0.344  0.594
 
band    12 # energy   38.34425091 # occ.  0.00000000
 
ion      s      p      d    tot
    1  0.014  0.065  0.119  0.199
 

 k-point    18 :   -0.35000000 0.45000000 0.05000000     weight = 0.04800000

band     1 # energy    1.19962582 # occ.  1.00000000
 
ion      s      p      d    tot
    1  0.132  0.043  0.640  0.815
 
band     2 # energy    2.57574483 # occ.  1.00000000
 
ion      s      p      d    tot
    1  0.001  0.011  0.924  0.935
 
band     3 # energy    3.51221712 # occ.  1.00000000
 
ion      s      p      d    tot
    1  0.027  0.137  0.675  0.838
 
band     4 # energy    4.58056775 # occ.  1.00000000
 
ion      s      p      d    tot
    1  0.002  0.010  0.955  0.967
 
band     5 # energy    5.35533897 # occ.  1.01134888
 
ion      s      p      d    tot
    1  0.013  0.023  0.932  0.968
 
band     6 # energy    6.95257666 # occ. -0.00000000
 
ion      s      p      d    tot
    1  0.073  0.194  0.567  0.834
 
band     7 # energy   15.36877231 # occ.  0.00000000
 
ion      s      p      d    tot
    1  0.229  0.181  0.319  0.729
 
band     8 # energy   21.46164294 # occ.  0.00000000
 
ion      s      p      d    tot
    1  0.081  0.302  0.193  0.576
 
band     9 # energy   26.27325313 # occ.  0.00000000
 
ion      s      p      d    tot
    1  0.001  0.430  0.046  0.477
 
band    10 # energy   30.49173844 # occ.  0.00000000
 
ion      s      p      d    tot
    1  0.055  0.058  0.423  0.535
 
band    11 # energy   34.88655959 # occ.  0.00000000
 
ion      s      p      d    tot
    1  0.004  0.147  0.257  0.408
 
band    12 # energy   36.90228536 # occ.  0.00000000
 
ion      s      p      d    tot
    1  0.110  0.086  0.257  0.452
 

 k-point    19 :   -0.25000000 0.45000000 0.05000000     weight = 0.02400000

band     1 # energy    1.55498576 # occ.  1.00000000
 
ion      s      p      d    tot
    1  0.156  0.087  0.548  0.790
 
band     2 # energy    2.47686672 # occ.  1.00000000
 
ion      s      p      d    tot
    1  0.000  0.040  0.851  0.891
 
band     3 # energy    3.09489724 # occ.  1.00000000
 
ion      s      p      d    tot
    1  0.016  0.081  0.793  0.890
 
band     4 # energy    4.46418249 # occ.  1.00000000
 
ion      s      p      d    tot
    1  0.000  0.006  0.959  0.966
 
band     5 # energy    5.15799035 # occ.  1.00018682
 
ion      s      p      d    tot
    1  0.016  0.006  0.955  0.976
 
band     6 # energy    7.19133127 # occ. -0.00000000
 
ion      s      p      d    tot
    1  0.095  0.154  0.606  0.855
 
band     7 # energy   17.70746107 # occ.  0.00000000
 
ion      s      p      d    tot
    1  0.000  0.318  0.341  0.659
 
band     8 # energy   18.49691091 # occ.  0.00000000
 
ion      s      p      d    tot
    1  0.289  0.213  0.170  0.671
 
band     9 # energy   27.45706476 # occ.  0.00000000
 
ion      s      p      d    tot
    1  0.020  0.445  0.077  0.542
 
band    10 # energy   30.10340158 # occ.  0.00000000
 
ion      s      p      d    tot
    1  0.000  0.089  0.275  0.364
 
band    11 # energy   33.68857999 # occ.  0.00000000
 
ion      s      p      d    tot
    1  0.085  0.028  0.345  0.457
 
band    12 # energy   41.37237549 # occ.  0.00000000
 
ion      s      p      d    tot
    1  0.000  0.244  0.141  0.385
 

 k-point    20 :   -0.45000000-0.45000000 0.05000000     weight = 0.02400000

band     1 # energy    1.20820310 # occ.  1.00000000
 
ion      s      p      d    tot
    1  0.088  0.017  0.741  0.846
 
band     2 # energy    2.50665335 # occ.  1.00000000
 
ion      s      p      d    tot
    1  0.000  0.009  0.928  0.937
 