<?xml version="1.0" encoding="ISO-8859-1"?>
<modeling>
 <generator>
  <i name="program" type="string">vasp </i>
  <i name="version" type="string">5.4.4.18Apr17-6-g9f103f2a35  </i>
  <i name="subversion" type="string">(build Jul 01 2019 03:25:34) complex            parallel </i>
  <i name="platform" type="string">LinuxIFC </i>
  <i name="date" type="string">2020 07 08 </i>
  <i name="time" type="string">18:44:11 </i>
 </generator>
 <incar>
  <i type="string" name="SYSTEM"> bcc Fe</i>
  <i type="string" name="PREC">normal</i>
  <i type="int" name="ISPIN">     2</i>
  <i type="int" name="ICHARG">    11</i>
  <i name="EDIFF">      0.00010000</i>
  <i name="ENCUT">    268.00000000</i>
  <i type="int" name="NEDOS">  3001</i>
  <v name="RWIGS">      1.30200000</v>
  <v name="MAGMOM">      3.00000000</v>
  <i type="logical" name="LCHARG"> F  </i>
  <v type="int" name="KPOINT_BSE">    -1     0     0     0</v>
 </incar>
 <structure name="primitive_cell" >
  <crystal>
   <varray name="basis" >
    <v>      -1.41999000       1.41999000       1.41999000 </v>
    <v>       1.41999000      -1.41999000       1.41999000 </v>
    <v>       1.41999000       1.41999000      -1.41999000 </v>
   </varray>
   <i name="volume">     11.45291003 </i>
   <varray name="rec_basis" >
    <v>       0.00000000       0.35211516       0.35211516 </v>
    <v>       0.35211516       0.00000000       0.35211516 </v>
    <v>       0.35211516       0.35211516       0.00000000 </v>
   </varray>
  </crystal>
  <varray name="positions" >
   <v>       0.00000000       0.00000000       0.00000000 </v>
  </varray>
 </structure>
 <varray name="primitive_index" >
  <v type="int" >        1 </v>
 </varray>
 <kpoints>
  <generation param="Monkhorst-Pack">
   <v type="int" name="divisions">      10       10       10 </v>
   <v name="usershift">      0.00000000       0.00000000       0.00000000 </v>
   <v name="genvec1">      0.10000000       0.00000000       0.00000000 </v>
   <v name="genvec2">      0.00000000       0.10000000       0.00000000 </v>
   <v name="genvec3">      0.00000000       0.00000000       0.10000000 </v>
   <v name="shift">      0.50000000       0.50000000       0.50000000 </v>
  </generation>
  <varray name="kpointlist" >
   <v>       0.05000000       0.05000000       0.05000000 </v>
   <v>       0.15000000       0.05000000       0.05000000 </v>
   <v>       0.25000000       0.05000000       0.05000000 </v>
   <v>       0.35000000       0.05000000       0.05000000 </v>
   <v>       0.45000000       0.05000000       0.05000000 </v>
   <v>      -0.05000000       0.05000000       0.05000000 </v>
   <v>       0.15000000       0.15000000       0.05000000 </v>
   <v>       0.25000000       0.15000000       0.05000000 </v>
   <v>       0.35000000       0.15000000       0.05000000 </v>
   <v>      -0.15000000       0.15000000       0.05000000 </v>
   <v>       0.25000000       0.25000000       0.05000000 </v>
   <v>       0.35000000       0.25000000       0.05000000 </v>
   <v>      -0.25000000       0.25000000       0.05000000 </v>
   <v>      -0.15000000       0.25000000       0.05000000 </v>
   <v>      -0.35000000       0.35000000       0.05000000 </v>
   <v>      -0.25000000       0.35000000       0.05000000 </v>
   <v>      -0.45000000       0.45000000       0.05000000 </v>
   <v>      -0.35000000       0.45000000       0.05000000 </v>
   <v>      -0.25000000       0.45000000       0.05000000 </v>
   <v>      -0.45000000      -0.45000000       0.05000000 </v>
   <v>      -0.35000000      -0.45000000       0.05000000 </v>
   <v>      -0.35000000      -0.35000000       0.05000000 </v>
   <v>       0.15000000       0.15000000       0.15000000 </v>
   <v>       0.25000000       0.15000000       0.15000000 </v>
   <v>       0.35000000       0.15000000       0.15000000 </v>
   <v>      -0.15000000       0.15000000       0.15000000 </v>
   <v>       0.25000000       0.25000000       0.15000000 </v>
   <v>      -0.25000000       0.25000000       0.15000000 </v>
   <v>      -0.35000000       0.35000000       0.15000000 </v>
   <v>      -0.25000000       0.35000000       0.15000000 </v>
   <v>      -0.45000000       0.45000000       0.15000000 </v>
   <v>      -0.35000000       0.45000000       0.15000000 </v>
   <v>      -0.45000000      -0.45000000       0.15000000 </v>
   <v>      -0.35000000      -0.45000000       0.15000000 </v>
   <v>       0.25000000       0.25000000       0.25000000 </v>
   <v>      -0.25000000       0.25000000       0.25000000 </v>
   <v>      -0.35000000       0.35000000       0.25000000 </v>
   <v>      -0.45000000       0.45000000       0.25000000 </v>
   <v>      -0.35000000       0.45000000       0.25000000 </v>
   <v>      -0.45000000      -0.45000000       0.25000000 </v>
   <v>      -0.35000000       0.35000000       0.35000000 </v>
   <v>      -0.45000000       0.45000000       0.35000000 </v>
   <v>      -0.45000000      -0.45000000       0.35000000 </v>
   <v>      -0.45000000       0.45000000       0.45000000 </v>
  </varray>
  <varray name="weights" >
   <v>       0.00800000 </v>
   <v>       0.02400000 </v>
   <v>       0.02400000 </v>
   <v>       0.02400000 </v>
   <v>       0.01200000 </v>
   <v>       0.00600000 </v>
   <v>       0.02400000 </v>
   <v>       0.04800000 </v>
   <v>       0.04800000 </v>
   <v>       0.02400000 </v>
   <v>       0.02400000 </v>
   <v>       0.02400000 </v>
   <v>       0.02400000 </v>
   <v>       0.02400000 </v>
   <v>       0.02400000 </v>
   <v>       0.04800000 </v>
   <v>       0.02400000 </v>
   <v>       0.04800000 </v>
   <v>       0.02400000 </v>
   <v>       0.02400000 </v>
   <v>       0.04800000 </v>
   <v>       0.00800000 </v>
   <v>       0.00800000 </v>
   <v>       0.02400000 </v>
   <v>       0.01200000 </v>
   <v>       0.00600000 </v>
   <v>       0.02400000 </v>
   <v>       0.02400000 </v>
   <v>       0.02400000 </v>
   <v>       0.02400000 </v>
   <v>       0.02400000 </v>
   <v>       0.04800000 </v>
   <v>       0.02400000 </v>
   <v>       0.02400000 </v>
   <v>       0.00200000 </v>
   <v>       0.00600000 </v>
   <v>       0.02400000 </v>
   <v>       0.02400000 </v>
   <v>       0.02400000 </v>
   <v>       0.02400000 </v>
   <v>       0.00600000 </v>
   <v>       0.02400000 </v>
   <v>       0.00800000 </v>
   <v>       0.00600000 </v>
  </varray>
 </kpoints>
 <parameters>
  <separator name="general" >
   <i type="string" name="SYSTEM">bcc Fe</i>
   <i type="logical" name="LCOMPAT"> F  </i>
  </separator>
  <separator name="electronic" >
   <i type="string" name="PREC">normal</i>
   <i name="ENMAX">    268.00000000</i>
   <i name="ENAUG">    511.36800000</i>
   <i name="EDIFF">      0.00010000</i>
   <i type="int" name="IALGO">    38</i>
   <i type="int" name="IWAVPR">    10</i>
   <i type="int" name="NBANDS">    12</i>
   <i name="NELECT">      8.00000000</i>
   <i type="int" name="TURBO">     0</i>
   <i type="int" name="IRESTART">     0</i>
   <i type="int" name="NREBOOT">     0</i>
   <i type="int" name="NMIN">     0</i>
   <i name="EREF">      0.00000000</i>
   <separator name="electronic smearing" >
    <i type="int" name="ISMEAR">     1</i>
    <i name="SIGMA">      0.20000000</i>
    <i name="KSPACING">      0.50000000</i>
    <i type="logical" name="KGAMMA"> T  </i>
   </separator>
   <separator name="electronic projectors" >
    <i type="logical" name="LREAL"> F  </i>
    <v name="ROPT">      0.00000000</v>
    <i type="int" name="LMAXPAW">  -100</i>
    <i type="int" name="LMAXMIX">     2</i>
    <i type="logical" name="NLSPLINE"> F  </i>
   </separator>
   <separator name="electronic startup" >
    <i type="int" name="ISTART">     0</i>
    <i type="int" name="ICHARG">    11</i>
    <i type="int" name="INIWAV">     1</i>
   </separator>
   <separator name="electronic spin" >
    <i type="int" name="ISPIN">     2</i>
    <i type="logical" name="LNONCOLLINEAR"> F  </i>
    <v name="MAGMOM">      3.00000000</v>
    <i name="NUPDOWN">     -1.00000000</i>
    <i type="logical" name="LSORBIT"> F  </i>
    <v name="SAXIS">      0.00000000      0.00000000      1.00000000</v>
    <i type="logical" name="LSPIRAL"> F  </i>
    <v name="QSPIRAL">      0.00000000      0.00000000      0.00000000</v>
    <i type="logical" name="LZEROZ"> F  </i>
   </separator>
   <separator name="electronic exchange-correlation" >
    <i type="logical" name="LASPH"> F  </i>
    <i type="logical" name="LMETAGGA"> F  </i>
   </separator>
   <separator name="electronic convergence" >
    <i type="int" name="NELM">    60</i>
    <i type="int" name="NELMDL">    -5</i>
    <i type="int" name="NELMIN">     2</i>
    <i name="ENINI">    268.00000000</i>
    <separator name="electronic convergence detail" >
     <i type="logical" name="LDIAG"> T  </i>
     <i type="logical" name="LSUBROT"> F  </i>
     <i name="WEIMIN">      0.00000000</i>
     <i name="EBREAK">      0.00000208</i>
     <i name="DEPER">      0.30000000</i>
     <i type="int" name="NRMM">     4</i>
     <i name="TIME">      0.40000000</i>
    </separator>
   </separator>
   <separator name="electronic mixer" >
    <i name="AMIX">      0.40000000</i>
    <i name="BMIX">      1.00000000</i>
    <i name="AMIN">      0.10000000</i>
    <i name="AMIX_MAG">      1.60000000</i>
    <i name="BMIX_MAG">      1.00000000</i>
    <separator name="electronic mixer details" >
     <i type="int" name="IMIX">     4</i>
     <i type="logical" name="MIXFIRST"> F  </i>
     <i type="int" name="MAXMIX">   -45</i>
     <i name="WC">    100.00000000</i>
     <i type="int" name="INIMIX">     1</i>
     <i type="int" name="MIXPRE">     1</i>
     <i type="int" name="MREMOVE">     5</i>
    </separator>
   </separator>
   <separator name="electronic dipolcorrection" >
    <i type="logical" name="LDIPOL"> F  </i>
    <i type="logical" name="LMONO"> F  </i>
    <i type="int" name="IDIPOL">     0</i>
    <i name="EPSILON">      1.00000000</i>
    <v name="DIPOL">   -100.00000000   -100.00000000   -100.00000000</v>
    <i name="EFIELD">      0.00000000</i>
   </separator>
  </separator>
  <separator name="grids" >
   <i type="int" name="NGX">    10</i>
   <i type="int" name="NGY">    10</i>
   <i type="int" name="NGZ">    10</i>
   <i type="int" name="NGXF">    20</i>
   <i type="int" name="NGYF">    20</i>
   <i type="int" name="NGZF">    20</i>
   <i type="logical" name="ADDGRID"> F  </i>
  </separator>
  <separator name="ionic" >
   <i type="int" name="NSW">     0</i>
   <i type="int" name="IBRION">    -1</i>
   <i type="int" name="MDALGO">     0</i>
   <i type="int" name="ISIF">     2</i>
   <i name="PSTRESS">      0.00000000</i>
   <i name="EDIFFG">      0.00100000</i>
   <i type="int" name="NFREE">     0</i>
   <i name="POTIM">      0.50000000</i>
   <i name="SMASS">     -3.00000000</i>
   <i name="SCALEE">      1.00000000</i>
  </separator>
  <separator name="ionic md" >
   <i name="TEBEG">      0.00010000</i>
   <i name="TEEND">      0.00010000</i>
   <i type="int" name="NBLOCK">     1</i>
   <i type="int" name="KBLOCK">     1</i>
   <i type="int" name="NPACO">   256</i>
   <i name="APACO">     16.00000000</i>
  </separator>
  <separator name="symmetry" >
   <i type="int" name="ISYM">     2</i>
   <i name="SYMPREC">      0.00001000</i>
  </separator>
  <separator name="dos" >
   <i type="int" name="LORBIT">     0</i>
   <v name="RWIGS">      1.30200000</v>
   <i type="int" name="NEDOS">  3001</i>
   <i name="EMIN">     10.00000000</i>
   <i name="EMAX">    -10.00000000</i>
   <i name="EFERMI">      0.00000000</i>
  </separator>
  <separator name="writing" >
   <i type="int" name="NWRITE">     2</i>
   <i type="logical" name="LWAVE"> T  </i>
   <i type="logical" name="LDOWNSAMPLE"> F  </i>
   <i type="logical" name="LCHARG"> F  </i>
   <i type="logical" name="LPARD"> F  </i>
   <i type="logical" name="LVTOT"> F  </i>
   <i type="logical" name="LVHAR"> F  </i>
   <i type="logical" name="LELF"> F  </i>
   <i type="logical" name="LOPTICS"> F  </i>
   <v name="STM">      0.00000000      0.00000000      0.00000000      0.00000000      0.00000000      0.00000000      0.00000000</v>
  </separator>
  <separator name="performance" >
   <i type="int" name="NPAR">     4</i>
   <i type="int" name="NSIM">     4</i>
   <i type="int" name="NBLK">    -1</i>
   <i type="logical" name="LPLANE"> T  </i>
   <i type="logical" name="LSCALAPACK"> T  </i>
   <i type="logical" name="LSCAAWARE"> F  </i>
   <i type="logical" name="LSCALU"> F  </i>
   <i type="logical" name="LASYNC"> F  </i>
   <i type="logical" name="LORBITALREAL"> F  </i>
  </separator>
  <separator name="miscellaneous" >
   <i type="int" name="IDIOT">     3</i>
   <i type="int" name="ISPECIAL">     0</i>
   <i type="logical" name="LMUSIC"> F  </i>
   <v name="POMASS">     55.84700000</v>
   <v name="DARWINR">      0.00000000</v>
   <v name="DARWINV">      1.00000000</v>
   <i type="logical" name="LCORR"> T  </i>
  </separator>
  <i type="logical" name="GGA_COMPAT"> T  </i>
  <i type="logical" name="LBERRY"> F  </i>
  <i type="int" name="ICORELEVEL">     0</i>
  <i type="logical" name="LDAU"> F  </i>
  <i type="int" name="I_CONSTRAINED_M">     0</i>
  <separator name="electronic exchange-correlation" >
   <i type="string" name="GGA">--</i>
   <i type="int" name="VOSKOWN">     0</i>
   <i type="logical" name="LHFCALC"> F  </i>
   <i type="string" name="PRECFOCK"></i>
   <i type="logical" name="LSYMGRAD"> F  </i>
   <i type="logical" name="LHFONE"> F  </i>
   <i type="logical" name="LRHFCALC"> F  </i>
   <i type="logical" name="LTHOMAS"> F  </i>
   <i type="logical" name="LMODELHF"> F  </i>
   <i name="ENCUT4O">     -1.00000000</i>
   <i type="int" name="EXXOEP">     0</i>
   <i type="int" name="FOURORBIT">     0</i>
   <i name="AEXX">      0.00000000</i>
   <i name="HFALPHA">      0.00000000</i>
   <i name="MCALPHA">      0.00000000</i>
   <i name="ALDAX">      1.00000000</i>
   <i name="AGGAX">      1.00000000</i>
   <i name="ALDAC">      1.00000000</i>
   <i name="AGGAC">      1.00000000</i>
   <i type="int" name="NKREDX">     1</i>
   <i type="int" name="NKREDY">     1</i>
   <i type="int" name="NKREDZ">     1</i>
   <i type="logical" name="SHIFTRED"> F  </i>
   <i type="logical" name="ODDONLY"> F  </i>
   <i type="logical" name="EVENONLY"> F  </i>
   <i type="int" name="LMAXFOCK">     0</i>
   <i type="int" name="NMAXFOCKAE">     0</i>
   <i type="logical" name="LFOCKAEDFT"> F  </i>
   <i name="HFSCREEN">      0.00000000</i>
   <i name="HFSCREENC">      0.00000000</i>
   <i type="int" name="NBANDSGWLOW">     0</i>
  </separator>
  <separator name="vdW DFT" >
   <i type="logical" name="LUSE_VDW"> F  </i>
   <i name="Zab_VDW">     -0.84910000</i>
   <i name="PARAM1">      0.12340000</i>
   <i name="PARAM2">      1.00000000</i>
   <i name="PARAM3">      0.00000000</i>
  </separator>
  <separator name="model GW" >
   <i type="int" name="MODEL_GW">     0</i>
   <i name="MODEL_EPS0">      6.87174602</i>
   <i name="MODEL_ALPHA">      1.00000000</i>
  </separator>
  <separator name="linear response parameters" >
   <i type="logical" name="LEPSILON"> F  </i>
   <i type="logical" name="LRPA"> F  </i>
   <i type="logical" name="LNABLA"> F  </i>
   <i type="logical" name="LVEL"> F  </i>
   <i type="int" name="KINTER">     0</i>
   <i name="CSHIFT">      0.10000000</i>
   <i name="OMEGAMAX">     -1.00000000</i>
   <i name="DEG_THRESHOLD">      0.00200000</i>
   <i name="RTIME">     -0.10000000</i>
   <i name="WPLASMAI">      0.00000000</i>
   <v name="DFIELD">      0.00000000      0.00000000      0.00000000</v>
   <v name="WPLASMA">      0.00000000      0.00000000      0.00000000      0.00000000      0.00000000      0.00000000      0.00000000      0.00000000      0.00000000</v>
  </separator>
  <separator name="orbital magnetization" >
   <i type="logical" name="NUCIND"> F  </i>
   <v name="MAGPOS">      0.00000000      0.00000000      0.00000000</v>
   <i type="logical" name="LNICSALL"> T  </i>
   <i type="logical" name="ORBITALMAG"> F  </i>
   <i type="logical" name="LMAGBLOCH"> F  </i>
   <i type="logical" name="LCHIMAG"> F  </i>
   <i type="logical" name="LGAUGE"> T  </i>
   <i type="int" name="MAGATOM">     0</i>
   <v name="MAGDIPOL">      0.00000000      0.00000000      0.00000000</v>
   <v name="AVECCONST">      0.00000000      0.00000000      0.00000000</v>
  </separator>
  <separator name="response functions" >
   <i type="logical" name="LADDER"> F  </i>
   <i type="logical" name="LRPAFORCE"> F  </i>
   <i type="logical" name="LFXC"> F  </i>
   <i type="logical" name="LHARTREE"> T  </i>
   <i type="int" name="IBSE">     0</i>
   <v type="int" name="KPOINT">    -1     0     0     0</v>
   <i type="logical" name="LTCTE"> F  </i>
   <i type="logical" name="LTETE"> F  </i>
   <i type="logical" name="LTRIPLET"> F  </i>
   <i type="logical" name="LFXCEPS"> F  </i>
   <i type="logical" name="LFXHEG"> F  </i>
   <i type="int" name="NATURALO">     2</i>
   <i type="logical" name="L2ORDER"> F  </i>
   <i type="logical" name="LMP2LT"> F  </i>
   <i type="logical" name="LUSEW"> F  </i>
   <i name="ENCUTGW">     -2.00000000</i>
   <i name="ENCUTGWSOFT">     -2.00000000</i>
   <i name="ENCUTLF">     -1.00000000</i>
   <i type="int" name="LMAXMP2">    -1</i>
   <i name="SCISSOR">      0.00000000</i>
   <i type="int" name="NOMEGA">     0</i>
   <i type="int" name="NOMEGAR">     0</i>
   <i type="int" name="NBANDSGW">    -1</i>
   <i type="int" name="NBANDSO">    -1</i>
   <i type="int" name="NBANDSV">    -1</i>
   <i type="int" name="NELM">     1</i>
   <i type="int" name="NELMHF">     1</i>
   <i type="int" name="DIM">     3</i>
   <i type="int" name="ANTIRES">     0</i>
   <i name="OMEGAMAX">    -30.00000000</i>
   <i name="OMEGAMIN">    -30.00000000</i>
   <i name="OMEGATL">   -200.00000000</i>
   <i type="int" name="OMEGAGRID">   140</i>
   <i name="CSHIFT">     -0.10000000</i>
   <i type="logical" name="SELFENERGY"> F  </i>
   <i type="logical" name="LSPECTRAL"> F  </i>
   <i type="logical" name="LSPECTRALGW"> F  </i>
   <i type="logical" name="LSINGLES"> F  </i>
   <i type="logical" name="LFERMIGW"> F  </i>
   <i type="logical" name="ODDONLYGW"> F  </i>
   <i type="logical" name="EVENONLYGW"> F  </i>
   <i type="int" name="NKREDLFX">     1</i>
   <i type="int" name="NKREDLFY">     1</i>
   <i type="int" name="NKREDLFZ">     1</i>
   <i type="int" name="MAXMEM">  2800</i>
   <i type="int" name="TELESCOPE">     0</i>
   <i type="int" name="TAUPAR">     1</i>
   <i type="int" name="OMEGAPAR">    -1</i>
   <i name="LAMBDA">      1.00000000</i>
  </separator>
  <separator name="External order field" >
   <i name="OFIELD_KAPPA">      0.00000000</i>
   <v name="OFIELD_K">      0.00000000      0.00000000      0.00000000</v>
   <i name="OFIELD_Q6_NEAR">      0.00000000</i>
   <i name="OFIELD_Q6_FAR">      0.00000000</i>
   <i name="OFIELD_A">      0.00000000</i>
  </separator>
 </parameters>
 <atominfo>
  <atoms>       1 </atoms>
  <types>       1 </types>
  <array name="atoms" >
   <dimension dim="1">ion</dimension>
   <field type="string">element</field>
   <field type="int">atomtype</field>
   <set>
    <rc><c>Fe</c><c>   1</c></rc>
   </set>
  </array>
  <array name="atomtypes" >
   <dimension dim="1">type</dimension>
   <field type="int">atomspertype</field>
   <field type="string">element</field>
   <field>mass</field>
   <field>valence</field>
   <field type="string">pseudopotential</field>
   <set>
    <rc><c>   1</c><c>Fe</c><c>     55.84700000</c><c>      8.00000000</c><c>  PAW_PBE Fe 06Sep2000                  </c></rc>
   </set>
  </array>
 </atominfo>
 <structure name="initialpos" >
  <crystal>
   <varray name="basis" >
    <v>      -1.41999000       1.41999000       1.41999000 </v>
    <v>       1.41999000      -1.41999000       1.41999000 </v>
    <v>       1.41999000       1.41999000      -1.41999000 </v>
   </varray>
   <i name="volume">     11.45291003 </i>
   <varray name="rec_basis" >
    <v>       0.00000000       0.35211516       0.35211516 </v>
    <v>       0.35211516       0.00000000       0.35211516 </v>
    <v>       0.35211516       0.35211516       0.00000000 </v>
   </varray>
  </crystal>
  <varray name="positions" >
   <v>       0.00000000       0.00000000       0.00000000 </v>
  </varray>
 </structure>
 <calculation>
  <scstep>
   <time name="dav">    0.11    0.12</time>
   <time name="total">    0.12    0.14</time>
   <energy>
    <i name="alphaZ">     60.34603939 </i>
    <i name="ewald">   -590.47387226 </i>
    <i name="hartreedc">    -95.91193664 </i>
    <i name="XCdc">      4.41715782 </i>
    <i name="pawpsdc">    718.80500969 </i>
    <i name="pawaedc">   -727.87074086 </i>
    <i name="eentropy">     -0.00238089 </i>
    <i name="bandstr">     48.10671058 </i>
    <i name="atom">    594.28084496 </i>
    <i name="e_fr_energy">     11.69683180 </i>
    <i name="e_wo_entrp">     11.69921268 </i>
    <i name="e_0_energy">     11.69762542 </i>
   </energy>
  </scstep>
  <scstep>
   <time name="dav">    0.10    0.10</time>
   <time name="total">    0.10    0.11</time>
   <energy>
    <i name="e_fr_energy">     -7.88238220 </i>
    <i name="e_wo_entrp">     -7.88493283 </i>
    <i name="e_0_energy">     -7.88323241 </i>
   </energy>
  </scstep>
  <scstep>
   <time name="dav">    0.11    0.11</time>
   <time name="total">    0.11    0.11</time>
   <energy>
    <i name="e_fr_energy">     -8.22657647 </i>
    <i name="e_wo_entrp">     -8.22891472 </i>
    <i name="e_0_energy">     -8.22735589 </i>
   </energy>
  </scstep>
  <scstep>
   <time name="dav">    0.11    0.11</time>
   <time name="total">    0.11    0.11</time>
   <energy>
    <i name="e_fr_energy">     -8.22754932 </i>
    <i name="e_wo_entrp">     -8.22988762 </i>
    <i name="e_0_energy">     -8.22832876 </i>
   </energy>
  </scstep>
  <scstep>
   <time name="dav">    0.09    0.10</time>
   <time name="total">    0.10    0.10</time>
   <energy>
    <i name="e_fr_energy">     -8.22755423 </i>
    <i name="e_wo_entrp">     -8.22989252 </i>
    <i name="e_0_energy">     -8.22833366 </i>
   </energy>
  </scstep>
  <scstep>
   <time name="dav">    0.09    0.09</time>
   <time name="total">    0.09    0.09</time>
   <energy>
    <i name="alphaZ">     60.34603939 </i>
    <i name="ewald">   -590.47387226 </i>
    <i name="hartreedc">    -95.91193664 </i>
    <i name="XCdc">      4.41715782 </i>
    <i name="pawpsdc">    718.80500969 </i>
    <i name="pawaedc">   -727.87074086 </i>
    <i name="eentropy">      0.00233830 </i>
    <i name="bandstr">     28.17760518 </i>
    <i name="atom">    594.28084496 </i>
    <i name="e_fr_energy">     -8.22755442 </i>
    <i name="e_wo_entrp">     -8.22989272 </i>
    <i name="e_0_energy">     -8.22833385 </i>
   </energy>
  </scstep>
  <structure>
   <crystal>
    <varray name="basis" >
     <v>      -1.41999000       1.41999000       1.41999000 </v>
     <v>       1.41999000      -1.41999000       1.41999000 </v>
     <v>       1.41999000       1.41999000      -1.41999000 </v>
    </varray>
    <i name="volume">     11.45291003 </i>
    <varray name="rec_basis" >
     <v>       0.00000000       0.35211516       0.35211516 </v>
     <v>       0.35211516       0.00000000       0.35211516 </v>
     <v>       0.35211516       0.35211516       0.00000000 </v>
    </varray>
   </crystal>
   <varray name="positions" >
    <v>       0.00000000       0.00000000       0.00000000 </v>
   </varray>
  </structure>
  <varray name="forces" >
   <v>       0.00000000       0.00000000      -0.00000000 </v>
  </varray>
  <varray name="stress" >
   <v>     -16.26179663       0.00000000       0.00000000 </v>
   <v>      -0.00000000     -16.26179663      -0.00000000 </v>
   <v>      -0.00000000      -0.00000000     -16.26179663 </v>
  </varray>
  <energy>
   <i name="e_fr_energy">     -8.22755442 </i>
   <i name="e_wo_entrp">     -8.22833385 </i>
   <i name="e_0_energy">      0.00233830 </i>
  </energy>
  <time name="totalsc">    0.70    0.73</time>
  <eigenvalues>
   <array>
    <dimension dim="1">band</dimension>
    <dimension dim="2">kpoint</dimension>
    <dimension dim="3">spin</dimension>
    <field>eigene</field>
    <field>occ</field>
    <set>
     <set comment="spin 1">
      <set comment="kpoint 1">
       <r>   -2.0502    1.0000 </r>
       <r>    3.2456    1.0000 </r>
       <r>    3.2456    1.0000 </r>
       <r>    3.7495    1.0000 </r>
       <r>    4.7010    1.0000 </r>
       <r>    4.7010    1.0000 </r>
       <r>   28.1296    0.0000 </r>
       <r>   28.1296    0.0000 </r>
       <r>   31.2328    0.0000 </r>
       <r>   32.4380    0.0000 </r>
       <r>   36.1087    0.0000 </r>
       <r>   36.1087    0.0000 </r>
      </set>
      <set comment="kpoint 2">
       <r>   -0.9390    1.0000 </r>
       <r>    2.9494    1.0000 </r>
       <r>    3.1078    1.0000 </r>
       <r>    4.4132    1.0000 </r>
       <r>    4.5815    1.0000 </r>
       <r>    4.7785    1.0000 </r>
       <r>   23.8944    0.0000 </r>
       <r>   26.2055    0.0000 </r>
       <r>   29.0619    0.0000 </r>
       <r>   31.5048    0.0000 </r>
       <r>   35.8365    0.0000 </r>
       <r>   36.1744    0.0000 </r>
      </set>
      <set comment="kpoint 3">
       <r>    0.4124    1.0000 </r>
       <r>    2.6223    1.0000 </r>
       <r>    3.2068    1.0000 </r>
       <r>    4.6245    1.0000 </r>
       <r>    4.8575    1.0000 </r>
       <r>    5.3400    1.0090 </r>
       <r>   19.2749    0.0000 </r>
       <r>   24.4736    0.0000 </r>
       <r>   26.6540    0.0000 </r>
       <r>   31.0691    0.0000 </r>
       <r>   34.9066    0.0000 </r>
       <r>   38.1548    0.0000 </r>
      </set>
      <set comment="kpoint 4">
       <r>    0.9610    1.0000 </r>
       <r>    2.3788    1.0000 </r>
       <r>    4.2677    1.0000 </r>
       <r>    4.7498    1.0000 </r>
       <r>    4.9252    1.0000 </r>
       <r>    6.4794   -0.0000 </r>
       <r>   15.1520    0.0000 </r>
       <r>   23.2835    0.0000 </r>
       <r>   25.0316    0.0000 </r>
       <r>   30.6901    0.0000 </r>
       <r>   34.5828    0.0000 </r>
       <r>   40.4079    0.0000 </r>
      </set>
      <set comment="kpoint 5">
       <r>    0.9839    1.0000 </r>
       <r>    2.2884    1.0000 </r>
       <r>    4.7786    1.0000 </r>
       <r>    4.9521    1.0000 </r>
       <r>    4.9976    1.0000 </r>
       <r>    7.4463   -0.0000 </r>
       <r>   13.0303    0.0000 </r>
       <r>   22.8599    0.0000 </r>
       <r>   24.4359    0.0000 </r>
       <r>   30.5454    0.0000 </r>
       <r>   34.5532    0.0000 </r>
       <r>   40.3082    0.0000 </r>
      </set>
      <set comment="kpoint 6">
       <r>   -2.4512    1.0000 </r>
       <r>    3.3716    1.0000 </r>
       <r>    3.3717    1.0000 </r>
       <r>    3.4219    1.0000 </r>
       <r>    4.6669    1.0000 </r>
       <r>    4.7945    1.0000 </r>
       <r>   29.4689    0.0000 </r>
       <r>   30.4733    0.0000 </r>
       <r>   30.4733    0.0000 </r>
       <r>   34.0860    0.0000 </r>
       <r>   35.9921    0.0000 </r>
       <r>   35.9921    0.0000 </r>
      </set>
      <set comment="kpoint 7">
       <r>    0.3137    1.0000 </r>
       <r>    2.7424    1.0000 </r>
       <r>    2.7591    1.0000 </r>
       <r>    4.5977    1.0000 </r>
       <r>    4.8603    1.0000 </r>
       <r>    5.4007    1.0204 </r>
       <r>   21.5922    0.0000 </r>
       <r>   22.4780    0.0000 </r>
       <r>   25.8865    0.0000 </r>
       <r>   32.8227    0.0000 </r>
       <r>   36.7263    0.0000 </r>
       <r>   38.2671    0.0000 </r>
      </set>
      <set comment="kpoint 8">
       <r>    1.3181    1.0000 </r>
       <r>    2.4539    1.0000 </r>
       <r>    3.0103    1.0000 </r>
       <r>    4.6842    1.0000 </r>
       <r>    4.9614    1.0000 </r>
       <r>    6.7903   -0.0000 </r>
       <r>   17.4972    0.0000 </r>
       <r>   20.6342    0.0000 </r>
       <r>   24.1133    0.0000 </r>
       <r>   33.0411    0.0000 </r>
       <r>   37.5190    0.0000 </r>
       <r>   38.9476    0.0000 </r>
      </set>
      <set comment="kpoint 9">
       <r>    1.4158    1.0000 </r>
       <r>    2.3141    1.0000 </r>
       <r>    3.7566    1.0000 </r>
       <r>    4.7956    1.0000 </r>
       <r>    5.0423    1.0000 </r>
       <r>    8.5951   -0.0000 </r>
       <r>   13.8861    0.0000 </r>
       <r>   19.8027    0.0000 </r>
       <r>   23.2143    0.0000 </r>
       <r>   32.9197    0.0000 </r>
       <r>   38.2256    0.0000 </r>
       <r>   39.1800    0.0000 </r>
      </set>
      <set comment="kpoint 10">
       <r>   -1.6633    1.0000 </r>
       <r>    3.1845    1.0000 </r>
       <r>    3.3380    1.0000 </r>
       <r>    3.8273    1.0000 </r>
       <r>    4.4578    1.0000 </r>
       <r>    4.8574    1.0000 </r>
       <r>   26.1766    0.0000 </r>
       <r>   28.8489    0.0000 </r>
       <r>   29.5775    0.0000 </r>
       <r>   33.2800    0.0000 </r>
       <r>   33.5117    0.0000 </r>
       <r>   34.4969    0.0000 </r>
      </set>
      <set comment="kpoint 11">
       <r>    1.8373    1.0000 </r>
       <r>    2.4041    1.0000 </r>
       <r>    2.9862    1.0000 </r>
       <r>    4.7847    1.0000 </r>
       <r>    5.0325    1.0000 </r>
       <r>    8.9623   -0.0000 </r>
       <r>   15.8691    0.0000 </r>
       <r>   16.8802    0.0000 </r>
       <r>   23.0133    0.0000 </r>
       <r>   34.4157    0.0000 </r>
       <r>   37.2808    0.0000 </r>
       <r>   43.2932    0.0000 </r>
      </set>
      <set comment="kpoint 12">
       <r>    1.8818    1.0000 </r>
       <r>    2.4386    1.0000 </r>
       <r>    3.0681    1.0000 </r>
       <r>    4.8763    1.0000 </r>
       <r>    5.0220    1.0000 </r>
       <r>   11.0897   -0.0000 </r>
       <r>   13.3236    0.0000 </r>
       <r>   16.1552    0.0000 </r>
       <r>   22.6692    0.0000 </r>
       <r>   34.9511    0.0000 </r>
       <r>   37.2654    0.0000 </r>
       <r>   42.8621    0.0000 </r>
      </set>
      <set comment="kpoint 13">
       <r>   -0.3262    1.0000 </r>
       <r>    2.8727    1.0000 </r>
       <r>    3.2669    1.0000 </r>
       <r>    4.4274    1.0000 </r>
       <r>    4.5567    1.0000 </r>
       <r>    4.9309    1.0000 </r>
       <r>   21.5432    0.0000 </r>
       <r>   26.6968    0.0000 </r>
       <r>   28.1034    0.0000 </r>
       <r>   31.4275    0.0000 </r>
       <r>   33.1427    0.0000 </r>
       <r>   35.2436    0.0000 </r>
      </set>
      <set comment="kpoint 14">
       <r>   -0.6002    1.0000 </r>
       <r>    3.1186    1.0000 </r>
       <r>    3.1370    1.0000 </r>
       <r>    4.2505    1.0000 </r>
       <r>    4.3800    1.0000 </r>
       <r>    5.0021    1.0000 </r>
       <r>   23.7689    0.0000 </r>
       <r>   24.9905    0.0000 </r>
       <r>   29.6933    0.0000 </r>
       <r>   30.5639    0.0000 </r>
       <r>   33.2534    0.0000 </r>
       <r>   36.5151    0.0000 </r>
      </set>
      <set comment="kpoint 15">
       <r>    0.7197    1.0000 </r>
       <r>    2.5741    1.0000 </r>
       <r>    3.7741    1.0000 </r>
       <r>    4.6444    1.0000 </r>
       <r>    5.1596    1.0002 </r>
       <r>    5.3701    1.0140 </r>
       <r>   17.0553    0.0000 </r>
       <r>   24.9944    0.0000 </r>
       <r>   26.3733    0.0000 </r>
       <r>   30.4215    0.0000 </r>
       <r>   33.0721    0.0000 </r>
       <r>   37.0899    0.0000 </r>
      </set>
      <set comment="kpoint 16">
       <r>    0.6789    1.0000 </r>
       <r>    2.7835    1.0000 </r>
       <r>    3.1096    1.0000 </r>
       <r>    4.3483    1.0000 </r>
       <r>    5.0111    1.0000 </r>
       <r>    5.5131    1.0325 </r>
       <r>   19.5517    0.0000 </r>
       <r>   22.7126    0.0000 </r>
       <r>   27.8778    0.0000 </r>
       <r>   30.3185    0.0000 </r>
       <r>   33.7735    0.0000 </r>
       <r>   37.1156    0.0000 </r>
      </set>
      <set comment="kpoint 17">
       <r>    0.9068    1.0000 </r>
       <r>    2.3934    1.0000 </r>
       <r>    4.4474    1.0000 </r>
       <r>    4.7251    1.0000 </r>
       <r>    5.9209   -0.0180 </r>
       <r>    6.3587   -0.0000 </r>
       <r>   13.6183    0.0000 </r>
       <r>   24.0682    0.0000 </r>
       <r>   25.2254    0.0000 </r>
       <r>   30.0261    0.0000 </r>
       <r>   33.1943    0.0000 </r>
       <r>   38.3443    0.0000 </r>
      </set>
      <set comment="kpoint 18">
       <r>    1.1996    1.0000 </r>
       <r>    2.5757    1.0000 </r>
       <r>    3.5122    1.0000 </r>
       <r>    4.5806    1.0000 </r>
       <r>    5.3553    1.0113 </r>
       <r>    6.9526   -0.0000 </r>
       <r>   15.3688    0.0000 </r>
       <r>   21.4616    0.0000 </r>
       <r>   26.2733    0.0000 </r>
       <r>   30.4917    0.0000 </r>
       <r>   34.8866    0.0000 </r>
       <r>   36.9023    0.0000 </r>
      </set>
      <set comment="kpoint 19">
       <r>    1.5550    1.0000 </r>
       <r>    2.4769    1.0000 </r>
       <r>    3.0949    1.0000 </r>
       <r>    4.4642    1.0000 </r>
       <r>    5.1580    1.0002 </r>
       <r>    7.1913   -0.0000 </r>
       <r>   17.7075    0.0000 </r>
       <r>   18.4969    0.0000 </r>
       <r>   27.4571    0.0000 </r>
       <r>   30.1034    0.0000 </r>
       <r>   33.6886    0.0000 </r>
       <r>   41.3724    0.0000 </r>
      </set>
      <set comment="kpoint 20">
       <r>    1.2082    1.0000 </r>
       <r>    2.5067    1.0000 </r>
       <r>    3.7693    1.0000 </r>
       <r>    4.6181    1.0000 </r>
       <r>    5.6240    0.8928 </r>
       <r>    8.2748   -0.0000 </r>
       <r>   13.0872    0.0000 </r>
       <r>   21.0091    0.0000 </r>
       <r>   25.7066    0.0000 </r>
       <r>   30.5243    0.0000 </r>
       <r>   36.0549    0.0000 </r>
       <r>   36.2471    0.0000 </r>
      </set>
      <set comment="kpoint 21">
       <r>    1.7711    1.0000 </r>
       <r>    2.4935    1.0000 </r>
       <r>    3.0538    1.0000 </r>
       <r>    4.6835    1.0000 </r>
       <r>    5.2777    1.0030 </r>
       <r>    9.5417   -0.0000 </r>
       <r>   14.1757    0.0000 </r>
       <r>   17.3422    0.0000 </r>
       <r>   26.7719    0.0000 </r>
       <r>   30.7679    0.0000 </r>
       <r>   33.8661    0.0000 </r>
       <r>   40.3932    0.0000 </r>
      </set>
      <set comment="kpoint 22">
       <r>    2.1900    1.0000 </r>
       <r>    2.5461    1.0000 </r>
       <r>    2.5462    1.0000 </r>
       <r>    5.0064    1.0000 </r>
       <r>    5.0065    1.0000 </r>
       <r>   12.5031    0.0000 </r>
       <r>   12.5032    0.0000 </r>
       <r>   15.0896    0.0000 </r>
       <r>   26.8861    0.0000 </r>
       <r>   32.1771    0.0000 </r>
       <r>   32.1772    0.0000 </r>
       <r>   39.9365    0.0000 </r>
      </set>
      <set comment="kpoint 23">
       <r>    1.5380    1.0000 </r>
       <r>    2.4502    1.0000 </r>
       <r>    2.4502    1.0000 </r>
       <r>    4.8234    1.0000 </r>
       <r>    4.8234    1.0000 </r>
       <r>    6.8022   -0.0000 </r>
       <r>   19.9167    0.0000 </r>
       <r>   19.9167    0.0000 </r>
       <r>   21.5942    0.0000 </r>
       <r>   35.6871    0.0000 </r>
       <r>   39.5898    0.0000 </r>
       <r>   39.5898    0.0000 </r>
      </set>
      <set comment="kpoint 24">
       <r>    1.9430    1.0000 </r>
       <r>    2.2845    1.0000 </r>
       <r>    2.9046    1.0000 </r>
       <r>    4.8735    1.0000 </r>
       <r>    4.9401    1.0000 </r>
       <r>    8.7547   -0.0000 </r>
       <r>   16.0328    0.0000 </r>
       <r>   18.8582    0.0000 </r>
       <r>   19.8993    0.0000 </r>
       <r>   36.7313    0.0000 </r>
       <r>   40.5449    0.0000 </r>
       <r>   41.8452    0.0000 </r>
      </set>
      <set comment="kpoint 25">
       <r>    1.8565    1.0000 </r>
       <r>    2.2332    1.0000 </r>
       <r>    3.3409    1.0000 </r>
       <r>    4.9048    1.0000 </r>
       <r>    4.9722    1.0000 </r>
       <r>   10.5663   -0.0000 </r>
       <r>   13.4090    0.0000 </r>
       <r>   18.4977    0.0000 </r>
       <r>   19.4264    0.0000 </r>
       <r>   36.7411    0.0000 </r>
       <r>   41.1612    0.0000 </r>
       <r>   41.9526    0.0000 </r>
      </set>
      <set comment="kpoint 26">
       <r>   -0.9268    1.0000 </r>
       <r>    3.4294    1.0000 </r>
       <r>    3.4295    1.0000 </r>
       <r>    3.8438    1.0000 </r>
       <r>    3.9746    1.0000 </r>
       <r>    5.0685    1.0000 </r>
       <r>   25.7561    0.0000 </r>
       <r>   27.3667    0.0000 </r>
       <r>   27.3667    0.0000 </r>
       <r>   29.0957    0.0000 </r>
       <r>   35.8657    0.0000 </r>
       <r>   35.8657    0.0000 </r>
      </set>
      <set comment="kpoint 27">
       <r>    2.1243    1.0000 </r>
       <r>    2.4386    1.0000 </r>
       <r>    2.8030    1.0000 </r>
       <r>    4.9422    1.0000 </r>
       <r>    4.9775    1.0000 </r>
       <r>   11.3779    0.0000 </r>
       <r>   14.6963    0.0000 </r>
       <r>   15.8712    0.0000 </r>
       <r>   18.7548    0.0000 </r>
       <r>   39.3361    0.0000 </r>
       <r>   41.1081    0.0000 </r>
       <r>   44.6213    0.0000 </r>
      </set>
      <set comment="kpoint 28">
       <r>    0.2864    1.0000 </r>
       <r>    3.1987    1.0000 </r>
       <r>    3.2805    1.0000 </r>
       <r>    3.9297    1.0000 </r>
       <r>    4.4701    1.0000 </r>
       <r>    5.3471    1.0100 </r>
       <r>   22.1152    0.0000 </r>
       <r>   25.2052    0.0000 </r>
       <r>   25.4526    0.0000 </r>
       <r>   29.0610    0.0000 </r>
       <r>   35.2484    0.0000 </r>
       <r>   36.5875    0.0000 </r>
      </set>
      <set comment="kpoint 29">
       <r>    1.2054    1.0000 </r>
       <r>    2.9661    1.0000 </r>
       <r>    3.0373    1.0000 </r>
       <r>    4.3125    1.0000 </r>
       <r>    5.2957    1.0042 </r>
       <r>    6.2148   -0.0017 </r>
       <r>   17.5801    0.0000 </r>
       <r>   23.4227    0.0000 </r>
       <r>   24.2225    0.0000 </r>
       <r>   30.6408    0.0000 </r>
       <r>   34.1772    0.0000 </r>
       <r>   36.4637    0.0000 </r>
      </set>
      <set comment="kpoint 30">
       <r>    1.2673    1.0000 </r>
       <r>    2.6898    1.0000 </r>
       <r>    3.4176    1.0000 </r>
       <r>    4.0509    1.0000 </r>
       <r>    4.9956    1.0000 </r>
       <r>    6.1984   -0.0024 </r>
       <r>   20.1140    0.0000 </r>
       <r>   20.7638    0.0000 </r>
       <r>   26.3257    0.0000 </r>
       <r>   27.7824    0.0000 </r>
       <r>   34.7808    0.0000 </r>
       <r>   40.0109    0.0000 </r>
      </set>
      <set comment="kpoint 31">
       <r>    1.3261    1.0000 </r>
       <r>    2.8855    1.0000 </r>
       <r>    3.1711    1.0000 </r>
       <r>    4.3984    1.0000 </r>
       <r>    5.8706    0.0436 </r>
       <r>    8.1165   -0.0000 </r>
       <r>   13.8932    0.0000 </r>
       <r>   22.3635    0.0000 </r>
       <r>   23.5492    0.0000 </r>
       <r>   32.6947    0.0000 </r>
       <r>   33.6298    0.0000 </r>
       <r>   35.4271    0.0000 </r>
      </set>
      <set comment="kpoint 32">
       <r>    1.6993    1.0000 </r>
       <r>    2.4628    1.0000 </r>
       <r>    3.2327    1.0000 </r>
       <r>    4.3950    1.0000 </r>
       <r>    5.4689    1.0343 </r>
       <r>    8.1880   -0.0000 </r>
       <r>   16.0500    0.0000 </r>
       <r>   19.2143    0.0000 </r>
       <r>   25.7665    0.0000 </r>
       <r>   29.2503    0.0000 </r>
       <r>   33.7729    0.0000 </r>
       <r>   38.4286    0.0000 </r>
      </set>
      <set comment="kpoint 33">
       <r>    1.6545    1.0000 </r>
       <r>    2.6366    1.0000 </r>
       <r>    3.0430    1.0000 </r>
       <r>    4.4918    1.0000 </r>
       <r>    5.7181    0.5608 </r>
       <r>   10.1429   -0.0000 </r>
       <r>   13.3463    0.0000 </r>
       <r>   18.7331    0.0000 </r>
       <r>   25.4028    0.0000 </r>
       <r>   31.0279    0.0000 </r>
       <r>   32.5104    0.0000 </r>
       <r>   37.1053    0.0000 </r>
      </set>
      <set comment="kpoint 34">
       <r>    2.1046    1.0000 </r>
       <r>    2.1430    1.0000 </r>
       <r>    2.9686    1.0000 </r>
       <r>    4.8728    1.0000 </r>
       <r>    5.3811    1.0161 </r>
       <r>   11.0190   -0.0000 </r>
       <r>   14.5401    0.0000 </r>
       <r>   15.8087    0.0000 </r>
       <r>   27.7996    0.0000 </r>
       <r>   28.7454    0.0000 </r>
       <r>   31.7120    0.0000 </r>
       <r>   37.0605    0.0000 </r>
      </set>
      <set comment="kpoint 35">
       <r>    2.4739    1.0000 </r>
       <r>    2.4739    1.0000 </r>
       <r>    2.4740    1.0000 </r>
       <r>    4.9921    1.0000 </r>
       <r>    4.9921    1.0000 </r>
       <r>   14.2998    0.0000 </r>
       <r>   14.2998    0.0000 </r>
       <r>   14.2999    0.0000 </r>
       <r>   16.4687    0.0000 </r>
       <r>   44.5833    0.0000 </r>
       <r>   44.5864    0.0000 </r>
       <r>   44.6526    0.0000 </r>
      </set>
      <set comment="kpoint 36">
       <r>    1.1390    1.0000 </r>
       <r>    2.8556    1.0000 </r>
       <r>    3.8078    1.0000 </r>
       <r>    3.8079    1.0000 </r>
       <r>    4.5298    1.0000 </r>
       <r>    6.0201   -0.0303 </r>
       <r>   22.7145    0.0000 </r>
       <r>   22.7145    0.0000 </r>
       <r>   23.2908    0.0000 </r>
       <r>   25.5720    0.0000 </r>
       <r>   39.5201    0.0000 </r>
       <r>   39.6387    0.0000 </r>
      </set>
      <set comment="kpoint 37">
       <r>    1.6434    1.0000 </r>
       <r>    2.2923    1.0000 </r>
       <r>    3.8471    1.0000 </r>
       <r>    4.1963    1.0000 </r>
       <r>    5.1921    1.0004 </r>
       <r>    7.5189   -0.0000 </r>
       <r>   18.5350    0.0000 </r>
       <r>   20.7570    0.0000 </r>
       <r>   23.2516    0.0000 </r>
       <r>   26.1134    0.0000 </r>
       <r>   37.2182    0.0000 </r>
       <r>   38.4121    0.0000 </r>
      </set>
      <set comment="kpoint 38">
       <r>    1.6334    1.0000 </r>
       <r>    2.1412    1.0000 </r>
       <r>    3.7670    1.0000 </r>
       <r>    4.3729    1.0000 </r>
       <r>    5.7842    0.2893 </r>
       <r>   10.0330   -0.0000 </r>
       <r>   14.5624    0.0000 </r>
       <r>   19.6158    0.0000 </r>
       <r>   22.9368    0.0000 </r>
       <r>   28.1095    0.0000 </r>
       <r>   33.7829    0.0000 </r>
       <r>   37.7675    0.0000 </r>
      </set>
      <set comment="kpoint 39">
       <r>    1.7392    1.0000 </r>
       <r>    1.8408    1.0000 </r>
       <r>    3.9286    1.0000 </r>
       <r>    4.7193    1.0000 </r>
       <r>    5.5101    1.0332 </r>
       <r>    9.8422   -0.0000 </r>
       <r>   16.9177    0.0000 </r>
       <r>   17.4132    0.0000 </r>
       <r>   24.1187    0.0000 </r>
       <r>   25.7428    0.0000 </r>
       <r>   33.3009    0.0000 </r>
       <r>   38.6273    0.0000 </r>
      </set>
      <set comment="kpoint 40">
       <r>    1.6329    1.0000 </r>
       <r>    1.7847    1.0000 </r>
       <r>    3.8732    1.0000 </r>
       <r>    4.9902    1.0000 </r>
       <r>    5.6667    0.7627 </r>
       <r>   12.3833    0.0000 </r>
       <r>   13.9651    0.0000 </r>
       <r>   16.6896    0.0000 </r>
       <r>   24.3650    0.0000 </r>
       <r>   26.6755    0.0000 </r>
       <r>   31.1194    0.0000 </r>
       <r>   38.4419    0.0000 </r>
      </set>
      <set comment="kpoint 41">
       <r>    1.5687    1.0000 </r>
       <r>    1.7563    1.0000 </r>
       <r>    4.6506    1.0000 </r>
       <r>    4.6507    1.0000 </r>
       <r>    5.2353    1.0012 </r>
       <r>    9.3869   -0.0000 </r>
       <r>   18.6252    0.0000 </r>
       <r>   18.6252    0.0000 </r>
       <r>   21.9897    0.0000 </r>
       <r>   23.9492    0.0000 </r>
       <r>   33.0752    0.0000 </r>
       <r>   41.8874    0.0000 </r>
      </set>
      <set comment="kpoint 42">
       <r>    1.3909    1.0000 </r>
       <r>    1.4437    1.0000 </r>
       <r>    4.8129    1.0000 </r>
       <r>    5.0098    1.0000 </r>
       <r>    5.7008    0.6326 </r>
       <r>   12.0546    0.0000 </r>
       <r>   15.6234    0.0000 </r>
       <r>   17.3582    0.0000 </r>
       <r>   22.2486    0.0000 </r>
       <r>   24.3641    0.0000 </r>
       <r>   29.7351    0.0000 </r>
       <r>   41.9285    0.0000 </r>
      </set>
      <set comment="kpoint 43">
       <r>    1.2666    1.0000 </r>
       <r>    1.2666    1.0000 </r>
       <r>    4.9145    1.0000 </r>
       <r>    5.5987    0.9486 </r>
       <r>    5.5990    0.9481 </r>
       <r>   14.6678    0.0000 </r>
       <r>   14.6679    0.0000 </r>
       <r>   15.4732    0.0000 </r>
       <r>   23.1706    0.0000 </r>
       <r>   23.1706    0.0000 </r>
       <r>   28.0867    0.0000 </r>
       <r>   42.4939    0.0000 </r>
      </set>
      <set comment="kpoint 44">
       <r>    1.0939    1.0000 </r>
       <r>    1.0949    1.0000 </r>
       <r>    5.5722    0.9905 </r>
       <r>    5.5724    0.9903 </r>
       <r>    5.6784    0.7202 </r>
       <r>   14.2671    0.0000 </r>
       <r>   15.9868    0.0000 </r>
       <r>   15.9869    0.0000 </r>
       <r>   21.4611    0.0000 </r>
       <r>   22.3384    0.0000 </r>
       <r>   27.0118    0.0000 </r>
       <r>   44.4696    0.0000 </r>
      </set>
     </set>
     <set comment="spin 2">
      <set comment="kpoint 1">
       <r>   -1.8501    1.0000 </r>
       <r>    5.3615    1.0124 </r>
       <r>    5.3615    1.0124 </r>
       <r>    5.9381   -0.0278 </r>
       <r>    7.3616   -0.0000 </r>
       <r>    7.3616   -0.0000 </r>
       <r>   28.2562    0.0000 </r>
       <r>   28.2562    0.0000 </r>
       <r>   30.9943    0.0000 </r>
       <r>   33.3885    0.0000 </r>
       <r>   36.4531    0.0000 </r>
       <r>   36.4531    0.0000 </r>
      </set>
      <set comment="kpoint 2">
       <r>   -0.7065    1.0000 </r>
       <r>    4.9982    1.0000 </r>
       <r>    5.1388    1.0001 </r>
       <r>    6.6525   -0.0000 </r>
       <r>    7.1891   -0.0000 </r>
       <r>    7.4576   -0.0000 </r>
       <r>   24.4002    0.0000 </r>
       <r>   26.4926    0.0000 </r>
       <r>   29.9168    0.0000 </r>
       <r>   31.4291    0.0000 </r>
       <r>   36.4858    0.0000 </r>
       <r>   36.5125    0.0000 </r>
      </set>
      <set comment="kpoint 3">
       <r>    0.8784    1.0000 </r>
       <r>    4.5984    1.0000 </r>
       <r>    4.9202    1.0000 </r>
       <r>    7.2045   -0.0000 </r>
       <r>    7.5641   -0.0000 </r>
       <r>    7.6139   -0.0000 </r>
       <r>   20.0968    0.0000 </r>
       <r>   24.7848    0.0000 </r>
       <r>   27.4220    0.0000 </r>
       <r>   31.2693    0.0000 </r>
       <r>   35.5114    0.0000 </r>
       <r>   38.4171    0.0000 </r>
      </set>
      <set comment="kpoint 4">
       <r>    2.0823    1.0000 </r>
       <r>    4.3025    1.0000 </r>
       <r>    5.3359    1.0084 </r>
       <r>    7.3199   -0.0000 </r>
       <r>    7.6590   -0.0000 </r>
       <r>    8.5797   -0.0000 </r>
       <r>   16.3062    0.0000 </r>
       <r>   23.5667    0.0000 </r>
       <r>   25.7233    0.0000 </r>
       <r>   31.0510    0.0000 </r>
       <r>   35.1871    0.0000 </r>
       <r>   40.5620    0.0000 </r>
      </set>
      <set comment="kpoint 5">
       <r>    2.3643    1.0000 </r>
       <r>    4.1937    1.0000 </r>
       <r>    5.9684   -0.0351 </r>
       <r>    7.3654   -0.0000 </r>
       <r>    7.6985   -0.0000 </r>
       <r>    9.1120   -0.0000 </r>
       <r>   14.5037    0.0000 </r>
       <r>   23.1265    0.0000 </r>
       <r>   25.0889    0.0000 </r>
       <r>   30.9590    0.0000 </r>
       <r>   35.1715    0.0000 </r>
       <r>   40.3746    0.0000 </r>
      </set>
      <set comment="kpoint 6">
       <r>   -2.2550    1.0000 </r>
       <r>    5.5154    1.0319 </r>
       <r>    5.5156    1.0318 </r>
       <r>    5.5823    0.9766 </r>
       <r>    7.3199   -0.0000 </r>
       <r>    7.4836   -0.0000 </r>
       <r>   29.3524    0.0000 </r>
       <r>   30.3406    0.0000 </r>
       <r>   30.3406    0.0000 </r>
       <r>   34.4563    0.0000 </r>
       <r>   36.8966    0.0000 </r>
       <r>   36.8967    0.0000 </r>
      </set>
      <set comment="kpoint 7">
       <r>    0.6500    1.0000 </r>
       <r>    4.6894    1.0000 </r>
       <r>    4.7017    1.0000 </r>
       <r>    7.1961   -0.0000 </r>
       <r>    7.5387   -0.0000 </r>
       <r>    7.6491   -0.0000 </r>
       <r>   22.2153    0.0000 </r>
       <r>   23.0784    0.0000 </r>
       <r>   26.6085    0.0000 </r>
       <r>   32.7428    0.0000 </r>
       <r>   37.1353    0.0000 </r>
       <r>   38.7298    0.0000 </r>
      </set>
      <set comment="kpoint 8">
       <r>    2.1382    1.0000 </r>
       <r>    4.3281    1.0000 </r>
       <r>    4.5858    1.0000 </r>
       <r>    7.2783   -0.0000 </r>
       <r>    7.6656   -0.0000 </r>
       <r>    8.8544   -0.0000 </r>
       <r>   18.3988    0.0000 </r>
       <r>   21.2769    0.0000 </r>
       <r>   24.7446    0.0000 </r>
       <r>   33.1365    0.0000 </r>
       <r>   37.8706    0.0000 </r>
       <r>   39.3772    0.0000 </r>
      </set>
      <set comment="kpoint 9">
       <r>    2.7985    1.0000 </r>
       <r>    4.1613    1.0000 </r>
       <r>    5.0450    1.0000 </r>
       <r>    7.3971   -0.0000 </r>
       <r>    7.7266   -0.0000 </r>
       <r>   10.1657   -0.0000 </r>
       <r>   15.1383    0.0000 </r>
       <r>   20.4396    0.0000 </r>
       <r>   23.8028    0.0000 </r>
       <r>   33.1240    0.0000 </r>
       <r>   38.6517    0.0000 </r>
       <r>   39.3902    0.0000 </r>
      </set>
      <set comment="kpoint 10">
       <r>   -1.4562    1.0000 </r>
       <r>    5.2864    1.0035 </r>
       <r>    5.4385    1.0289 </r>
       <r>    6.0288   -0.0285 </r>
       <r>    7.0457   -0.0000 </r>
       <r>    7.5556   -0.0000 </r>
       <r>   26.4794    0.0000 </r>
       <r>   28.9390    0.0000 </r>
       <r>   29.8084    0.0000 </r>
       <r>   33.6675    0.0000 </r>
       <r>   34.2656    0.0000 </r>
       <r>   35.0981    0.0000 </r>
      </set>
      <set comment="kpoint 11">
       <r>    3.2077    1.0000 </r>
       <r>    4.1038    1.0000 </r>
       <r>    4.4735    1.0000 </r>
       <r>    7.3924   -0.0000 </r>
       <r>    7.7104   -0.0000 </r>
       <r>   10.6100   -0.0000 </r>
       <r>   16.8366    0.0000 </r>
       <r>   17.7315    0.0000 </r>
       <r>   23.6270    0.0000 </r>
       <r>   34.4861    0.0000 </r>
       <r>   37.4997    0.0000 </r>
       <r>   43.5290    0.0000 </r>
      </set>
      <set comment="kpoint 12">
       <r>    3.4753    1.0000 </r>
       <r>    4.1180    1.0000 </r>
       <r>    4.5206    1.0000 </r>
       <r>    7.4994   -0.0000 </r>
       <r>    7.6767   -0.0000 </r>
       <r>   12.3323    0.0000 </r>
       <r>   14.5386    0.0000 </r>
       <r>   17.0373    0.0000 </r>
       <r>   23.2884    0.0000 </r>
       <r>   35.0598    0.0000 </r>
       <r>   37.3403    0.0000 </r>
       <r>   43.4039    0.0000 </r>
      </set>
      <set comment="kpoint 13">
       <r>   -0.0262    1.0000 </r>
       <r>    4.9061    1.0000 </r>
       <r>    5.1871    1.0004 </r>
       <r>    6.8459   -0.0000 </r>
       <r>    6.9578   -0.0000 </r>
       <r>    7.6291   -0.0000 </r>
       <r>   22.2314    0.0000 </r>
       <r>   26.8343    0.0000 </r>
       <r>   28.7067    0.0000 </r>
       <r>   32.0028    0.0000 </r>
       <r>   33.7067    0.0000 </r>
       <r>   35.5435    0.0000 </r>
      </set>
      <set comment="kpoint 14">
       <r>   -0.3478    1.0000 </r>
       <r>    5.1589    1.0002 </r>
       <r>    5.1899    1.0004 </r>
       <r>    6.6220   -0.0000 </r>
       <r>    6.7534   -0.0000 </r>
       <r>    7.7015   -0.0000 </r>
       <r>   24.2552    0.0000 </r>
       <r>   25.5380    0.0000 </r>
       <r>   29.8981    0.0000 </r>
       <r>   31.1914    0.0000 </r>
       <r>   33.6640    0.0000 </r>
       <r>   36.9511    0.0000 </r>
      </set>
      <set comment="kpoint 15">
       <r>    1.5048    1.0000 </r>
       <r>    4.5454    1.0000 </r>
       <r>    5.1628    1.0002 </r>
       <r>    7.1291   -0.0000 </r>
       <r>    7.7435   -0.0000 </r>
       <r>    7.7727   -0.0000 </r>
       <r>   18.0488    0.0000 </r>
       <r>   25.1207    0.0000 </r>
       <r>   27.0705    0.0000 </r>
       <r>   30.9721    0.0000 </r>
       <r>   33.6490    0.0000 </r>
       <r>   37.3669    0.0000 </r>
      </set>
      <set comment="kpoint 16">
       <r>    1.1816    1.0000 </r>
       <r>    4.7507    1.0000 </r>
       <r>    4.9522    1.0000 </r>
       <r>    6.8036   -0.0000 </r>
       <r>    7.4976   -0.0000 </r>
       <r>    7.9235   -0.0000 </r>
       <r>   20.3566    0.0000 </r>
       <r>   23.2943    0.0000 </r>
       <r>   28.3185    0.0000 </r>
       <r>   30.7243    0.0000 </r>
       <r>   34.2022    0.0000 </r>
       <r>   37.5548    0.0000 </r>
      </set>
      <set comment="kpoint 17">
       <r>    2.2254    1.0000 </r>
       <r>    4.3299    1.0000 </r>
       <r>    5.8443    0.0993 </r>
       <r>    7.2523   -0.0000 </r>
       <r>    8.0214   -0.0000 </r>
       <r>    8.4153   -0.0000 </r>
       <r>   14.9947    0.0000 </r>
       <r>   24.1719    0.0000 </r>
       <r>   25.8765    0.0000 </r>
       <r>   30.6241    0.0000 </r>
       <r>   33.8194    0.0000 </r>
       <r>   38.4657    0.0000 </r>
      </set>
      <set comment="kpoint 18">
       <r>    2.3629    1.0000 </r>
       <r>    4.4985    1.0000 </r>
       <r>    5.0003    1.0000 </r>
       <r>    7.0500   -0.0000 </r>
       <r>    7.8652   -0.0000 </r>
       <r>    8.8756   -0.0000 </r>
       <r>   16.4812    0.0000 </r>
       <r>   22.0452    0.0000 </r>
       <r>   26.6675    0.0000 </r>
       <r>   30.9895    0.0000 </r>
       <r>   35.2141    0.0000 </r>
       <r>   37.3553    0.0000 </r>
      </set>
      <set comment="kpoint 19">
       <r>    2.5173    1.0000 </r>
       <r>    4.3173    1.0000 </r>
       <r>    4.8565    1.0000 </r>
       <r>    6.9130   -0.0000 </r>
       <r>    7.7300   -0.0000 </r>
       <r>    9.1428   -0.0000 </r>
       <r>   18.6066    0.0000 </r>
       <r>   19.2811    0.0000 </r>
       <r>   27.9693    0.0000 </r>
       <r>   30.3381    0.0000 </r>
       <r>   34.0969    0.0000 </r>
       <r>   41.7551    0.0000 </r>
      </set>
      <set comment="kpoint 20">
       <r>    2.6432    1.0000 </r>
       <r>    4.4277    1.0000 </r>
       <r>    5.2650    1.0023 </r>
       <r>    7.1217   -0.0000 </r>
       <r>    8.0695   -0.0000 </r>
       <r>    9.6882   -0.0000 </r>
       <r>   14.5137    0.0000 </r>
       <r>   21.5839    0.0000 </r>
       <r>   26.0714    0.0000 </r>
       <r>   31.0714    0.0000 </r>
       <r>   36.1647    0.0000 </r>
       <r>   36.8070    0.0000 </r>
      </set>
      <set comment="kpoint 21">
       <r>    3.2546    1.0000 </r>
       <r>    4.2728    1.0000 </r>
       <r>    4.6742    1.0000 </r>
       <r>    7.1568   -0.0000 </r>
       <r>    7.7854   -0.0000 </r>
       <r>   10.9886   -0.0000 </r>
       <r>   15.3338    0.0000 </r>
       <r>   18.1539    0.0000 </r>
       <r>   27.2634    0.0000 </r>
       <r>   31.0724    0.0000 </r>
       <r>   34.0676    0.0000 </r>
       <r>   41.1378    0.0000 </r>
      </set>
      <set comment="kpoint 22">
       <r>    3.9346    1.0000 </r>
       <r>    4.1706    1.0000 </r>
       <r>    4.1706    1.0000 </r>
       <r>    7.4970   -0.0000 </r>
       <r>    7.4971   -0.0000 </r>
       <r>   13.6659    0.0000 </r>
       <r>   13.6660    0.0000 </r>
       <r>   16.0957    0.0000 </r>
       <r>   27.4624    0.0000 </r>
       <r>   32.3569    0.0000 </r>
       <r>   32.3570    0.0000 </r>
       <r>   40.9181    0.0000 </r>
      </set>
      <set comment="kpoint 23">
       <r>    2.0733    1.0000 </r>
       <r>    4.3007    1.0000 </r>
       <r>    4.3007    1.0000 </r>
       <r>    7.5046   -0.0000 </r>
       <r>    7.5046   -0.0000 </r>
       <r>    8.8960   -0.0000 </r>
       <r>   20.6059    0.0000 </r>
       <r>   20.6059    0.0000 </r>
       <r>   22.3867    0.0000 </r>
       <r>   35.4555    0.0000 </r>
       <r>   39.9040    0.0000 </r>
       <r>   39.9041    0.0000 </r>
      </set>
      <set comment="kpoint 24">
       <r>    3.1945    1.0000 </r>
       <r>    4.0708    1.0000 </r>
       <r>    4.3057    1.0000 </r>
       <r>    7.5499   -0.0000 </r>
       <r>    7.6741   -0.0000 </r>
       <r>   10.4649   -0.0000 </r>
       <r>   16.9879    0.0000 </r>
       <r>   19.5742    0.0000 </r>
       <r>   20.6296    0.0000 </r>
       <r>   36.6712    0.0000 </r>
       <r>   40.8531    0.0000 </r>
       <r>   41.9565    0.0000 </r>
      </set>
      <set comment="kpoint 25">
       <r>    3.3386    1.0000 </r>
       <r>    3.9968    1.0000 </r>
       <r>    4.6931    1.0000 </r>
       <r>    7.5814   -0.0000 </r>
       <r>    7.7250   -0.0000 </r>
       <r>   11.8358    0.0000 </r>
       <r>   14.6721    0.0000 </r>
       <r>   19.2196    0.0000 </r>
       <r>   20.1380    0.0000 </r>
       <r>   36.7684    0.0000 </r>
       <r>   41.6285    0.0000 </r>
       <r>   42.0398    0.0000 </r>
      </set>
      <set comment="kpoint 26">
       <r>   -0.6984    1.0000 </r>
       <r>    5.5268    1.0279 </r>
       <r>    5.5270    1.0278 </r>
       <r>    6.0548   -0.0225 </r>
       <r>    6.4366   -0.0000 </r>
       <r>    7.7776   -0.0000 </r>
       <r>   25.9587    0.0000 </r>
       <r>   27.9233    0.0000 </r>
       <r>   27.9234    0.0000 </r>
       <r>   29.5351    0.0000 </r>
       <r>   36.2557    0.0000 </r>
       <r>   36.2557    0.0000 </r>
      </set>
      <set comment="kpoint 27">
       <r>    3.7393    1.0000 </r>
       <r>    4.0407    1.0000 </r>
       <r>    4.2318    1.0000 </r>
       <r>    7.6586   -0.0000 </r>
       <r>    7.7174   -0.0000 </r>
       <r>   12.6695    0.0000 </r>
       <r>   15.7023    0.0000 </r>
       <r>   16.7793    0.0000 </r>
       <r>   19.4825    0.0000 </r>
       <r>   39.2804    0.0000 </r>
       <r>   41.1662    0.0000 </r>
       <r>   44.7213    0.0000 </r>
      </set>
      <set comment="kpoint 28">
       <r>    0.6400    1.0000 </r>
       <r>    5.2679    1.0025 </r>
       <r>    5.3409    1.0091 </r>
       <r>    6.2322   -0.0012 </r>
       <r>    6.7480   -0.0000 </r>
       <r>    7.9627   -0.0000 </r>
       <r>   22.7799    0.0000 </r>
       <r>   25.8106    0.0000 </r>
       <r>   25.8967    0.0000 </r>
       <r>   29.5236    0.0000 </r>
       <r>   35.7360    0.0000 </r>
       <r>   36.9690    0.0000 </r>
      </set>
      <set comment="kpoint 29">
       <r>    2.0610    1.0000 </r>
       <r>    4.7702    1.0000 </r>
       <r>    5.0483    1.0000 </r>
       <r>    6.6222   -0.0000 </r>
       <r>    7.6858   -0.0000 </r>
       <r>    8.3774   -0.0000 </r>
       <r>   18.5169    0.0000 </r>
       <r>   24.1241    0.0000 </r>
       <r>   24.5746    0.0000 </r>
       <r>   31.0327    0.0000 </r>
       <r>   34.7115    0.0000 </r>
       <r>   36.9136    0.0000 </r>
      </set>
      <set comment="kpoint 30">
       <r>    1.9469    1.0000 </r>
       <r>    4.7102    1.0000 </r>
       <r>    5.4185    1.0244 </r>
       <r>    6.3005   -0.0002 </r>
       <r>    7.3792   -0.0000 </r>
       <r>    8.4158   -0.0000 </r>
       <r>   20.9036    0.0000 </r>
       <r>   21.4845    0.0000 </r>
       <r>   26.7535    0.0000 </r>
       <r>   28.2485    0.0000 </r>
       <r>   35.2860    0.0000 </r>
       <r>   40.3891    0.0000 </r>
      </set>
      <set comment="kpoint 31">
       <r>    2.7504    1.0000 </r>
       <r>    4.7745    1.0000 </r>
       <r>    4.8664    1.0000 </r>
       <r>    6.7809   -0.0000 </r>
       <r>    8.3566   -0.0000 </r>
       <r>    9.5194   -0.0000 </r>
       <r>   15.1626    0.0000 </r>
       <r>   23.0230    0.0000 </r>
       <r>   23.9033    0.0000 </r>
       <r>   32.9540    0.0000 </r>
       <r>   34.1842    0.0000 </r>
       <r>   35.9466    0.0000 </r>
      </set>
      <set comment="kpoint 32">
       <r>    2.9870    1.0000 </r>
       <r>    4.2521    1.0000 </r>
       <r>    5.2056    1.0006 </r>
       <r>    6.6946   -0.0000 </r>
       <r>    7.9014   -0.0000 </r>
       <r>    9.8024   -0.0000 </r>
       <r>   17.0452    0.0000 </r>
       <r>   19.9577    0.0000 </r>
       <r>   26.1884    0.0000 </r>
       <r>   29.6305    0.0000 </r>
       <r>   34.2720    0.0000 </r>
       <r>   39.1610    0.0000 </r>
      </set>
      <set comment="kpoint 33">
       <r>    3.2598    1.0000 </r>
       <r>    4.2772    1.0000 </r>
       <r>    5.0105    1.0000 </r>
       <r>    6.8125   -0.0000 </r>
       <r>    8.1716   -0.0000 </r>
       <r>   11.3131    0.0000 </r>
       <r>   14.6181    0.0000 </r>
       <r>   19.4592    0.0000 </r>
       <r>   25.8200    0.0000 </r>
       <r>   31.2435    0.0000 </r>
       <r>   33.1022    0.0000 </r>
       <r>   37.9316    0.0000 </r>
      </set>
      <set comment="kpoint 34">
       <r>    3.7251    1.0000 </r>
       <r>    3.8825    1.0000 </r>
       <r>    4.8670    1.0000 </r>
       <r>    7.2146   -0.0000 </r>
       <r>    7.7914   -0.0000 </r>
       <r>   12.2522    0.0000 </r>
       <r>   15.5698    0.0000 </r>
       <r>   16.6994    0.0000 </r>
       <r>   28.1386    0.0000 </r>
       <r>   29.1111    0.0000 </r>
       <r>   32.2602    0.0000 </r>
       <r>   37.9448    0.0000 </r>
      </set>
      <set comment="kpoint 35">
       <r>    4.0380    1.0000 </r>
       <r>    4.0380    1.0000 </r>
       <r>    4.0381    1.0000 </r>
       <r>    7.7481   -0.0000 </r>
       <r>    7.7481   -0.0000 </r>
       <r>   15.3180    0.0000 </r>
       <r>   15.3180    0.0000 </r>
       <r>   15.3182    0.0000 </r>
       <r>   17.2731    0.0000 </r>
       <r>   44.3704    0.0000 </r>
       <r>   44.3705    0.0000 </r>
       <r>   44.3720    0.0000 </r>
      </set>
      <set comment="kpoint 36">
       <r>    1.7306    1.0000 </r>
       <r>    5.0352    1.0000 </r>
       <r>    5.8903    0.0129 </r>
       <r>    5.8905    0.0127 </r>
       <r>    6.8310   -0.0000 </r>
       <r>    8.3369   -0.0000 </r>
       <r>   23.4374    0.0000 </r>
       <r>   23.4374    0.0000 </r>
       <r>   23.8191    0.0000 </r>
       <r>   26.0421    0.0000 </r>
       <r>   39.8891    0.0000 </r>
       <r>   39.8905    0.0000 </r>
      </set>
      <set comment="kpoint 37">
       <r>    2.7511    1.0000 </r>
       <r>    4.2824    1.0000 </r>
       <r>    5.9367   -0.0271 </r>
       <r>    6.3561   -0.0000 </r>
       <r>    7.5692   -0.0000 </r>
       <r>    9.2308   -0.0000 </r>
       <r>   19.3577    0.0000 </r>
       <r>   21.4468    0.0000 </r>
       <r>   23.8314    0.0000 </r>
       <r>   26.6077    0.0000 </r>
       <r>   37.9301    0.0000 </r>
       <r>   38.9207    0.0000 </r>
      </set>
      <set comment="kpoint 38">
       <r>    3.2662    1.0000 </r>
       <r>    3.8718    1.0000 </r>
       <r>    5.8458    0.0958 </r>
       <r>    6.5617   -0.0000 </r>
       <r>    8.2578   -0.0000 </r>
       <r>   11.2001    0.0000 </r>
       <r>   15.6051    0.0000 </r>
       <r>   20.2435    0.0000 </r>
       <r>   23.5433    0.0000 </r>
       <r>   28.4759    0.0000 </r>
       <r>   34.6373    0.0000 </r>
       <r>   38.2762    0.0000 </r>
      </set>
      <set comment="kpoint 39">
       <r>    3.2518    1.0000 </r>
       <r>    3.7348    1.0000 </r>
       <r>    5.9997   -0.0338 </r>
       <r>    6.9455   -0.0000 </r>
       <r>    7.9266   -0.0000 </r>
       <r>   11.0662   -0.0000 </r>
       <r>   17.7532    0.0000 </r>
       <r>   18.1417    0.0000 </r>
       <r>   24.6811    0.0000 </r>
       <r>   26.2532    0.0000 </r>
       <r>   34.1220    0.0000 </r>
       <r>   39.1537    0.0000 </r>
      </set>
      <set comment="kpoint 40">
       <r>    3.4172    1.0000 </r>
       <r>    3.5181    1.0000 </r>
       <r>    5.9063   -0.0056 </r>
       <r>    7.2690   -0.0000 </r>
       <r>    8.1017   -0.0000 </r>
       <r>   13.3165    0.0000 </r>
       <r>   14.9504    0.0000 </r>
       <r>   17.4152    0.0000 </r>
       <r>   24.9143    0.0000 </r>
       <r>   27.0744    0.0000 </r>
       <r>   32.0839    0.0000 </r>
       <r>   38.9699    0.0000 </r>
      </set>
      <set comment="kpoint 41">
       <r>    3.0540    1.0000 </r>
       <r>    3.6963    1.0000 </r>
       <r>    6.8310   -0.0000 </r>
       <r>    6.8313   -0.0000 </r>
       <r>    7.6341   -0.0000 </r>
       <r>   10.5826   -0.0000 </r>
       <r>   19.2471    0.0000 </r>
       <r>   19.2472    0.0000 </r>
       <r>   22.7792    0.0000 </r>
       <r>   24.5768    0.0000 </r>
       <r>   33.9038    0.0000 </r>
       <r>   42.3407    0.0000 </r>
      </set>
      <set comment="kpoint 42">
       <r>    3.1220    1.0000 </r>
       <r>    3.2660    1.0000 </r>
       <r>    7.0528   -0.0000 </r>
       <r>    7.2497   -0.0000 </r>
       <r>    8.1628   -0.0000 </r>
       <r>   12.9023    0.0000 </r>
       <r>   16.3240    0.0000 </r>
       <r>   17.8834    0.0000 </r>
       <r>   23.0291    0.0000 </r>
       <r>   24.9538    0.0000 </r>
       <r>   30.7190    0.0000 </r>
       <r>   42.3581    0.0000 </r>
      </set>
      <set comment="kpoint 43">
       <r>    3.0589    1.0000 </r>
       <r>    3.0589    1.0000 </r>
       <r>    7.1523   -0.0000 </r>
       <r>    8.0170   -0.0000 </r>
       <r>    8.0174   -0.0000 </r>
       <r>   15.3003    0.0000 </r>
       <r>   15.3005    0.0000 </r>
       <r>   16.0565    0.0000 </r>
       <r>   23.8491    0.0000 </r>
       <r>   23.8491    0.0000 </r>
       <r>   29.1759    0.0000 </r>
       <r>   42.9083    0.0000 </r>
      </set>
      <set comment="kpoint 44">
       <r>    2.8725    1.0000 </r>
       <r>    2.9068    1.0000 </r>
       <r>    7.9836   -0.0000 </r>
       <r>    7.9839   -0.0000 </r>
       <r>    8.1419   -0.0000 </r>
       <r>   14.7803    0.0000 </r>
       <r>   16.3652    0.0000 </r>
       <r>   16.3653    0.0000 </r>
       <r>   22.3873    0.0000 </r>
       <r>   23.1355    0.0000 </r>
       <r>   28.1280    0.0000 </r>
       <r>   44.7821    0.0000 </r>
      </set>
     </set>
    </set>
   </array>
  </eigenvalues>
  <separator name="orbital magnetization" >
   <v name="MAGDIPOLOUT">      0.00000000      0.00000000      0.00000000</v>
  </separator>
  <dos>
   <i name="efermi">      5.73255554 </i>
   <total>
    <array>
     <dimension dim="1">gridpoints</dimension>
     <dimension dim="2">spin</dimension>
     <field>energy</field>
     <field>total</field>
     <field>integrated</field>
     <set>
      <set comment="spin 1">
       <r>    -4.8129     0.0000     0.0000 </r>
       <r>    -4.7956     0.0000     0.0000 </r>
       <r>    -4.7783     0.0000     0.0000 </r>
       <r>    -4.7609     0.0000     0.0000 </r>
       <r>    -4.7436     0.0000     0.0000 </r>
       <r>    -4.7263     0.0000     0.0000 </r>
       <r>    -4.7090     0.0000     0.0000 </r>
       <r>    -4.6917     0.0000     0.0000 </r>
       <r>    -4.6743     0.0000     0.0000 </r>
       <r>    -4.6570     0.0000     0.0000 </r>
       <r>    -4.6397     0.0000     0.0000 </r>
       <r>    -4.6224     0.0000     0.0000 </r>
       <r>    -4.6051     0.0000     0.0000 </r>
       <r>    -4.5878     0.0000     0.0000 </r>
       <r>    -4.5704     0.0000     0.0000 </r>
       <r>    -4.5531     0.0000     0.0000 </r>
       <r>    -4.5358     0.0000     0.0000 </r>
       <r>    -4.5185     0.0000     0.0000 </r>
       <r>    -4.5012     0.0000     0.0000 </r>
       <r>    -4.4838     0.0000     0.0000 </r>
       <r>    -4.4665     0.0000     0.0000 </r>
       <r>    -4.4492     0.0000     0.0000 </r>
       <r>    -4.4319     0.0000     0.0000 </r>
       <r>    -4.4146     0.0000     0.0000 </r>
       <r>    -4.3972     0.0000     0.0000 </r>
       <r>    -4.3799     0.0000     0.0000 </r>
       <r>    -4.3626     0.0000     0.0000 </r>
       <r>    -4.3453     0.0000     0.0000 </r>
       <r>    -4.3280     0.0000     0.0000 </r>
       <r>    -4.3107     0.0000     0.0000 </r>
       <r>    -4.2933     0.0000     0.0000 </r>
       <r>    -4.2760     0.0000     0.0000 </r>
       <r>    -4.2587     0.0000     0.0000 </r>
       <r>    -4.2414     0.0000     0.0000 </r>
       <r>    -4.2241     0.0000     0.0000 </r>
       <r>    -4.2067     0.0000     0.0000 </r>
       <r>    -4.1894     0.0000     0.0000 </r>
       <r>    -4.1721     0.0000     0.0000 </r>
       <r>    -4.1548     0.0000     0.0000 </r>
       <r>    -4.1375     0.0000     0.0000 </r>
       <r>    -4.1201     0.0000     0.0000 </r>
       <r>    -4.1028     0.0000     0.0000 </r>
       <r>    -4.0855     0.0000     0.0000 </r>
       <r>    -4.0682    -0.0000    -0.0000 </r>
       <r>    -4.0509    -0.0000    -0.0000 </r>
       <r>    -4.0335    -0.0000    -0.0000 </r>
       <r>    -4.0162    -0.0000    -0.0000 </r>
       <r>    -3.9989    -0.0000    -0.0000 </r>
       <r>    -3.9816    -0.0000    -0.0000 </r>
       <r>    -3.9643    -0.0000    -0.0000 </r>
       <r>    -3.9470    -0.0000    -0.0000 </r>
       <r>    -3.9296    -0.0000    -0.0000 </r>
       <r>    -3.9123    -0.0000    -0.0000 </r>
       <r>    -3.8950    -0.0000    -0.0000 </r>
       <r>    -3.8777    -0.0000    -0.0000 </r>
       <r>    -3.8604    -0.0000    -0.0000 </r>
       <r>    -3.8430    -0.0000    -0.0000 </r>
       <r>    -3.8257    -0.0000    -0.0000 </r>
       <r>    -3.8084    -0.0000    -0.0000 </r>
       <r>    -3.7911    -0.0000    -0.0000 </r>
       <r>    -3.7738    -0.0000    -0.0000 </r>
       <r>    -3.7564    -0.0000    -0.0000 </r>
       <r>    -3.7391    -0.0000    -0.0000 </r>
       <r>    -3.7218    -0.0000    -0.0000 </r>
       <r>    -3.7045    -0.0000    -0.0000 </r>
       <r>    -3.6872    -0.0000    -0.0000 </r>
       <r>    -3.6699    -0.0000    -0.0000 </r>
       <r>    -3.6525    -0.0000    -0.0000 </r>
       <r>    -3.6352    -0.0000    -0.0000 </r>
       <r>    -3.6179    -0.0000    -0.0000 </r>
       <r>    -3.6006    -0.0000    -0.0000 </r>
       <r>    -3.5833    -0.0000    -0.0000 </r>
       <r>    -3.5659    -0.0000    -0.0000 </r>
       <r>    -3.5486    -0.0000    -0.0000 </r>
       <r>    -3.5313    -0.0000    -0.0000 </r>
       <r>    -3.5140    -0.0000    -0.0000 </r>
       <r>    -3.4967    -0.0000    -0.0000 </r>
       <r>    -3.4793    -0.0000    -0.0000 </r>
       <r>    -3.4620    -0.0000    -0.0000 </r>
       <r>    -3.4447    -0.0000    -0.0000 </r>
       <r>    -3.4274    -0.0000    -0.0000 </r>
       <r>    -3.4101    -0.0000    -0.0000 </r>
       <r>    -3.3928    -0.0000    -0.0000 </r>
       <r>    -3.3754    -0.0000    -0.0000 </r>
       <r>    -3.3581    -0.0000    -0.0000 </r>
       <r>    -3.3408    -0.0000    -0.0000 </r>
       <r>    -3.3235    -0.0000    -0.0000 </r>
       <r>    -3.3062    -0.0000    -0.0000 </r>
       <r>    -3.2888    -0.0000    -0.0000 </r>
       <r>    -3.2715    -0.0000    -0.0000 </r>
       <r>    -3.2542    -0.0000    -0.0000 </r>
       <r>    -3.2369    -0.0000    -0.0000 </r>
       <r>    -3.2196    -0.0000    -0.0000 </r>
       <r>    -3.2022    -0.0000    -0.0000 </r>
       <r>    -3.1849    -0.0000    -0.0000 </r>
       <r>    -3.1676    -0.0000    -0.0000 </r>
       <r>    -3.1503    -0.0000    -0.0000 </r>
       <r>    -3.1330    -0.0000    -0.0000 </r>
       <r>    -3.1156    -0.0000    -0.0000 </r>
       <r>    -3.0983    -0.0000    -0.0000 </r>
       <r>    -3.0810    -0.0000    -0.0000 </r>
       <r>    -3.0637    -0.0000    -0.0000 </r>
       <r>    -3.0464    -0.0000    -0.0000 </r>
       <r>    -3.0291    -0.0000    -0.0000 </r>
       <r>    -3.0117    -0.0000    -0.0000 </r>
       <r>    -2.9944    -0.0001    -0.0000 </r>
       <r>    -2.9771    -0.0001    -0.0000 </r>
       <r>    -2.9598    -0.0001    -0.0000 </r>
       <r>    -2.9425    -0.0002    -0.0000 </r>
       <r>    -2.9251    -0.0002    -0.0000 </r>
       <r>    -2.9078    -0.0003    -0.0000 </r>
       <r>    -2.8905    -0.0004    -0.0000 </r>
       <r>    -2.8732    -0.0005    -0.0000 </r>
       <r>    -2.8559    -0.0007    -0.0000 </r>
       <r>    -2.8385    -0.0008    -0.0001 </r>
       <r>    -2.8212    -0.0010    -0.0001 </r>
       <r>    -2.8039    -0.0011    -0.0001 </r>
       <r>    -2.7866    -0.0013    -0.0001 </r>
       <r>    -2.7693    -0.0014    -0.0001 </r>
       <r>    -2.7520    -0.0014    -0.0002 </r>
       <r>    -2.7346    -0.0013    -0.0002 </r>
       <r>    -2.7173    -0.0010    -0.0002 </r>
       <r>    -2.7000    -0.0005    -0.0002 </r>
       <r>    -2.6827     0.0002    -0.0002 </r>
       <r>    -2.6654     0.0013    -0.0002 </r>
       <r>    -2.6480     0.0026    -0.0001 </r>
       <r>    -2.6307     0.0043    -0.0001 </r>
       <r>    -2.6134     0.0063     0.0000 </r>
       <r>    -2.5961     0.0085     0.0002 </r>
       <r>    -2.5788     0.0109     0.0004 </r>
       <r>    -2.5614     0.0135     0.0006 </r>
       <r>    -2.5441     0.0160     0.0009 </r>
       <r>    -2.5268     0.0185     0.0012 </r>
       <r>    -2.5095     0.0206     0.0016 </r>
       <r>    -2.4922     0.0224     0.0020 </r>
       <r>    -2.4748     0.0236     0.0024 </r>
       <r>    -2.4575     0.0243     0.0028 </r>
       <r>    -2.4402     0.0243     0.0032 </r>
       <r>    -2.4229     0.0237     0.0036 </r>
       <r>    -2.4056     0.0225     0.0040 </r>
       <r>    -2.3883     0.0207     0.0044 </r>
       <r>    -2.3709     0.0186     0.0047 </r>
       <r>    -2.3536     0.0162     0.0050 </r>
       <r>    -2.3363     0.0138     0.0052 </r>
       <r>    -2.3190     0.0115     0.0054 </r>
       <r>    -2.3017     0.0095     0.0056 </r>
       <r>    -2.2843     0.0080     0.0057 </r>
       <r>    -2.2670     0.0071     0.0058 </r>
       <r>    -2.2497     0.0069     0.0060 </r>
       <r>    -2.2324     0.0075     0.0061 </r>
       <r>    -2.2151     0.0088     0.0062 </r>
       <r>    -2.1977     0.0107     0.0064 </r>
       <r>    -2.1804     0.0132     0.0066 </r>
       <r>    -2.1631     0.0160     0.0069 </r>
       <r>    -2.1458     0.0191     0.0073 </r>
       <r>    -2.1285     0.0221     0.0076 </r>
       <r>    -2.1112     0.0248     0.0081 </r>
       <r>    -2.0938     0.0271     0.0085 </r>
       <r>    -2.0765     0.0287     0.0090 </r>
       <r>    -2.0592     0.0295     0.0095 </r>
       <r>    -2.0419     0.0295     0.0101 </r>
       <r>    -2.0246     0.0286     0.0105 </r>
       <r>    -2.0072     0.0269     0.0110 </r>
       <r>    -1.9899     0.0245     0.0114 </r>
       <r>    -1.9726     0.0219     0.0118 </r>
       <r>    -1.9553     0.0191     0.0121 </r>
       <r>    -1.9380     0.0165     0.0124 </r>
       <r>    -1.9206     0.0146     0.0127 </r>
       <r>    -1.9033     0.0136     0.0129 </r>
       <r>    -1.8860     0.0139     0.0132 </r>
       <r>    -1.8687     0.0157     0.0134 </r>
       <r>    -1.8514     0.0192     0.0138 </r>
       <r>    -1.8341     0.0244     0.0142 </r>
       <r>    -1.8167     0.0311     0.0147 </r>
       <r>    -1.7994     0.0393     0.0154 </r>
       <r>    -1.7821     0.0486     0.0163 </r>
       <r>    -1.7648     0.0584     0.0173 </r>
       <r>    -1.7475     0.0684     0.0184 </r>
       <r>    -1.7301     0.0778     0.0198 </r>
       <r>    -1.7128     0.0862     0.0213 </r>
       <r>    -1.6955     0.0929     0.0229 </r>
       <r>    -1.6782     0.0976     0.0246 </r>
       <r>    -1.6609     0.1000     0.0263 </r>
       <r>    -1.6435     0.0999     0.0280 </r>
       <r>    -1.6262     0.0972     0.0297 </r>
       <r>    -1.6089     0.0923     0.0313 </r>
       <r>    -1.5916     0.0853     0.0328 </r>
       <r>    -1.5743     0.0767     0.0341 </r>
       <r>    -1.5569     0.0670     0.0353 </r>
       <r>    -1.5396     0.0566     0.0363 </r>
       <r>    -1.5223     0.0462     0.0371 </r>
       <r>    -1.5050     0.0362     0.0377 </r>
       <r>    -1.4877     0.0269     0.0382 </r>
       <r>    -1.4704     0.0186     0.0385 </r>
       <r>    -1.4530     0.0114     0.0387 </r>
       <r>    -1.4357     0.0055     0.0388 </r>
       <r>    -1.4184     0.0009     0.0388 </r>
       <r>    -1.4011    -0.0027     0.0388 </r>
       <r>    -1.3838    -0.0053     0.0387 </r>
       <r>    -1.3664    -0.0072     0.0385 </r>
       <r>    -1.3491    -0.0084     0.0384 </r>
       <r>    -1.3318    -0.0092     0.0382 </r>
       <r>    -1.3145    -0.0097     0.0381 </r>
       <r>    -1.2972    -0.0100     0.0379 </r>
       <r>    -1.2798    -0.0102     0.0377 </r>
       <r>    -1.2625    -0.0101     0.0375 </r>
       <r>    -1.2452    -0.0097     0.0374 </r>
       <r>    -1.2279    -0.0088     0.0372 </r>
       <r>    -1.2106    -0.0074     0.0371 </r>
       <r>    -1.1933    -0.0050     0.0370 </r>
       <r>    -1.1759    -0.0016     0.0370 </r>
       <r>    -1.1586     0.0031     0.0370 </r>
       <r>    -1.1413     0.0093     0.0372 </r>
       <r>    -1.1240     0.0169     0.0375 </r>
       <r>    -1.1067     0.0261     0.0379 </r>
       <r>    -1.0893     0.0367     0.0386 </r>
       <r>    -1.0720     0.0485     0.0394 </r>
       <r>    -1.0547     0.0609     0.0405 </r>
       <r>    -1.0374     0.0736     0.0417 </r>
       <r>    -1.0201     0.0859     0.0432 </r>
       <r>    -1.0027     0.0972     0.0449 </r>
       <r>    -0.9854     0.1069     0.0468 </r>
       <r>    -0.9681     0.1144     0.0487 </r>
       <r>    -0.9508     0.1193     0.0508 </r>
       <r>    -0.9335     0.1213     0.0529 </r>
       <r>    -0.9161     0.1204     0.0550 </r>
       <r>    -0.8988     0.1167     0.0570 </r>
       <r>    -0.8815     0.1107     0.0589 </r>
       <r>    -0.8642     0.1028     0.0607 </r>
       <r>    -0.8469     0.0938     0.0623 </r>
       <r>    -0.8296     0.0845     0.0638 </r>
       <r>    -0.8122     0.0756     0.0651 </r>
       <r>    -0.7949     0.0679     0.0663 </r>
       <r>    -0.7776     0.0619     0.0674 </r>
       <r>    -0.7603     0.0580     0.0684 </r>
       <r>    -0.7430     0.0565     0.0693 </r>
       <r>    -0.7256     0.0572     0.0703 </r>
       <r>    -0.7083     0.0599     0.0714 </r>
       <r>    -0.6910     0.0642     0.0725 </r>
       <r>    -0.6737     0.0695     0.0737 </r>
       <r>    -0.6564     0.0752     0.0750 </r>
       <r>    -0.6390     0.0807     0.0764 </r>
       <r>    -0.6217     0.0854     0.0779 </r>
       <r>    -0.6044     0.0891     0.0794 </r>
       <r>    -0.5871     0.0914     0.0810 </r>
       <r>    -0.5698     0.0924     0.0826 </r>
       <r>    -0.5525     0.0922     0.0842 </r>
       <r>    -0.5351     0.0911     0.0858 </r>
       <r>    -0.5178     0.0895     0.0873 </r>
       <r>    -0.5005     0.0879     0.0888 </r>
       <r>    -0.4832     0.0866     0.0903 </r>
       <r>    -0.4659     0.0860     0.0918 </r>
       <r>    -0.4485     0.0862     0.0933 </r>
       <r>    -0.4312     0.0874     0.0948 </r>
       <r>    -0.4139     0.0893     0.0964 </r>
       <r>    -0.3966     0.0918     0.0980 </r>
       <r>    -0.3793     0.0943     0.0996 </r>
       <r>    -0.3619     0.0965     0.1013 </r>
       <r>    -0.3446     0.0979     0.1030 </r>
       <r>    -0.3273     0.0981     0.1047 </r>
       <r>    -0.3100     0.0966     0.1063 </r>
       <r>    -0.2927     0.0934     0.1080 </r>
       <r>    -0.2754     0.0884     0.1095 </r>
       <r>    -0.2580     0.0817     0.1109 </r>
       <r>    -0.2407     0.0736     0.1122 </r>
       <r>    -0.2234     0.0643     0.1133 </r>
       <r>    -0.2061     0.0544     0.1142 </r>
       <r>    -0.1888     0.0442     0.1150 </r>
       <r>    -0.1714     0.0341     0.1156 </r>
       <r>    -0.1541     0.0245     0.1160 </r>
       <r>    -0.1368     0.0156     0.1163 </r>
       <r>    -0.1195     0.0076     0.1164 </r>
[...]
      </set>
      <set comment="kpoint 27">
       <set comment="band 1">
        <r>  0.0300  0.0801  0.7403 </r>
       </set>
       <set comment="band 2">
        <r>  0.0000  0.1154  0.7286 </r>
       </set>
       <set comment="band 3">
        <r>  0.0084  0.1712  0.6329 </r>
       </set>
       <set comment="band 4">
        <r>  0.0000  0.0003  0.9806 </r>
       </set>
       <set comment="band 5">
        <r>  0.0002  0.0002  0.9823 </r>
       </set>
       <set comment="band 6">
        <r>  0.0491  0.2317  0.4993 </r>
       </set>
       <set comment="band 7">
        <r>  0.0000  0.2978  0.4028 </r>
       </set>
       <set comment="band 8">
        <r>  0.3590  0.1182  0.2288 </r>
       </set>
       <set comment="band 9">
        <r>  0.2736  0.2490  0.1424 </r>
       </set>
       <set comment="band 10">
        <r>  0.0000  0.0166  0.0881 </r>
       </set>
       <set comment="band 11">
        <r>  0.0013  0.0249  0.1231 </r>
       </set>
       <set comment="band 12">
        <r>  0.0000  0.0550  0.1022 </r>
       </set>
      </set>
      <set comment="kpoint 28">
       <set comment="band 1">
        <r>  0.3912  0.1570  0.0700 </r>
       </set>
       <set comment="band 2">
        <r>  0.0013  0.0278  0.8681 </r>
       </set>
       <set comment="band 3">
        <r>  0.0000  0.0135  0.9272 </r>
       </set>
       <set comment="band 4">
        <r>  0.0002  0.0078  0.9195 </r>
       </set>
       <set comment="band 5">
        <r>  0.0000  0.0068  0.9590 </r>
       </set>
       <set comment="band 6">
        <r>  0.0285  0.0094  0.9317 </r>
       </set>
       <set comment="band 7">
        <r>  0.0432  0.1992  0.3420 </r>
       </set>
       <set comment="band 8">
        <r>  0.0734  0.1077  0.2178 </r>
       </set>
       <set comment="band 9">
        <r>  0.0000  0.3448  0.3181 </r>
       </set>
       <set comment="band 10">
        <r>  0.0516  0.2786  0.1369 </r>
       </set>
       <set comment="band 11">
        <r>  0.0000  0.2306  0.2470 </r>
       </set>
       <set comment="band 12">
        <r>  0.0672  0.2245  0.0765 </r>
       </set>
      </set>
      <set comment="kpoint 29">
       <set comment="band 1">
        <r>  0.2424  0.1551  0.2828 </r>
       </set>
       <set comment="band 2">
        <r>  0.0069  0.0918  0.7274 </r>
       </set>
       <set comment="band 3">
        <r>  0.0000  0.0134  0.9203 </r>
       </set>
       <set comment="band 4">
        <r>  0.0005  0.0219  0.9162 </r>
       </set>
       <set comment="band 5">
        <r>  0.0000  0.0075  0.9679 </r>
       </set>
       <set comment="band 6">
        <r>  0.0617  0.0648  0.8026 </r>
       </set>
       <set comment="band 7">
        <r>  0.1441  0.2182  0.3428 </r>
       </set>
       <set comment="band 8">
        <r>  0.0000  0.4410  0.2490 </r>
       </set>
       <set comment="band 9">
        <r>  0.0829  0.0947  0.2021 </r>
       </set>
       <set comment="band 10">
        <r>  0.0138  0.2406  0.1783 </r>
       </set>
       <set comment="band 11">
        <r>  0.0000  0.1725  0.3647 </r>
       </set>
       <set comment="band 12">
        <r>  0.1264  0.1035  0.2152 </r>
       </set>
      </set>
      <set comment="kpoint 30">
       <set comment="band 1">
        <r>  0.2635  0.1880  0.2022 </r>
       </set>
       <set comment="band 2">
        <r>  0.0000  0.0253  0.8401 </r>
       </set>
       <set comment="band 3">
        <r>  0.0004  0.0352  0.8878 </r>
       </set>
       <set comment="band 4">
        <r>  0.0000  0.0148  0.9232 </r>
       </set>
       <set comment="band 5">
        <r>  0.0013  0.0073  0.9615 </r>
       </set>
       <set comment="band 6">
        <r>  0.0713  0.0525  0.8100 </r>
       </set>
       <set comment="band 7">
        <r>  0.0000  0.2660  0.3826 </r>
       </set>
       <set comment="band 8">
        <r>  0.1618  0.2773  0.2105 </r>
       </set>
       <set comment="band 9">
        <r>  0.0000  0.1352  0.3431 </r>
       </set>
       <set comment="band 10">
        <r>  0.0701  0.3267  0.0700 </r>
       </set>
       <set comment="band 11">
        <r>  0.0546  0.1247  0.3191 </r>
       </set>
       <set comment="band 12">
        <r>  0.0000  0.2700  0.0791 </r>
       </set>
      </set>
      <set comment="kpoint 31">
       <set comment="band 1">
        <r>  0.1164  0.0476  0.6227 </r>
       </set>
       <set comment="band 2">
        <r>  0.0044  0.2126  0.5373 </r>
       </set>
       <set comment="band 3">
        <r>  0.0000  0.0135  0.9163 </r>
       </set>
       <set comment="band 4">
        <r>  0.0149  0.0056  0.9227 </r>
       </set>
       <set comment="band 5">
        <r>  0.0000  0.0014  0.9864 </r>
       </set>
       <set comment="band 6">
        <r>  0.0314  0.2532  0.5447 </r>
       </set>
       <set comment="band 7">
        <r>  0.2808  0.0983  0.4153 </r>
       </set>
       <set comment="band 8">
        <r>  0.0000  0.4993  0.1843 </r>
       </set>
       <set comment="band 9">
        <r>  0.0822  0.1036  0.1914 </r>
       </set>
       <set comment="band 10">
        <r>  0.0003  0.1401  0.2078 </r>
       </set>
       <set comment="band 11">
        <r>  0.0000  0.1490  0.4131 </r>
       </set>
       <set comment="band 12">
        <r>  0.0689  0.1996  0.2540 </r>
       </set>
      </set>
      <set comment="kpoint 32">
       <set comment="band 1">
        <r>  0.1229  0.1324  0.4844 </r>
       </set>
       <set comment="band 2">
        <r>  0.0027  0.0795  0.7377 </r>
       </set>
       <set comment="band 3">
        <r>  0.0016  0.0383  0.8722 </r>
       </set>
       <set comment="band 4">
        <r>  0.0048  0.0166  0.9221 </r>
       </set>
       <set comment="band 5">
        <r>  0.0094  0.0082  0.9563 </r>
       </set>
       <set comment="band 6">
        <r>  0.0830  0.1774  0.5980 </r>
       </set>
       <set comment="band 7">
        <r>  0.1552  0.2357  0.3401 </r>
       </set>
       <set comment="band 8">
        <r>  0.1081  0.3132  0.2416 </r>
       </set>
       <set comment="band 9">
        <r>  0.0266  0.1872  0.2479 </r>
       </set>
       <set comment="band 10">
        <r>  0.0189  0.2301  0.1800 </r>
       </set>
       <set comment="band 11">
        <r>  0.0344  0.1450  0.3347 </r>
       </set>
       <set comment="band 12">
        <r>  0.0492  0.2761  0.2793 </r>
       </set>
      </set>
      <set comment="kpoint 33">
       <set comment="band 1">
        <r>  0.0603  0.0476  0.7002 </r>
       </set>
       <set comment="band 2">
        <r>  0.0000  0.1702  0.6003 </r>
       </set>
       <set comment="band 3">
        <r>  0.0107  0.0199  0.8852 </r>
       </set>
       <set comment="band 4">
        <r>  0.0165  0.0091  0.9182 </r>
       </set>
       <set comment="band 5">
        <r>  0.0000  0.0154  0.9629 </r>
       </set>
       <set comment="band 6">
        <r>  0.0000  0.3509  0.4316 </r>
       </set>
       <set comment="band 7">
        <r>  0.2898  0.1010  0.4057 </r>
       </set>
       <set comment="band 8">
        <r>  0.1052  0.3369  0.2210 </r>
       </set>
       <set comment="band 9">
        <r>  0.0315  0.1995  0.2247 </r>
       </set>
       <set comment="band 10">
        <r>  0.0000  0.0805  0.2628 </r>
       </set>
       <set comment="band 11">
        <r>  0.0041  0.3160  0.2455 </r>
       </set>
       <set comment="band 12">
        <r>  0.1057  0.2475  0.3055 </r>
       </set>
      </set>
      <set comment="kpoint 34">
       <set comment="band 1">
        <r>  0.0326  0.1202  0.6305 </r>
       </set>
       <set comment="band 2">
        <r>  0.0000  0.0760  0.7394 </r>
       </set>
       <set comment="band 3">
        <r>  0.0295  0.0254  0.8414 </r>
       </set>
       <set comment="band 4">
        <r>  0.0000  0.0224  0.9340 </r>
       </set>
       <set comment="band 5">
        <r>  0.0048  0.0181  0.9454 </r>
       </set>
       <set comment="band 6">
        <r>  0.0541  0.2987  0.4370 </r>
       </set>
       <set comment="band 7">
        <r>  0.0000  0.3615  0.3793 </r>
       </set>
       <set comment="band 8">
        <r>  0.3664  0.1389  0.2108 </r>
       </set>
       <set comment="band 9">
        <r>  0.0000  0.0959  0.3289 </r>
       </set>
       <set comment="band 10">
        <r>  0.0142  0.2151  0.1923 </r>
       </set>
       <set comment="band 11">
        <r>  0.0002  0.3529  0.1831 </r>
       </set>
       <set comment="band 12">
        <r>  0.2356  0.1259  0.3136 </r>
       </set>
      </set>
      <set comment="kpoint 35">
       <set comment="band 1">
        <r>  0.0000  0.1259  0.7159 </r>
       </set>
       <set comment="band 2">
        <r>  0.0000  0.1259  0.7159 </r>
       </set>
       <set comment="band 3">
        <r>  0.0000  0.1259  0.7159 </r>
       </set>
       <set comment="band 4">
        <r>  0.0000  0.0000  0.9838 </r>
       </set>
       <set comment="band 5">
        <r>  0.0000  0.0000  0.9838 </r>
       </set>
       <set comment="band 6">
        <r>  0.0000  0.2963  0.4073 </r>
       </set>
       <set comment="band 7">
        <r>  0.0000  0.2963  0.4073 </r>
       </set>
       <set comment="band 8">
        <r>  0.0000  0.2963  0.4073 </r>
       </set>
       <set comment="band 9">
        <r>  0.7364  0.0000  0.0000 </r>
       </set>
       <set comment="band 10">
        <r>  0.0000  0.0000  0.0000 </r>
       </set>
       <set comment="band 11">
        <r>  0.0000  0.0000  0.0000 </r>
       </set>
       <set comment="band 12">
        <r>  0.0000  0.0001  0.0000 </r>
       </set>
      </set>
      <set comment="kpoint 36">
       <set comment="band 1">
        <r>  0.2804  0.1973  0.1616 </r>
       </set>
       <set comment="band 2">
        <r>  0.0000  0.0000  0.8647 </r>
       </set>
       <set comment="band 3">
        <r>  0.0000  0.0319  0.9029 </r>
       </set>
       <set comment="band 4">
        <r>  0.0000  0.0319  0.9029 </r>
       </set>
       <set comment="band 5">
        <r>  0.0000  0.0000  0.9674 </r>
       </set>
       <set comment="band 6">
        <r>  0.0792  0.0349  0.8274 </r>
       </set>
       <set comment="band 7">
        <r>  0.0000  0.4117  0.2829 </r>
       </set>
       <set comment="band 8">
        <r>  0.0000  0.4118  0.2829 </r>
       </set>
       <set comment="band 9">
        <r>  0.0000  0.0000  0.4670 </r>
       </set>
       <set comment="band 10">
        <r>  0.2356  0.1591  0.0349 </r>
       </set>
       <set comment="band 11">
        <r>  0.0000  0.2788  0.0555 </r>
       </set>
       <set comment="band 12">
        <r>  0.0000  0.2793  0.0558 </r>
       </set>
      </set>
      <set comment="kpoint 37">
       <set comment="band 1">
        <r>  0.1385  0.1776  0.3853 </r>
       </set>
       <set comment="band 2">
        <r>  0.0001  0.0164  0.8247 </r>
       </set>
       <set comment="band 3">
        <r>  0.0000  0.0304  0.9037 </r>
       </set>
       <set comment="band 4">
        <r>  0.0036  0.0327  0.8962 </r>
       </set>
       <set comment="band 5">
        <r>  0.0000  0.0054  0.9677 </r>
       </set>
       <set comment="band 6">
        <r>  0.1314  0.1295  0.6074 </r>
       </set>
       <set comment="band 7">
        <r>  0.0772  0.3217  0.2958 </r>
       </set>
       <set comment="band 8">
        <r>  0.0000  0.4721  0.2232 </r>
       </set>
       <set comment="band 9">
        <r>  0.0771  0.0320  0.3887 </r>
       </set>
       <set comment="band 10">
        <r>  0.1263  0.1741  0.1769 </r>
       </set>
       <set comment="band 11">
        <r>  0.0546  0.3428  0.2103 </r>
       </set>
       <set comment="band 12">
        <r>  0.0000  0.1193  0.3491 </r>
       </set>
      </set>
      <set comment="kpoint 38">
       <set comment="band 1">
        <r>  0.0454  0.0724  0.6713 </r>
       </set>
       <set comment="band 2">
        <r>  0.0005  0.0930  0.7037 </r>
       </set>
       <set comment="band 3">
        <r>  0.0000  0.0286  0.9042 </r>
       </set>
       <set comment="band 4">
        <r>  0.0269  0.0185  0.8829 </r>
       </set>
       <set comment="band 5">
        <r>  0.0000  0.0015  0.9843 </r>
       </set>
       <set comment="band 6">
        <r>  0.0705  0.3202  0.3896 </r>
       </set>
       <set comment="band 7">
        <r>  0.2043  0.2204  0.3286 </r>
       </set>
       <set comment="band 8">
        <r>  0.0000  0.5140  0.1673 </r>
       </set>
       <set comment="band 9">
        <r>  0.1119  0.0207  0.3686 </r>
       </set>
       <set comment="band 10">
        <r>  0.0255  0.1172  0.2868 </r>
       </set>
       <set comment="band 11">
        <r>  0.1274  0.4232  0.1304 </r>
       </set>
       <set comment="band 12">
        <r>  0.0000  0.1149  0.3585 </r>
       </set>
      </set>
      <set comment="kpoint 39">
       <set comment="band 1">
        <r>  0.0413  0.1222  0.5989 </r>
       </set>
       <set comment="band 2">
        <r>  0.0000  0.0214  0.8060 </r>
       </set>
       <set comment="band 3">
        <r>  0.0141  0.0295  0.8807 </r>
       </set>
       <set comment="band 4">
        <r>  0.0000  0.0350  0.9095 </r>
       </set>
       <set comment="band 5">
        <r>  0.0061  0.0059  0.9627 </r>
       </set>
       <set comment="band 6">
        <r>  0.1260  0.2620  0.4033 </r>
       </set>
       <set comment="band 7">
        <r>  0.0000  0.4109  0.2981 </r>
       </set>
       <set comment="band 8">
        <r>  0.1659  0.3400  0.1830 </r>
       </set>
       <set comment="band 9">
        <r>  0.0000  0.0880  0.4370 </r>
       </set>
       <set comment="band 10">
        <r>  0.1277  0.1359  0.2216 </r>
       </set>
       <set comment="band 11">
        <r>  0.1606  0.3679  0.1324 </r>
       </set>
       <set comment="band 12">
        <r>  0.0745  0.0619  0.3215 </r>
       </set>
      </set>
      <set comment="kpoint 40">
       <set comment="band 1">
        <r>  0.0073  0.0410  0.7642 </r>
       </set>
       <set comment="band 2">
        <r>  0.0000  0.0794  0.7182 </r>
       </set>
       <set comment="band 3">
        <r>  0.0248  0.0279  0.8655 </r>
       </set>
       <set comment="band 4">
        <r>  0.0059  0.0287  0.9157 </r>
       </set>
       <set comment="band 5">
        <r>  0.0000  0.0121  0.9654 </r>
       </set>
       <set comment="band 6">
        <r>  0.0000  0.4338  0.3014 </r>
       </set>
       <set comment="band 7">
        <r>  0.1944  0.2542  0.2959 </r>
       </set>
       <set comment="band 8">
        <r>  0.1201  0.3778  0.1914 </r>
       </set>
       <set comment="band 9">
        <r>  0.0356  0.0870  0.3920 </r>
       </set>
       <set comment="band 10">
        <r>  0.0000  0.0883  0.3669 </r>
       </set>
       <set comment="band 11">
        <r>  0.2581  0.4240  0.0376 </r>
       </set>
       <set comment="band 12">
        <r>  0.0894  0.0465  0.3220 </r>
       </set>
      </set>
      <set comment="kpoint 41">
       <set comment="band 1">
        <r>  0.0448  0.1211  0.5911 </r>
       </set>
       <set comment="band 2">
        <r>  0.0000  0.0000  0.8320 </r>
       </set>
       <set comment="band 3">
        <r>  0.0000  0.0413  0.8982 </r>
       </set>
       <set comment="band 4">
        <r>  0.0000  0.0413  0.8982 </r>
       </set>
       <set comment="band 5">
        <r>  0.0000  0.0000  0.9759 </r>
       </set>
       <set comment="band 6">
        <r>  0.1692  0.2387  0.3765 </r>
       </set>
       <set comment="band 7">
        <r>  0.0000  0.5136  0.1691 </r>
       </set>
       <set comment="band 8">
        <r>  0.0000  0.5136  0.1691 </r>
       </set>
       <set comment="band 9">
        <r>  0.0000  0.0000  0.5772 </r>
       </set>
       <set comment="band 10">
        <r>  0.2658  0.0218  0.2244 </r>
       </set>
       <set comment="band 11">
        <r>  0.2220  0.2889  0.1525 </r>
       </set>
       <set comment="band 12">
        <r>  0.0000  0.0000  0.3335 </r>
       </set>
      </set>
      <set comment="kpoint 42">
       <set comment="band 1">
        <r>  0.0071  0.0554  0.7360 </r>
       </set>
       <set comment="band 2">
        <r>  0.0001  0.0134  0.8062 </r>
       </set>
       <set comment="band 3">
        <r>  0.0000  0.0308  0.9175 </r>
       </set>
       <set comment="band 4">
        <r>  0.0101  0.0336  0.9002 </r>
       </set>
       <set comment="band 5">
        <r>  0.0000  0.0014  0.9827 </r>
       </set>
       <set comment="band 6">
        <r>  0.0991  0.3872  0.2330 </r>
       </set>
       <set comment="band 7">
        <r>  0.0822  0.4240  0.1841 </r>
       </set>
       <set comment="band 8">
        <r>  0.0000  0.5511  0.1100 </r>
       </set>
       <set comment="band 9">
        <r>  0.0461  0.0074  0.5301 </r>
       </set>
       <set comment="band 10">
        <r>  0.0770  0.0624  0.3874 </r>
       </set>
       <set comment="band 11">
        <r>  0.4006  0.2572  0.0669 </r>
       </set>
       <set comment="band 12">
        <r>  0.0000  0.0464  0.2579 </r>
       </set>
      </set>
      <set comment="kpoint 43">
       <set comment="band 1">
        <r>  0.0000  0.0207  0.7931 </r>
       </set>
       <set comment="band 2">
        <r>  0.0000  0.0207  0.7931 </r>
       </set>
       <set comment="band 3">
        <r>  0.0080  0.0300  0.9074 </r>
       </set>
       <set comment="band 4">
        <r>  0.0000  0.0122  0.9631 </r>
       </set>
       <set comment="band 5">
        <r>  0.0000  0.0122  0.9631 </r>
       </set>
       <set comment="band 6">
        <r>  0.0000  0.5182  0.1584 </r>
       </set>
       <set comment="band 7">
        <r>  0.0000  0.5182  0.1584 </r>
       </set>
       <set comment="band 8">
        <r>  0.1673  0.3961  0.1041 </r>
       </set>
       <set comment="band 9">
        <r>  0.0000  0.0588  0.5066 </r>
       </set>
       <set comment="band 10">
        <r>  0.0000  0.0588  0.5066 </r>
       </set>
       <set comment="band 11">
        <r>  0.5627  0.1901  0.0035 </r>
       </set>
       <set comment="band 12">
        <r>  0.0130  0.0427  0.2119 </r>
       </set>
      </set>
      <set comment="kpoint 44">
       <set comment="band 1">
        <r>  0.0005  0.0139  0.7990 </r>
       </set>
       <set comment="band 2">
        <r>  0.0000  0.0000  0.8192 </r>
       </set>
       <set comment="band 3">
        <r>  0.0000  0.0125  0.9619 </r>
       </set>
       <set comment="band 4">
        <r>  0.0000  0.0125  0.9619 </r>
       </set>
       <set comment="band 5">
        <r>  0.0000  0.0000  0.9845 </r>
       </set>
       <set comment="band 6">
        <r>  0.0535  0.5139  0.0844 </r>
       </set>
       <set comment="band 7">
        <r>  0.0000  0.5958  0.0335 </r>
       </set>
       <set comment="band 8">
        <r>  0.0000  0.5958  0.0335 </r>
       </set>
       <set comment="band 9">
        <r>  0.0000  0.0000  0.6321 </r>
       </set>
       <set comment="band 10">
        <r>  0.0309  0.0212  0.5469 </r>
       </set>
       <set comment="band 11">
        <r>  0.6733  0.0740  0.0110 </r>
       </set>
       <set comment="band 12">
        <r>  0.0000  0.0000  0.0733 </r>
       </set>
      </set>
     </set>
    </set>
   </array>
  </projected>
 </calculation>
 <structure name="finalpos" >
  <crystal>
   <varray name="basis" >
    <v>      -1.41999000       1.41999000       1.41999000 </v>
    <v>       1.41999000      -1.41999000       1.41999000 </v>
    <v>       1.41999000       1.41999000      -1.41999000 </v>
   </varray>
   <i name="volume">     11.45291003 </i>
   <varray name="rec_basis" >
    <v>       0.00000000       0.35211516       0.35211516 </v>
    <v>       0.35211516       0.00000000       0.35211516 </v>
    <v>       0.35211516       0.35211516       0.00000000 </v>
   </varray>
  </crystal>
  <varray name="positions" >
   <v>       0.00000000       0.00000000       0.00000000 </v>
  </varray>
 </structure>
</modeling>
