fcc Ni                                  
   3.75000000000000     
     0.000000    0.500000    0.500000
     0.500000    0.000000    0.500000
     0.500000    0.500000    0.000000
   Ni
     1
Direct
  0.000000  0.000000  0.000000
 
   24   24   24
  183.54      174.23      148.85      113.98      77.591      46.361      24.118      11.437      6.1640      4.5739    
  3.7030      3.2035      3.0444      3.2035      3.7030      4.5739      6.1640      11.437      24.118      46.361    
  77.591      113.98      148.85      174.23      174.23      156.90      126.92      91.647      58.446      32.516    
  15.950      7.8330      5.0908      4.0475      3.3773      3.0610      3.0610      3.3773      4.0475      5.0907    
  7.8333      15.951      32.517      58.446      91.645      126.91      156.90      174.22      148.85      126.92    
  96.821      65.510      38.850      20.154      9.7966      5.6824      4.3670      3.5596      3.1051      2.9615    
  3.1051      3.5597      4.3668      5.6822      9.7970      20.155      38.852      65.511      96.819      126.91    
  148.84      156.90      113.98      91.647      65.510      41.208      22.695      11.402      6.2924      4.6215    
  3.7237      3.1621      2.9034      2.9034      3.1622      3.7237      4.6213      6.2920      11.402      22.695    
  41.209      65.511      91.646      113.98      126.91      126.91      77.591      58.446      38.850      22.695    
  12.022      6.6923      4.7853      3.8458      3.2154      2.8757      2.7705      2.8758      3.2156      3.8460    
  4.7853      6.6918      12.021      22.694      38.850      58.446      77.593      91.646      96.819      91.645    
  46.361      32.516      20.154      11.402      6.6923      4.8440      3.9105      3.2520      2.8653      2.6929    
  2.6929      2.8654      3.2522      3.9110      4.8445      6.6924      11.401      20.153      32.515      46.361    
  58.446      65.511      65.511      58.446      24.118      15.950      9.7966      6.2924      4.7853      3.9105    
  3.2649      2.8625      2.6544      2.5912      2.6543      2.8623      3.2649      3.9110      4.7865      6.2936    
  9.7970      15.949      24.116      32.515      38.850      41.209      38.852      32.517      11.437      7.8330    
  5.6824      4.6215      3.8458      3.2520      2.8625      2.6430      2.5474      2.5474      2.6428      2.8620    
  3.2514      3.8458      4.6226      5.6843      7.8345      11.437      15.949      20.153      22.694      22.695    
  20.155      15.951      6.1640      5.0908      4.3670      3.7237      3.2154      2.8653      2.6544      2.5474    
  2.5154      2.5476      2.6544      2.8647      3.2143      3.7227      4.3671      5.0923      6.1660      7.8345    
  9.7970      11.401      12.021      11.402      9.7970      7.8333      4.5739      4.0475      3.5596      3.1621    
  2.8757      2.6929      2.5912      2.5474      2.5476      2.5917      2.6935      2.8757      3.1611      3.5580    
  4.0462      4.5740      5.0923      5.6843      6.2936      6.6924      6.6918      6.2920      5.6822      5.0907    
  3.7030      3.3773      3.1051      2.9034      2.7705      2.6929      2.6543      2.6428      2.6544      2.6935    
  2.7716      2.9044      3.1051      3.3759      3.7011      4.0462      4.3671      4.6226      4.7865      4.8445    
  4.7853      4.6213      4.3668      4.0475      3.2035      3.0610      2.9615      2.9034      2.8758      2.8654    
  2.8623      2.8620      2.8647      2.8757      2.9044      2.9632      3.0623      3.2034      3.3759      3.5580    
  3.7227      3.8458      3.9110      3.9110      3.8460      3.7237      3.5597      3.3773      3.0444      3.0610    
  3.1051      3.1622      3.2156      3.2522      3.2649      3.2514      3.2143      3.1611      3.1051      3.0623    
  3.0463      3.0623      3.1051      3.1611      3.2143      3.2514      3.2649      3.2522      3.2156      3.1622    
  3.1051      3.0610      3.2035      3.3773      3.5597      3.7237      3.8460      3.9110      3.9110      3.8458    
  3.7227      3.5580      3.3759      3.2034      3.0623      2.9632      2.9044      2.8757      2.8647      2.8620    
  2.8623      2.8654      2.8758      2.9034      2.9615      3.0610      3.7030      4.0475      4.3668      4.6213    
  4.7853      4.8445      4.7865      4.6226      4.3671      4.0462      3.7011      3.3759      3.1051      2.9044    
  2.7716      2.6935      2.6544      2.6428      2.6543      2.6929      2.7705      2.9034      3.1051      3.3773    
  4.5739      5.0907      5.6822      6.2920      6.6918      6.6924      6.2936      5.6843      5.0923      4.5740    
  4.0462      3.5580      3.1611      2.8757      2.6935      2.5917      2.5476      2.5474      2.5912      2.6929    
  2.8757      3.1621      3.5596      4.0475      6.1640      7.8333      9.7970      11.402      12.021      11.401    
  9.7970      7.8345      6.1660      5.0923      4.3671      3.7227      3.2143      2.8647      2.6544      2.5476    
  2.5154      2.5474      2.6544      2.8653      3.2154      3.7237      4.3670      5.0908      11.437      15.951    
  20.155      22.695      22.694      20.153      15.949      11.437      7.8345      5.6843      4.6226      3.8458    
  3.2514      2.8620      2.6428      2.5474      2.5474      2.6430      2.8625      3.2520      3.8458      4.6215    
  5.6824      7.8330      24.118      32.517      38.852      41.209      38.850      32.515      24.116      15.949    
  9.7970      6.2936      4.7865      3.9110      3.2649      2.8623      2.6543      2.5912      2.6544      2.8625    
  3.2649      3.9105      4.7853      6.2924      9.7966      15.950      46.361      58.446      65.511      65.511    
  58.446      46.361      32.515      20.153      11.401      6.6924      4.8445      3.9110      3.2522      2.8654    
  2.6929      2.6929      2.8653      3.2520      3.9105      4.8440      6.6923      11.402      20.154      32.516    
  77.591      91.645      96.819      91.646      77.593      58.446      38.850      22.694      12.021      6.6918    
  4.7853      3.8460      3.2156      2.8758      2.7705      2.8757      3.2154      3.8458      4.7853      6.6923    
  12.022      22.695      38.850      58.446      113.98      126.91      126.91      113.98      91.646      65.511    
  41.209      22.695      11.402      6.2920      4.6213      3.7237      3.1622      2.9034      2.9034      3.1621    
  3.7237      4.6215      6.2924      11.402      22.695      41.208      65.510      91.647      148.85      156.90    
  148.84      126.91      96.819      65.511      38.852      20.155      9.7970      5.6822      4.3668      3.5597    
  3.1051      2.9615      3.1051      3.5596      4.3670      5.6824      9.7966      20.154      38.850      65.510    
  96.821      126.92      174.23      174.22      156.90      126.91      91.645      58.446      32.517      15.951    
  7.8333      5.0907      4.0475      3.3773      3.0610      3.0610      3.3773      4.0475      5.0908      7.8330    
  15.950      32.516      58.446      91.647      126.92      156.90      174.23      156.90      126.92      91.647    
  58.446      32.516      15.950      7.8330      5.0908      4.0475      3.3773      3.0610      3.0610      3.3773    
  4.0475      5.0907      7.8333      15.951      32.517      58.446      91.645      126.91      156.90      174.22    
  156.90      133.73      102.00      69.046      41.001      21.281      10.265      5.8223      4.4351      3.6098    
  3.1418      2.9936      3.1419      3.6098      4.4349      5.8223      10.266      21.283      41.004      69.046    
  101.99      133.73      156.90      165.41      126.92      102.00      72.937      45.961      25.343      12.609    
  6.6956      4.7630      3.8302      3.2373      2.9618      2.9619      3.2374      3.8301      4.7627      6.6954    
  12.610      25.345      45.963      72.937      101.99      126.91      141.38      141.38      91.647      69.046    
  45.961      26.860      14.050      7.4352      5.0152      4.0088      3.3284      2.9563      2.8404      2.9564    
  3.3285      4.0087      5.0148      7.4346      14.050      26.861      45.962      69.047      91.647      108.30    
  114.44      108.30      58.446      41.001      25.343      14.050      7.7265      5.1670      4.1238      3.3979    
  2.9635      2.7678      2.7678      2.9636      3.3981      4.1240      5.1668      7.7257      14.049      25.342    
  41.002      58.447      73.688      82.617      82.616      73.686      32.516      21.281      12.609      7.4352    
  5.1670      4.1634      3.4349      2.9719      2.7299      2.6560      2.7298      2.9720      3.4352      4.1639    
  5.1675      7.4352      12.609      21.280      32.515      43.962      52.577      55.785      52.577      43.962    
  15.950      10.265      6.6956      5.0152      4.1238      3.4349      2.9754      2.7143      2.5999      2.5999    
  2.7141      2.9751      3.4349      4.1245      5.0164      6.6968      10.265      15.949      22.838      29.154    
  32.947      32.947      29.156      22.840      7.8330      5.8223      4.7630      4.0088      3.3979      2.9719    
  2.7143      2.5833      2.5439      2.5833      2.7140      2.9713      3.3971      4.0088      4.7641      5.8242    
  7.8344      10.891      14.344      17.100      18.154      17.101      14.345      10.891      5.0908      4.4351    
  3.8302      3.3284      2.9635      2.7299      2.5999      2.5439      2.5441      2.6002      2.7299      2.9628    
  3.3271      3.8291      4.4351      5.0921      5.9983      7.2604      8.5642      9.4018      9.4016      8.5635    
  7.2588      5.9964      4.0475      3.6098      3.2373      2.9563      2.7678      2.6560      2.5999      2.5833    
  2.6002      2.6567      2.7685      2.9563      3.2362      3.6080      4.0462      4.5020      4.9219      5.3220    
  5.6546      5.7872      5.6532      5.3199      4.9204      4.5019      3.3773      3.1418      2.9618      2.8404    
  2.7678      2.7298      2.7141      2.7140      2.7299      2.7685      2.8417      2.9630      3.1418      3.3759    
  3.6473      3.9243      4.1699      4.3514      4.4469      4.4464      4.3504      4.1696      3.9254      3.6491    
  3.0610      2.9936      2.9619      2.9564      2.9636      2.9720      2.9751      2.9713      2.9628      2.9563    
  2.9630      2.9953      3.0623      3.1635      3.2878      3.4153      3.5244      3.5970      3.6224      3.5973    
  3.5254      3.4168      3.2890      3.1636      3.0610      3.1419      3.2374      3.3285      3.3981      3.4352    
  3.4349      3.3971      3.3271      3.2362      3.1418      3.0623      3.0113      2.9928      3.0007      3.0224    
  3.0449      3.0586      3.0590      3.0459      3.0234      3.0008      2.9917      3.0095      3.3773      3.6098    
  3.8301      4.0087      4.1240      4.1639      4.1245      4.0088      3.8291      3.6080      3.3759      3.1635    
  2.9928      2.8719      2.7962      2.7544      2.7348      2.7294      2.7352      2.7545      2.7954      2.8704    
  2.9917      3.1636      4.0475      4.4349      4.7627      5.0148      5.1668      5.1675      5.0164      4.7641    
  4.4351      4.0462      3.6473      3.2878      3.0007      2.7962      2.6659      2.5929      2.5611      2.5610    
  2.5925      2.6650      2.7954      3.0007      3.2890      3.6491      5.0907      5.8223      6.6954      7.4346    
  7.7257      7.4352      6.6968      5.8242      5.0921      4.5020      3.9243      3.4153      3.0224      2.7544    
  2.5929      2.5105      2.4856      2.5102      2.5925      2.7544      3.0233      3.4168      3.9254      4.5019    
  7.8333      10.266      12.610      14.050      14.049      12.609      10.265      7.8344      5.9983      4.9219    
  4.1699      3.5244      3.0449      2.7348      2.5611      2.4856      2.4856      2.5612      2.7352      3.0457    
  3.5252      4.1697      4.9205      5.9964      15.951      21.283      25.345      26.861      25.342      21.280    
  15.949      10.891      7.2604      5.3220      4.3514      3.5970      3.0586      2.7294      2.5610      2.5102    
  2.5612      2.7297      3.0590      3.5970      4.3505      5.3202      7.2589      10.891      32.517      41.004    
  45.963      45.962      41.002      32.515      22.838      14.344      8.5642      5.6546      4.4469      3.6224    
  3.0590      2.7352      2.5925      2.5925      2.7352      3.0590      3.6220      4.4460      5.6537      8.5639    
  14.345      22.840      58.446      69.046      72.937      69.047      58.447      43.962      29.154      17.100    
  9.4018      5.7872      4.4464      3.5973      3.0459      2.7545      2.6650      2.7544      3.0457      3.5970    
  4.4460      5.7873      9.4026      17.101      29.155      43.962      91.645      101.99      101.99      91.647    
  73.688      52.577      32.947      18.154      9.4016      5.6532      4.3504      3.5254      3.0234      2.7954    
  2.7954      3.0233      3.5252      4.3505      5.6537      9.4026      18.155      32.947      52.576      73.686    
  126.91      133.73      126.91      108.30      82.617      55.785      32.947      17.101      8.5635      5.3199    
  4.1696      3.4168      3.0008      2.8704      3.0007      3.4168      4.1697      5.3202      8.5639      17.101    
  32.947      55.784      82.617      108.30      156.90      156.90      141.38      114.44      82.616      52.577    
  29.156      14.345      7.2588      4.9204      3.9254      3.2890      2.9917      2.9917      3.2890      3.9254    
  4.9205      7.2589      14.345      29.155      52.576      82.617      114.44      141.38      174.22      165.41    
  141.38      108.30      73.686      43.962      22.840      10.891      5.9964      4.5019      3.6491      3.1636    
  3.0095      3.1636      3.6491      4.5019      5.9964      10.891      22.840      43.962      73.686      108.30    
  141.38      165.41      148.85      126.92      96.821      65.510      38.850      20.154      9.7966      5.6824    
  4.3670      3.5596      3.1051      2.9615      3.1051      3.5597      4.3668      5.6822      9.7970      20.155    
  38.852      65.511      96.819      126.91      148.84      156.90      126.92      102.00      72.937      45.961    
  25.343      12.609      6.6956      4.7630      3.8302      3.2373      2.9618      2.9619      3.2374      3.8301    
  4.7627      6.6954      12.610      25.345      45.963      72.937      101.99      126.91      141.38      141.38    
  96.821      72.937      48.569      28.397      14.811      7.7226      5.1002      4.0654      3.3680      2.9847    
  2.8649      2.9847      3.3681      4.0652      5.0996      7.7220      14.811      28.398      48.571      72.938    
  96.821      114.44      120.95      114.44      65.510      45.961      28.397      15.642      8.3743      5.3633    
  4.2366      3.4764      3.0164      2.8080      2.8080      3.0165      3.4765      4.2364      5.3625      8.3730    
  15.641      28.397      45.963      65.514      82.620      92.659      92.658      82.617      38.850      25.343    
  14.811      8.3743      5.4663      4.3259      3.5469      3.0442      2.7792      2.6980      2.7792      3.0444    
  3.5473      4.3261      5.4659      8.3729      14.809      25.343      38.851      52.579      62.916      66.768    
  62.914      52.576      20.154      12.609      7.7226      5.3633      4.3259      3.5713      3.0599      2.7669    
  2.6380      2.6379      2.7668      3.0599      3.5717      4.3266      5.3637      7.7222      12.608      20.153    
  29.155      37.356      42.272      42.272      37.356      29.155      9.7966      6.6956      5.1002      4.2366    
  3.5469      3.0599      2.7636      2.6125      2.5669      2.6123      2.7633      3.0595      3.5470      4.2373    
  5.1013      6.6964      9.7965      14.344      19.361      23.319      24.825      23.320      19.363      14.345    
  5.6824      4.7630      4.0654      3.4764      3.0442      2.7669      2.6125      2.5458      2.5459      2.6125    
  2.7665      3.0434      3.4756      4.0654      4.7640      5.6839      7.2600      9.4447      11.641      13.028    
  13.028      11.641      9.4446      7.2589      4.3670      3.8302      3.3680      3.0164      2.7792      2.6380    
  2.5669      2.5459      2.5672      2.6384      2.7792      3.0157      3.3667      3.8291      4.3669      4.9217    
  5.5660      6.3413      7.0158      7.2857      7.0150      6.3397      5.5642      4.9205      3.5596      3.2373    
  2.9847      2.8080      2.6980      2.6379      2.6123      2.6125      2.6384      2.6988      2.8088      2.9847    
  3.2362      3.5579      3.9242      4.2929      4.6165      4.8594      5.0002      4.9995      4.8578      4.6151    
  4.2928      3.9254      3.1051      2.9618      2.8649      2.8080      2.7792      2.7668      2.7633      2.7665    
  2.7792      2.8088      2.8662      2.9630      3.1050      3.2877      3.4937      3.6963      3.8661      3.9782    
  4.0171      3.9778      3.8660      3.6972      3.4954      3.2890      2.9615      2.9619      2.9847      3.0165    
  3.0444      3.0599      3.0595      3.0434      3.0157      2.9847      2.9630      2.9632      2.9928      3.0504    
  3.1252      3.2011      3.2617      3.2951      3.2954      3.2625      3.2023      3.1263      3.0505      2.9917    
  3.1051      3.2374      3.3681      3.4765      3.5473      3.5717      3.5470      3.4756      3.3667      3.2362    
  3.1050      2.9928      2.9121      2.8650      2.8447      2.8404      2.8421      2.8437      2.8428      2.8411    
  2.8448      2.8640      2.9105      2.9917      3.5597      3.8301      4.0652      4.2364      4.3261      4.3266    
  4.2373      4.0654      3.8291      3.5579      3.2877      3.0504      2.8650      2.7353      2.6536      2.6082    
  2.5885      2.5886      2.6082      2.6531      2.7341      2.8640      3.0505      3.2890      4.3668      4.7627    
  5.0996      5.3625      5.4659      5.3637      5.1013      4.7640      4.3669      3.9242      3.4937      3.1252    
  2.8447      2.6536      2.5375      2.4776      2.4593      2.4773      2.5369      2.6530      2.8447      3.1262    
  3.4954      3.9254      5.6822      6.6954      7.7220      8.3730      8.3729      7.7222      6.6964      5.6839    
  4.9217      4.2929      3.6963      3.2011      2.8404      2.6082      2.4776      2.4205      2.4204      2.4773    
  2.6082      2.8410      3.2022      3.6972      4.2928      4.9204      9.7970      12.610      14.811      15.641    
  14.809      12.608      9.7965      7.2600      5.5660      4.6165      3.8661      3.2617      2.8421      2.5885    
  2.4593      2.4204      2.4593      2.5888      2.8427      3.2623      3.8660      4.6153      5.5642      7.2588    
  20.155      25.345      28.398      28.397      25.343      20.153      14.344      9.4447      6.3413      4.8594    
  3.9782      3.2951      2.8437      2.5886      2.4773      2.4773      2.5888      2.8439      3.2951      3.9775    
  4.8581      6.3401      9.4446      14.345      38.852      45.963      48.571      45.963      38.851      29.155    
  19.361      11.641      7.0158      5.0002      4.0171      3.2954      2.8428      2.6082      2.5369      2.6082    
  2.8427      3.2951      4.0164      4.9997      7.0160      11.642      19.363      29.156      65.511      72.937    
  72.938      65.514      52.579      37.356      23.319      13.028      7.2857      4.9995      3.9778      3.2625    
  2.8411      2.6531      2.6530      2.8410      3.2623      3.9775      4.9997      7.2867      13.030      23.320    
  37.356      52.577      96.819      101.99      96.821      82.620      62.916      42.272      24.825      13.028    
  7.0150      4.8578      3.8660      3.2023      2.8448      2.7341      2.8447      3.2022      3.8660      4.8581    
  7.0160      13.030      24.826      42.271      62.914      82.616      126.91      126.91      114.44      92.659    
  66.768      42.272      23.320      11.641      6.3397      4.6151      3.6972      3.1263      2.8640      2.8640    
  3.1262      3.6972      4.6153      6.3401      11.642      23.320      42.271      66.767      92.658      114.44    
  148.84      141.38      120.95      92.658      62.914      37.356      19.363      9.4446      5.5642      4.2928    
  3.4954      3.0505      2.9105      3.0505      3.4954      4.2928      5.5642      9.4446      19.363      37.356    
  62.914      92.658      120.95      141.38      156.90      141.38      114.44      82.617      52.576      29.155    
  14.345      7.2589      4.9205      3.9254      3.2890      2.9917      2.9917      3.2890      3.9254      4.9204    
  7.2588      14.345      29.156      52.577      82.616      114.44      141.38      156.90      113.98      91.647    
  65.510      41.208      22.695      11.402      6.2924      4.6215      3.7237      3.1621      2.9034      2.9034    
  3.1622      3.7237      4.6213      6.2920      11.402      22.695      41.209      65.511      91.646      113.98    
  126.91      126.91      91.647      69.046      45.961      26.860      14.050      7.4352      5.0152      4.0088    
  3.3284      2.9563      2.8404      2.9564      3.3285      4.0087      5.0148      7.4346      14.050      26.861    
  45.962      69.047      91.647      108.30      114.44      108.30      65.510      45.961      28.397      15.642    
  8.3743      5.3633      4.2366      3.4764      3.0164      2.8080      2.8080      3.0165      3.4765      4.2364    
  5.3625      8.3730      15.641      28.397      45.963      65.514      82.620      92.659      92.658      82.617    
  41.208      26.860      15.642      8.7374      5.5829      4.3817      3.5860      3.0695      2.7964      2.7125    
  2.7964      3.0697      3.5863      4.3817      5.5820      8.7355      15.640      26.860      41.211      55.789    
  66.771      70.864      66.767      55.784      22.695      14.050      8.3743      5.5829      4.4313      3.6438    
  3.1050      2.7948      2.6579      2.6578      2.7948      3.1052      3.6444      4.4318      5.5825      8.3726    
  14.048      22.694      32.949      42.274      47.862      47.860      42.271      32.947      11.402      7.4352    
  5.3633      4.3817      3.6438      3.1174      2.7957      2.6312      2.5815      2.6311      2.7955      3.1175    
  3.6445      4.3827      5.3637      7.4346      11.400      17.100      23.320      28.201      30.056      28.201    
  23.320      17.101      6.2924      5.0152      4.2366      3.5860      3.1050      2.7957      2.6234      2.5489    
  2.5488      2.6232      2.7953      3.1047      3.5862      4.2374      5.0163      6.2929      8.5633      11.640    
  14.679      16.582      16.583      14.681      11.642      8.5639      4.6215      4.0088      3.4764      3.0695    
  2.7948      2.6312      2.5489      2.5243      2.5490      2.6312      2.7944      3.0687      3.4757      4.0089    
  4.6224      5.3214      6.3408      7.6077      8.6974      9.1299      8.6976      7.6077      6.3401      5.3202    
  3.7237      3.3284      3.0164      2.7964      2.6579      2.5815      2.5488      2.5490      2.5819      2.6583    
  2.7964      3.0157      3.3272      3.7227      4.1697      4.6162      5.0270      5.4096      5.6594      5.6590    
  5.4084      5.0255      4.6153      4.1697      3.1621      2.9563      2.8080      2.7125      2.6578      2.6311    
  2.6232      2.6312      2.6583      2.7134      2.8088      2.9564      3.1611      3.4153      3.6963      3.9698    
  4.1984      4.3494      4.4017      4.3484      4.1974      3.9697      3.6972      3.4168      2.9034      2.8404    
  2.8080      2.7964      2.7948      2.7955      2.7953      2.7944      2.7964      2.8088      2.8417      2.9044    
  3.0007      3.1252      3.2631      3.3934      3.4945      3.5496      3.5495      3.4946      3.3941      3.2643    
  3.1262      3.0007      2.9034      2.9564      3.0165      3.0697      3.1052      3.1175      3.1047      3.0687    
  3.0157      2.9564      2.9044      2.8718      2.8649      2.8815      2.9123      2.9454      2.9699      2.9790    
  2.9705      2.9463      2.9131      2.8815      2.8640      2.8704      3.1622      3.3285      3.4765      3.5863    
  3.6444      3.6445      3.5862      3.4757      3.3272      3.1611      3.0007      2.8649      2.7639      2.6974    
  2.6586      2.6386      2.6305      2.6307      2.6390      2.6586      2.6967      2.7627      2.8640      3.0008    
  3.7237      4.0087      4.2364      4.3817      4.4318      4.3827      4.2374      4.0089      3.7227      3.4153    
  3.1252      2.8815      2.6974      2.5715      2.4938      2.4528      2.4402      2.4528      2.4934      2.5707    
  2.6967      2.8815      3.1263      3.4168      4.6213      5.0148      5.3625      5.5820      5.5825      5.3637    
  5.0163      4.6224      4.1697      3.6963      3.2631      2.9123      2.6586      2.4938      2.3994      2.3575    
  2.3574      2.3991      2.4934      2.6586      2.9131      3.2643      3.6972      4.1696      6.2920      7.4346    
  8.3730      8.7355      8.3726      7.4346      6.2929      5.3214      4.6162      3.9698      3.3934      2.9454    
  2.6386      2.4528      2.3575      2.3286      2.3574      2.4529      2.6390      2.9462      3.3940      3.9697    
  4.6151      5.3199      11.402      14.050      15.641      15.640      14.048      11.400      8.5633      6.3408    
  5.0270      4.1984      3.4945      2.9699      2.6305      2.4402      2.3574      2.3574      2.4404      2.6309    
  2.9703      3.4944      4.1975      5.0255      6.3397      8.5635      22.695      26.861      28.397      26.860    
  22.694      17.100      11.640      7.6077      5.4096      4.3494      3.5496      2.9790      2.6307      2.4528    
  2.3991      2.4529      2.6309      2.9790      3.5491      4.3485      5.4088      7.6077      11.641      17.101    
  41.209      45.962      45.963      41.211      32.949      23.320      14.679      8.6974      5.6594      4.4017    
  3.5495      2.9705      2.6390      2.4934      2.4934      2.6390      2.9703      3.5491      4.4013      5.6597    
  8.6986      14.681      23.320      32.947      65.511      69.047      65.514      55.789      42.274      28.201    
  16.582      9.1299      5.6590      4.3484      3.4946      2.9463      2.6586      2.5707      2.6586      2.9462    
  3.4944      4.3485      5.6597      9.1315      16.584      28.201      42.272      55.785      91.646      91.647    
  82.620      66.771      47.862      30.056      16.583      8.6976      5.4084      4.1974      3.3941      2.9131    
  2.6967      2.6967      2.9131      3.3940      4.1975      5.4088      8.6986      16.584      30.056      47.860    
  66.768      82.617      113.98      108.30      92.659      70.864      47.860      28.201      14.681      7.6077    
  5.0255      3.9697      3.2643      2.8815      2.7627      2.8815      3.2643      3.9697      5.0255      7.6077    
  14.681      28.201      47.860      70.864      92.659      108.30      126.91      114.44      92.658      66.767    
  42.271      23.320      11.642      6.3401      4.6153      3.6972      3.1262      2.8640      2.8640      3.1263    
  3.6972      4.6151      6.3397      11.641      23.320      42.272      66.768      92.659      114.44      126.91    
  126.91      108.30      82.617      55.784      32.947      17.101      8.5639      5.3202      4.1697      3.4168    
  3.0007      2.8704      3.0008      3.4168      4.1696      5.3199      8.5635      17.101      32.947      55.785    
  82.617      108.30      126.91      133.73      77.591      58.446      38.850      22.695      12.022      6.6923    
  4.7853      3.8458      3.2154      2.8757      2.7705      2.8758      3.2156      3.8460      4.7853      6.6918    
  12.021      22.694      38.850      58.446      77.593      91.646      96.819      91.645      58.446      41.001    
  25.343      14.050      7.7265      5.1670      4.1238      3.3979      2.9635      2.7678      2.7678      2.9636    
  3.3981      4.1240      5.1668      7.7257      14.049      25.342      41.002      58.447      73.688      82.617    
  82.616      73.686      38.850      25.343      14.811      8.3743      5.4663      4.3259      3.5469      3.0442    
  2.7792      2.6980      2.7792      3.0444      3.5473      4.3261      5.4659      8.3729      14.809      25.343    
  38.851      52.579      62.916      66.768      62.914      52.576      22.695      14.050      8.3743      5.5829    
  4.4313      3.6438      3.1050      2.7948      2.6579      2.6578      2.7948      3.1052      3.6444      4.4318    
  5.5825      8.3726      14.048      22.694      32.949      42.274      47.862      47.860      42.271      32.947    
  12.022      7.7265      5.4663      4.4313      3.6774      3.1373      2.8068      2.6376      2.5865      2.6375    
  2.8067      3.1376      3.6782      4.4323      5.4664      7.7251      12.020      18.153      24.826      30.056    
  32.042      30.056      24.826      18.155      6.6923      5.1670      4.3259      3.6438      3.1373      2.8112    
  2.6295      2.5508      2.5507      2.6292      2.8109      3.1375      3.6447      4.3272      5.1677      6.6917    
  9.4007      13.027      16.582      18.799      18.800      16.584      13.030      9.4026      4.7853      4.1238    