fcc Ni                                  
   3.75000000000000     
     0.000000    0.500000    0.500000
     0.500000    0.000000    0.500000
     0.500000    0.500000    0.000000
   Ni
     1
Direct
  0.000000  0.000000  0.000000
 
   24   24   24
 0.18353864201E+03 0.17422516757E+03 0.14884828689E+03 0.11398399940E+03 0.77591254173E+02
 0.46361141634E+02 0.24118138840E+02 0.11436951478E+02 0.61639783587E+01 0.45738893047E+01
 0.37030393720E+01 0.32034659854E+01 0.30443610915E+01 0.32034659854E+01 0.37030393720E+01
 0.45738893047E+01 0.61639783587E+01 0.11436951478E+02 0.24118138840E+02 0.46361141634E+02
 0.77591254173E+02 0.11398399940E+03 0.14884828689E+03 0.17422516757E+03 0.17422516757E+03
 0.15690160474E+03 0.12691770848E+03 0.91646794967E+02 0.58445597744E+02 0.32515771445E+02
 0.15950142316E+02 0.78329599653E+01 0.50907652300E+01 0.40475026809E+01 0.33772709398E+01
 0.30609816619E+01 0.30610033621E+01 0.33772989212E+01 0.40474707982E+01 0.50907400606E+01
 0.78332901930E+01 0.15951224773E+02 0.32517370116E+02 0.58446452709E+02 0.91645391200E+02
 0.12691387828E+03 0.15689731827E+03 0.17422328601E+03 0.14884828689E+03 0.12691770848E+03
 0.96820903764E+02 0.65510233801E+02 0.38849712252E+02 0.20153934285E+02 0.97965726635E+01
 0.56823709841E+01 0.43669817722E+01 0.35596483667E+01 0.31050639422E+01 0.29615064382E+01
 0.31051274995E+01 0.35596645836E+01 0.43668370223E+01 0.56822335137E+01 0.97970190818E+01
 0.20155401651E+02 0.38851564642E+02 0.65510693991E+02 0.96818550818E+02 0.12691330216E+03
 0.14884473619E+03 0.15689731827E+03 0.11398399940E+03 0.91646794967E+02 0.65510233801E+02
 0.41208322394E+02 0.22694535123E+02 0.11401991405E+02 0.62923799980E+01 0.46214953143E+01
 0.37236519004E+01 0.31620998934E+01 0.29033626432E+01 0.29034156079E+01 0.31622158160E+01
 0.37236788350E+01 0.46212554447E+01 0.62919556131E+01 0.11401847129E+02 0.22695090049E+02
 0.41209322014E+02 0.65510788832E+02 0.91646288554E+02 0.11398288280E+03 0.12691330216E+03
 0.12691387828E+03 0.77591254173E+02 0.58445597744E+02 0.38849712252E+02 0.22694535123E+02
 0.12022212962E+02 0.66922826923E+01 0.47853487068E+01 0.38457996090E+01 0.32153916832E+01
 0.28756760611E+01 0.27704907225E+01 0.28757755273E+01 0.32155977949E+01 0.38459993599E+01
 0.47852830757E+01 0.66917589554E+01 0.12021377088E+02 0.22693886067E+02 0.38849767547E+02
 0.58446470079E+02 0.77592504253E+02 0.91646288554E+02 0.96818550818E+02 0.91645391200E+02
 0.46361141634E+02 0.32515771445E+02 0.20153934285E+02 0.11401991405E+02 0.66922826923E+01
 0.48440238252E+01 0.39104962457E+01 0.32519850752E+01 0.28653185741E+01 0.26928913047E+01
 0.26928887712E+01 0.28653756404E+01 0.32522387967E+01 0.39109910951E+01 0.48445373969E+01
 0.66923700011E+01 0.11401340975E+02 0.20152737762E+02 0.32514653607E+02 0.46360617953E+02
 0.58446470079E+02 0.65510788832E+02 0.65510693991E+02 0.58446452709E+02 0.24118138840E+02
 0.15950142316E+02 0.97965726635E+01 0.62923799980E+01 0.47853487068E+01 0.39104962457E+01
 0.32648608053E+01 0.28624854350E+01 0.26544139893E+01 0.25911912556E+01 0.26542903432E+01
 0.28623133344E+01 0.32648847432E+01 0.39110477085E+01 0.47864924891E+01 0.62936163999E+01
 0.97970103293E+01 0.15949116663E+02 0.24115783109E+02 0.32514653607E+02 0.38849767547E+02
 0.41209322014E+02 0.38851564642E+02 0.32517370116E+02 0.11436951478E+02 0.78329599653E+01
 0.56823709841E+01 0.46214953143E+01 0.38457996090E+01 0.32519850752E+01 0.28624854350E+01
 0.26430314933E+01 0.25474198258E+01 0.25473813912E+01 0.26428153495E+01 0.28619784250E+01
 0.32514167631E+01 0.38458019291E+01 0.46226089248E+01 0.56843310969E+01 0.78345388850E+01
 0.11436794362E+02 0.15949116663E+02 0.20152737762E+02 0.22693886067E+02 0.22695090049E+02
 0.20155401651E+02 0.15951224773E+02 0.61639783587E+01 0.50907652300E+01 0.43669817722E+01
 0.37236519004E+01 0.32153916832E+01 0.28653185741E+01 0.26544139893E+01 0.25474198258E+01
 0.25154179789E+01 0.25475895652E+01 0.26544158664E+01 0.28647496165E+01 0.32142600815E+01
 0.37226538218E+01 0.43670839036E+01 0.50922608458E+01 0.61660053346E+01 0.78345388850E+01
 0.97970103293E+01 0.11401340975E+02 0.12021377088E+02 0.11401847129E+02 0.97970190818E+01
 0.78332901930E+01 0.45738893047E+01 0.40475026809E+01 0.35596483667E+01 0.31620998934E+01
 0.28756760611E+01 0.26928913047E+01 0.25911912556E+01 0.25473813912E+01 0.25475895652E+01
 0.25917494392E+01 0.26934785512E+01 0.28756814074E+01 0.31610839523E+01 0.35579553214E+01
 0.40462173144E+01 0.45739858761E+01 0.50922608458E+01 0.56843310969E+01 0.62936163999E+01
 0.66923700011E+01 0.66917589554E+01 0.62919556131E+01 0.56822335137E+01 0.50907400606E+01
 0.37030393720E+01 0.33772709398E+01 0.31050639422E+01 0.29033626432E+01 0.27704907225E+01
 0.26928887712E+01 0.26542903432E+01 0.26428153495E+01 0.26544158664E+01 0.26934785512E+01
 0.27716125312E+01 0.29043882506E+01 0.31050631195E+01 0.33759163865E+01 0.37010797573E+01
 0.40462173144E+01 0.43670839036E+01 0.46226089248E+01 0.47864924891E+01 0.48445373969E+01
 0.47852830757E+01 0.46212554447E+01 0.43668370223E+01 0.40474707982E+01 0.32034659854E+01
 0.30609816619E+01 0.29615064382E+01 0.29034156079E+01 0.28757755273E+01 0.28653756404E+01
 0.28623133344E+01 0.28619784250E+01 0.28647496165E+01 0.28756814074E+01 0.29043882506E+01
 0.29631973326E+01 0.30622874748E+01 0.32034123105E+01 0.33759163865E+01 0.35579553214E+01
 0.37226538218E+01 0.38458019291E+01 0.39110477085E+01 0.39109910951E+01 0.38459993599E+01
 0.37236788350E+01 0.35596645836E+01 0.33772989212E+01 0.30443610915E+01 0.30610033621E+01
 0.31051274995E+01 0.31622158160E+01 0.32155977949E+01 0.32522387967E+01 0.32648847432E+01
 0.32514167631E+01 0.32142600815E+01 0.31610839523E+01 0.31050631195E+01 0.30622874748E+01
 0.30462647611E+01 0.30622874748E+01 0.31050631195E+01 0.31610839523E+01 0.32142600815E+01
 0.32514167631E+01 0.32648847432E+01 0.32522387967E+01 0.32155977949E+01 0.31622158160E+01
 0.31051274995E+01 0.30610033621E+01 0.32034659854E+01 0.33772989212E+01 0.35596645836E+01
 0.37236788350E+01 0.38459993599E+01 0.39109910951E+01 0.39110477085E+01 0.38458019291E+01
 0.37226538218E+01 0.35579553214E+01 0.33759163865E+01 0.32034123105E+01 0.30622874748E+01
 0.29631973326E+01 0.29043882506E+01 0.28756814074E+01 0.28647496165E+01 0.28619784250E+01
 0.28623133344E+01 0.28653756404E+01 0.28757755273E+01 0.29034156079E+01 0.29615064382E+01
 0.30609816619E+01 0.37030393720E+01 0.40474707982E+01 0.43668370223E+01 0.46212554447E+01
 0.47852830757E+01 0.48445373969E+01 0.47864924891E+01 0.46226089248E+01 0.43670839036E+01
 0.40462173144E+01 0.37010797573E+01 0.33759163865E+01 0.31050631195E+01 0.29043882506E+01
 0.27716125312E+01 0.26934785512E+01 0.26544158664E+01 0.26428153495E+01 0.26542903432E+01
 0.26928887712E+01 0.27704907225E+01 0.29033626432E+01 0.31050639422E+01 0.33772709398E+01
 0.45738893047E+01 0.50907400606E+01 0.56822335137E+01 0.62919556131E+01 0.66917589554E+01
 0.66923700011E+01 0.62936163999E+01 0.56843310969E+01 0.50922608458E+01 0.45739858761E+01
 0.40462173144E+01 0.35579553214E+01 0.31610839523E+01 0.28756814074E+01 0.26934785512E+01
 0.25917494392E+01 0.25475895652E+01 0.25473813912E+01 0.25911912556E+01 0.26928913047E+01
 0.28756760611E+01 0.31620998934E+01 0.35596483667E+01 0.40475026809E+01 0.61639783587E+01
 0.78332901930E+01 0.97970190818E+01 0.11401847129E+02 0.12021377088E+02 0.11401340975E+02
 0.97970103293E+01 0.78345388850E+01 0.61660053346E+01 0.50922608458E+01 0.43670839036E+01
 0.37226538218E+01 0.32142600815E+01 0.28647496165E+01 0.26544158664E+01 0.25475895652E+01
 0.25154179789E+01 0.25474198258E+01 0.26544139893E+01 0.28653185741E+01 0.32153916832E+01
 0.37236519004E+01 0.43669817722E+01 0.50907652300E+01 0.11436951478E+02 0.15951224773E+02
 0.20155401651E+02 0.22695090049E+02 0.22693886067E+02 0.20152737762E+02 0.15949116663E+02
 0.11436794362E+02 0.78345388850E+01 0.56843310969E+01 0.46226089248E+01 0.38458019291E+01
 0.32514167631E+01 0.28619784250E+01 0.26428153495E+01 0.25473813912E+01 0.25474198258E+01
 0.26430314933E+01 0.28624854350E+01 0.32519850752E+01 0.38457996090E+01 0.46214953143E+01
 0.56823709841E+01 0.78329599653E+01 0.24118138840E+02 0.32517370116E+02 0.38851564642E+02
 0.41209322014E+02 0.38849767547E+02 0.32514653607E+02 0.24115783109E+02 0.15949116663E+02
 0.97970103293E+01 0.62936163999E+01 0.47864924891E+01 0.39110477085E+01 0.32648847432E+01
 0.28623133344E+01 0.26542903432E+01 0.25911912556E+01 0.26544139893E+01 0.28624854350E+01
 0.32648608053E+01 0.39104962457E+01 0.47853487068E+01 0.62923799980E+01 0.97965726635E+01
 0.15950142316E+02 0.46361141634E+02 0.58446452709E+02 0.65510693991E+02 0.65510788832E+02
 0.58446470079E+02 0.46360617953E+02 0.32514653607E+02 0.20152737762E+02 0.11401340975E+02
 0.66923700011E+01 0.48445373969E+01 0.39109910951E+01 0.32522387967E+01 0.28653756404E+01
 0.26928887712E+01 0.26928913047E+01 0.28653185741E+01 0.32519850752E+01 0.39104962457E+01
 0.48440238252E+01 0.66922826923E+01 0.11401991405E+02 0.20153934285E+02 0.32515771445E+02
 0.77591254173E+02 0.91645391200E+02 0.96818550818E+02 0.91646288554E+02 0.77592504253E+02
 0.58446470079E+02 0.38849767547E+02 0.22693886067E+02 0.12021377088E+02 0.66917589554E+01
 0.47852830757E+01 0.38459993599E+01 0.32155977949E+01 0.28757755273E+01 0.27704907225E+01
 0.28756760611E+01 0.32153916832E+01 0.38457996090E+01 0.47853487068E+01 0.66922826923E+01
 0.12022212962E+02 0.22694535123E+02 0.38849712252E+02 0.58445597744E+02 0.11398399940E+03
 0.12691387828E+03 0.12691330216E+03 0.11398288280E+03 0.91646288554E+02 0.65510788832E+02
 0.41209322014E+02 0.22695090049E+02 0.11401847129E+02 0.62919556131E+01 0.46212554447E+01
 0.37236788350E+01 0.31622158160E+01 0.29034156079E+01 0.29033626432E+01 0.31620998934E+01
 0.37236519004E+01 0.46214953143E+01 0.62923799980E+01 0.11401991405E+02 0.22694535123E+02
 0.41208322394E+02 0.65510233801E+02 0.91646794967E+02 0.14884828689E+03 0.15689731827E+03
 0.14884473619E+03 0.12691330216E+03 0.96818550818E+02 0.65510693991E+02 0.38851564642E+02
 0.20155401651E+02 0.97970190818E+01 0.56822335137E+01 0.43668370223E+01 0.35596645836E+01
 0.31051274995E+01 0.29615064382E+01 0.31050639422E+01 0.35596483667E+01 0.43669817722E+01
 0.56823709841E+01 0.97965726635E+01 0.20153934285E+02 0.38849712252E+02 0.65510233801E+02
 0.96820903764E+02 0.12691770848E+03 0.17422516757E+03 0.17422328601E+03 0.15689731827E+03
 0.12691387828E+03 0.91645391200E+02 0.58446452709E+02 0.32517370116E+02 0.15951224773E+02
 0.78332901930E+01 0.50907400606E+01 0.40474707982E+01 0.33772989212E+01 0.30610033621E+01
 0.30609816619E+01 0.33772709398E+01 0.40475026809E+01 0.50907652300E+01 0.78329599653E+01
 0.15950142316E+02 0.32515771445E+02 0.58445597744E+02 0.91646794967E+02 0.12691770848E+03
 0.15690160474E+03 0.17422516757E+03 0.15690160474E+03 0.12691770848E+03 0.91646794967E+02
 0.58445597744E+02 0.32515771445E+02 0.15950142316E+02 0.78329599653E+01 0.50907652300E+01
 0.40475026809E+01 0.33772709398E+01 0.30609816619E+01 0.30610033621E+01 0.33772989212E+01
 0.40474707982E+01 0.50907400606E+01 0.78332901930E+01 0.15951224773E+02 0.32517370116E+02
 0.58446452709E+02 0.91645391200E+02 0.12691387828E+03 0.15689731827E+03 0.17422328601E+03
 0.15690160474E+03 0.13373242100E+03 0.10199783764E+03 0.69045630775E+02 0.41001082534E+02
 0.21281063705E+02 0.10264839750E+02 0.58223293819E+01 0.44350872046E+01 0.36097614441E+01
 0.31418086250E+01 0.29935670278E+01 0.31418668250E+01 0.36097597042E+01 0.44349446762E+01
 0.58223391380E+01 0.10265739285E+02 0.21283260976E+02 0.41003511221E+02 0.69045833544E+02
 0.10199404471E+03 0.13372590346E+03 0.15689648340E+03 0.16541477744E+03 0.12691770848E+03
 0.10199783764E+03 0.72936924458E+02 0.45960742369E+02 0.25343004432E+02 0.12609377345E+02
 0.66955799548E+01 0.47630199385E+01 0.38302006763E+01 0.32373485059E+01 0.29618447946E+01
 0.29618913170E+01 0.32374198519E+01 0.38301137249E+01 0.47626893531E+01 0.66953950229E+01
 0.12610119927E+02 0.25344917818E+02 0.45962640744E+02 0.72936800905E+02 0.10199491079E+03
 0.12691376906E+03 0.14138140855E+03 0.14138323836E+03 0.91646794967E+02 0.69045630775E+02
 0.45960742369E+02 0.26860491691E+02 0.14050100530E+02 0.74352345140E+01 0.50152141158E+01
 0.40088192417E+01 0.33283736224E+01 0.29563260159E+01 0.28403551605E+01 0.29564167591E+01
 0.33284843352E+01 0.40087419478E+01 0.50147592553E+01 0.74345788896E+01 0.14049830586E+02
 0.26861087472E+02 0.45962021027E+02 0.69046870434E+02 0.91647453385E+02 0.10829697946E+03
 0.11444001708E+03 0.10829682305E+03 0.58445597744E+02 0.41001082534E+02 0.25343004432E+02
 0.14050100530E+02 0.77264562406E+01 0.51669910454E+01 0.41238392767E+01 0.33978608696E+01
 0.29634753965E+01 0.27678087197E+01 0.27678312416E+01 0.29635884502E+01 0.33980933788E+01
 0.41240234052E+01 0.51667845736E+01 0.77256665000E+01 0.14049046301E+02 0.25342485557E+02
 0.41001810311E+02 0.58447494293E+02 0.73688406411E+02 0.82617334431E+02 0.82616455835E+02
 0.73686364806E+02 0.32515771445E+02 0.21281063705E+02 0.12609377345E+02 0.74352345140E+01
 0.51669910454E+01 0.41633694706E+01 0.34349487870E+01 0.29719498193E+01 0.27299106584E+01
 0.26559677588E+01 0.27298497144E+01 0.29719693436E+01 0.34352359417E+01 0.41639374716E+01
 0.51675072382E+01 0.74351969627E+01 0.12608608234E+02 0.21279998748E+02 0.32515109112E+02
 0.43962038463E+02 0.52577132784E+02 0.55785150726E+02 0.52576857901E+02 0.43962030640E+02
 0.15950142316E+02 0.10264839750E+02 0.66955799548E+01 0.50152141158E+01 0.41238392767E+01
 0.34349487870E+01 0.29753953575E+01 0.27143094190E+01 0.25999386320E+01 0.25998576220E+01
 0.27140662039E+01 0.29750973915E+01 0.34349260350E+01 0.41244525170E+01 0.50164293019E+01
 0.66967720933E+01 0.10265141895E+02 0.15949106839E+02 0.22838204915E+02 0.29153915780E+02
 0.32946615839E+02 0.32947398410E+02 0.29155827278E+02 0.22840194280E+02 0.78329599653E+01
 0.58223293819E+01 0.47630199385E+01 0.40088192417E+01 0.33978608696E+01 0.29719498193E+01
 0.27143094190E+01 0.25833051054E+01 0.25439423023E+01 0.25832593073E+01 0.27139938856E+01
 0.29712555826E+01 0.33971352827E+01 0.40087771005E+01 0.47641308500E+01 0.58241864163E+01
 0.78343756629E+01 0.10890752033E+02 0.14343937090E+02 0.17099804363E+02 0.18153931015E+02
 0.17101087917E+02 0.14345248309E+02 0.10890784729E+02 0.50907652300E+01 0.44350872046E+01
 0.38302006763E+01 0.33283736224E+01 0.29634753965E+01 0.27299106584E+01 0.25999386320E+01
 0.25439423023E+01 0.25441029521E+01 0.26002466115E+01 0.27299192291E+01 0.29627710501E+01
 0.33270584410E+01 0.38290716042E+01 0.44350974716E+01 0.50921434366E+01 0.59983352236E+01
 0.72604013033E+01 0.85641806156E+01 0.94017803995E+01 0.94016252907E+01 0.85634687737E+01
 0.72588496645E+01 0.59963518564E+01 0.40475026809E+01 0.36097614441E+01 0.32373485059E+01
 0.29563260159E+01 0.27678087197E+01 0.26559677588E+01 0.25998576220E+01 0.25832593073E+01
 0.26002466115E+01 0.26567080284E+01 0.27685298058E+01 0.29563369019E+01 0.32362306295E+01
 0.36079620049E+01 0.40461707082E+01 0.45019562871E+01 0.49219455107E+01 0.53219608987E+01
 0.56546374837E+01 0.57872131268E+01 0.56531927841E+01 0.53198567469E+01 0.49203825699E+01
 0.45018510559E+01 0.33772709398E+01 0.31418086250E+01 0.29618447946E+01 0.28403551605E+01
 0.27678312416E+01 0.27298497144E+01 0.27140662039E+01 0.27139938856E+01 0.27299192291E+01
 0.27685298058E+01 0.28416589825E+01 0.29629699660E+01 0.31417939857E+01 0.33758966992E+01
 0.36472557686E+01 0.39242543464E+01 0.41698648878E+01 0.43514160994E+01 0.44469369319E+01
 0.44464182902E+01 0.43504460883E+01 0.41696255993E+01 0.39253605282E+01 0.36491313901E+01
 0.30609816619E+01 0.29935670278E+01 0.29618913170E+01 0.29564167591E+01 0.29635884502E+01
 0.29719693436E+01 0.29750973915E+01 0.29712555826E+01 0.29627710501E+01 0.29563369019E+01
 0.29629699660E+01 0.29953216664E+01 0.30622682139E+01 0.31635407883E+01 0.32877704225E+01
 0.34153218255E+01 0.35243818915E+01 0.35970064774E+01 0.36224192133E+01 0.35973470755E+01
 0.35253538048E+01 0.34168431955E+01 0.32890343018E+01 0.31636010408E+01 0.30610033621E+01
 0.31418668250E+01 0.32374198519E+01 0.33284843352E+01 0.33980933788E+01 0.34352359417E+01
 0.34349260350E+01 0.33971352827E+01 0.33270584410E+01 0.32362306295E+01 0.31417939857E+01
 0.30622682139E+01 0.30112930551E+01 0.29928434793E+01 0.30007169109E+01 0.30224158948E+01
 0.30448630480E+01 0.30586114610E+01 0.30590492786E+01 0.30459244679E+01 0.30234007631E+01
 0.30007927140E+01 0.29916748601E+01 0.30094837254E+01 0.33772989212E+01 0.36097597042E+01
 0.38301137249E+01 0.40087419478E+01 0.41240234052E+01 0.41639374716E+01 0.41244525170E+01
 0.40087771005E+01 0.38290716042E+01 0.36079620049E+01 0.33758966992E+01 0.31635407883E+01
 0.29928434793E+01 0.28719107455E+01 0.27962092911E+01 0.27544115869E+01 0.27348347458E+01
 0.27294302757E+01 0.27351698466E+01 0.27544715631E+01 0.27954236233E+01 0.28704474769E+01
 0.29916538484E+01 0.31636010408E+01 0.40474707982E+01 0.44349446762E+01 0.47626893531E+01
 0.50147592553E+01 0.51667845736E+01 0.51675072382E+01 0.50164293019E+01 0.47641308500E+01
 0.44350974716E+01 0.40461707082E+01 0.36472557686E+01 0.32877704225E+01 0.30007169109E+01
 0.27962092911E+01 0.26658968065E+01 0.25929174268E+01 0.25611393627E+01 0.25610307674E+01
 0.25924650864E+01 0.26650301374E+01 0.27953743362E+01 0.30007206918E+01 0.32890030850E+01
 0.36491313901E+01 0.50907400606E+01 0.58223391380E+01 0.66953950229E+01 0.74345788896E+01
 0.77256665000E+01 0.74351969627E+01 0.66967720933E+01 0.58241864163E+01 0.50921434366E+01
 0.45019562871E+01 0.39242543464E+01 0.34153218255E+01 0.30224158948E+01 0.27544115869E+01
 0.25929174268E+01 0.25105488243E+01 0.24856334306E+01 0.25102177672E+01 0.25925045884E+01
 0.27544143930E+01 0.30232529238E+01 0.34167797316E+01 0.39253966309E+01 0.45018510559E+01
 0.78332901930E+01 0.10265739285E+02 0.12610119927E+02 0.14049830586E+02 0.14049046301E+02
 0.12608608234E+02 0.10265141895E+02 0.78343756629E+01 0.59983352236E+01 0.49219455107E+01
 0.41698648878E+01 0.35243818915E+01 0.30448630480E+01 0.27348347458E+01 0.25611393627E+01
 0.24856334306E+01 0.24855851366E+01 0.25611578965E+01 0.27352422553E+01 0.30457233347E+01
 0.35251768474E+01 0.41697326487E+01 0.49205100057E+01 0.59963518564E+01 0.15951224773E+02
 0.21283260976E+02 0.25344917818E+02 0.26861087472E+02 0.25342485557E+02 0.21279998748E+02
 0.15949106839E+02 0.10890752033E+02 0.72604013033E+01 0.53219608987E+01 0.43514160994E+01
 0.35970064774E+01 0.30586114610E+01 0.27294302757E+01 0.25610307674E+01 0.25102177672E+01
 0.25611578965E+01 0.27297480706E+01 0.30589828091E+01 0.35969587142E+01 0.43504674772E+01
 0.53202343932E+01 0.72588941492E+01 0.10890784729E+02 0.32517370116E+02 0.41003511221E+02
 0.45962640744E+02 0.45962021027E+02 0.41001810311E+02 0.32515109112E+02 0.22838204915E+02
 0.14343937090E+02 0.85641806156E+01 0.56546374837E+01 0.44469369319E+01 0.36224192133E+01
 0.30590492786E+01 0.27351698466E+01 0.25924650864E+01 0.25925045884E+01 0.27352422553E+01
 0.30589828091E+01 0.36219622388E+01 0.44460322726E+01 0.56536952741E+01 0.85639373089E+01
 0.14344898486E+02 0.22840194280E+02 0.58446452709E+02 0.69045833544E+02 0.72936800905E+02
 0.69046870434E+02 0.58447494293E+02 0.43962038463E+02 0.29153915780E+02 0.17099804363E+02
 0.94017803995E+01 0.57872131268E+01 0.44464182902E+01 0.35973470755E+01 0.30459244679E+01
 0.27544715631E+01 0.26650301374E+01 0.27544143930E+01 0.30457233347E+01 0.35969587142E+01
 0.44460322726E+01 0.57872733243E+01 0.94026384534E+01 0.17101224950E+02 0.29155029545E+02
 0.43962030640E+02 0.91645391200E+02 0.10199404471E+03 0.10199491079E+03 0.91647453385E+02
 0.73688406411E+02 0.52577132784E+02 0.32946615839E+02 0.18153931015E+02 0.94016252907E+01
 0.56531927841E+01 0.43504460883E+01 0.35253538048E+01 0.30234007631E+01 0.27954236233E+01
 0.27953743362E+01 0.30232529238E+01 0.35251768474E+01 0.43504674772E+01 0.56536952741E+01
 0.94026384534E+01 0.18154993895E+02 0.32946936895E+02 0.52576155926E+02 0.73686364806E+02
 0.12691387828E+03 0.13372590346E+03 0.12691376906E+03 0.10829697946E+03 0.82617334431E+02
 0.55785150726E+02 0.32947398410E+02 0.17101087917E+02 0.85634687737E+01 0.53198567469E+01
 0.41696255993E+01 0.34168431955E+01 0.30007927140E+01 0.28704474769E+01 0.30007206918E+01
 0.34167797316E+01 0.41697326487E+01 0.53202343932E+01 0.85639373089E+01 0.17101224950E+02
 0.32946936895E+02 0.55784324262E+02 0.82616692663E+02 0.10829682305E+03 0.15689731827E+03
 0.15689648340E+03 0.14138140855E+03 0.11444001708E+03 0.82616455835E+02 0.52576857901E+02
 0.29155827278E+02 0.14345248309E+02 0.72588496645E+01 0.49203825699E+01 0.39253605282E+01
 0.32890343018E+01 0.29916748601E+01 0.29916538484E+01 0.32890030850E+01 0.39253966309E+01
 0.49205100057E+01 0.72588941492E+01 0.14344898486E+02 0.29155029545E+02 0.52576155926E+02
 0.82616692663E+02 0.11444146627E+03 0.14138323836E+03 0.17422328601E+03 0.16541477744E+03
 0.14138323836E+03 0.10829682305E+03 0.73686364806E+02 0.43962030640E+02 0.22840194280E+02
 0.10890784729E+02 0.59963518564E+01 0.45018510559E+01 0.36491313901E+01 0.31636010408E+01
 0.30094837254E+01 0.31636010408E+01 0.36491313901E+01 0.45018510559E+01 0.59963518564E+01
 0.10890784729E+02 0.22840194280E+02 0.43962030640E+02 0.73686364806E+02 0.10829682305E+03
 0.14138323836E+03 0.16541477744E+03 0.14884828689E+03 0.12691770848E+03 0.96820903764E+02
 0.65510233801E+02 0.38849712252E+02 0.20153934285E+02 0.97965726635E+01 0.56823709841E+01
 0.43669817722E+01 0.35596483667E+01 0.31050639422E+01 0.29615064382E+01 0.31051274995E+01
 0.35596645836E+01 0.43668370223E+01 0.56822335137E+01 0.97970190818E+01 0.20155401651E+02
 0.38851564642E+02 0.65510693991E+02 0.96818550818E+02 0.12691330216E+03 0.14884473619E+03
 0.15689731827E+03 0.12691770848E+03 0.10199783764E+03 0.72936924458E+02 0.45960742369E+02
 0.25343004432E+02 0.12609377345E+02 0.66955799548E+01 0.47630199385E+01 0.38302006763E+01
 0.32373485059E+01 0.29618447946E+01 0.29618913170E+01 0.32374198519E+01 0.38301137249E+01
 0.47626893531E+01 0.66953950229E+01 0.12610119927E+02 0.25344917818E+02 0.45962640744E+02
 0.72936800905E+02 0.10199491079E+03 0.12691376906E+03 0.14138140855E+03 0.14138323836E+03
 0.96820903764E+02 0.72936924458E+02 0.48569428655E+02 0.28396931063E+02 0.14810604206E+02
 0.77226236338E+01 0.51001981807E+01 0.40654313681E+01 0.33680334657E+01 0.29846580366E+01
 0.28648599114E+01 0.29847362388E+01 0.33680878631E+01 0.40652260056E+01 0.50995962571E+01
 0.77219748944E+01 0.14810666511E+02 0.28398125805E+02 0.48571220354E+02 0.72938222001E+02
 0.96821167928E+02 0.11444120396E+03 0.12094857594E+03 0.11444146627E+03 0.65510233801E+02
 0.45960742369E+02 0.28396931063E+02 0.15642000779E+02 0.83742790713E+01 0.53632888922E+01
 0.42365603760E+01 0.34763788842E+01 0.30164103588E+01 0.28079915218E+01 0.28080211358E+01
 0.30165203141E+01 0.34765099767E+01 0.42364219981E+01 0.53625330231E+01 0.83729737065E+01
 0.15640915511E+02 0.28397188768E+02 0.45962963425E+02 0.65513849919E+02 0.82620067528E+02
 0.92659255995E+02 0.92657880540E+02 0.82616692663E+02 0.38849712252E+02 0.25343004432E+02
 0.14810604206E+02 0.83742790713E+01 0.54663296572E+01 0.43258984902E+01 0.35469340741E+01
 0.30442308523E+01 0.27792288429E+01 0.26979551322E+01 0.27792279566E+01 0.30443685366E+01
 0.35472648164E+01 0.43261339907E+01 0.54659073549E+01 0.83729385818E+01 0.14809017362E+02
 0.25342605660E+02 0.38851491988E+02 0.52579437379E+02 0.62916378459E+02 0.66768188806E+02
 0.62913765937E+02 0.52576155926E+02 0.20153934285E+02 0.12609377345E+02 0.77226236338E+01
 0.53632888922E+01 0.43258984902E+01 0.35712849269E+01 0.30598613157E+01 0.27669151280E+01
 0.26379683383E+01 0.26378954354E+01 0.27667757249E+01 0.30598824675E+01 0.35716909934E+01
 0.43265864260E+01 0.53637068752E+01 0.77222181888E+01 0.12608259263E+02 0.20152922956E+02
 0.29154845539E+02 0.37356452185E+02 0.42272098785E+02 0.42271783053E+02 0.37355973305E+02
 0.29155029545E+02 0.97965726635E+01 0.66955799548E+01 0.51001981807E+01 0.42365603760E+01
 0.35469340741E+01 0.30598613157E+01 0.27636170235E+01 0.26124989514E+01 0.25669147604E+01
 0.26123339564E+01 0.27632679521E+01 0.30595011477E+01 0.35469623181E+01 0.42372580007E+01
 0.51013295335E+01 0.66964344117E+01 0.97964910747E+01 0.14343809094E+02 0.19361447705E+02
 0.23318956790E+02 0.24825381055E+02 0.23320007931E+02 0.19362949800E+02 0.14344898486E+02
 0.56823709841E+01 0.47630199385E+01 0.40654313681E+01 0.34763788842E+01 0.30442308523E+01
 0.27669151280E+01 0.26124989514E+01 0.25458160631E+01 0.25458552222E+01 0.26124639714E+01
 0.27665215064E+01 0.30434408520E+01 0.34756282659E+01 0.40653919920E+01 0.47639927601E+01
 0.56838754041E+01 0.72599785043E+01 0.94446996458E+01 0.11640512425E+02 0.13027820617E+02
 0.13028162057E+02 0.11641077744E+02 0.94446114929E+01 0.72588941492E+01 0.43669817722E+01
 0.38302006763E+01 0.33680334657E+01 0.30164103588E+01 0.27792288429E+01 0.26379683383E+01
 0.25669147604E+01 0.25458552222E+01 0.25672482506E+01 0.26383758658E+01 0.27792426955E+01
 0.30156585282E+01 0.33666893082E+01 0.38290604436E+01 0.43669003992E+01 0.49216746418E+01
 0.55659853398E+01 0.63412726436E+01 0.70158221515E+01 0.72856941720E+01 0.70149662716E+01
 0.63396892592E+01 0.55641862329E+01 0.49205100057E+01 0.35596483667E+01 0.32373485059E+01
 0.29846580366E+01 0.28079915218E+01 0.26979551322E+01 0.26378954354E+01 0.26123339564E+01
 0.26124639714E+01 0.26383758658E+01 0.26988070340E+01 0.28087941826E+01 0.29846850224E+01
 0.32362369851E+01 0.35579109782E+01 0.39241593829E+01 0.42929060939E+01 0.46164774227E+01
 0.48594093677E+01 0.50002275108E+01 0.49995056839E+01 0.48577576745E+01 0.46150801317E+01
 0.42927758609E+01 0.39253966309E+01 0.31050639422E+01 0.29618447946E+01 0.28648599114E+01
 0.28080211358E+01 0.27792279566E+01 0.27667757249E+01 0.27632679521E+01 0.27665215064E+01
 0.27792426955E+01 0.28087941826E+01 0.28662335491E+01 0.29629595411E+01 0.31050286297E+01
 0.32877315870E+01 0.34937423034E+01 0.36963148361E+01 0.38660871893E+01 0.39782210477E+01
 0.40170729857E+01 0.39777687829E+01 0.38659809292E+01 0.36972216557E+01 0.34953698355E+01
 0.32890030850E+01 0.29615064382E+01 0.29618913170E+01 0.29847362388E+01 0.30165203141E+01
 0.30443685366E+01 0.30598824675E+01 0.30595011477E+01 0.30434408520E+01 0.30156585282E+01
 0.29846850224E+01 0.29629595411E+01 0.29631512306E+01 0.29927994204E+01 0.30503870565E+01
 0.31252107564E+01 0.32010798883E+01 0.32617248151E+01 0.32951447533E+01 0.32954005925E+01
 0.32625383176E+01 0.32023265596E+01 0.31262715098E+01 0.30504540030E+01 0.29916538484E+01
 0.31051274995E+01 0.32374198519E+01 0.33680878631E+01 0.34765099767E+01 0.35472648164E+01
 0.35716909934E+01 0.35469623181E+01 0.34756282659E+01 0.33666893082E+01 0.32362369851E+01
 0.31050286297E+01 0.29927994204E+01 0.29120723911E+01 0.28649777428E+01 0.28447201404E+01
 0.28404121580E+01 0.28421330805E+01 0.28436539944E+01 0.28427733573E+01 0.28411496019E+01
 0.28448018595E+01 0.28640237795E+01 0.29105163661E+01 0.29916748601E+01 0.35596645836E+01
 0.38301137249E+01 0.40652260056E+01 0.42364219981E+01 0.43261339907E+01 0.43265864260E+01
 0.42372580007E+01 0.40653919920E+01 0.38290604436E+01 0.35579109782E+01 0.32877315870E+01
 0.30503870565E+01 0.28649777428E+01 0.27352519080E+01 0.26536362830E+01 0.26082066493E+01
 0.25885044291E+01 0.25885927943E+01 0.26081977990E+01 0.26530614839E+01 0.27341196699E+01
 0.28640052249E+01 0.30504540030E+01 0.32890343018E+01 0.43668370223E+01 0.47626893531E+01
 0.50995962571E+01 0.53625330231E+01 0.54659073549E+01 0.53637068752E+01 0.51013295335E+01
 0.47639927601E+01 0.43669003992E+01 0.39241593829E+01 0.34937423034E+01 0.31252107564E+01
 0.28447201404E+01 0.26536362830E+01 0.25375159081E+01 0.24775719187E+01 0.24592956799E+01
 0.24772815372E+01 0.25369243724E+01 0.26530383113E+01 0.28447368950E+01 0.31262336490E+01
 0.34953698355E+01 0.39253605282E+01 0.56822335137E+01 0.66953950229E+01 0.77219748944E+01
 0.83729737065E+01 0.83729385818E+01 0.77222181888E+01 0.66964344117E+01 0.56838754041E+01
 0.49216746418E+01 0.42929060939E+01 0.36963148361E+01 0.32010798883E+01 0.28404121580E+01
 0.26082066493E+01 0.24775719187E+01 0.24204887445E+01 0.24203652864E+01 0.24773380558E+01
 0.26082276194E+01 0.28410402028E+01 0.32022164292E+01 0.36972356255E+01 0.42927758609E+01
 0.49203825699E+01 0.97970190818E+01 0.12610119927E+02 0.14810666511E+02 0.15640915511E+02
 0.14809017362E+02 0.12608259263E+02 0.97964910747E+01 0.72599785043E+01 0.55659853398E+01
 0.46164774227E+01 0.38660871893E+01 0.32617248151E+01 0.28421330805E+01 0.25885044291E+01
 0.24592956799E+01 0.24203652864E+01 0.24593327878E+01 0.25887757839E+01 0.28427233298E+01
 0.32622928217E+01 0.38659622953E+01 0.46152656203E+01 0.55641862329E+01 0.72588496645E+01
 0.20155401651E+02 0.25344917818E+02 0.28398125805E+02 0.28397188768E+02 0.25342605660E+02
 0.20152922956E+02 0.14343809094E+02 0.94446996458E+01 0.63412726436E+01 0.48594093677E+01
 0.39782210477E+01 0.32951447533E+01 0.28436539944E+01 0.25885927943E+01 0.24772815372E+01
 0.24773380558E+01 0.25887757839E+01 0.28438778169E+01 0.32950840862E+01 0.39775135368E+01
 0.48581215923E+01 0.63401105669E+01 0.94446114929E+01 0.14345248309E+02 0.38851564642E+02
 0.45962640744E+02 0.48571220354E+02 0.45962963425E+02 0.38851491988E+02 0.29154845539E+02
 0.19361447705E+02 0.11640512425E+02 0.70158221515E+01 0.50002275108E+01 0.40170729857E+01
 0.32954005925E+01 0.28427733573E+01 0.26081977990E+01 0.25369243724E+01 0.26082276194E+01
 0.28427233298E+01 0.32950840862E+01 0.40164490706E+01 0.49996659703E+01 0.70159546705E+01
 0.11641601594E+02 0.19362949800E+02 0.29155827278E+02 0.65510693991E+02 0.72936800905E+02
 0.72938222001E+02 0.65513849919E+02 0.52579437379E+02 0.37356452185E+02 0.23318956790E+02
 0.13027820617E+02 0.72856941720E+01 0.49995056839E+01 0.39777687829E+01 0.32625383176E+01
 0.28411496019E+01 0.26530614839E+01 0.26530383113E+01 0.28410402028E+01 0.32622928217E+01
 0.39775135368E+01 0.49996659703E+01 0.72867264971E+01 0.13029565480E+02 0.23320291356E+02