   1   1   0   0
  0.1318359E+02  0.2651650E-09  0.2651650E-09  0.2651650E-09  0.5000000E-15
  1.000000000000000E-004
  CAR 
 fcc Ni                                  
     49.23178576     -3.18177594  301      6.92530489      1.00000000
     -3.182  0.0000E+00  0.0000E+00  0.0000E+00  0.0000E+00
     -3.007  0.0000E+00  0.0000E+00  0.0000E+00  0.0000E+00
     -2.832  0.0000E+00  0.0000E+00  0.0000E+00  0.0000E+00
     -2.658  0.0000E+00  0.0000E+00  0.0000E+00  0.0000E+00
     -2.483 -0.4609E-34 -0.4566E-32 -0.8052E-35 -0.7976E-33
     -2.308 -0.7562E-28 -0.4653E-26 -0.1321E-28 -0.8129E-27
     -2.134 -0.2663E-22 -0.1017E-20 -0.4653E-23 -0.1777E-21
     -1.959 -0.2006E-17 -0.4620E-16 -0.3505E-18 -0.8073E-17
     -1.784 -0.3100E-13 -0.4518E-12 -0.5416E-14 -0.7894E-13
     -1.609 -0.1032E-09 -0.9244E-09 -0.1804E-10 -0.1616E-09
     -1.435 -0.7063E-07 -0.3845E-06 -0.1236E-07 -0.6733E-07
     -1.260 -0.9452E-05 -0.3038E-04 -0.1664E-05 -0.5376E-05
     -1.085 -0.2110E-03 -0.3508E-03 -0.3853E-04 -0.6667E-04
     -0.911 -0.6065E-04  0.8635E-03 -0.4913E-04  0.8420E-04
     -0.736  0.5236E-02  0.8058E-02  0.8657E-03  0.1492E-02
     -0.561  0.1674E-01  0.2110E-01  0.3791E-02  0.5178E-02
     -0.386  0.2686E-01  0.2720E-01  0.8484E-02  0.9931E-02
     -0.212  0.2784E-01  0.2891E-01  0.1335E-01  0.1498E-01
     -0.037  0.3480E-01  0.3844E-01  0.1943E-01  0.2170E-01
      0.138  0.4916E-01  0.5136E-01  0.2802E-01  0.3067E-01
      0.312  0.4444E-01  0.3810E-01  0.3578E-01  0.3733E-01
      0.487  0.3482E-01  0.3943E-01  0.4186E-01  0.4421E-01
      0.662  0.6183E-01  0.6912E-01  0.5267E-01  0.5629E-01
      0.837  0.7978E-01  0.7413E-01  0.6661E-01  0.6924E-01
      1.011  0.4724E-01  0.4090E-01  0.7486E-01  0.7639E-01
      1.186  0.5677E-01  0.6307E-01  0.8478E-01  0.8741E-01
      1.361  0.8708E-01  0.8657E-01  0.9999E-01  0.1025E+00
      1.535  0.7887E-01  0.7446E-01  0.1138E+00  0.1155E+00
      1.710  0.8768E-01  0.8445E-01  0.1291E+00  0.1303E+00
      1.885  0.1002E+00  0.9662E-01  0.1466E+00  0.1472E+00
      2.060  0.9936E-01  0.8920E-01  0.1639E+00  0.1628E+00
      2.234  0.8734E-01  0.7848E-01  0.1792E+00  0.1765E+00
      2.409  0.1428E+00  0.1226E+00  0.2042E+00  0.1979E+00
      2.584  0.1705E+00  0.1485E+00  0.2339E+00  0.2238E+00
      2.758  0.1470E+00  0.1273E+00  0.2596E+00  0.2461E+00
      2.933  0.2109E+00  0.1171E+00  0.2965E+00  0.2665E+00
      3.108  0.3717E+00  0.1720E+00  0.3614E+00  0.2966E+00
      3.283  0.4466E+00  0.2495E+00  0.4394E+00  0.3402E+00
      3.457  0.6274E+00  0.2363E+00  0.5491E+00  0.3815E+00
      3.632  0.7790E+00  0.3821E+00  0.6852E+00  0.4482E+00
      3.807  0.1045E+01  0.5313E+00  0.8678E+00  0.5410E+00
      3.981  0.1240E+01  0.5518E+00  0.1084E+01  0.6375E+00
      4.156  0.1161E+01  0.5666E+00  0.1287E+01  0.7364E+00
      4.331  0.1098E+01  0.7343E+00  0.1479E+01  0.8647E+00
      4.506  0.1255E+01  0.1001E+01  0.1698E+01  0.1040E+01
      4.680  0.1540E+01  0.1089E+01  0.1968E+01  0.1230E+01
      4.855  0.1751E+01  0.1045E+01  0.2274E+01  0.1413E+01
      5.030  0.2183E+01  0.1035E+01  0.2655E+01  0.1593E+01
      5.204  0.2070E+01  0.1239E+01  0.3017E+01  0.1810E+01
      5.379  0.1422E+01  0.1531E+01  0.3265E+01  0.2077E+01
      5.554  0.1392E+01  0.1712E+01  0.3508E+01  0.2376E+01
      5.729  0.1803E+01  0.1904E+01  0.3823E+01  0.2709E+01
      5.903  0.1877E+01  0.1852E+01  0.4151E+01  0.3033E+01
      6.078  0.1988E+01  0.1519E+01  0.4499E+01  0.3298E+01
      6.253  0.2645E+01  0.1454E+01  0.4961E+01  0.3552E+01
      6.427  0.1568E+01  0.1681E+01  0.5235E+01  0.3846E+01
      6.602  0.2927E+00  0.1643E+01  0.5286E+01  0.4133E+01
      6.777  0.1339E+00  0.1483E+01  0.5309E+01  0.4392E+01
      6.952  0.1698E+00  0.1910E+01  0.5339E+01  0.4725E+01
      7.126  0.2305E+00  0.2168E+01  0.5379E+01  0.5104E+01
      7.301  0.1286E+00  0.1081E+01  0.5402E+01  0.5293E+01
      7.476  0.1848E+00  0.2121E+00  0.5434E+01  0.5330E+01
      7.650  0.2112E+00  0.2166E+00  0.5471E+01  0.5368E+01
      7.825  0.1362E+00  0.2534E+00  0.5495E+01  0.5412E+01
      8.000  0.1200E+00  0.1617E+00  0.5516E+01  0.5440E+01
      8.174  0.1209E+00  0.1852E+00  0.5537E+01  0.5473E+01
      8.349  0.1804E+00  0.2138E+00  0.5568E+01  0.5510E+01
      8.524  0.2237E+00  0.1504E+00  0.5607E+01  0.5536E+01
      8.699  0.1479E+00  0.1575E+00  0.5633E+01  0.5564E+01
      8.873  0.8544E-01  0.2289E+00  0.5648E+01  0.5604E+01
      9.048  0.8789E-01  0.1743E+00  0.5663E+01  0.5634E+01
      9.223  0.1269E+00  0.9274E-01  0.5686E+01  0.5651E+01
      9.397  0.2050E+00  0.1423E+00  0.5721E+01  0.5675E+01
      9.572  0.1279E+00  0.1313E+00  0.5744E+01  0.5698E+01
      9.747  0.1668E+00  0.1908E+00  0.5773E+01  0.5732E+01
      9.922  0.1599E+00  0.1703E+00  0.5801E+01  0.5761E+01
     10.096  0.1835E-01  0.1766E+00  0.5804E+01  0.5792E+01
     10.271  0.8184E-01  0.6676E-01  0.5818E+01  0.5804E+01
     10.446  0.1126E+00  0.5365E-01  0.5838E+01  0.5813E+01
     10.620  0.1611E+00  0.1067E+00  0.5866E+01  0.5832E+01
     10.795  0.1510E+00  0.1569E+00  0.5892E+01  0.5859E+01
     10.970  0.6768E-01  0.1601E+00  0.5904E+01  0.5887E+01
     11.145  0.5394E-01  0.1017E+00  0.5914E+01  0.5905E+01
     11.319  0.8041E-01  0.3932E-01  0.5928E+01  0.5912E+01
     11.494  0.8943E-01  0.7232E-01  0.5943E+01  0.5925E+01
     11.669  0.1521E+00  0.6392E-01  0.5970E+01  0.5936E+01
     11.843  0.1730E+00  0.1008E+00  0.6000E+01  0.5953E+01
     12.018  0.1668E+00  0.1807E+00  0.6029E+01  0.5985E+01
     12.193  0.1368E+00  0.1740E+00  0.6053E+01  0.6015E+01
     12.368  0.1835E+00  0.1350E+00  0.6085E+01  0.6039E+01
     12.542  0.1408E+00  0.1763E+00  0.6110E+01  0.6070E+01
     12.717  0.1331E+00  0.1841E+00  0.6133E+01  0.6102E+01
     12.892  0.1740E+00  0.1643E+00  0.6164E+01  0.6131E+01
     13.066  0.1317E+00  0.1463E+00  0.6187E+01  0.6156E+01
     13.241  0.1413E+00  0.1402E+00  0.6211E+01  0.6181E+01
     13.416  0.1079E+00  0.1462E+00  0.6230E+01  0.6206E+01
     13.591  0.1507E+00  0.1305E+00  0.6256E+01  0.6229E+01
     13.765  0.1472E+00  0.1533E+00  0.6282E+01  0.6256E+01
     13.940  0.1310E+00  0.1490E+00  0.6305E+01  0.6282E+01
     14.115  0.9707E-01  0.1363E+00  0.6322E+01  0.6306E+01
     14.289  0.1466E+00  0.9248E-01  0.6348E+01  0.6322E+01
     14.464  0.1582E+00  0.1482E+00  0.6375E+01  0.6348E+01
     14.639  0.4470E-01  0.1535E+00  0.6383E+01  0.6375E+01
     14.814  0.1446E+00  0.5397E-01  0.6408E+01  0.6384E+01
     14.988  0.1983E+00  0.1458E+00  0.6443E+01  0.6409E+01
     15.163  0.1804E+00  0.1848E+00  0.6474E+01  0.6442E+01
     15.338  0.1892E+00  0.2085E+00  0.6507E+01  0.6478E+01
     15.512  0.2210E+00  0.1808E+00  0.6546E+01  0.6510E+01
     15.687  0.2171E+00  0.2350E+00  0.6584E+01  0.6551E+01
     15.862  0.1437E+00  0.2123E+00  0.6609E+01  0.6588E+01
     16.037  0.1766E+00  0.1453E+00  0.6640E+01  0.6613E+01
     16.211  0.1104E+00  0.1843E+00  0.6659E+01  0.6646E+01
     16.386  0.1179E+00  0.9508E-01  0.6680E+01  0.6662E+01
     16.561  0.2465E+00  0.1542E+00  0.6723E+01  0.6689E+01
     16.735  0.2490E+00  0.2672E+00  0.6766E+01  0.6736E+01
     16.910  0.2723E+00  0.2587E+00  0.6814E+01  0.6781E+01
     17.085  0.2222E+00  0.2658E+00  0.6853E+01  0.6827E+01
     17.260  0.1449E+00  0.1881E+00  0.6878E+01  0.6860E+01
     17.434  0.2223E+00  0.1758E+00  0.6917E+01  0.6891E+01
     17.609  0.1552E+00  0.2160E+00  0.6944E+01  0.6929E+01
     17.784  0.1507E+00  0.1403E+00  0.6970E+01  0.6953E+01
     17.958  0.2179E+00  0.1861E+00  0.7008E+01  0.6986E+01
     18.133  0.2183E+00  0.2383E+00  0.7047E+01  0.7027E+01
     18.308  0.1918E+00  0.2016E+00  0.7080E+01  0.7063E+01
     18.482  0.1818E+00  0.1932E+00  0.7112E+01  0.7096E+01
     18.657  0.1463E+00  0.1516E+00  0.7137E+01  0.7123E+01
     18.832  0.2511E+00  0.1966E+00  0.7181E+01  0.7157E+01
     19.007  0.3157E+00  0.2933E+00  0.7237E+01  0.7208E+01
     19.181  0.2667E+00  0.3161E+00  0.7283E+01  0.7264E+01
     19.356  0.1115E+00  0.1769E+00  0.7303E+01  0.7295E+01
     19.531  0.1255E+00  0.1125E+00  0.7325E+01  0.7314E+01
     19.705  0.2747E+00  0.1957E+00  0.7373E+01  0.7348E+01
     19.880  0.3314E+00  0.3527E+00  0.7430E+01  0.7410E+01
     20.055  0.2415E+00  0.2678E+00  0.7473E+01  0.7457E+01
     20.230  0.2522E+00  0.2515E+00  0.7517E+01  0.7501E+01
     20.404  0.1868E+00  0.2150E+00  0.7549E+01  0.7538E+01
     20.579  0.1807E+00  0.1798E+00  0.7581E+01  0.7570E+01
     20.754  0.2178E+00  0.2155E+00  0.7619E+01  0.7607E+01
     20.928  0.2225E+00  0.2173E+00  0.7658E+01  0.7645E+01
     21.103  0.2272E+00  0.2220E+00  0.7697E+01  0.7684E+01
     21.278  0.2699E+00  0.2589E+00  0.7745E+01  0.7729E+01
     21.453  0.2498E+00  0.2468E+00  0.7788E+01  0.7773E+01
     21.627  0.1997E+00  0.2233E+00  0.7823E+01  0.7812E+01
     21.802  0.2067E+00  0.1891E+00  0.7859E+01  0.7845E+01
     21.977  0.2134E+00  0.2394E+00  0.7897E+01  0.7886E+01
     22.151  0.2102E+00  0.1937E+00  0.7933E+01  0.7920E+01
     22.326  0.3305E+00  0.2987E+00  0.7991E+01  0.7972E+01
     22.501  0.2109E+00  0.2719E+00  0.8028E+01  0.8020E+01
     22.676  0.1283E+00  0.1371E+00  0.8050E+01  0.8044E+01
     22.850  0.1415E+00  0.1385E+00  0.8075E+01  0.8068E+01
     23.025  0.1800E+00  0.1521E+00  0.8106E+01  0.8095E+01
     23.200  0.2318E+00  0.2397E+00  0.8147E+01  0.8137E+01
     23.374  0.1499E+00  0.1707E+00  0.8173E+01  0.8166E+01
     23.549  0.1547E+00  0.1381E+00  0.8200E+01  0.8190E+01
     23.724  0.1788E+00  0.1790E+00  0.8231E+01  0.8222E+01
     23.899  0.1885E+00  0.2042E+00  0.8264E+01  0.8257E+01
     24.073  0.1479E+00  0.1574E+00  0.8290E+01  0.8285E+01
     24.248  0.2044E+00  0.1835E+00  0.8326E+01  0.8317E+01
     24.423  0.2076E+00  0.2132E+00  0.8362E+01  0.8354E+01
     24.597  0.1581E+00  0.1674E+00  0.8390E+01  0.8383E+01
     24.772  0.1519E+00  0.1502E+00  0.8416E+01  0.8410E+01
     24.947  0.1960E+00  0.1684E+00  0.8451E+01  0.8439E+01
     25.122  0.2147E+00  0.2223E+00  0.8488E+01  0.8478E+01
     25.296  0.1522E+00  0.1816E+00  0.8515E+01  0.8510E+01
     25.471  0.1237E+00  0.1258E+00  0.8536E+01  0.8532E+01
     25.646  0.2031E+00  0.1884E+00  0.8572E+01  0.8565E+01
     25.820  0.1754E+00  0.1785E+00  0.8602E+01  0.8596E+01
     25.995  0.2414E+00  0.2037E+00  0.8645E+01  0.8631E+01
     26.170  0.3076E+00  0.3126E+00  0.8698E+01  0.8686E+01
     26.345  0.2029E+00  0.2524E+00  0.8734E+01  0.8730E+01
     26.519  0.2283E+00  0.2111E+00  0.8774E+01  0.8767E+01
     26.694  0.3102E+00  0.2990E+00  0.8828E+01  0.8819E+01
     26.869  0.2512E+00  0.3109E+00  0.8872E+01  0.8873E+01
     27.043  0.2111E+00  0.1896E+00  0.8909E+01  0.8907E+01
     27.218  0.1943E+00  0.1718E+00  0.8943E+01  0.8937E+01
     27.393  0.3695E+00  0.3900E+00  0.9007E+01  0.9005E+01
     27.568  0.3351E+00  0.3633E+00  0.9066E+01  0.9068E+01
     27.742  0.1964E+00  0.1669E+00  0.9100E+01  0.9097E+01
     27.917  0.3400E+00  0.3220E+00  0.9159E+01  0.9154E+01
     28.092  0.3544E+00  0.3977E+00  0.9221E+01  0.9223E+01
     28.266  0.3233E+00  0.3167E+00  0.9278E+01  0.9278E+01
     28.441  0.3732E+00  0.3402E+00  0.9343E+01  0.9338E+01
     28.616  0.2794E+00  0.2678E+00  0.9392E+01  0.9385E+01
     28.790  0.3955E+00  0.3843E+00  0.9461E+01  0.9452E+01
     28.965  0.3279E+00  0.3633E+00  0.9518E+01  0.9515E+01
     29.140  0.2110E+00  0.2273E+00  0.9555E+01  0.9555E+01
     29.315  0.2492E+00  0.2533E+00  0.9599E+01  0.9599E+01
     29.489  0.3865E+00  0.3518E+00  0.9666E+01  0.9661E+01
     29.664  0.2213E+00  0.2352E+00  0.9705E+01  0.9702E+01
     29.839  0.6275E-01  0.1132E+00  0.9716E+01  0.9722E+01
     30.013  0.1738E+00  0.1572E+00  0.9746E+01  0.9749E+01
     30.188  0.3562E+00  0.3348E+00  0.9808E+01  0.9808E+01
     30.363  0.2593E+00  0.2582E+00  0.9854E+01  0.9853E+01
     30.538  0.1799E+00  0.1868E+00  0.9885E+01  0.9885E+01
     30.712  0.2140E+00  0.1880E+00  0.9922E+01  0.9918E+01
     30.887  0.2517E+00  0.1833E+00  0.9966E+01  0.9950E+01
     31.062  0.3363E+00  0.3470E+00  0.1003E+02  0.1001E+02
     31.236  0.2890E+00  0.3601E+00  0.1008E+02  0.1007E+02
     31.411  0.1953E+00  0.1723E+00  0.1011E+02  0.1010E+02
     31.586  0.6894E-01  0.8270E-01  0.1012E+02  0.1012E+02
     31.761  0.1229E+00  0.1539E+00  0.1014E+02  0.1015E+02
     31.935  0.1666E+00  0.1358E+00  0.1017E+02  0.1017E+02
     32.110  0.1005E+00  0.7244E-01  0.1019E+02  0.1018E+02
     32.285  0.6820E-01  0.8641E-01  0.1020E+02  0.1020E+02
     32.459  0.8877E-01  0.1205E+00  0.1022E+02  0.1022E+02
     32.634  0.2694E+00  0.2284E+00  0.1026E+02  0.1026E+02
     32.809  0.3401E+00  0.3589E+00  0.1032E+02  0.1032E+02
     32.984  0.3174E+00  0.3332E+00  0.1038E+02  0.1038E+02
     33.158  0.4096E+00  0.3805E+00  0.1045E+02  0.1044E+02
     33.333  0.3094E+00  0.3179E+00  0.1050E+02  0.1050E+02
     33.508  0.2703E+00  0.2822E+00  0.1055E+02  0.1055E+02
     33.682  0.2408E+00  0.2597E+00  0.1059E+02  0.1060E+02
     33.857  0.2225E+00  0.2238E+00  0.1063E+02  0.1063E+02
     34.032  0.2509E+00  0.2444E+00  0.1068E+02  0.1068E+02
     34.207  0.3014E+00  0.3118E+00  0.1073E+02  0.1073E+02
     34.381  0.3061E+00  0.3106E+00  0.1078E+02  0.1079E+02
     34.556  0.3568E+00  0.3838E+00  0.1085E+02  0.1085E+02
     34.731  0.2885E+00  0.2621E+00  0.1090E+02  0.1090E+02
     34.905  0.1751E+00  0.1599E+00  0.1093E+02  0.1093E+02
     35.080  0.2634E+00  0.2465E+00  0.1097E+02  0.1097E+02
     35.255  0.2060E+00  0.2331E+00  0.1101E+02  0.1101E+02
     35.430  0.1243E+00  0.1291E+00  0.1103E+02  0.1103E+02
     35.604  0.1795E+00  0.1645E+00  0.1106E+02  0.1106E+02
     35.779  0.2688E+00  0.2948E+00  0.1111E+02  0.1111E+02
     35.954  0.1757E+00  0.1629E+00  0.1114E+02  0.1114E+02
     36.128  0.2537E+00  0.2526E+00  0.1118E+02  0.1119E+02
     36.303  0.2923E+00  0.2882E+00  0.1123E+02  0.1124E+02
     36.478  0.1720E+00  0.1800E+00  0.1126E+02  0.1127E+02
     36.653  0.8762E-01  0.1132E+00  0.1128E+02  0.1129E+02
     36.827  0.2217E+00  0.2058E+00  0.1132E+02  0.1132E+02
     37.002  0.3105E+00  0.2943E+00  0.1137E+02  0.1137E+02
     37.177  0.1748E+00  0.1806E+00  0.1140E+02  0.1141E+02
     37.351  0.1436E+00  0.1246E+00  0.1143E+02  0.1143E+02
     37.526  0.1655E+00  0.1461E+00  0.1146E+02  0.1145E+02
     37.701  0.1333E+00  0.1689E+00  0.1148E+02  0.1148E+02
     37.876  0.1758E+00  0.1530E+00  0.1151E+02  0.1151E+02
     38.050  0.1267E+00  0.1550E+00  0.1153E+02  0.1154E+02
     38.225  0.2103E+00  0.2375E+00  0.1157E+02  0.1158E+02
     38.400  0.2981E+00  0.2792E+00  0.1162E+02  0.1163E+02
     38.574  0.1696E+00  0.1729E+00  0.1165E+02  0.1166E+02
     38.749  0.9918E-01  0.8345E-01  0.1167E+02  0.1167E+02
     38.924  0.9057E-01  0.7168E-01  0.1169E+02  0.1168E+02
     39.098  0.8971E-01  0.1194E+00  0.1170E+02  0.1171E+02
     39.273  0.1300E+00  0.1338E+00  0.1172E+02  0.1173E+02
     39.448  0.1719E+00  0.1650E+00  0.1175E+02  0.1176E+02
     39.623  0.1516E+00  0.1524E+00  0.1178E+02  0.1178E+02
     39.797  0.6500E-01  0.5889E-01  0.1179E+02  0.1179E+02
     39.972  0.2436E-01  0.7798E-02  0.1180E+02  0.1180E+02
     40.147  0.9800E-02  0.1664E-01  0.1180E+02  0.1180E+02
     40.321  0.9308E-01  0.1111E+00  0.1181E+02  0.1182E+02
     40.496  0.1187E+00  0.1149E+00  0.1183E+02  0.1184E+02
     40.671  0.7630E-01  0.7869E-01  0.1185E+02  0.1185E+02
     40.846  0.8971E-01  0.7985E-01  0.1186E+02  0.1187E+02
     41.020  0.4690E-01  0.4543E-01  0.1187E+02  0.1187E+02
     41.195  0.5997E-01  0.6016E-01  0.1188E+02  0.1188E+02
     41.370  0.2360E-01  0.9512E-02  0.1189E+02  0.1189E+02
     41.544 -0.4221E-03  0.1369E-01  0.1189E+02  0.1189E+02
     41.719  0.5209E-01  0.7674E-01  0.1190E+02  0.1190E+02
     41.894  0.9149E-01  0.7483E-01  0.1191E+02  0.1191E+02
     42.069  0.3005E-01  0.8105E-02  0.1192E+02  0.1192E+02
     42.243  0.5695E-02  0.1184E-01  0.1192E+02  0.1192E+02
     42.418  0.4183E-01  0.6089E-01  0.1192E+02  0.1193E+02
     42.593  0.7146E-01  0.6075E-01  0.1194E+02  0.1194E+02
     42.767  0.1932E-01  0.4873E-02  0.1194E+02  0.1194E+02
     42.942 -0.3177E-02 -0.2251E-02  0.1194E+02  0.1194E+02
     43.117 -0.7713E-03 -0.7605E-03  0.1194E+02  0.1194E+02
     43.292 -0.6613E-03  0.7030E-03  0.1194E+02  0.1194E+02
     43.466  0.1242E-01  0.1678E-01  0.1194E+02  0.1194E+02
     43.641  0.2143E-01  0.2423E-01  0.1195E+02  0.1195E+02
     43.816  0.3688E-01  0.4348E-01  0.1195E+02  0.1195E+02
     43.990  0.3346E-01  0.2395E-01  0.1196E+02  0.1196E+02
     44.165  0.1662E-01  0.2114E-01  0.1196E+02  0.1196E+02
     44.340  0.2638E-01  0.2590E-01  0.1197E+02  0.1197E+02
     44.515  0.2059E-01  0.1629E-01  0.1197E+02  0.1197E+02
     44.689  0.1981E-01  0.3443E-01  0.1197E+02  0.1198E+02
     44.864  0.4464E-01  0.3450E-01  0.1198E+02  0.1198E+02
     45.039  0.1104E-01  0.5244E-04  0.1198E+02  0.1198E+02
     45.213 -0.2428E-02  0.4275E-03  0.1198E+02  0.1198E+02
     45.388  0.1447E-01  0.1980E-01  0.1198E+02  0.1199E+02
     45.563  0.1973E-01  0.1455E-01  0.1199E+02  0.1199E+02
     45.738  0.1459E-02 -0.4382E-03  0.1199E+02  0.1199E+02
     45.912 -0.8451E-03 -0.7454E-03  0.1199E+02  0.1199E+02
     46.087 -0.1077E-02 -0.6526E-03  0.1199E+02  0.1199E+02
     46.262  0.6954E-02  0.1331E-01  0.1199E+02  0.1199E+02
     46.436  0.2268E-01  0.2013E-01  0.1199E+02  0.1199E+02
     46.611  0.5859E-02  0.2548E-02  0.1199E+02  0.1199E+02
     46.786  0.8609E-02  0.1676E-01  0.1200E+02  0.1200E+02
     46.961  0.2231E-01  0.1720E-01  0.1200E+02  0.1200E+02
     47.135  0.4510E-02  0.2923E-03  0.1200E+02  0.1200E+02
     47.310 -0.9609E-03 -0.5371E-03  0.1200E+02  0.1200E+02
     47.485 -0.9044E-04 -0.2198E-04  0.1200E+02  0.1200E+02
     47.659 -0.1152E-05 -0.1487E-06  0.1200E+02  0.1200E+02
     47.834 -0.2773E-08 -0.1972E-09  0.1200E+02  0.1200E+02
     48.009 -0.1355E-11 -0.5379E-13  0.1200E+02  0.1200E+02
     48.184 -0.1373E-15  0.0000E+00  0.1200E+02  0.1200E+02
     48.358  0.0000E+00  0.0000E+00  0.1200E+02  0.1200E+02
     48.533  0.0000E+00  0.0000E+00  0.1200E+02  0.1200E+02
     48.708  0.0000E+00  0.0000E+00  0.1200E+02  0.1200E+02
     48.882  0.0000E+00  0.0000E+00  0.1200E+02  0.1200E+02
     49.057  0.0000E+00  0.0000E+00  0.1200E+02  0.1200E+02
     49.232  0.0000E+00  0.0000E+00  0.1200E+02  0.1200E+02
