    1    1    1    2
  0.1318359E+02  0.2651650E-09  0.2651650E-09  0.2651650E-09  0.5000000E-15
  1.000000000000000E-004
  CAR 
 fcc Ni                                  
     10    110     12
 
  0.5000000E-01  0.5000000E-01  0.5000000E-01  0.2000000E-02
    1       -0.745240     -0.799341   1.000000   1.000000
    2        4.873956      5.649229   1.000000   1.000000
    3        4.908382      5.687500   1.000000   1.000000
    4        4.908382      5.687500   1.000000   1.000000
    5        5.778839      6.435403   1.000000   1.001447
    6        5.778839      6.435403   1.000000   1.001447
    7       28.572588     28.427254   0.000000   0.000000
    8       30.285287     30.261140   0.000000   0.000000
    9       31.149583     31.163449   0.000000   0.000000
   10       31.149583     31.163449   0.000000   0.000000
   11       34.412748     34.450026   0.000000   0.000000
   12       34.412748     34.450028   0.000000   0.000000
 
  0.1500000E+00  0.5000000E-01  0.5000000E-01  0.6000000E-02
    1       -0.297893     -0.351064   1.000000   1.000000
    2        4.780090      5.540362   1.000000   1.000000
    3        4.984169      5.767555   1.000000   1.000000
    4        4.997895      5.774793   1.000000   1.000000
    5        5.708499      6.359857   1.000000   1.000237
    6        5.801343      6.462862   1.000000   1.002571
    7       25.937761     25.947597   0.000000   0.000000
    8       27.967728     27.965108   0.000000   0.000000
    9       30.547688     30.468113   0.000000   0.000000
   10       31.752085     31.775220   0.000000   0.000000
   11       34.596145     34.517255   0.000000   0.000000
   12       34.671580     34.694794   0.000000   0.000000
 
  0.2500000E+00  0.5000000E-01  0.5000000E-01  0.6000000E-02
    1        0.757249      0.715809   1.000000   1.000000
    2        4.648095      5.364479   1.000000   1.000000
    3        5.073924      5.818134   1.000000   1.000000
    4        5.093499      5.851166   1.000000   1.000000
    5        5.693292      6.374082   1.000000   1.000342
    6        5.882594      6.579998   1.000000   1.017406
    7       21.119610     21.203133   0.000000   0.000000
    8       26.981192     26.995365   0.000000   0.000000
    9       30.118721     30.025388   0.000000   0.000000
   10       31.030191     31.103006   0.000000   0.000000
   11       34.167950     34.106538   0.000000   0.000000
   12       34.226993     34.230470   0.000000   0.000000
 
  0.3500000E+00  0.5000000E-01  0.5000000E-01  0.6000000E-02
    1        2.118385      2.171222   1.000000   1.000000
    2        4.787759      5.364000   1.000000   1.000000
    3        5.024736      5.719679   1.000000   1.000000
    4        5.057159      5.757586   1.000000   1.000000
    5        5.889286      6.636617   1.000000   1.030082
    6        6.121909      6.862805   1.000000   0.750688
    7       16.660630     16.812938   0.000000   0.000000
    8       26.460882     26.473523   0.000000   0.000000
    9       29.083268     28.989915   0.000000   0.000000
   10       30.085872     30.190779   0.000000   0.000000
   11       32.274595     32.270405   0.000000   0.000000
   12       33.798558     33.790393   0.000000   0.000000
 
  0.4500000E+00  0.5000000E-01  0.5000000E-01  0.6000000E-02
    1        2.928158      3.276203   1.000000   1.000000
    2        4.930939      5.598019   1.000000   1.000000
    3        4.974590      5.650121   1.000000   1.000000
    4        5.680906      6.013729   1.000000   1.000000
    5        6.144466      6.927367   1.000000   0.491273
    6        6.626078      7.230182   1.027823  -0.026552
    7       12.934813     13.207654   0.000000   0.000000
    8       26.451300     26.433720   0.000000   0.000000
    9       28.206064     28.139247   0.000000   0.000000
   10       28.781332     28.866613   0.000000   0.000000
   11       31.780801     31.793383   0.000000   0.000000
   12       33.029514     33.029045   0.000000   0.000000
 
 -0.4500000E+00  0.5000000E-01  0.5000000E-01  0.6000000E-02
    1        3.051103      3.500451   1.000000   1.000000
    2        4.897060      5.555489   1.000000   1.000000
    3        4.951255      5.623780   1.000000   1.000000
    4        5.958635      6.437936   1.000000   1.001528
    5        6.261312      7.053880   1.000014   0.061674
    6        7.294432      7.538269  -0.012740  -0.000065
    7       11.448387     11.841995  -0.000000  -0.000000
    8       26.916091     26.817100   0.000000   0.000000
    9       27.743526     27.815160   0.000000   0.000000
   10       27.934958     27.958791   0.000000   0.000000
   11       32.260474     32.281231   0.000000   0.000000
   12       32.471236     32.462031   0.000000   0.000000
 
 -0.3500000E+00  0.5000000E-01  0.5000000E-01  0.6000000E-02
    1        2.763115      3.010437   1.000000   1.000000
    2        4.951013      5.603965   1.000000   1.000000
    3        5.006418      5.693125   1.000000   1.000000
    4        5.318259      5.719377   1.000000   1.000000
    5        6.182746      6.958574   1.000001   0.361363
    6        6.293907      6.986553   1.000038   0.253821
    7       14.056984     14.278893   0.000000   0.000000
    8       27.335588     27.315520   0.000000   0.000000
    9       27.458520     27.406973   0.000000   0.000000
   10       28.733497     28.825740   0.000000   0.000000
   11       32.421229     32.397298   0.000000   0.000000
   12       33.446063     33.461267   0.000000   0.000000
 
 -0.2500000E+00  0.5000000E-01  0.5000000E-01  0.6000000E-02
    1        1.672645      1.673259   1.000000   1.000000
    2        4.668060      5.312348   1.000000   1.000000
    3        5.051551      5.756644   1.000000   1.000000
    4        5.082881      5.804671   1.000000   1.000000
    5        5.857451      6.583729   1.000000   1.018205
    6        5.980757      6.713121   1.000000   1.030349
    7       18.084491     18.211085   0.000000   0.000000
    8       27.547300     27.619584   0.000000   0.000000
    9       27.984320     27.877515   0.000000   0.000000
   10       30.410522     30.484948   0.000000   0.000000
   11       32.803395     32.763040   0.000000   0.000000
   12       35.242075     35.241941   0.000000   0.000000
 
 -0.1500000E+00  0.5000000E-01  0.5000000E-01  0.6000000E-02
    1        0.347965      0.299560   1.000000   1.000000
    2        4.677411      5.413374   1.000000   1.000000
    3        5.065148      5.830682   1.000000   1.000000
    4        5.071980      5.840113   1.000000   1.000000
    5        5.678874      6.345861   1.000000   1.000164
    6        5.835575      6.512363   1.000000   1.006450
    7       22.707936     22.770993   0.000000   0.000000
    8       28.316687     28.380336   0.000000   0.000000
    9       28.608639     28.514976   0.000000   0.000000
   10       31.864560     31.874095   0.000000   0.000000
   11       33.384702     33.343298   0.000000   0.000000
   12       36.312893     36.388305   0.000000   0.000000
 
 -0.5000000E-01  0.5000000E-01  0.5000000E-01  0.6000000E-02
    1       -0.520004     -0.573836   1.000000   1.000000
    2        4.813633      5.581808   1.000000   1.000000
    3        4.958013      5.738846   1.000000   1.000000
    4        4.960347      5.741015   1.000000   1.000000
    5        5.721593      6.373404   1.000000   1.000336
    6        5.805763      6.464283   1.000000   1.002645
    7       27.456665     27.409864   0.000000   0.000000
    8       29.320338     29.255622   0.000000   0.000000
    9       29.565269     29.609589   0.000000   0.000000
   10       31.243183     31.225611   0.000000   0.000000
   11       34.578046     34.587968   0.000000   0.000000
   12       36.081615     36.054743   0.000000   0.000000
 
  0.1500000E+00  0.1500000E+00  0.5000000E-01  0.6000000E-02
    1       -0.077363     -0.130049   1.000000   1.000000
    2        4.691475      5.446601   1.000000   1.000000
    3        5.060938      5.843787   1.000000   1.000000
    4        5.063790      5.847427   1.000000   1.000000
    5        5.612347      6.256334   1.000000   1.000012
    6        5.858465      6.520726   1.000000   1.007419
    7       26.105096     26.118009   0.000000   0.000000
    8       27.829410     27.887201   0.000000   0.000000
    9       28.262840     28.200856   0.000000   0.000000
   10       30.241079     30.193991   0.000000   0.000000
   11       34.014310     34.155395   0.000000   0.000000
   12       36.341084     36.323389   0.000000   0.000000
 
  0.2500000E+00  0.1500000E+00  0.5000000E-01  0.1200000E-01
    1        0.767495      0.722302   1.000000   1.000000
    2        4.528709      5.260194   1.000000   1.000000
    3        5.132515      5.863220   1.000000   1.000000
    4        5.210386      5.995717   1.000000   1.000000
    5        5.565609      6.234069   1.000000   1.000006
    6        5.948628      6.635289   1.000000   1.029808
    7       23.038769     23.099848   0.000000   0.000000
    8       25.019965     25.061436   0.000000   0.000000
    9       28.774269     28.725375   0.000000   0.000000
   10       29.990042     29.953155   0.000000   0.000000
   11       32.112906     32.277189   0.000000   0.000000
   12       36.715428     36.650315   0.000000   0.000000
 
  0.3500000E+00  0.1500000E+00  0.5000000E-01  0.1200000E-01
    1        2.043689      2.052964   1.000000   1.000000
    2        4.458735      5.128957   1.000000   1.000000
    3        4.996803      5.667645   1.000000   1.000000
    4        5.243909      5.972145   1.000000   1.000000
    5        5.857349      6.578049   1.000000   1.016995
    6        6.203121      6.931382   1.000002   0.474298
    7       18.434322     18.550686   0.000000   0.000000
    8       24.307562     24.352136   0.000000   0.000000
    9       27.327226     27.300130   0.000000   0.000000
   10       28.862823     28.923830   0.000000   0.000000
   11       34.383833     34.414368   0.000000   0.000000
   12       35.378374     35.320846   0.000000   0.000000
 
  0.4500000E+00  0.1500000E+00  0.5000000E-01  0.1200000E-01
    1        3.059877      3.327744   1.000000   1.000000
    2        4.767594      5.256524   1.000000   1.000000
    3        4.885694      5.550043   1.000000   1.000000
    4        5.174373      5.863243   1.000000   1.000000
    5        6.175163      6.945515   1.000001   0.414967
    6        6.977376      7.561347   0.287731  -0.000033
    7       14.374319     14.573259   0.000000   0.000000
    8       24.203022     24.233366   0.000000   0.000000
    9       25.476926     25.510813   0.000000   0.000000
   10       28.326764     28.336468   0.000000   0.000000
   11       34.162625     34.150257   0.000000   0.000000
   12       36.355095     36.315837   0.000000   0.000000
 
 -0.4500000E+00  0.1500000E+00  0.5000000E-01  0.1200000E-01
    1        3.307138      3.782031   1.000000   1.000000
    2        4.738399      5.310120   1.000000   1.000000
    3        5.112036      5.786081   1.000000   1.000000
    4        5.307180      5.846689   1.000000   1.000000
    5        6.240371      7.036694   1.000007   0.100241
    6        8.399750      8.654555  -0.000000  -0.000000
    7       11.595591     11.957290  -0.000000  -0.000000
    8       23.930109     23.946981   0.000000   0.000000
    9       24.908460     24.968377   0.000000   0.000000
   10       28.357178     28.335443   0.000000   0.000000
   11       33.417346     33.428383   0.000000   0.000000
   12       36.062599     36.021067   0.000000   0.000000
 
 -0.3500000E+00  0.1500000E+00  0.5000000E-01  0.1200000E-01
    1        3.210040      3.581511   1.000000   1.000000
    2        4.791085      5.361304   1.000000   1.000000
    3        5.073258      5.621548   1.000000   1.000000
    4        5.152218      5.812220   1.000000   1.000000
    5        6.103431      6.887483   1.000000   0.656907
    6        7.501154      7.990414  -0.000181  -0.000000
    7       13.223543     13.468282   0.000000   0.000000
    8       23.164010     23.206294   0.000000   0.000000
    9       26.133088     26.164767   0.000000   0.000000
   10       28.995117     28.974835   0.000000   0.000000
   11       33.073882     33.087965   0.000000   0.000000
   12       35.737555     35.701769   0.000000   0.000000
 
 -0.2500000E+00  0.1500000E+00  0.5000000E-01  0.1200000E-01
    1        2.473893      2.537198   1.000000   1.000000
    2        4.560425      5.187581   1.000000   1.000000
    3        4.937000      5.599306   1.000000   1.000000
    4        5.215812      5.914161   1.000000   1.000000
    5        5.801524      6.548696   1.000000   1.011450
    6        6.502077      7.214280   1.005396  -0.030023
    7       17.015979     17.156328   0.000000   0.000000
    8       23.024125     23.076648   0.000000   0.000000
    9       27.962720     27.960941   0.000000   0.000000
   10       30.203243     30.221186   0.000000   0.000000
   11       33.195281     33.182963   0.000000   0.000000
   12       35.020208     34.988771   0.000000   0.000000
 
 -0.1500000E+00  0.1500000E+00  0.5000000E-01  0.1200000E-01
    1        1.164404      1.127859   1.000000   1.000000
    2        4.525223      5.244207   1.000000   1.000000
    3        5.075838      5.784531   1.000000   1.000000
    4        5.231687      6.011076   1.000000   1.000000
    5        5.567104      6.230302   1.000000   1.000005
    6        6.059440      6.773724   1.000000   0.978481
    7       21.465141     21.545406   0.000000   0.000000
    8       23.515870     23.567113   0.000000   0.000000
    9       30.150235     30.096128   0.000000   0.000000
   10       31.274351     31.262303   0.000000   0.000000
   11       33.239691     33.336202   0.000000   0.000000
   12       34.443927     34.388171   0.000000   0.000000
 
 -0.5000000E-01  0.1500000E+00  0.5000000E-01  0.1200000E-01
    1        0.138092      0.086994   1.000000   1.000000
    2        4.679538      5.427254   1.000000   1.000000
    3        5.065798      5.833021   1.000000   1.000000
    4        5.072307      5.857734   1.000000   1.000000
    5        5.628574      6.277865   1.000000   1.000023
    6        5.856041      6.527867   1.000000   1.008331
    7       24.434198     24.474728   0.000000   0.000000
    8       26.459472     26.482588   0.000000   0.000000
    9       29.920619     29.864790   0.000000   0.000000
   10       31.801688     31.744102   0.000000   0.000000
   11       33.563854     33.639720   0.000000   0.000000
   12       35.570889     35.629337   0.000000   0.000000
 
  0.2500000E+00  0.2500000E+00  0.5000000E-01  0.6000000E-02
    1        1.357774      1.323153   1.000000   1.000000
    2        4.328627      5.047347   1.000000   1.000000
    3        5.258784      5.903256   1.000000   1.000000
    4        5.395595      6.191215   1.000000   1.000001
    5        5.528441      6.277573   1.000000   1.000023
    6        6.012855      6.688581   1.000000   1.035182
    7       23.421525     23.477653   0.000000   0.000000
    8       24.615825     24.672746   0.000000   0.000000
    9       26.258331     26.212637   0.000000   0.000000
   10       26.917346     26.924121   0.000000   0.000000
   11       29.466224     29.628998   0.000000   0.000000
   12       40.438733     40.336211   0.000000   0.000000
 
  0.3500000E+00  0.2500000E+00  0.5000000E-01  0.1200000E-01
    1        2.368046      2.389491   1.000000   1.000000
    2        4.162534      4.857023   1.000000   1.000000
    3        5.093721      5.714072   1.000000   1.000000
    4        5.582898      6.357106   1.000000   1.000221
    5        5.888555      6.591216   1.000000   1.019853
    6        6.221472      6.941215   1.000004   0.432912
    7       20.645620     20.722555   0.000000   0.000000
    8       22.484271     22.533893   0.000000   0.000000
    9       24.117720     24.159223   0.000000   0.000000
   10       27.346835     27.367912   0.000000   0.000000
   11       30.039037     30.127651   0.000000   0.000000
   12       39.787514     39.722639   0.000000   0.000000
 
  0.4500000E+00  0.2500000E+00  0.5000000E-01  0.1200000E-01
    1        3.320153      3.539814   1.000000   1.000000
    2        4.171929      4.791270   1.000000   1.000000
    3        4.893696      5.517463   1.000000   1.000000
    4        5.549339      6.264632   1.000000   1.000015
    5        6.216537      6.985730   1.000003   0.256799
    6        7.245601      7.798587  -0.022997  -0.000000
    7       16.423681     16.551466   0.000000   0.000000
    8       21.813997     21.862918   0.000000   0.000000
    9       22.266884     22.334132   0.000000   0.000000
   10       27.311942     27.339774   0.000000   0.000000
   11       33.422473     33.466157   0.000000   0.000000
   12       38.199110     38.167403   0.000000   0.000000
 
 -0.4500000E+00  0.2500000E+00  0.5000000E-01  0.1200000E-01
    1        3.686510      4.184696   1.000000   1.000000
    2        4.353483      4.827405   1.000000   1.000000
    3        4.863938      5.509773   1.000000   1.000000
    4        5.464703      6.148849   1.000000   1.000000
    5        6.251422      7.057644   1.000010   0.054218
    6        9.281073      9.584333  -0.000000  -0.000000
    7       12.843178     13.068365   0.000000   0.000000
    8       20.172721     20.250423   0.000000   0.000000
    9       22.691218     22.744043   0.000000   0.000000
   10       27.501768     27.511929   0.000000   0.000000
   11       36.299285     36.284496   0.000000   0.000000
   12       38.326540     38.354299   0.000000   0.000000
 
 -0.3500000E+00  0.2500000E+00  0.5000000E-01  0.1200000E-01
    1        3.761279      4.257998   1.000000   1.000000
    2        4.467569      4.948001   1.000000   1.000000
    3        4.785772      5.416675   1.000000   1.000000
    4        5.425362      6.090064   1.000000   1.000000
    5        6.071518      6.883671   1.000000   0.672007
    6        9.373342      9.688439  -0.000000  -0.000000
    7       12.858922     13.094351   0.000000   0.000000
    8       19.095474     19.183821   0.000000   0.000000
    9       23.886450     23.938795   0.000000   0.000000
   10       28.200295     28.194526   0.000000   0.000000
   11       35.638552     35.614163   0.000000   0.000000
   12       39.162518     39.107792   0.000000   0.000000
 
 -0.2500000E+00  0.2500000E+00  0.5000000E-01  0.1200000E-01
    1        3.452322      3.653435   1.000000   1.000000
    2        4.437978      5.083921   1.000000   1.000000
    3        4.679186      5.280653   1.000000   1.000000
    4        5.473519      6.116975   1.000000   1.000000
    5        5.746808      6.558901   1.000000   1.013231
    6        7.563483      8.143704  -0.000031  -0.000000
    7       16.433739     16.577619   0.000000   0.000000
    8       18.719261     18.812654   0.000000   0.000000
    9       25.677379     25.721146   0.000000   0.000000
   10       29.528918     29.521548   0.000000   0.000000
   11       34.635756     34.579860   0.000000   0.000000
   12       37.796468     37.813359   0.000000   0.000000
 
 -0.1500000E+00  0.2500000E+00  0.5000000E-01  0.1200000E-01
    1        2.393951      2.417042   1.000000   1.000000
    2        4.422383      5.108328   1.000000   1.000000
    3        4.924050      5.576415   1.000000   1.000000
    4        5.385493      6.081374   1.000000   1.000000
    5        5.590156      6.339043   1.000000   1.000136
    6        6.557286      7.271501   1.012938  -0.017218
    7       18.786637     18.899662   0.000000   0.000000
    8       20.904343     20.977914   0.000000   0.000000
    9       27.908299     27.924191   0.000000   0.000000
   10       31.163324     31.171968   0.000000   0.000000
   11       33.011877     32.956596   0.000000   0.000000
   12       35.650595     35.675683   0.000000   0.000000
 
 -0.5000000E-01  0.2500000E+00  0.5000000E-01  0.1200000E-01
    1        1.340233      1.314479   1.000000   1.000000
    2        4.573281      5.267668   1.000000   1.000000
    3        5.069651      5.778708   1.000000   1.000000
    4        5.149529      5.889233   1.000000   1.000000
    5        5.705895      6.411674   1.000000   1.000849
    6        6.018333      6.737028   1.000000   1.017926
    7       19.695193     19.796944   0.000000   0.000000
    8       25.592791     25.625769   0.000000   0.000000
    9       29.150197     29.082704   0.000000   0.000000
   10       30.881369     30.968317   0.000000   0.000000
   11       33.283559     33.231458   0.000000   0.000000
   12       34.689452     34.682979   0.000000   0.000000
 
  0.3500000E+00  0.3500000E+00  0.5000000E-01  0.6000000E-02
    1        2.881106      3.009329   1.000000   1.000000
    2        3.939897      4.621864   1.000000   1.000000
    3        5.547131      6.065138   1.000000   1.000000
    4        5.828581      6.632030   1.000000   1.029122
    5        6.142303      6.833147   1.000000   0.847808
    6        6.184833      6.890564   1.000001   0.644570
    7       21.080199     21.127087   0.000000   0.000000
    8       21.281200     21.354546   0.000000   0.000000
    9       22.082876     22.115503   0.000000   0.000000
   10       25.504924     25.558463   0.000000   0.000000
   11       27.867871     27.968498   0.000000   0.000000
   12       44.167225     44.099340   0.000000   0.000000
 
  0.4500000E+00  0.3500000E+00  0.5000000E-01  0.1200000E-01
    1        3.327947      3.620099   1.000000   1.000000
    2        3.838380      4.502429   1.000000   1.000000
    3        5.504784      6.119566   1.000000   1.000000
    4        5.998402      6.744280   1.000000   1.012275
    5        6.231406      6.997374   1.000005   0.215891
    6        7.442071      7.868891  -0.000790  -0.000000
    7       18.758457     18.849691   0.000000   0.000000
    8       18.943233     19.025934   0.000000   0.000000
    9       20.652606     20.689724   0.000000   0.000000
   10       26.331296     26.377596   0.000000   0.000000
   11       29.001368     29.082442   0.000000   0.000000
   12       42.505083     42.457239   0.000000   0.000000
 
 -0.4500000E+00  0.3500000E+00  0.5000000E-01  0.1200000E-01
    1        3.654252      4.083129   1.000000   1.000000
    2        3.917223      4.531633   1.000000   1.000000
    3        5.236134      5.878456   1.000000   1.000000
    4        5.891382      6.581889   1.000000   1.017809
    5        6.281695      7.111382   1.000026  -0.016313
    6        9.690577      9.945552  -0.000000  -0.000000
    7       15.178467     15.294781   0.000000   0.000000
    8       16.982838     17.119933   0.000000   0.000000
    9       20.909401     20.947533   0.000000   0.000000
   10       26.678510     26.721452   0.000000   0.000000
   11       32.762983     32.813838   0.000000   0.000000
   12       40.797111     40.749531   0.000000   0.000000
 
 -0.3500000E+00  0.3500000E+00  0.5000000E-01  0.1200000E-01
    1        3.923931      4.483612   1.000000   1.000000
    2        4.117111      4.605858   1.000000   1.000000
    3        4.884182      5.533103   1.000000   1.000000
    4        5.762519      6.411455   1.000000   1.000845
    5        6.122193      6.974873   1.000000   0.297231
    6       11.808921     11.996300  -0.000000  -0.000000
    7       12.629753     12.814213   0.000000   0.000000
    8       15.923009     16.077864   0.000000   0.000000
    9       21.976790     22.025424   0.000000   0.000000
   10       27.208347     27.231551   0.000000   0.000000
   11       37.406041     37.440936   0.000000   0.000000
   12       39.173532     39.110827   0.000000   0.000000
 
 -0.2500000E+00  0.3500000E+00  0.5000000E-01  0.1200000E-01
    1        3.950091      4.406300   1.000000   1.000000
    2        4.391237      4.893135   1.000000   1.000000
    3        4.589649      5.239050   1.000000   1.000000
    4        5.579805      6.219982   1.000000   1.000004
    5        5.944377      6.781912   1.000000   0.965657
    6        9.362712      9.716178  -0.000000  -0.000000
    7       14.377261     14.546499   0.000000   0.000000
    8       17.048889     17.167652   0.000000   0.000000
    9       23.686856     23.740725   0.000000   0.000000
   10       28.165534     28.166432   0.000000   0.000000
   11       36.709453     36.650985   0.000000   0.000000
   12       40.233218     40.200004   0.000000   0.000000
 
 -0.1500000E+00  0.3500000E+00  0.5000000E-01  0.1200000E-01
    1        3.341695      3.628070   1.000000   1.000000
    2        4.685197      5.190576   1.000000   1.000000
    3        4.724319      5.389090   1.000000   1.000000
    4        5.297084      5.967452   1.000000   1.000000
    5        5.932863      6.718637   1.000000   1.028250
    6        7.546181      8.098828  -0.000051  -0.000000
    7       14.722508     14.906027   0.000000   0.000000
    8       20.840106     20.910057   0.000000   0.000000
    9       25.830789     25.870011   0.000000   0.000000
   10       29.360928     29.345466   0.000000   0.000000
   11       33.849382     33.838677   0.000000   0.000000
   12       36.958934     36.918211   0.000000   0.000000
 
 -0.5000000E-01  0.3500000E+00  0.5000000E-01  0.1200000E-01
    1        2.607413      2.750309   1.000000   1.000000
    2        4.859836      5.373168   1.000000   1.000000
    3        4.950940      5.627891   1.000000   1.000000
    4        5.088377      5.780536   1.000000   1.000000
    5        6.011488      6.764642   1.000000   0.990890
    6        6.393307      7.104529   1.000550  -0.010720
    7       15.425403     15.602493   0.000000   0.000000
    8       25.270343     25.296871   0.000000   0.000000
    9       27.960511     27.911404   0.000000   0.000000
   10       29.146532     29.216560   0.000000   0.000000
   11       32.980159     32.961434   0.000000   0.000000
   12       34.470101     34.459601   0.000000   0.000000
 
  0.4500000E+00  0.4500000E+00  0.5000000E-01  0.6000000E-02
    1        3.285735      3.655112   1.000000   1.000000
    2        3.669893      4.327682   1.000000   1.000000
    3        6.129196      6.920809   1.000000   0.519017
    4        6.192860      6.925332   1.000001   0.499884
    5        6.309493      7.123259   1.000060  -0.024033
    6        8.161249      8.283546  -0.000000  -0.000000
    7       16.382347     16.546018   0.000000   0.000000
    8       19.747658     19.769899   0.000000   0.000000
    9       20.517329     20.519742   0.000000   0.000000
   10       24.936315     25.021534   0.000000   0.000000
   11       27.288580     27.390759   0.000000   0.000000
   12       46.348533     46.295512   0.000000   0.000000
 
 -0.4500000E+00  0.4500000E+00  0.5000000E-01  0.1200000E-01
    1        3.394866      3.804551   1.000000   1.000000
    2        3.675987      4.326111   1.000000   1.000000
    3        5.916443      6.657351   1.000000   1.033723
    4        6.208917      6.887993   1.000003   0.654873
    5        6.329763      7.200815   1.000106  -0.032561
    6        9.770759      9.851579  -0.000000  -0.000000
    7       14.915440     15.134425   0.000000   0.000000
    8       18.087527     18.136339   0.000000   0.000000
    9       19.768881     19.786163   0.000000   0.000000
   10       25.937215     25.998601   0.000000   0.000000
   11       28.631606     28.717803   0.000000   0.000000
   12       44.765790     44.690443   0.000000   0.000000
 
 -0.3500000E+00  0.4500000E+00  0.5000000E-01  0.1200000E-01
    1        3.652358      4.098906   1.000000   1.000000
    2        3.861361      4.482064   1.000000   1.000000
    3        5.360590      6.030275   1.000000   1.000000
    4        5.998615      6.663207   1.000000   1.034452
    5        6.257945      7.120466   1.000013  -0.022431
    6       10.970561     11.123541  -0.000000  -0.000000
    7       14.844624     14.960973   0.000000   0.000000
    8       15.305803     15.491370   0.000000   0.000000
    9       20.634553     20.668266   0.000000   0.000000
   10       26.561289     26.609022   0.000000   0.000000
   11       32.633526     32.686791   0.000000   0.000000
   12       41.843591     41.771337   0.000000   0.000000
 
 -0.2500000E+00  0.4500000E+00  0.5000000E-01  0.1200000E-01
    1        3.850248      4.406693   1.000000   1.000000
    2        4.197417      4.666338   1.000000   1.000000
    3        4.871761      5.518507   1.000000   1.000000
    4        5.631099      6.303489   1.000000   1.000050
    5        6.196756      7.022316   1.000002   0.138221
    6       10.774947     10.986401  -0.000000  -0.000000
    7       12.417441     12.647092   0.000000   0.000000
    8       17.815479     17.926967   0.000000   0.000000
    9       22.216719     22.266700   0.000000   0.000000
   10       27.299969     27.318437   0.000000   0.000000
   11       37.153159     37.159178   0.000000   0.000000
   12       38.510342     38.503504   0.000000   0.000000
 
 -0.1500000E+00  0.4500000E+00  0.5000000E-01  0.1200000E-01
    1        3.529770      4.029883   1.000000   1.000000
    2        4.596716      5.106965   1.000000   1.000000
    3        5.037707      5.632474   1.000000   1.000000
    4        5.255253      5.928492   1.000000   1.000000
    5        6.184584      6.986429   1.000001   0.254268
    6        9.159722      9.406035  -0.000000  -0.000000
    7       11.769937     12.100737  -0.000000  -0.000000
    8       21.457596     21.516959   0.000000   0.000000
    9       24.282477     24.333226   0.000000   0.000000
   10       28.266336     28.250749   0.000000   0.000000
   11       34.445418     34.443407   0.000000   0.000000
   12       37.722626     37.674648   0.000000   0.000000
 
 -0.5000000E-01  0.4500000E+00  0.5000000E-01  0.1200000E-01
    1        3.106857      3.531857   1.000000   1.000000
    2        4.856572      5.488742   1.000000   1.000000