 running on    4 total cores
 distrk:  each k-point on    4 cores,    1 groups
 distr:  one band on    1 cores,    4 groups
 using from now: INCAR     
 vasp.5.4.4.18Apr17-6-g9f103f2a35 (build Jul 01 2019 03:25:34) complex          
  
 POSCAR found type information on POSCAR  Ni
 POSCAR found :  1 types and       1 ions
 scaLAPACK will be used
 LDA part: xc-table for Pade appr. of Perdew
 POSCAR, INCAR and KPOINTS ok, starting setup
 FFT: planning ...
 WAVECAR not read
 entering main loop
       N       E                     dE             d eps       ncg     rms          rms(c)
DAV:   1     0.196915187654E+02    0.19692E+02   -0.29830E+03  5720   0.602E+02
DAV:   2    -0.521569217694E+01   -0.24907E+02   -0.23012E+02  5616   0.117E+02
DAV:   3    -0.572592716674E+01   -0.51023E+00   -0.50883E+00  6140   0.193E+01
DAV:   4    -0.572864072996E+01   -0.27136E-02   -0.27133E-02  5948   0.129E+00
DAV:   5    -0.572868041808E+01   -0.39688E-04   -0.39688E-04  6132   0.149E-01    0.123E+01
DAV:   6    -0.599620857018E+01   -0.26753E+00   -0.17904E+01  6332   0.518E+01    0.864E+00
DAV:   7    -0.526802323305E+01    0.72819E+00   -0.50897E+00  6276   0.227E+01    0.127E+00
DAV:   8    -0.526640533560E+01    0.16179E-02   -0.12412E-02  5976   0.811E-01    0.724E-01
DAV:   9    -0.526441709489E+01    0.19882E-02   -0.91414E-04  5956   0.193E-01    0.309E-01
DAV:  10    -0.526335070940E+01    0.10664E-02   -0.25558E-03  6180   0.351E-01    0.528E-02
DAV:  11    -0.526336709719E+01   -0.16388E-04   -0.25656E-05  3024   0.486E-02
   1 F= -.52633671E+01 E0= -.52617580E+01  d E =-.482727E-02  mag=     0.6671
 writing wavefunctions
