 vasp.5.4.4.18Apr17-6-g9f103f2a35 (build Jul 01 2019 03:25:34) complex          
  
 executed on             LinuxIFC date 2020.07.09  19:35:56
 running on    4 total cores
 distrk:  each k-point on    4 cores,    1 groups
 distr:  one band on NCORES_PER_BAND=   1 cores,    4 groups


--------------------------------------------------------------------------------------------------------


 INCAR:
 POTCAR:    PAW_PBE Ni 02Aug2007                  
 POTCAR:    PAW_PBE Ni 02Aug2007                  
   VRHFIN =Ni:                                                                  
   LEXCH  = PE                                                                  
   EATOM  =  1077.6739 eV,   79.2068 Ry                                         
                                                                                
   TITEL  = PAW_PBE Ni 02Aug2007                                                
   LULTRA =        F    use ultrasoft PP ?                                      
   IUNSCR =        1    unscreen: 0-lin 1-nonlin 2-no                           
   RPACOR =    2.000    partial core radius                                     
   POMASS =   58.690; ZVAL   =   10.000    mass and valenz                      
   RCORE  =    2.300    outmost cutoff radius                                   
   RWIGS  =    2.430; RWIGS  =    1.286    wigner-seitz radius (au A)           
   ENMAX  =  269.532; ENMIN  =  202.149 eV                                      
   RCLOC  =    1.201    cutoff for local pot                                    
   LCOR   =        T    correct aug charges                                     
   LPAW   =        T    paw PP                                                  
   EAUG   =  544.565                                                            
   DEXC   =    0.000                                                            
   RMAX   =    2.357    core radius for proj-oper                               
   RAUG   =    1.300    factor for augmentation sphere                          
   RDEP   =    2.390    radius for radial grids                                 
   RDEPT  =    1.838    core radius for aug-charge                              
                                                                                
   Atomic configuration                                                         
    9 entries                                                                   
     n  l   j            E        occ.                                          
     1  0  0.50     -8206.4253   2.0000                                         
     2  0  0.50      -976.1748   2.0000                                         
     2  1  1.50      -839.0571   6.0000                                         
     3  0  0.50      -105.9991   2.0000                                         
     3  1  1.50       -66.4603   6.0000                                         
     3  2  2.50        -4.6458   9.0000                                         
     4  0  0.50        -4.4926   1.0000                                         
     4  1  1.50        -4.0817   0.0000                                         
     4  3  2.50        -1.3606   0.0000                                         
   Description                                                                  
     l       E           TYP  RCUT    TYP  RCUT                                 
     2     -4.6457903     23  2.300                                             
     2     -6.0063729     23  2.300                                             
     0     -4.4925590     23  2.300                                             
     0      5.0102601     23  2.300                                             
     1     -2.7211652     23  2.300                                             
     1     16.5183231     23  2.300                                             
  local pseudopotential read in
  partial core-charges read in
  partial kinetic energy density read in
  atomic valenz-charges read in
  non local Contribution for L=           2  read in
    real space projection operators read in
  non local Contribution for L=           2  read in
    real space projection operators read in
  non local Contribution for L=           0  read in
    real space projection operators read in
  non local Contribution for L=           0  read in
    real space projection operators read in
  non local Contribution for L=           1  read in
    real space projection operators read in
  non local Contribution for L=           1  read in
    real space projection operators read in
    PAW grid and wavefunctions read in
 
   number of l-projection  operators is LMAX  =           6
   number of lm-projection operators is LMMAX =          18
 
  PAW_PBE Ni 02Aug2007                  :
 energy of atom  1       EATOM=-1077.6739
 kinetic energy error for atom=    0.0378 (will be added to EATOM!!)
 
 
 POSCAR: FCC Ni Bulk                             
  positions in direct lattice
  No initial velocities read in
 exchange correlation table for  LEXCH =        8
   RHO(1)=    0.500       N(1)  =     2000
   RHO(2)=  100.500       N(2)  =     4000
 


--------------------------------------------------------------------------------------------------------


 ion  position               nearest neighbor table
   1  0.000  0.000  0.000-
 
  LATTYP: Found a face centered cubic cell.
 ALAT       =     3.7500000000
  
  Lattice vectors:
  
 A1 = (   0.0000000000,   1.8750000000,   1.8750000000)
 A2 = (   1.8750000000,   0.0000000000,   1.8750000000)
 A3 = (   1.8750000000,   1.8750000000,   0.0000000000)


Analysis of symmetry for initial positions (statically):
=====================================================================
 Subroutine PRICEL returns:
 Original cell was already a primitive cell.
 

 Routine SETGRP: Setting up the symmetry group for a 
 face centered cubic supercell.


 Subroutine GETGRP returns: Found 48 space group operations
 (whereof 48 operations were pure point group operations)
 out of a pool of 48 trial point group operations.


The static configuration has the point symmetry O_h .


Analysis of symmetry for dynamics (positions and initial velocities):
=====================================================================
 Subroutine PRICEL returns:
 Original cell was already a primitive cell.
 

 Routine SETGRP: Setting up the symmetry group for a 
 face centered cubic supercell.


 Subroutine GETGRP returns: Found 48 space group operations
 (whereof 48 operations were pure point group operations)
 out of a pool of 48 trial point group operations.


The dynamic configuration has the point symmetry O_h .


Analysis of structural, dynamic, and magnetic symmetry:
=====================================================================
 Subroutine PRICEL returns:
 Original cell was already a primitive cell.
 

 Routine SETGRP: Setting up the symmetry group for a 
 face centered cubic supercell.


 Subroutine GETGRP returns: Found 48 space group operations
 (whereof 48 operations were pure point group operations)
 out of a pool of 48 trial point group operations.


The magnetic configuration has the point symmetry O_h .


 Subroutine INISYM returns: Found 48 space group operations
 (whereof 48 operations are pure point group operations),
 and found     1 'primitive' translations

 
 
 KPOINTS: 10x10x10                                

Automatic generation of k-mesh.
Space group operators:
 irot       det(A)        alpha          n_x          n_y          n_z        tau_x        tau_y        tau_z
    1     1.000000     0.000000     1.000000     0.000000     0.000000     0.000000     0.000000     0.000000
    2    -1.000000     0.000000     1.000000     0.000000     0.000000     0.000000     0.000000     0.000000
    3     1.000000   120.000000    -0.577350    -0.577350    -0.577350     0.000000     0.000000     0.000000
    4    -1.000000   120.000000    -0.577350    -0.577350    -0.577350     0.000000     0.000000     0.000000
    5     1.000000   120.000000     0.577350     0.577350     0.577350     0.000000     0.000000     0.000000
    6    -1.000000   120.000000     0.577350     0.577350     0.577350     0.000000     0.000000     0.000000
    7     1.000000    90.000000     0.000000     0.000000    -1.000000     0.000000     0.000000     0.000000
    8    -1.000000    90.000000     0.000000     0.000000    -1.000000     0.000000     0.000000     0.000000
    9     1.000000   180.000000     0.000000     0.707107     0.707107     0.000000     0.000000     0.000000
   10    -1.000000   180.000000     0.000000     0.707107     0.707107     0.000000     0.000000     0.000000
   11     1.000000    90.000000     0.000000     1.000000     0.000000     0.000000     0.000000     0.000000
   12    -1.000000    90.000000     0.000000     1.000000     0.000000     0.000000     0.000000     0.000000
   13     1.000000   180.000000     0.000000     0.000000     1.000000     0.000000     0.000000     0.000000
   14    -1.000000   180.000000     0.000000     0.000000     1.000000     0.000000     0.000000     0.000000
   15     1.000000   120.000000    -0.577350     0.577350     0.577350     0.000000     0.000000     0.000000
   16    -1.000000   120.000000    -0.577350     0.577350     0.577350     0.000000     0.000000     0.000000
   17     1.000000   120.000000    -0.577350     0.577350    -0.577350     0.000000     0.000000     0.000000
   18    -1.000000   120.000000    -0.577350     0.577350    -0.577350     0.000000     0.000000     0.000000
   19     1.000000    90.000000     0.000000     0.000000     1.000000     0.000000     0.000000     0.000000
   20    -1.000000    90.000000     0.000000     0.000000     1.000000     0.000000     0.000000     0.000000
   21     1.000000    90.000000    -1.000000     0.000000     0.000000     0.000000     0.000000     0.000000
   22    -1.000000    90.000000    -1.000000     0.000000     0.000000     0.000000     0.000000     0.000000
   23     1.000000   180.000000     0.707107     0.000000     0.707107     0.000000     0.000000     0.000000
   24    -1.000000   180.000000     0.707107     0.000000     0.707107     0.000000     0.000000     0.000000
   25     1.000000   120.000000     0.577350    -0.577350     0.577350     0.000000     0.000000     0.000000
   26    -1.000000   120.000000     0.577350    -0.577350     0.577350     0.000000     0.000000     0.000000
   27     1.000000   120.000000    -0.577350    -0.577350     0.577350     0.000000     0.000000     0.000000
   28    -1.000000   120.000000    -0.577350    -0.577350     0.577350     0.000000     0.000000     0.000000
   29     1.000000   180.000000     1.000000     0.000000     0.000000     0.000000     0.000000     0.000000
   30    -1.000000   180.000000     1.000000     0.000000     0.000000     0.000000     0.000000     0.000000
   31     1.000000    90.000000     0.000000    -1.000000     0.000000     0.000000     0.000000     0.000000
   32    -1.000000    90.000000     0.000000    -1.000000     0.000000     0.000000     0.000000     0.000000
   33     1.000000   180.000000     0.707107     0.707107     0.000000     0.000000     0.000000     0.000000
   34    -1.000000   180.000000     0.707107     0.707107     0.000000     0.000000     0.000000     0.000000
   35     1.000000    90.000000     1.000000     0.000000     0.000000     0.000000     0.000000     0.000000
   36    -1.000000    90.000000     1.000000     0.000000     0.000000     0.000000     0.000000     0.000000
   37     1.000000   120.000000     0.577350    -0.577350    -0.577350     0.000000     0.000000     0.000000
   38    -1.000000   120.000000     0.577350    -0.577350    -0.577350     0.000000     0.000000     0.000000
   39     1.000000   180.000000     0.000000     1.000000     0.000000     0.000000     0.000000     0.000000
   40    -1.000000   180.000000     0.000000     1.000000     0.000000     0.000000     0.000000     0.000000
   41     1.000000   120.000000     0.577350     0.577350    -0.577350     0.000000     0.000000     0.000000
   42    -1.000000   120.000000     0.577350     0.577350    -0.577350     0.000000     0.000000     0.000000
   43     1.000000   180.000000     0.000000    -0.707107     0.707107     0.000000     0.000000     0.000000
   44    -1.000000   180.000000     0.000000    -0.707107     0.707107     0.000000     0.000000     0.000000
   45     1.000000   180.000000     0.707107    -0.707107     0.000000     0.000000     0.000000     0.000000
   46    -1.000000   180.000000     0.707107    -0.707107     0.000000     0.000000     0.000000     0.000000
   47     1.000000   180.000000     0.707107     0.000000    -0.707107     0.000000     0.000000     0.000000
   48    -1.000000   180.000000     0.707107     0.000000    -0.707107     0.000000     0.000000     0.000000
 
 Subroutine IBZKPT returns following result:
 ===========================================
 
 Found    110 irreducible k-points:
 
 Following reciprocal coordinates:
            Coordinates               Weight
  0.050000  0.050000  0.050000     96.000000
  0.150000  0.050000  0.050000    288.000000
  0.250000  0.050000  0.050000    288.000000
  0.350000  0.050000  0.050000    288.000000
  0.450000  0.050000  0.050000    288.000000
 -0.450000  0.050000  0.050000    288.000000
 -0.350000  0.050000  0.050000    288.000000
 -0.250000  0.050000  0.050000    288.000000
 -0.150000  0.050000  0.050000    288.000000
 -0.050000  0.050000  0.050000    288.000000
  0.150000  0.150000  0.050000    288.000000
  0.250000  0.150000  0.050000    576.000000
  0.350000  0.150000  0.050000    576.000000
  0.450000  0.150000  0.050000    576.000000
 -0.450000  0.150000  0.050000    576.000000
 -0.350000  0.150000  0.050000    576.000000
 -0.250000  0.150000  0.050000    576.000000
 -0.150000  0.150000  0.050000    576.000000
 -0.050000  0.150000  0.050000    576.000000
  0.250000  0.250000  0.050000    288.000000
  0.350000  0.250000  0.050000    576.000000
  0.450000  0.250000  0.050000    576.000000
 -0.450000  0.250000  0.050000    576.000000
 -0.350000  0.250000  0.050000    576.000000
 -0.250000  0.250000  0.050000    576.000000
 -0.150000  0.250000  0.050000    576.000000
 -0.050000  0.250000  0.050000    576.000000
  0.350000  0.350000  0.050000    288.000000
  0.450000  0.350000  0.050000    576.000000
 -0.450000  0.350000  0.050000    576.000000
 -0.350000  0.350000  0.050000    576.000000
 -0.250000  0.350000  0.050000    576.000000
 -0.150000  0.350000  0.050000    576.000000
 -0.050000  0.350000  0.050000    576.000000
  0.450000  0.450000  0.050000    288.000000
 -0.450000  0.450000  0.050000    576.000000
 -0.350000  0.450000  0.050000    576.000000
 -0.250000  0.450000  0.050000    576.000000
 -0.150000  0.450000  0.050000    576.000000
 -0.050000  0.450000  0.050000    576.000000
 -0.450000 -0.450000  0.050000    288.000000
 -0.350000 -0.450000  0.050000    576.000000
 -0.250000 -0.450000  0.050000    576.000000
 -0.150000 -0.450000  0.050000    576.000000
 -0.350000 -0.350000  0.050000    288.000000
 -0.250000 -0.350000  0.050000    576.000000
 -0.150000 -0.350000  0.050000    576.000000
 -0.250000 -0.250000  0.050000    288.000000
 -0.150000 -0.250000  0.050000    576.000000
 -0.150000 -0.150000  0.050000    288.000000
  0.150000  0.150000  0.150000     96.000000
  0.250000  0.150000  0.150000    288.000000
  0.350000  0.150000  0.150000    288.000000
  0.450000  0.150000  0.150000    288.000000
 -0.450000  0.150000  0.150000    288.000000
 -0.350000  0.150000  0.150000    288.000000
 -0.250000  0.150000  0.150000    288.000000
 -0.150000  0.150000  0.150000    288.000000
  0.250000  0.250000  0.150000    288.000000
  0.350000  0.250000  0.150000    576.000000
  0.450000  0.250000  0.150000    576.000000
 -0.450000  0.250000  0.150000    576.000000
 -0.350000  0.250000  0.150000    576.000000
 -0.250000  0.250000  0.150000    576.000000
 -0.150000  0.250000  0.150000    576.000000
  0.350000  0.350000  0.150000    288.000000
  0.450000  0.350000  0.150000    576.000000
 -0.450000  0.350000  0.150000    576.000000
 -0.350000  0.350000  0.150000    576.000000
 -0.250000  0.350000  0.150000    576.000000
 -0.150000  0.350000  0.150000    576.000000
  0.450000  0.450000  0.150000    288.000000
 -0.450000  0.450000  0.150000    576.000000
 -0.350000  0.450000  0.150000    576.000000
 -0.250000  0.450000  0.150000    576.000000
 -0.150000  0.450000  0.150000    576.000000
 -0.450000 -0.450000  0.150000    288.000000
 -0.350000 -0.450000  0.150000    576.000000
 -0.250000 -0.450000  0.150000    576.000000
 -0.350000 -0.350000  0.150000    288.000000
 -0.250000 -0.350000  0.150000    576.000000
 -0.250000 -0.250000  0.150000    288.000000
  0.250000  0.250000  0.250000     96.000000
  0.350000  0.250000  0.250000    288.000000
  0.450000  0.250000  0.250000    288.000000
 -0.450000  0.250000  0.250000    288.000000
 -0.350000  0.250000  0.250000    288.000000
 -0.250000  0.250000  0.250000    288.000000
  0.350000  0.350000  0.250000    288.000000
  0.450000  0.350000  0.250000    576.000000
 -0.450000  0.350000  0.250000    576.000000
 -0.350000  0.350000  0.250000    576.000000
 -0.250000  0.350000  0.250000    576.000000
  0.450000  0.450000  0.250000    288.000000
 -0.450000  0.450000  0.250000    576.000000
 -0.350000  0.450000  0.250000    576.000000
 -0.250000  0.450000  0.250000    576.000000
 -0.450000 -0.450000  0.250000    288.000000
 -0.350000 -0.450000  0.250000    576.000000
 -0.350000 -0.350000  0.250000    288.000000
  0.350000  0.350000  0.350000     96.000000
  0.450000  0.350000  0.350000    288.000000
 -0.450000  0.350000  0.350000    288.000000
 -0.350000  0.350000  0.350000    288.000000
  0.450000  0.450000  0.350000    288.000000
 -0.450000  0.450000  0.350000    576.000000
 -0.350000  0.450000  0.350000    576.000000
 -0.450000 -0.450000  0.350000    288.000000
  0.450000  0.450000  0.450000     96.000000
 -0.450000  0.450000  0.450000    288.000000
 
 Following cartesian coordinates:
            Coordinates               Weight
  0.050000  0.050000  0.050000     96.000000
 -0.050000  0.150000  0.150000    288.000000
 -0.150000  0.250000  0.250000    288.000000
 -0.250000  0.350000  0.350000    288.000000
 -0.350000  0.450000  0.450000    288.000000
  0.550000 -0.450000 -0.450000    288.000000
  0.450000 -0.350000 -0.350000    288.000000
  0.350000 -0.250000 -0.250000    288.000000
  0.250000 -0.150000 -0.150000    288.000000
  0.150000 -0.050000 -0.050000    288.000000
  0.050000  0.050000  0.250000    288.000000
 -0.050000  0.150000  0.350000    576.000000
 -0.150000  0.250000  0.450000    576.000000
 -0.250000  0.350000  0.550000    576.000000
  0.650000 -0.550000 -0.350000    576.000000
  0.550000 -0.450000 -0.250000    576.000000
  0.450000 -0.350000 -0.150000    576.000000
  0.350000 -0.250000 -0.050000    576.000000
  0.250000 -0.150000  0.050000    576.000000
  0.050000  0.050000  0.450000    288.000000
 -0.050000  0.150000  0.550000    576.000000
 -0.150000  0.250000  0.650000    576.000000
  0.750000 -0.650000 -0.250000    576.000000
  0.650000 -0.550000 -0.150000    576.000000
  0.550000 -0.450000 -0.050000    576.000000
  0.450000 -0.350000  0.050000    576.000000
  0.350000 -0.250000  0.150000    576.000000
  0.050000  0.050000  0.650000    288.000000
 -0.050000  0.150000  0.750000    576.000000
  0.850000 -0.750000 -0.150000    576.000000
  0.750000 -0.650000 -0.050000    576.000000
  0.650000 -0.550000  0.050000    576.000000
  0.550000 -0.450000  0.150000    576.000000
  0.450000 -0.350000  0.250000    576.000000
  0.050000  0.050000  0.850000    288.000000
  0.950000 -0.850000 -0.050000    576.000000
  0.850000 -0.750000  0.050000    576.000000
  0.750000 -0.650000  0.150000    576.000000
  0.650000 -0.550000  0.250000    576.000000
  0.550000 -0.450000  0.350000    576.000000
  0.050000  0.050000 -0.950000    288.000000
 -0.050000  0.150000 -0.850000    576.000000
 -0.150000  0.250000 -0.750000    576.000000
 -0.250000  0.350000 -0.650000    576.000000
  0.050000  0.050000 -0.750000    288.000000
 -0.050000  0.150000 -0.650000    576.000000
 -0.150000  0.250000 -0.550000    576.000000
  0.050000  0.050000 -0.550000    288.000000
 -0.050000  0.150000 -0.450000    576.000000
  0.050000  0.050000 -0.350000    288.000000
  0.150000  0.150000  0.150000     96.000000
  0.050000  0.250000  0.250000    288.000000
 -0.050000  0.350000  0.350000    288.000000
 -0.150000  0.450000  0.450000    288.000000
  0.750000 -0.450000 -0.450000    288.000000
  0.650000 -0.350000 -0.350000    288.000000
  0.550000 -0.250000 -0.250000    288.000000
  0.450000 -0.150000 -0.150000    288.000000
  0.150000  0.150000  0.350000    288.000000
  0.050000  0.250000  0.450000    576.000000
 -0.050000  0.350000  0.550000    576.000000
  0.850000 -0.550000 -0.350000    576.000000
  0.750000 -0.450000 -0.250000    576.000000
  0.650000 -0.350000 -0.150000    576.000000
  0.550000 -0.250000 -0.050000    576.000000
  0.150000  0.150000  0.550000    288.000000
  0.050000  0.250000  0.650000    576.000000
  0.950000 -0.650000 -0.250000    576.000000
  0.850000 -0.550000 -0.150000    576.000000
  0.750000 -0.450000 -0.050000    576.000000
  0.650000 -0.350000  0.050000    576.000000
  0.150000  0.150000  0.750000    288.000000
  1.050000 -0.750000 -0.150000    576.000000
  0.950000 -0.650000 -0.050000    576.000000
  0.850000 -0.550000  0.050000    576.000000
  0.750000 -0.450000  0.150000    576.000000
  0.150000  0.150000 -1.050000    288.000000
  0.050000  0.250000 -0.950000    576.000000
 -0.050000  0.350000 -0.850000    576.000000
  0.150000  0.150000 -0.850000    288.000000
  0.050000  0.250000 -0.750000    576.000000
  0.150000  0.150000 -0.650000    288.000000
  0.250000  0.250000  0.250000     96.000000
  0.150000  0.350000  0.350000    288.000000
  0.050000  0.450000  0.450000    288.000000
  0.950000 -0.450000 -0.450000    288.000000
  0.850000 -0.350000 -0.350000    288.000000
  0.750000 -0.250000 -0.250000    288.000000
  0.250000  0.250000  0.450000    288.000000
  0.150000  0.350000  0.550000    576.000000
  1.050000 -0.550000 -0.350000    576.000000
  0.950000 -0.450000 -0.250000    576.000000
  0.850000 -0.350000 -0.150000    576.000000
  0.250000  0.250000  0.650000    288.000000
  1.150000 -0.650000 -0.250000    576.000000
  1.050000 -0.550000 -0.150000    576.000000
  0.950000 -0.450000 -0.050000    576.000000
  0.250000  0.250000 -1.150000    288.000000
  0.150000  0.350000 -1.050000    576.000000
  0.250000  0.250000 -0.950000    288.000000
  0.350000  0.350000  0.350000     96.000000
  0.250000  0.450000  0.450000    288.000000
  1.150000 -0.450000 -0.450000    288.000000
  1.050000 -0.350000 -0.350000    288.000000
  0.350000  0.350000  0.550000    288.000000
  1.250000 -0.550000 -0.350000    576.000000
  1.150000 -0.450000 -0.250000    576.000000
  0.350000  0.350000 -1.250000    288.000000
  0.450000  0.450000  0.450000     96.000000
  1.350000 -0.450000 -0.450000    288.000000
 


--------------------------------------------------------------------------------------------------------




 Dimension of arrays:
   k-points           NKPTS =    110   k-points in BZ     NKDIM =    110   number of bands    NBANDS=     12
   number of dos      NEDOS =    301   number of ions     NIONS =      1
   non local maximal  LDIM  =      6   non local SUM 2l+1 LMDIM =     18
   total plane-waves  NPLWV =   1728
   max r-space proj   IRMAX =      1   max aug-charges    IRDMAX=   4448
   dimension x,y,z NGX =    12 NGY =   12 NGZ =   12
   dimension x,y,z NGXF=    24 NGYF=   24 NGZF=   24
   support grid    NGXF=    24 NGYF=   24 NGZF=   24
   ions per type =               1
   NGX,Y,Z   is equivalent  to a cutoff of   7.52,  7.52,  7.52 a.u.
   NGXF,Y,Z  is equivalent  to a cutoff of  15.05, 15.05, 15.05 a.u.

 SYSTEM =  fcc Ni                                  
 POSCAR =  FCC Ni Bulk                             

 Startparameter for this run:
   NWRITE =      2    write-flag & timer
   PREC   = normal    normal or accurate (medium, high low for compatibility)
   ISTART =      0    job   : 0-new  1-cont  2-samecut
   ICHARG =      2    charge: 1-file 2-atom 10-const
   ISPIN  =      2    spin polarized calculation?
   LNONCOLLINEAR =      F non collinear calculations
   LSORBIT =      F    spin-orbit coupling
   INIWAV =      1    electr: 0-lowe 1-rand  2-diag
   LASPH  =      F    aspherical Exc in radial PAW
   METAGGA=      F    non-selfconsistent MetaGGA calc.

 Electronic Relaxation 1
   ENCUT  =  270.0 eV  19.84 Ry    4.45 a.u.   3.55  3.55  3.55*2*pi/ulx,y,z
   ENINI  =  270.0     initial cutoff
   ENAUG  =  544.6 eV  augmentation charge cutoff
   NELM   =     60;   NELMIN=  2; NELMDL= -5     # of ELM steps 
   EDIFF  = 0.1E-03   stopping-criterion for ELM
   LREAL  =      F    real-space projection
   NLSPLINE    = F    spline interpolate recip. space projectors
   LCOMPAT=      F    compatible to vasp.4.4
   GGA_COMPAT  = T    GGA compatible to vasp.4.4-vasp.4.6
   LMAXPAW     = -100 max onsite density
   LMAXMIX     =    2 max onsite mixed and CHGCAR
   VOSKOWN=      0    Vosko Wilk Nusair interpolation
   ROPT   =    0.00000
 Ionic relaxation
   EDIFFG = 0.1E-02   stopping-criterion for IOM
   NSW    =      0    number of steps for IOM
   NBLOCK =      1;   KBLOCK =      1    inner block; outer block 
   IBRION =     -1    ionic relax: 0-MD 1-quasi-New 2-CG
   NFREE  =      0    steps in history (QN), initial steepest desc. (CG)
   ISIF   =      2    stress and relaxation
   IWAVPR =     10    prediction:  0-non 1-charg 2-wave 3-comb
   ISYM   =      2    0-nonsym 1-usesym 2-fastsym
   LCORR  =      T    Harris-Foulkes like correction to forces

   POTIM  = 0.5000    time-step for ionic-motion
   TEIN   =    0.0    initial temperature
   TEBEG  =    0.0;   TEEND  =   0.0 temperature during run
   SMASS  =  -3.00    Nose mass-parameter (am)
   estimated Nose-frequenzy (Omega)   =  0.10E-29 period in steps =****** mass=  -0.161E-27a.u.
   SCALEE = 1.0000    scale energy and forces
   NPACO  =    256;   APACO  = 16.0  distance and # of slots for P.C.
   PSTRESS=    0.0 pullay stress

  Mass of Ions in am
   POMASS =  58.69
  Ionic Valenz
   ZVAL   =  10.00
  Atomic Wigner-Seitz radii
   RWIGS  =  -1.00
  virtual crystal weights 
   VCA    =   1.00
   NELECT =      10.0000    total number of electrons
   NUPDOWN=      -1.0000    fix difference up-down

 DOS related values:
   EMIN   =  10.00;   EMAX   =-10.00  energy-range for DOS
   EFERMI =   0.00
   ISMEAR =     1;   SIGMA  =   0.20  broadening in eV -4-tet -1-fermi 0-gaus

 Electronic relaxation 2 (details)
   IALGO  =     38    algorithm
   LDIAG  =      T    sub-space diagonalisation (order eigenvalues)
   LSUBROT=      F    optimize rotation matrix (better conditioning)
   TURBO    =      0    0=normal 1=particle mesh
   IRESTART =      0    0=no restart 2=restart with 2 vectors
   NREBOOT  =      0    no. of reboots
   NMIN     =      0    reboot dimension
   EREF     =   0.00    reference energy to select bands
   IMIX   =      4    mixing-type and parameters
     AMIX     =   0.40;   BMIX     =  1.00
     AMIX_MAG =   1.60;   BMIX_MAG =  1.00
     AMIN     =   0.10
     WC   =   100.;   INIMIX=   1;  MIXPRE=   1;  MAXMIX= -45

 Intra band minimization:
   WEIMIN = 0.0000     energy-eigenvalue tresh-hold
   EBREAK =  0.21E-05  absolut break condition
   DEPER  =   0.30     relativ break condition  

   TIME   =   0.40     timestep for ELM

  volume/ion in A,a.u.               =      13.18        88.97
  Fermi-wavevector in a.u.,A,eV,Ry     =   1.493013  2.821385 30.328577  2.229088
  Thomas-Fermi vector in A             =   2.605468
 
 Write flags
   LWAVE        =      T    write WAVECAR
   LDOWNSAMPLE  =      F    k-point downsampling of WAVECAR
   LCHARG       =      T    write CHGCAR
   LVTOT        =      F    write LOCPOT, total local potential
   LVHAR        =      F    write LOCPOT, Hartree potential only
   LELF         =      F    write electronic localiz. function (ELF)
   LORBIT       =      0    0 simple, 1 ext, 2 COOP (PROOUT), +10 PAW based schemes


 Dipole corrections
   LMONO  =      F    monopole corrections only (constant potential shift)
   LDIPOL =      F    correct potential (dipole corrections)
   IDIPOL =      0    1-x, 2-y, 3-z, 4-all directions 
   EPSILON=  1.0000000 bulk dielectric constant

 Exchange correlation treatment:
   GGA     =    --    GGA type
   LEXCH   =     8    internal setting for exchange type
   VOSKOWN=      0    Vosko Wilk Nusair interpolation
   LHFCALC =     F    Hartree Fock is set to
   LHFONE  =     F    Hartree Fock one center treatment
   AEXX    =    0.0000 exact exchange contribution

 Linear response parameters
   LEPSILON=     F    determine dielectric tensor
   LRPA    =     F    only Hartree local field effects (RPA)
   LNABLA  =     F    use nabla operator in PAW spheres
   LVEL    =     F    velocity operator in full k-point grid
   LINTERFAST=   F  fast interpolation
   KINTER  =     0    interpolate to denser k-point grid
   CSHIFT  =0.1000    complex shift for real part using Kramers Kronig
   OMEGAMAX=  -1.0    maximum frequency
   DEG_THRESHOLD= 0.2000000E-02 threshold for treating states as degnerate
   RTIME   =   -0.100 relaxation time in fs
  (WPLASMAI=    0.000 imaginary part of plasma frequency in eV, 0.658/RTIME)
   DFIELD  = 0.0000000 0.0000000 0.0000000 field for delta impulse in time
 
 Orbital magnetization related:
   ORBITALMAG=     F  switch on orbital magnetization
   LCHIMAG   =     F  perturbation theory with respect to B field
   DQ        =  0.001000  dq finite difference perturbation B field
   LLRAUG    =     F  two centre corrections for induced B field



--------------------------------------------------------------------------------------------------------


 Static calculation
 charge density and potential will be updated during run
 spin polarized calculation
 Variant of blocked Davidson
 Davidson routine will perform the subspace rotation
 perform sub-space diagonalisation
    after iterative eigenvector-optimisation
 modified Broyden-mixing scheme, WC =      100.0
 initial mixing is a Kerker type mixing with AMIX =  0.4000 and BMIX =      1.0000
 Hartree-type preconditioning will be used
 using additional bands            7
 reciprocal scheme for non local part
 use partial core corrections
 calculate Harris-corrections to forces 
   (improved forces if not selfconsistent)
 use gradient corrections 
 use of overlap-Matrix (Vanderbilt PP)
 Methfessel and Paxton  Order N= 1 SIGMA  =   0.20


--------------------------------------------------------------------------------------------------------


  energy-cutoff  :      270.00
  volume of cell :       13.18
      direct lattice vectors                 reciprocal lattice vectors
     0.000000000  1.875000000  1.875000000    -0.266666667  0.266666667  0.266666667
     1.875000000  0.000000000  1.875000000     0.266666667 -0.266666667  0.266666667
     1.875000000  1.875000000  0.000000000     0.266666667  0.266666667 -0.266666667

  length of vectors
     2.651650429  2.651650429  2.651650429     0.461880215  0.461880215  0.461880215


 
 k-points in units of 2pi/SCALE and weight: 10x10x10                                
   0.05000000  0.05000000  0.05000000       0.002
  -0.05000000  0.15000000  0.15000000       0.006
  -0.15000000  0.25000000  0.25000000       0.006
  -0.25000000  0.35000000  0.35000000       0.006
  -0.35000000  0.45000000  0.45000000       0.006
   0.55000000 -0.45000000 -0.45000000       0.006
   0.45000000 -0.35000000 -0.35000000       0.006
   0.35000000 -0.25000000 -0.25000000       0.006
   0.25000000 -0.15000000 -0.15000000       0.006
   0.15000000 -0.05000000 -0.05000000       0.006
   0.05000000  0.05000000  0.25000000       0.006
  -0.05000000  0.15000000  0.35000000       0.012
  -0.15000000  0.25000000  0.45000000       0.012
  -0.25000000  0.35000000  0.55000000       0.012
   0.65000000 -0.55000000 -0.35000000       0.012
   0.55000000 -0.45000000 -0.25000000       0.012
   0.45000000 -0.35000000 -0.15000000       0.012
   0.35000000 -0.25000000 -0.05000000       0.012
   0.25000000 -0.15000000  0.05000000       0.012
   0.05000000  0.05000000  0.45000000       0.006
  -0.05000000  0.15000000  0.55000000       0.012
  -0.15000000  0.25000000  0.65000000       0.012
   0.75000000 -0.65000000 -0.25000000       0.012
   0.65000000 -0.55000000 -0.15000000       0.012
   0.55000000 -0.45000000 -0.05000000       0.012
   0.45000000 -0.35000000  0.05000000       0.012
   0.35000000 -0.25000000  0.15000000       0.012
   0.05000000  0.05000000  0.65000000       0.006
  -0.05000000  0.15000000  0.75000000       0.012
   0.85000000 -0.75000000 -0.15000000       0.012
   0.75000000 -0.65000000 -0.05000000       0.012
   0.65000000 -0.55000000  0.05000000       0.012
   0.55000000 -0.45000000  0.15000000       0.012
   0.45000000 -0.35000000  0.25000000       0.012
   0.05000000  0.05000000  0.85000000       0.006
   0.95000000 -0.85000000 -0.05000000       0.012
   0.85000000 -0.75000000  0.05000000       0.012
   0.75000000 -0.65000000  0.15000000       0.012
   0.65000000 -0.55000000  0.25000000       0.012
   0.55000000 -0.45000000  0.35000000       0.012
   0.05000000  0.05000000 -0.95000000       0.006
  -0.05000000  0.15000000 -0.85000000       0.012
  -0.15000000  0.25000000 -0.75000000       0.012
  -0.25000000  0.35000000 -0.65000000       0.012
   0.05000000  0.05000000 -0.75000000       0.006
  -0.05000000  0.15000000 -0.65000000       0.012
  -0.15000000  0.25000000 -0.55000000       0.012
   0.05000000  0.05000000 -0.55000000       0.006
  -0.05000000  0.15000000 -0.45000000       0.012
   0.05000000  0.05000000 -0.35000000       0.006
   0.15000000  0.15000000  0.15000000       0.002
   0.05000000  0.25000000  0.25000000       0.006
  -0.05000000  0.35000000  0.35000000       0.006
  -0.15000000  0.45000000  0.45000000       0.006
   0.75000000 -0.45000000 -0.45000000       0.006
   0.65000000 -0.35000000 -0.35000000       0.006
   0.55000000 -0.25000000 -0.25000000       0.006
   0.45000000 -0.15000000 -0.15000000       0.006
   0.15000000  0.15000000  0.35000000       0.006
   0.05000000  0.25000000  0.45000000       0.012
  -0.05000000  0.35000000  0.55000000       0.012
   0.85000000 -0.55000000 -0.35000000       0.012
   0.75000000 -0.45000000 -0.25000000       0.012
   0.65000000 -0.35000000 -0.15000000       0.012
   0.55000000 -0.25000000 -0.05000000       0.012
   0.15000000  0.15000000  0.55000000       0.006
   0.05000000  0.25000000  0.65000000       0.012
   0.95000000 -0.65000000 -0.25000000       0.012
   0.85000000 -0.55000000 -0.15000000       0.012
   0.75000000 -0.45000000 -0.05000000       0.012
   0.65000000 -0.35000000  0.05000000       0.012
   0.15000000  0.15000000  0.75000000       0.006
   1.05000000 -0.75000000 -0.15000000       0.012
   0.95000000 -0.65000000 -0.05000000       0.012
   0.85000000 -0.55000000  0.05000000       0.012
   0.75000000 -0.45000000  0.15000000       0.012
   0.15000000  0.15000000 -1.05000000       0.006
   0.05000000  0.25000000 -0.95000000       0.012
  -0.05000000  0.35000000 -0.85000000       0.012
   0.15000000  0.15000000 -0.85000000       0.006
   0.05000000  0.25000000 -0.75000000       0.012
   0.15000000  0.15000000 -0.65000000       0.006
   0.25000000  0.25000000  0.25000000       0.002
   0.15000000  0.35000000  0.35000000       0.006
   0.05000000  0.45000000  0.45000000       0.006
   0.95000000 -0.45000000 -0.45000000       0.006
   0.85000000 -0.35000000 -0.35000000       0.006
   0.75000000 -0.25000000 -0.25000000       0.006
   0.25000000  0.25000000  0.45000000       0.006
   0.15000000  0.35000000  0.55000000       0.012
   1.05000000 -0.55000000 -0.35000000       0.012
   0.95000000 -0.45000000 -0.25000000       0.012
   0.85000000 -0.35000000 -0.15000000       0.012
   0.25000000  0.25000000  0.65000000       0.006
   1.15000000 -0.65000000 -0.25000000       0.012
   1.05000000 -0.55000000 -0.15000000       0.012
   0.95000000 -0.45000000 -0.05000000       0.012
   0.25000000  0.25000000 -1.15000000       0.006
   0.15000000  0.35000000 -1.05000000       0.012
   0.25000000  0.25000000 -0.95000000       0.006
   0.35000000  0.35000000  0.35000000       0.002
   0.25000000  0.45000000  0.45000000       0.006
   1.15000000 -0.45000000 -0.45000000       0.006
   1.05000000 -0.35000000 -0.35000000       0.006
   0.35000000  0.35000000  0.55000000       0.006
   1.25000000 -0.55000000 -0.35000000       0.012
   1.15000000 -0.45000000 -0.25000000       0.012
   0.35000000  0.35000000 -1.25000000       0.006
   0.45000000  0.45000000  0.45000000       0.002
   1.35000000 -0.45000000 -0.45000000       0.006
 
 k-points in reciprocal lattice and weights: 10x10x10                                
   0.05000000  0.05000000  0.05000000       0.002
   0.15000000  0.05000000  0.05000000       0.006
   0.25000000  0.05000000  0.05000000       0.006
   0.35000000  0.05000000  0.05000000       0.006
   0.45000000  0.05000000  0.05000000       0.006
  -0.45000000  0.05000000  0.05000000       0.006
  -0.35000000  0.05000000  0.05000000       0.006
  -0.25000000  0.05000000  0.05000000       0.006
  -0.15000000  0.05000000  0.05000000       0.006
  -0.05000000  0.05000000  0.05000000       0.006
   0.15000000  0.15000000  0.05000000       0.006
   0.25000000  0.15000000  0.05000000       0.012
   0.35000000  0.15000000  0.05000000       0.012
   0.45000000  0.15000000  0.05000000       0.012
  -0.45000000  0.15000000  0.05000000       0.012
  -0.35000000  0.15000000  0.05000000       0.012
  -0.25000000  0.15000000  0.05000000       0.012
  -0.15000000  0.15000000  0.05000000       0.012
  -0.05000000  0.15000000  0.05000000       0.012
   0.25000000  0.25000000  0.05000000       0.006
   0.35000000  0.25000000  0.05000000       0.012
   0.45000000  0.25000000  0.05000000       0.012
  -0.45000000  0.25000000  0.05000000       0.012
  -0.35000000  0.25000000  0.05000000       0.012
  -0.25000000  0.25000000  0.05000000       0.012
  -0.15000000  0.25000000  0.05000000       0.012
  -0.05000000  0.25000000  0.05000000       0.012
   0.35000000  0.35000000  0.05000000       0.006
   0.45000000  0.35000000  0.05000000       0.012
  -0.45000000  0.35000000  0.05000000       0.012
  -0.35000000  0.35000000  0.05000000       0.012
  -0.25000000  0.35000000  0.05000000       0.012
  -0.15000000  0.35000000  0.05000000       0.012
  -0.05000000  0.35000000  0.05000000       0.012
   0.45000000  0.45000000  0.05000000       0.006
  -0.45000000  0.45000000  0.05000000       0.012
  -0.35000000  0.45000000  0.05000000       0.012
  -0.25000000  0.45000000  0.05000000       0.012
  -0.15000000  0.45000000  0.05000000       0.012
  -0.05000000  0.45000000  0.05000000       0.012
  -0.45000000 -0.45000000  0.05000000       0.006
  -0.35000000 -0.45000000  0.05000000       0.012
  -0.25000000 -0.45000000  0.05000000       0.012
  -0.15000000 -0.45000000  0.05000000       0.012
  -0.35000000 -0.35000000  0.05000000       0.006
  -0.25000000 -0.35000000  0.05000000       0.012
  -0.15000000 -0.35000000  0.05000000       0.012
  -0.25000000 -0.25000000  0.05000000       0.006
  -0.15000000 -0.25000000  0.05000000       0.012
  -0.15000000 -0.15000000  0.05000000       0.006
   0.15000000  0.15000000  0.15000000       0.002
   0.25000000  0.15000000  0.15000000       0.006
   0.35000000  0.15000000  0.15000000       0.006
   0.45000000  0.15000000  0.15000000       0.006
  -0.45000000  0.15000000  0.15000000       0.006
  -0.35000000  0.15000000  0.15000000       0.006
  -0.25000000  0.15000000  0.15000000       0.006
  -0.15000000  0.15000000  0.15000000       0.006
   0.25000000  0.25000000  0.15000000       0.006
   0.35000000  0.25000000  0.15000000       0.012
   0.45000000  0.25000000  0.15000000       0.012
  -0.45000000  0.25000000  0.15000000       0.012
  -0.35000000  0.25000000  0.15000000       0.012
  -0.25000000  0.25000000  0.15000000       0.012
  -0.15000000  0.25000000  0.15000000       0.012
   0.35000000  0.35000000  0.15000000       0.006
   0.45000000  0.35000000  0.15000000       0.012
  -0.45000000  0.35000000  0.15000000       0.012
  -0.35000000  0.35000000  0.15000000       0.012
  -0.25000000  0.35000000  0.15000000       0.012
  -0.15000000  0.35000000  0.15000000       0.012
   0.45000000  0.45000000  0.15000000       0.006
  -0.45000000  0.45000000  0.15000000       0.012
  -0.35000000  0.45000000  0.15000000       0.012
  -0.25000000  0.45000000  0.15000000       0.012
  -0.15000000  0.45000000  0.15000000       0.012
  -0.45000000 -0.45000000  0.15000000       0.006
  -0.35000000 -0.45000000  0.15000000       0.012
  -0.25000000 -0.45000000  0.15000000       0.012
  -0.35000000 -0.35000000  0.15000000       0.006
  -0.25000000 -0.35000000  0.15000000       0.012
  -0.25000000 -0.25000000  0.15000000       0.006
   0.25000000  0.25000000  0.25000000       0.002
   0.35000000  0.25000000  0.25000000       0.006
   0.45000000  0.25000000  0.25000000       0.006
  -0.45000000  0.25000000  0.25000000       0.006
  -0.35000000  0.25000000  0.25000000       0.006
  -0.25000000  0.25000000  0.25000000       0.006
   0.35000000  0.35000000  0.25000000       0.006
   0.45000000  0.35000000  0.25000000       0.012
  -0.45000000  0.35000000  0.25000000       0.012
  -0.35000000  0.35000000  0.25000000       0.012
  -0.25000000  0.35000000  0.25000000       0.012
   0.45000000  0.45000000  0.25000000       0.006
  -0.45000000  0.45000000  0.25000000       0.012
  -0.35000000  0.45000000  0.25000000       0.012
  -0.25000000  0.45000000  0.25000000       0.012
  -0.45000000 -0.45000000  0.25000000       0.006
  -0.35000000 -0.45000000  0.25000000       0.012
  -0.35000000 -0.35000000  0.25000000       0.006
   0.35000000  0.35000000  0.35000000       0.002
   0.45000000  0.35000000  0.35000000       0.006
  -0.45000000  0.35000000  0.35000000       0.006
  -0.35000000  0.35000000  0.35000000       0.006
   0.45000000  0.45000000  0.35000000       0.006
  -0.45000000  0.45000000  0.35000000       0.012
  -0.35000000  0.45000000  0.35000000       0.012
  -0.45000000 -0.45000000  0.35000000       0.006
   0.45000000  0.45000000  0.45000000       0.002
  -0.45000000  0.45000000  0.45000000       0.006
 
 position of ions in fractional coordinates (direct lattice) 
   0.00000000  0.00000000  0.00000000
 
 position of ions in cartesian coordinates  (Angst):
   0.00000000  0.00000000  0.00000000
 


--------------------------------------------------------------------------------------------------------


 k-point  1 :   0.0500 0.0500 0.0500  plane waves:     137
 k-point  2 :   0.1500 0.0500 0.0500  plane waves:     135
 k-point  3 :   0.2500 0.0500 0.0500  plane waves:     137
 k-point  4 :   0.3500 0.0500 0.0500  plane waves:     141
 k-point  5 :   0.4500 0.0500 0.0500  plane waves:     135
 k-point  6 :  -0.4500 0.0500 0.0500  plane waves:     135
 k-point  7 :  -0.3500 0.0500 0.0500  plane waves:     138
 k-point  8 :  -0.2500 0.0500 0.0500  plane waves:     141
 k-point  9 :  -0.1500 0.0500 0.0500  plane waves:     137
 k-point 10 :  -0.0500 0.0500 0.0500  plane waves:     136
 k-point 11 :   0.1500 0.1500 0.0500  plane waves:     134
 k-point 12 :   0.2500 0.1500 0.0500  plane waves:     136
 k-point 13 :   0.3500 0.1500 0.0500  plane waves:     138
 k-point 14 :   0.4500 0.1500 0.0500  plane waves:     134
 k-point 15 :  -0.4500 0.1500 0.0500  plane waves:     131
 k-point 16 :  -0.3500 0.1500 0.0500  plane waves:     134
 k-point 17 :  -0.2500 0.1500 0.0500  plane waves:     137
 k-point 18 :  -0.1500 0.1500 0.0500  plane waves:     137
 k-point 19 :  -0.0500 0.1500 0.0500  plane waves:     137
 k-point 20 :   0.2500 0.2500 0.0500  plane waves:     133
 k-point 21 :   0.3500 0.2500 0.0500  plane waves:     135
 k-point 22 :   0.4500 0.2500 0.0500  plane waves:     136
 k-point 23 :  -0.4500 0.2500 0.0500  plane waves:     130
 k-point 24 :  -0.3500 0.2500 0.0500  plane waves:     128
 k-point 25 :  -0.2500 0.2500 0.0500  plane waves:     134
 k-point 26 :  -0.1500 0.2500 0.0500  plane waves:     138
 k-point 27 :  -0.0500 0.2500 0.0500  plane waves:     137
 k-point 28 :   0.3500 0.3500 0.0500  plane waves:     129
 k-point 29 :   0.4500 0.3500 0.0500  plane waves:     131
 k-point 30 :  -0.4500 0.3500 0.0500  plane waves:     129
 k-point 31 :  -0.3500 0.3500 0.0500  plane waves:     131
 k-point 32 :  -0.2500 0.3500 0.0500  plane waves:     131
 k-point 33 :  -0.1500 0.3500 0.0500  plane waves:     133
 k-point 34 :  -0.0500 0.3500 0.0500  plane waves:     137
 k-point 35 :   0.4500 0.4500 0.0500  plane waves:     129
 k-point 36 :  -0.4500 0.4500 0.0500  plane waves:     128
 k-point 37 :  -0.3500 0.4500 0.0500  plane waves:     130
 k-point 38 :  -0.2500 0.4500 0.0500  plane waves:     131
 k-point 39 :  -0.1500 0.4500 0.0500  plane waves:     129
 k-point 40 :  -0.0500 0.4500 0.0500  plane waves:     133
 k-point 41 :  -0.4500-0.4500 0.0500  plane waves:     125
 k-point 42 :  -0.3500-0.4500 0.0500  plane waves:     128
 k-point 43 :  -0.2500-0.4500 0.0500  plane waves:     130
 k-point 44 :  -0.1500-0.4500 0.0500  plane waves:     133
 k-point 45 :  -0.3500-0.3500 0.0500  plane waves:     129
 k-point 46 :  -0.2500-0.3500 0.0500  plane waves:     132
 k-point 47 :  -0.1500-0.3500 0.0500  plane waves:     136
 k-point 48 :  -0.2500-0.2500 0.0500  plane waves:     133
 k-point 49 :  -0.1500-0.2500 0.0500  plane waves:     137
 k-point 50 :  -0.1500-0.1500 0.0500  plane waves:     134
 k-point 51 :   0.1500 0.1500 0.1500  plane waves:     132
 k-point 52 :   0.2500 0.1500 0.1500  plane waves:     139
 k-point 53 :   0.3500 0.1500 0.1500  plane waves:     137
 k-point 54 :   0.4500 0.1500 0.1500  plane waves:     135
 k-point 55 :  -0.4500 0.1500 0.1500  plane waves:     131
 k-point 56 :  -0.3500 0.1500 0.1500  plane waves:     134
 k-point 57 :  -0.2500 0.1500 0.1500  plane waves:     136
 k-point 58 :  -0.1500 0.1500 0.1500  plane waves:     138
 k-point 59 :   0.2500 0.2500 0.1500  plane waves:     138
 k-point 60 :   0.3500 0.2500 0.1500  plane waves:     136
 k-point 61 :   0.4500 0.2500 0.1500  plane waves:     138
 k-point 62 :  -0.4500 0.2500 0.1500  plane waves:     132
 k-point 63 :  -0.3500 0.2500 0.1500  plane waves:     131
 k-point 64 :  -0.2500 0.2500 0.1500  plane waves:     134
 k-point 65 :  -0.1500 0.2500 0.1500  plane waves:     135
 k-point 66 :   0.3500 0.3500 0.1500  plane waves:     136
 k-point 67 :   0.4500 0.3500 0.1500  plane waves:     133
 k-point 68 :  -0.4500 0.3500 0.1500  plane waves:     131
 k-point 69 :  -0.3500 0.3500 0.1500  plane waves:     130
 k-point 70 :  -0.2500 0.3500 0.1500  plane waves:     131
 k-point 71 :  -0.1500 0.3500 0.1500  plane waves:     131
 k-point 72 :   0.4500 0.4500 0.1500  plane waves:     131
 k-point 73 :  -0.4500 0.4500 0.1500  plane waves:     129
 k-point 74 :  -0.3500 0.4500 0.1500  plane waves:     130
 k-point 75 :  -0.2500 0.4500 0.1500  plane waves:     128
 k-point 76 :  -0.1500 0.4500 0.1500  plane waves:     133
 k-point 77 :  -0.4500-0.4500 0.1500  plane waves:     129
 k-point 78 :  -0.3500-0.4500 0.1500  plane waves:     130
 k-point 79 :  -0.2500-0.4500 0.1500  plane waves:     129
 k-point 80 :  -0.3500-0.3500 0.1500  plane waves:     129
 k-point 81 :  -0.2500-0.3500 0.1500  plane waves:     130
 k-point 82 :  -0.2500-0.2500 0.1500  plane waves:     134
 k-point 83 :   0.2500 0.2500 0.2500  plane waves:     138
 k-point 84 :   0.3500 0.2500 0.2500  plane waves:     138
 k-point 85 :   0.4500 0.2500 0.2500  plane waves:     137
 k-point 86 :  -0.4500 0.2500 0.2500  plane waves:     135
 k-point 87 :  -0.3500 0.2500 0.2500  plane waves:     129
 k-point 88 :  -0.2500 0.2500 0.2500  plane waves:     132
 k-point 89 :   0.3500 0.3500 0.2500  plane waves:     140
 k-point 90 :   0.4500 0.3500 0.2500  plane waves:     134
 k-point 91 :  -0.4500 0.3500 0.2500  plane waves:     132
 k-point 92 :  -0.3500 0.3500 0.2500  plane waves:     131
 k-point 93 :  -0.2500 0.3500 0.2500  plane waves:     130
 k-point 94 :   0.4500 0.4500 0.2500  plane waves:     134
 k-point 95 :  -0.4500 0.4500 0.2500  plane waves:     130
 k-point 96 :  -0.3500 0.4500 0.2500  plane waves:     132
 k-point 97 :  -0.2500 0.4500 0.2500  plane waves:     130
 k-point 98 :  -0.4500-0.4500 0.2500  plane waves:     128
 k-point 99 :  -0.3500-0.4500 0.2500  plane waves:     129
 k-point ** :  -0.3500-0.3500 0.2500  plane waves:     130
 k-point ** :   0.3500 0.3500 0.3500  plane waves:     138
 k-point ** :   0.4500 0.3500 0.3500  plane waves:     135
 k-point ** :  -0.4500 0.3500 0.3500  plane waves:     131
 k-point ** :  -0.3500 0.3500 0.3500  plane waves:     127
 k-point ** :   0.4500 0.4500 0.3500  plane waves:     132
 k-point ** :  -0.4500 0.4500 0.3500  plane waves:     132
 k-point ** :  -0.3500 0.4500 0.3500  plane waves:     129
 k-point ** :  -0.4500-0.4500 0.3500  plane waves:     129
 k-point ** :   0.4500 0.4500 0.4500  plane waves:     135
 k-point ** :  -0.4500 0.4500 0.4500  plane waves:     129

 maximum and minimum number of plane-waves per node :       141      125

 maximum number of plane-waves:       141
 maximum index in each direction: 
   IXMAX=    3   IYMAX=    3   IZMAX=    3
   IXMIN=   -4   IYMIN=   -3   IZMIN=   -3


 serial   3D FFT for wavefunctions
 parallel 3D FFT for charge:
    minimum data exchange during FFTs selected (reduces bandwidth)


 total amount of memory used by VASP MPI-rank0    34835. kBytes
=======================================================================

   base      :      30000. kBytes
   nonl-proj :       2283. kBytes
   fftplans  :        238. kBytes
   grid      :        552. kBytes
   one-center:         31. kBytes
   wavefun   :       1731. kBytes
 
     INWAV:  cpu time    0.0001: real time    0.0002
 Broyden mixing: mesh for mixing (old mesh)
   NGX =  7   NGY =  7   NGZ =  7
  (NGX  = 24   NGY  = 24   NGZ  = 24)
  gives a total of    343 points

 initial charge density was supplied:
 charge density of overlapping atoms calculated
 number of electron      10.0000000 magnetization       3.0000000
 keeping initial charge density in first step


--------------------------------------------------------------------------------------------------------


 Maximum index for augmentation-charges         1033 (set IRDMAX)


--------------------------------------------------------------------------------------------------------


 First call to EWALD:  gamma=   0.750
 Maximum number of real-space cells 3x 3x 3
 Maximum number of reciprocal cells 3x 3x 3

    FEWALD:  cpu time    0.0010: real time    0.0010


--------------------------------------- Iteration      1(   1)  ---------------------------------------


    POTLOK:  cpu time    0.0048: real time    0.0058
    SETDIJ:  cpu time    0.0038: real time    0.0037
     EDDAV:  cpu time    0.3040: real time    0.3105
       DOS:  cpu time    0.0019: real time    0.0019
    --------------------------------------------
      LOOP:  cpu time    0.3145: real time    0.3220

 eigenvalue-minimisations  :  5720
 total energy-change (2. order) : 0.1969152E+02  (-0.2983015E+03)
 number of electron      10.0000000 magnetization       3.0000000
 augmentation part       10.0000000 magnetization       3.0000000

 Free energy of the ion-electron system (eV)
  ---------------------------------------------------
  alpha Z        PSCENC =        38.68399009
  Ewald energy   TEWEN  =      -880.28050729
  -Hartree energ DENC   =      -273.96066808
  -exchange      EXHF   =         0.00000000
  -V(xc)+E(xc)   XCENC  =        32.17816140
  PAW double counting   =       961.92645289    -1028.66799202
  entropy T*S    EENTRO =         0.00144994
  eigenvalues    EBANDS =        92.17455718
  atomic energy  EATOM  =      1077.63607467
  Solvation  Ediel_sol  =         0.00000000
  ---------------------------------------------------
  free energy    TOTEN  =        19.69151877 eV

  energy without entropy =       19.69006883  energy(sigma->0) =       19.69103545


--------------------------------------------------------------------------------------------------------




--------------------------------------- Iteration      1(   2)  ---------------------------------------


     EDDAV:  cpu time    0.2906: real time    0.2969
       DOS:  cpu time    0.0020: real time    0.0020
    --------------------------------------------
      LOOP:  cpu time    0.2926: real time    0.2988

 eigenvalue-minimisations  :  5616
 total energy-change (2. order) :-0.2490721E+02  (-0.2301168E+02)
 number of electron      10.0000000 magnetization       3.0000000
 augmentation part       10.0000000 magnetization       3.0000000

 Free energy of the ion-electron system (eV)
  ---------------------------------------------------
  alpha Z        PSCENC =        38.68399009
  Ewald energy   TEWEN  =      -880.28050729
  -Hartree energ DENC   =      -273.96066808
  -exchange      EXHF   =         0.00000000
  -V(xc)+E(xc)   XCENC  =        32.17816140
  PAW double counting   =       961.92645289    -1028.66799202
  entropy T*S    EENTRO =         0.00114803
  eigenvalues    EBANDS =        67.26764814
  atomic energy  EATOM  =      1077.63607467
  Solvation  Ediel_sol  =         0.00000000
  ---------------------------------------------------
  free energy    TOTEN  =        -5.21569218 eV

  energy without entropy =       -5.21684021  energy(sigma->0) =       -5.21607486


--------------------------------------------------------------------------------------------------------




--------------------------------------- Iteration      1(   3)  ---------------------------------------


     EDDAV:  cpu time    0.3151: real time    0.3217
       DOS:  cpu time    0.0019: real time    0.0019
    --------------------------------------------
      LOOP:  cpu time    0.3170: real time    0.3236

 eigenvalue-minimisations  :  6140
 total energy-change (2. order) :-0.5102350E+00  (-0.5088270E+00)
 number of electron      10.0000000 magnetization       3.0000000
 augmentation part       10.0000000 magnetization       3.0000000

 Free energy of the ion-electron system (eV)
  ---------------------------------------------------
  alpha Z        PSCENC =        38.68399009
  Ewald energy   TEWEN  =      -880.28050729
  -Hartree energ DENC   =      -273.96066808
  -exchange      EXHF   =         0.00000000
  -V(xc)+E(xc)   XCENC  =        32.17816140
  PAW double counting   =       961.92645289    -1028.66799202
  entropy T*S    EENTRO =         0.00071460
  eigenvalues    EBANDS =        66.75784659
  atomic energy  EATOM  =      1077.63607467
  Solvation  Ediel_sol  =         0.00000000
  ---------------------------------------------------
  free energy    TOTEN  =        -5.72592717 eV

  energy without entropy =       -5.72664177  energy(sigma->0) =       -5.72616537


--------------------------------------------------------------------------------------------------------




--------------------------------------- Iteration      1(   4)  ---------------------------------------


     EDDAV:  cpu time    0.3044: real time    0.3109
       DOS:  cpu time    0.0020: real time    0.0020
    --------------------------------------------
      LOOP:  cpu time    0.3064: real time    0.3129

 eigenvalue-minimisations  :  5948
 total energy-change (2. order) :-0.2713563E-02  (-0.2713297E-02)
 number of electron      10.0000000 magnetization       3.0000000
 augmentation part       10.0000000 magnetization       3.0000000

 Free energy of the ion-electron system (eV)
  ---------------------------------------------------
  alpha Z        PSCENC =        38.68399009
  Ewald energy   TEWEN  =      -880.28050729
  -Hartree energ DENC   =      -273.96066808
  -exchange      EXHF   =         0.00000000
  -V(xc)+E(xc)   XCENC  =        32.17816140
  PAW double counting   =       961.92645289    -1028.66799202
  entropy T*S    EENTRO =         0.00071366
  eigenvalues    EBANDS =        66.75513396
  atomic energy  EATOM  =      1077.63607467
  Solvation  Ediel_sol  =         0.00000000
  ---------------------------------------------------
  free energy    TOTEN  =        -5.72864073 eV

  energy without entropy =       -5.72935439  energy(sigma->0) =       -5.72887862


--------------------------------------------------------------------------------------------------------




--------------------------------------- Iteration      1(   5)  ---------------------------------------


     EDDAV:  cpu time    0.3128: real time    0.3192
       DOS:  cpu time    0.0020: real time    0.0020
    CHARGE:  cpu time    0.0057: real time    0.0057
    MIXING:  cpu time    0.0009: real time    0.0003
    --------------------------------------------
      LOOP:  cpu time    0.3214: real time    0.3272

 eigenvalue-minimisations  :  6132
 total energy-change (2. order) :-0.3968812E-04  (-0.3968807E-04)
 number of electron       9.9999871 magnetization       0.7787615
 augmentation part        5.5398585 magnetization       0.5317385

 Broyden mixing:
  rms(total) = 0.12347E+01    rms(broyden)= 0.12345E+01
  rms(prec ) = 0.34493E+01
  weight for this iteration     100.00

 Free energy of the ion-electron system (eV)
  ---------------------------------------------------
  alpha Z        PSCENC =        38.68399009
  Ewald energy   TEWEN  =      -880.28050729
  -Hartree energ DENC   =      -273.96066808
  -exchange      EXHF   =         0.00000000
  -V(xc)+E(xc)   XCENC  =        32.17816140
  PAW double counting   =       961.92645289    -1028.66799202
  entropy T*S    EENTRO =         0.00071367
  eigenvalues    EBANDS =        66.75509426
  atomic energy  EATOM  =      1077.63607467
  Solvation  Ediel_sol  =         0.00000000
  ---------------------------------------------------
  free energy    TOTEN  =        -5.72868042 eV

  energy without entropy =       -5.72939409  energy(sigma->0) =       -5.72891831


--------------------------------------------------------------------------------------------------------




--------------------------------------- Iteration      1(   6)  ---------------------------------------


    POTLOK:  cpu time    0.0035: real time    0.0043
    SETDIJ:  cpu time    0.0033: real time    0.0033
     EDDAV:  cpu time    0.3211: real time    0.3274
       DOS:  cpu time    0.0020: real time    0.0020
    CHARGE:  cpu time    0.0060: real time    0.0060
    MIXING:  cpu time    0.0004: real time    0.0004
    --------------------------------------------
      LOOP:  cpu time    0.3363: real time    0.3435

 eigenvalue-minimisations  :  6332
 total energy-change (2. order) :-0.2675282E+00  (-0.1790438E+01)
 number of electron       9.9999842 magnetization       0.5906776
 augmentation part        6.7080354 magnetization       0.6378910

 Broyden mixing:
  rms(total) = 0.86441E+00    rms(broyden)= 0.86432E+00
  rms(prec ) = 0.23703E+01
  weight for this iteration     100.00

 eigenvalues of (default mixing * dielectric matrix)
  average eigenvalue GAMMA=   0.8238
  0.8238

 Free energy of the ion-electron system (eV)
  ---------------------------------------------------
  alpha Z        PSCENC =        38.68399009
  Ewald energy   TEWEN  =      -880.28050729
  -Hartree energ DENC   =      -245.59588008
  -exchange      EXHF   =         0.00000000
  -V(xc)+E(xc)   XCENC  =        29.88825581
  PAW double counting   =       980.57994884    -1042.13500928
  entropy T*S    EENTRO =        -0.00696834
  eigenvalues    EBANDS =        35.23388702
  atomic energy  EATOM  =      1077.63607467
  Solvation  Ediel_sol  =         0.00000000
  ---------------------------------------------------
  free energy    TOTEN  =        -5.99620857 eV

  energy without entropy =       -5.98924023  energy(sigma->0) =       -5.99388579


--------------------------------------------------------------------------------------------------------




--------------------------------------- Iteration      1(   7)  ---------------------------------------


    POTLOK:  cpu time    0.0044: real time    0.0044
    SETDIJ:  cpu time    0.0033: real time    0.0033
     EDDAV:  cpu time    0.3138: real time    0.3202
       DOS:  cpu time    0.0021: real time    0.0021
    CHARGE:  cpu time    0.0057: real time    0.0057
    MIXING:  cpu time    0.0003: real time    0.0004
    --------------------------------------------
      LOOP:  cpu time    0.3296: real time    0.3361

 eigenvalue-minimisations  :  6276
 total energy-change (2. order) : 0.7281853E+00  (-0.5089738E+00)
 number of electron       9.9999856 magnetization       0.6921790
 augmentation part        6.1824232 magnetization       0.6810217

 Broyden mixing:
  rms(total) = 0.12749E+00    rms(broyden)= 0.12735E+00
  rms(prec ) = 0.22833E+00
  weight for this iteration     100.00

 eigenvalues of (default mixing * dielectric matrix)
  average eigenvalue GAMMA=   0.7631
  0.9176  0.6086

 Free energy of the ion-electron system (eV)
  ---------------------------------------------------
  alpha Z        PSCENC =        38.68399009
  Ewald energy   TEWEN  =      -880.28050729
  -Hartree energ DENC   =      -257.02374610
  -exchange      EXHF   =         0.00000000
  -V(xc)+E(xc)   XCENC  =        30.39195426
  PAW double counting   =      1010.79939039    -1076.74861375
  entropy T*S    EENTRO =        -0.00478916
  eigenvalues    EBANDS =        51.27822366
  atomic energy  EATOM  =      1077.63607467
  Solvation  Ediel_sol  =         0.00000000
  ---------------------------------------------------
  free energy    TOTEN  =        -5.26802323 eV

  energy without entropy =       -5.26323408  energy(sigma->0) =       -5.26642685


--------------------------------------------------------------------------------------------------------




--------------------------------------- Iteration      1(   8)  ---------------------------------------


    POTLOK:  cpu time    0.0044: real time    0.0045
    SETDIJ:  cpu time    0.0032: real time    0.0032
     EDDAV:  cpu time    0.3059: real time    0.3122
       DOS:  cpu time    0.0020: real time    0.0020
    CHARGE:  cpu time    0.0056: real time    0.0055
    MIXING:  cpu time    0.0003: real time    0.0003
    --------------------------------------------
      LOOP:  cpu time    0.3213: real time    0.3278

 eigenvalue-minimisations  :  5976
 total energy-change (2. order) : 0.1617897E-02  (-0.1241213E-02)
 number of electron       9.9999856 magnetization       0.6721393
 augmentation part        6.1833883 magnetization       0.6396673

 Broyden mixing:
  rms(total) = 0.72393E-01    rms(broyden)= 0.72378E-01
  rms(prec ) = 0.15834E+00
  weight for this iteration     100.00

 eigenvalues of (default mixing * dielectric matrix)
  average eigenvalue GAMMA=   0.7737
  1.0924  0.5598  0.6689

 Free energy of the ion-electron system (eV)
  ---------------------------------------------------
  alpha Z        PSCENC =        38.68399009
  Ewald energy   TEWEN  =      -880.28050729
  -Hartree energ DENC   =      -256.08604406
  -exchange      EXHF   =         0.00000000
  -V(xc)+E(xc)   XCENC  =        30.35682028
  PAW double counting   =      1028.85458707    -1095.57288252
  entropy T*S    EENTRO =        -0.00485415
  eigenvalues    EBANDS =        51.14641058
  atomic energy  EATOM  =      1077.63607467
  Solvation  Ediel_sol  =         0.00000000
  ---------------------------------------------------
  free energy    TOTEN  =        -5.26640534 eV

  energy without entropy =       -5.26155118  energy(sigma->0) =       -5.26478728


--------------------------------------------------------------------------------------------------------




--------------------------------------- Iteration      1(   9)  ---------------------------------------


    POTLOK:  cpu time    0.0041: real time    0.0043
    SETDIJ:  cpu time    0.0032: real time    0.0032
     EDDAV:  cpu time    0.3041: real time    0.3104
       DOS:  cpu time    0.0020: real time    0.0020
    CHARGE:  cpu time    0.0052: real time    0.0052
    MIXING:  cpu time    0.0004: real time    0.0003
    --------------------------------------------
      LOOP:  cpu time    0.3191: real time    0.3255

 eigenvalue-minimisations  :  5956
 total energy-change (2. order) : 0.1988241E-02  (-0.9141417E-04)
 number of electron       9.9999855 magnetization       0.6568111
 augmentation part        6.1900984 magnetization       0.6250589

 Broyden mixing:
  rms(total) = 0.30938E-01    rms(broyden)= 0.30936E-01
  rms(prec ) = 0.92447E-01
  weight for this iteration     100.00

 eigenvalues of (default mixing * dielectric matrix)
  average eigenvalue GAMMA=   1.0446
  2.0005  0.9701  0.5728  0.6351

 Free energy of the ion-electron system (eV)
  ---------------------------------------------------
  alpha Z        PSCENC =        38.68399009
  Ewald energy   TEWEN  =      -880.28050729
  -Hartree energ DENC   =      -255.43125403
  -exchange      EXHF   =         0.00000000
  -V(xc)+E(xc)   XCENC  =        30.32281056
  PAW double counting   =      1039.52728165    -1106.64636956
  entropy T*S    EENTRO =        -0.00486227
  eigenvalues    EBANDS =        50.92841909
  atomic energy  EATOM  =      1077.63607467
  Solvation  Ediel_sol  =         0.00000000
  ---------------------------------------------------
  free energy    TOTEN  =        -5.26441709 eV

  energy without entropy =       -5.25955483  energy(sigma->0) =       -5.26279634


--------------------------------------------------------------------------------------------------------




--------------------------------------- Iteration      1(  10)  ---------------------------------------


    POTLOK:  cpu time    0.0041: real time    0.0043
    SETDIJ:  cpu time    0.0032: real time    0.0032
     EDDAV:  cpu time    0.3360: real time    0.3456
       DOS:  cpu time    0.0021: real time    0.0021
    CHARGE:  cpu time    0.0054: real time    0.0054
    MIXING:  cpu time    0.0004: real time    0.0004
    --------------------------------------------
      LOOP:  cpu time    0.3512: real time    0.3609

 eigenvalue-minimisations  :  6180
 total energy-change (2. order) : 0.1066385E-02  (-0.2555789E-03)
 number of electron       9.9999855 magnetization       0.6645625
 augmentation part        6.2022413 magnetization       0.6358925

 Broyden mixing:
  rms(total) = 0.52827E-02    rms(broyden)= 0.52760E-02
  rms(prec ) = 0.65138E-02
  weight for this iteration     100.00

 eigenvalues of (default mixing * dielectric matrix)
  average eigenvalue GAMMA=   1.0794
  2.2200  1.0827  0.8863  0.5838  0.6243

 Free energy of the ion-electron system (eV)
  ---------------------------------------------------
  alpha Z        PSCENC =        38.68399009
  Ewald energy   TEWEN  =      -880.28050729
  -Hartree energ DENC   =      -254.49597572
  -exchange      EXHF   =         0.00000000
  -V(xc)+E(xc)   XCENC  =        30.28201418
  PAW double counting   =      1054.46431830    -1122.09507495
  entropy T*S    EENTRO =        -0.00480118
  eigenvalues    EBANDS =        50.54661120
  atomic energy  EATOM  =      1077.63607467
  Solvation  Ediel_sol  =         0.00000000
  ---------------------------------------------------
  free energy    TOTEN  =        -5.26335071 eV

  energy without entropy =       -5.25854953  energy(sigma->0) =       -5.26175032


--------------------------------------------------------------------------------------------------------




--------------------------------------- Iteration      1(  11)  ---------------------------------------


    POTLOK:  cpu time    0.0042: real time    0.0043
    SETDIJ:  cpu time    0.0032: real time    0.0032
     EDDAV:  cpu time    0.2119: real time    0.2179
       DOS:  cpu time    0.0020: real time    0.0021
    --------------------------------------------
      LOOP:  cpu time    0.2213: real time    0.2275

 eigenvalue-minimisations  :  3024
 total energy-change (2. order) :-0.1638779E-04  (-0.2565632E-05)
 number of electron       9.9999855 magnetization       0.6645625
 augmentation part        6.2022413 magnetization       0.6358925

 Free energy of the ion-electron system (eV)
  ---------------------------------------------------
  alpha Z        PSCENC =        38.68399009
  Ewald energy   TEWEN  =      -880.28050729
  -Hartree energ DENC   =      -254.46653700
  -exchange      EXHF   =         0.00000000
  -V(xc)+E(xc)   XCENC  =        30.28250768
  PAW double counting   =      1055.87270906    -1123.52946849
  entropy T*S    EENTRO =        -0.00482727
  eigenvalues    EBANDS =        50.54269146
  atomic energy  EATOM  =      1077.63607467
  Solvation  Ediel_sol  =         0.00000000
  ---------------------------------------------------
  free energy    TOTEN  =        -5.26336710 eV

  energy without entropy =       -5.25853983  energy(sigma->0) =       -5.26175801


--------------------------------------------------------------------------------------------------------




 average (electrostatic) potential at core
  the test charge radii are     0.9791
  (the norm of the test charge is              1.0000)
       1 -84.2009
 
 
 
 E-fermi :   6.9253     XC(G=0): -12.1598     alpha+bet :-13.5861


 spin component 1

 k-point     1 :       0.0500    0.0500    0.0500
  band No.  band energies     occupation 
      1      -0.7452      1.00000
      2       4.8740      1.00000
      3       4.9084      1.00000
      4       4.9084      1.00000
      5       5.7788      1.00000
      6       5.7788      1.00000
      7      28.5726      0.00000
      8      30.2853      0.00000
      9      31.1496      0.00000
     10      31.1496      0.00000
     11      34.4127      0.00000
     12      34.4127      0.00000

 k-point     2 :       0.1500    0.0500    0.0500
  band No.  band energies     occupation 
      1      -0.2979      1.00000
      2       4.7801      1.00000
      3       4.9842      1.00000
      4       4.9979      1.00000
      5       5.7085      1.00000
      6       5.8013      1.00000
      7      25.9378      0.00000
      8      27.9677      0.00000
      9      30.5477      0.00000
     10      31.7521      0.00000
     11      34.5961      0.00000
     12      34.6716      0.00000

 k-point     3 :       0.2500    0.0500    0.0500
  band No.  band energies     occupation 
      1       0.7572      1.00000
      2       4.6481      1.00000
      3       5.0739      1.00000
      4       5.0935      1.00000
      5       5.6933      1.00000
      6       5.8826      1.00000
      7      21.1196      0.00000
      8      26.9812      0.00000
      9      30.1187      0.00000
     10      31.0302      0.00000
     11      34.1679      0.00000
     12      34.2270      0.00000

 k-point     4 :       0.3500    0.0500    0.0500
  band No.  band energies     occupation 
      1       2.1184      1.00000
      2       4.7878      1.00000
      3       5.0247      1.00000
      4       5.0572      1.00000
      5       5.8893      1.00000
      6       6.1219      1.00000
      7      16.6606      0.00000
      8      26.4609      0.00000
      9      29.0833      0.00000
     10      30.0859      0.00000
     11      32.2746      0.00000
     12      33.7986      0.00000

 k-point     5 :       0.4500    0.0500    0.0500
  band No.  band energies     occupation 
      1       2.9282      1.00000
      2       4.9309      1.00000
      3       4.9746      1.00000
      4       5.6809      1.00000
      5       6.1445      1.00000
      6       6.6261      1.02782
      7      12.9348      0.00000
      8      26.4513      0.00000
      9      28.2061      0.00000
     10      28.7813      0.00000
     11      31.7808      0.00000
     12      33.0295      0.00000

 k-point     6 :      -0.4500    0.0500    0.0500
  band No.  band energies     occupation 
      1       3.0511      1.00000
      2       4.8971      1.00000
      3       4.9513      1.00000
      4       5.9586      1.00000
      5       6.2613      1.00001
      6       7.2944     -0.01274
      7      11.4484     -0.00000
      8      26.9161      0.00000
      9      27.7435      0.00000
     10      27.9350      0.00000
     11      32.2605      0.00000
     12      32.4712      0.00000

 k-point     7 :      -0.3500    0.0500    0.0500
  band No.  band energies     occupation 
      1       2.7631      1.00000
      2       4.9510      1.00000
      3       5.0064      1.00000
      4       5.3183      1.00000
      5       6.1827      1.00000
      6       6.2939      1.00004
      7      14.0570      0.00000
      8      27.3356      0.00000
      9      27.4585      0.00000
     10      28.7335      0.00000
     11      32.4212      0.00000
     12      33.4461      0.00000

 k-point     8 :      -0.2500    0.0500    0.0500
  band No.  band energies     occupation 
      1       1.6726      1.00000
      2       4.6681      1.00000
      3       5.0516      1.00000
      4       5.0829      1.00000
      5       5.8575      1.00000
      6       5.9808      1.00000
      7      18.0845      0.00000
      8      27.5473      0.00000
      9      27.9843      0.00000
     10      30.4105      0.00000
     11      32.8034      0.00000
     12      35.2421      0.00000

 k-point     9 :      -0.1500    0.0500    0.0500
  band No.  band energies     occupation 
      1       0.3480      1.00000
      2       4.6774      1.00000
      3       5.0651      1.00000
      4       5.0720      1.00000
      5       5.6789      1.00000
      6       5.8356      1.00000
      7      22.7079      0.00000
      8      28.3167      0.00000
      9      28.6086      0.00000
     10      31.8646      0.00000
     11      33.3847      0.00000
     12      36.3129      0.00000

 k-point    10 :      -0.0500    0.0500    0.0500
  band No.  band energies     occupation 
      1      -0.5200      1.00000
      2       4.8136      1.00000
      3       4.9580      1.00000
      4       4.9603      1.00000
      5       5.7216      1.00000
      6       5.8058      1.00000
      7      27.4567      0.00000
      8      29.3203      0.00000
      9      29.5653      0.00000
     10      31.2432      0.00000
     11      34.5780      0.00000
     12      36.0816      0.00000

 k-point    11 :       0.1500    0.1500    0.0500
  band No.  band energies     occupation 
      1      -0.0774      1.00000
      2       4.6915      1.00000
      3       5.0609      1.00000
      4       5.0638      1.00000
      5       5.6123      1.00000
      6       5.8585      1.00000
      7      26.1051      0.00000
      8      27.8294      0.00000
      9      28.2628      0.00000
     10      30.2411      0.00000
     11      34.0143      0.00000
     12      36.3411      0.00000

 k-point    12 :       0.2500    0.1500    0.0500
  band No.  band energies     occupation 
      1       0.7675      1.00000
      2       4.5287      1.00000
      3       5.1325      1.00000
      4       5.2104      1.00000
      5       5.5656      1.00000
      6       5.9486      1.00000
      7      23.0388      0.00000
      8      25.0200      0.00000
      9      28.7743      0.00000
     10      29.9900      0.00000
     11      32.1129      0.00000
     12      36.7154      0.00000

 k-point    13 :       0.3500    0.1500    0.0500
  band No.  band energies     occupation 
      1       2.0437      1.00000
      2       4.4587      1.00000
      3       4.9968      1.00000
      4       5.2439      1.00000
      5       5.8573      1.00000
      6       6.2031      1.00000
      7      18.4343      0.00000
      8      24.3076      0.00000
      9      27.3272      0.00000
     10      28.8628      0.00000
     11      34.3838      0.00000
     12      35.3784      0.00000

 k-point    14 :       0.4500    0.1500    0.0500
  band No.  band energies     occupation 
      1       3.0599      1.00000
      2       4.7676      1.00000
      3       4.8857      1.00000
      4       5.1744      1.00000
      5       6.1752      1.00000
      6       6.9774      0.28773
      7      14.3743      0.00000
      8      24.2030      0.00000
      9      25.4769      0.00000
     10      28.3268      0.00000
     11      34.1626      0.00000
     12      36.3551      0.00000

 k-point    15 :      -0.4500    0.1500    0.0500
  band No.  band energies     occupation 
      1       3.3071      1.00000
      2       4.7384      1.00000
      3       5.1120      1.00000
      4       5.3072      1.00000
      5       6.2404      1.00001
      6       8.3997     -0.00000
      7      11.5956     -0.00000
      8      23.9301      0.00000
      9      24.9085      0.00000
     10      28.3572      0.00000
     11      33.4173      0.00000
     12      36.0626      0.00000

 k-point    16 :      -0.3500    0.1500    0.0500
  band No.  band energies     occupation 
      1       3.2100      1.00000
      2       4.7911      1.00000
      3       5.0733      1.00000
      4       5.1522      1.00000
      5       6.1034      1.00000
      6       7.5012     -0.00018
      7      13.2235      0.00000
      8      23.1640      0.00000
      9      26.1331      0.00000
     10      28.9951      0.00000
     11      33.0739      0.00000
     12      35.7376      0.00000

 k-point    17 :      -0.2500    0.1500    0.0500
  band No.  band energies     occupation 
      1       2.4739      1.00000
      2       4.5604      1.00000
      3       4.9370      1.00000
      4       5.2158      1.00000
      5       5.8015      1.00000
      6       6.5021      1.00540
      7      17.0160      0.00000
      8      23.0241      0.00000
      9      27.9627      0.00000
     10      30.2032      0.00000
     11      33.1953      0.00000
     12      35.0202      0.00000

 k-point    18 :      -0.1500    0.1500    0.0500
  band No.  band energies     occupation 
      1       1.1644      1.00000
      2       4.5252      1.00000
      3       5.0758      1.00000
      4       5.2317      1.00000
      5       5.5671      1.00000
      6       6.0594      1.00000
      7      21.4651      0.00000
      8      23.5159      0.00000
      9      30.1502      0.00000
     10      31.2744      0.00000
     11      33.2397      0.00000
     12      34.4439      0.00000

 k-point    19 :      -0.0500    0.1500    0.0500
  band No.  band energies     occupation 
      1       0.1381      1.00000
      2       4.6795      1.00000
      3       5.0658      1.00000
      4       5.0723      1.00000
      5       5.6286      1.00000
      6       5.8560      1.00000
      7      24.4342      0.00000
      8      26.4595      0.00000
      9      29.9206      0.00000
     10      31.8017      0.00000
     11      33.5639      0.00000
     12      35.5709      0.00000

 k-point    20 :       0.2500    0.2500    0.0500
  band No.  band energies     occupation 
      1       1.3578      1.00000
      2       4.3286      1.00000
      3       5.2588      1.00000
      4       5.3956      1.00000
      5       5.5284      1.00000
      6       6.0129      1.00000
      7      23.4215      0.00000
      8      24.6158      0.00000
      9      26.2583      0.00000
     10      26.9173      0.00000
     11      29.4662      0.00000
     12      40.4387      0.00000

 k-point    21 :       0.3500    0.2500    0.0500
  band No.  band energies     occupation 
      1       2.3680      1.00000
      2       4.1625      1.00000
      3       5.0937      1.00000
      4       5.5829      1.00000
      5       5.8886      1.00000
      6       6.2215      1.00000
      7      20.6456      0.00000
      8      22.4843      0.00000
      9      24.1177      0.00000
     10      27.3468      0.00000
     11      30.0390      0.00000
     12      39.7875      0.00000

[...]
      4       5.6971      1.00000
      5       6.8176      0.89057
      6       6.8176      0.89057
      7      15.4422      0.00000
      8      27.9897      0.00000
      9      28.7606      0.00000
     10      28.7606      0.00000
     11      32.7217      0.00000
     12      32.7217      0.00000

 k-point   102 :       0.4500    0.3500    0.3500
  band No.  band energies     occupation 
      1       3.1789      1.00000
      2       5.4919      1.00000
      3       5.5962      1.00000
      4       5.7517      1.00000
      5       6.7736      0.97861
      6       7.4418     -0.00080
      7      14.4335      0.00000
      8      24.1802      0.00000
      9      28.3979      0.00000
     10      28.7539      0.00000
     11      32.7904      0.00000
     12      34.0355      0.00000

 k-point   103 :      -0.4500    0.3500    0.3500
  band No.  band energies     occupation 
      1       3.9746      1.00000
      2       5.1388      1.00000
      3       5.4032      1.00000
      4       5.9864      1.00000
      5       6.7759      0.97522
      6       8.7610     -0.00000
      7      13.9034      0.00000
      8      19.9523      0.00000
      9      26.1350      0.00000
     10      27.5131      0.00000
     11      36.1446      0.00000
     12      36.3618      0.00000

 k-point   104 :      -0.3500    0.3500    0.3500
  band No.  band energies     occupation 
      1       4.5231      1.00000
      2       4.7118      1.00000
      3       5.3997      1.00000
      4       6.2996      1.00004
      5       6.8608      0.75794
      6      10.7538     -0.00000
      7      13.5776      0.00000
      8      16.5263      0.00000
      9      23.8119      0.00000
     10      26.6116      0.00000
     11      39.5301      0.00000
     12      39.5418      0.00000

 k-point   105 :       0.4500    0.4500    0.3500
  band No.  band energies     occupation 
      1       3.4297      1.00000
      2       5.4355      1.00000
      3       5.7500      1.00000
      4       5.7506      1.00000
      5       7.0485      0.07297
      6       7.5725     -0.00002
      7      13.3290      0.00000
      8      25.7531      0.00000
      9      26.2400      0.00000
     10      27.5326      0.00000
     11      34.1738      0.00000
     12      34.4241      0.00000

 k-point   106 :      -0.4500    0.4500    0.3500
  band No.  band energies     occupation 
      1       3.9341      1.00000
      2       5.1378      1.00000
      3       5.5831      1.00000
      4       5.9287      1.00000
      5       6.9868      0.25275
      6       8.8824     -0.00000
      7      12.7180      0.00000
      8      22.3941      0.00000
      9      23.5498      0.00000
     10      29.2821      0.00000
     11      33.3424      0.00000
     12      38.1500      0.00000

 k-point   107 :      -0.3500    0.4500    0.3500
  band No.  band energies     occupation 
      1       4.4950      1.00000
      2       4.7402      1.00000
      3       5.3718      1.00000
      4       6.2211      1.00000
      5       6.9858      0.25672
      6      10.8330     -0.00000
      7      12.5474      0.00000
      8      18.6115      0.00000
      9      21.4342      0.00000
     10      29.4807      0.00000
     11      35.0715      0.00000
     12      40.3619      0.00000

 k-point   108 :      -0.4500   -0.4500    0.3500
  band No.  band energies     occupation 
      1       4.1174      1.00000
      2       4.9787      1.00000
      3       5.5941      1.00000
      4       6.0072      1.00000
      5       7.0332      0.10888
      6       9.6960     -0.00000
      7      12.1652     -0.00000
      8      20.7929      0.00000
      9      24.5480      0.00000
     10      26.7968      0.00000
     11      36.8774      0.00000
     12      37.2382      0.00000

 k-point   109 :       0.4500    0.4500    0.4500
  band No.  band energies     occupation 
      1       3.3798      1.00000
      2       5.6058      1.00000
      3       5.6058      1.00000
      4       6.5705      1.01545
      5       7.0253      0.13001
      6       7.0253      0.13001
      7      12.3214     -0.00000
      8      27.4843      0.00000
      9      28.5220      0.00000
     10      28.5220      0.00000
     11      31.6509      0.00000
     12      31.6509      0.00000

 k-point   110 :      -0.4500    0.4500    0.4500
  band No.  band energies     occupation 
      1       3.6463      1.00000
      2       5.4419      1.00000
      3       5.7028      1.00000
      4       6.0524      1.00000
      5       7.0181      0.15027
      6       8.2068     -0.00000
      7      11.9000     -0.00000
      8      24.6901      0.00000
      9      27.1089      0.00000
     10      27.6098      0.00000
     11      33.3416      0.00000
     12      34.0977      0.00000


--------------------------------------------------------------------------------------------------------


 soft charge-density along one line, spin component           1
         0         1         2         3         4         5         6         7         8         9
 total charge-density along one line
 
 soft charge-density along one line, spin component           2
         0         1         2         3         4         5         6         7         8         9
 total charge-density along one line
 
 pseudopotential strength for first ion, spin component:           1
 -2.187   0.000   0.000   0.000   0.000   0.000   0.000   0.000   0.000   0.000  -2.797   0.000   0.000   0.000   0.000   0.000
  0.000   0.000  -2.187   0.000  -0.000   0.000   0.000   0.000   0.000   0.000   0.000   0.000  -2.797   0.000  -0.000   0.000
  0.000   0.000  -0.000   0.000  -2.080   0.000  -0.000   0.000   0.000   0.000   0.000   0.000  -0.000   0.000  -2.695   0.000
  0.000   0.000   0.000   0.000  -0.000   0.000  -2.187   0.000  -0.000   0.000   0.000   0.000   0.000   0.000  -0.000   0.000
  0.000   0.000   0.000   0.000   0.000   0.000  -0.000   0.000  -2.080   0.000   0.000   0.000   0.000   0.000   0.000   0.000
 -2.797   0.000   0.000   0.000   0.000   0.000   0.000   0.000   0.000   0.000  -3.338   0.000   0.000   0.000   0.000   0.000
  0.000   0.000  -2.797   0.000  -0.000   0.000   0.000   0.000   0.000   0.000   0.000   0.000  -3.338   0.000  -0.000   0.000
  0.000   0.000  -0.000   0.000  -2.695   0.000  -0.000   0.000   0.000   0.000   0.000   0.000  -0.000   0.000  -3.241   0.000
  0.000   0.000   0.000   0.000  -0.000   0.000  -2.797   0.000  -0.000   0.000   0.000   0.000   0.000   0.000  -0.000   0.000
  0.000   0.000   0.000   0.000   0.000   0.000  -0.000   0.000  -2.695   0.000   0.000   0.000   0.000   0.000   0.000   0.000
  0.000   0.000   0.000   0.000   0.000   0.000   0.000   0.000   0.000   0.000   0.000   0.000   0.000   0.000   0.000   0.000
  0.000   0.000   0.000   0.000   0.000   0.000   0.000   0.000   0.000   0.000   0.000   0.000   0.000   0.000   0.000   0.000
  0.000   0.000   0.000   0.000  -0.000   0.000   0.000   0.000  -0.000   0.000   0.000   0.000   0.000   0.000  -0.000   0.000
  0.000   0.000   0.000   0.000   0.000   0.000   0.000   0.000   0.000   0.000   0.000   0.000   0.000   0.000   0.000   0.000
  0.000   0.000   0.000   0.000  -0.000   0.000   0.000   0.000   0.000   0.000   0.000   0.000   0.000   0.000  -0.000   0.000
  0.000   0.000   0.000   0.000  -0.000   0.000   0.000   0.000  -0.000   0.000   0.000   0.000   0.000   0.000  -0.000   0.000
  0.000   0.000   0.000   0.000   0.000   0.000   0.000   0.000   0.000   0.000   0.000   0.000   0.000   0.000   0.000   0.000
  0.000   0.000   0.000   0.000  -0.000   0.000   0.000   0.000   0.000   0.000   0.000   0.000   0.000   0.000  -0.000   0.000
 pseudopotential strength for first ion, spin component:           2
 -1.520   0.000   0.000   0.000   0.000   0.000   0.000   0.000   0.000   0.000  -2.161   0.000   0.000   0.000   0.000   0.000
  0.000   0.000  -1.520   0.000  -0.000   0.000   0.000   0.000   0.000   0.000   0.000   0.000  -2.161   0.000  -0.000   0.000
  0.000   0.000  -0.000   0.000  -1.552   0.000  -0.000   0.000  -0.000   0.000   0.000   0.000  -0.000   0.000  -2.192   0.000
  0.000   0.000   0.000   0.000  -0.000   0.000  -1.520   0.000  -0.000   0.000   0.000   0.000   0.000   0.000  -0.000   0.000
  0.000   0.000   0.000   0.000  -0.000   0.000  -0.000   0.000  -1.552   0.000   0.000   0.000   0.000   0.000  -0.000   0.000
 -2.161   0.000   0.000   0.000   0.000   0.000   0.000   0.000   0.000   0.000  -2.732   0.000   0.000   0.000   0.000   0.000
  0.000   0.000  -2.161   0.000  -0.000   0.000   0.000   0.000   0.000   0.000   0.000   0.000  -2.732   0.000  -0.000   0.000
  0.000   0.000  -0.000   0.000  -2.192   0.000  -0.000   0.000  -0.000   0.000   0.000   0.000  -0.000   0.000  -2.762   0.000
  0.000   0.000   0.000   0.000  -0.000   0.000  -2.161   0.000  -0.000   0.000   0.000   0.000   0.000   0.000  -0.000   0.000
  0.000   0.000   0.000   0.000  -0.000   0.000  -0.000   0.000  -2.192   0.000   0.000   0.000   0.000   0.000  -0.000   0.000
  0.000   0.000   0.000   0.000   0.000   0.000   0.000   0.000  -0.000   0.000   0.000   0.000   0.000   0.000   0.000   0.000
  0.000   0.000   0.000   0.000   0.000   0.000   0.000   0.000  -0.000   0.000   0.000   0.000   0.000   0.000   0.000   0.000
  0.000   0.000   0.000   0.000  -0.000   0.000   0.000   0.000  -0.000   0.000   0.000   0.000   0.000   0.000  -0.000   0.000
  0.000   0.000   0.000   0.000   0.000   0.000   0.000   0.000   0.000   0.000   0.000   0.000   0.000   0.000   0.000   0.000
  0.000   0.000   0.000   0.000  -0.000   0.000   0.000   0.000   0.000   0.000   0.000   0.000   0.000   0.000  -0.000   0.000
  0.000   0.000   0.000   0.000  -0.000   0.000   0.000   0.000  -0.000   0.000   0.000   0.000   0.000   0.000  -0.000   0.000
  0.000   0.000   0.000   0.000   0.000   0.000   0.000   0.000   0.000   0.000   0.000   0.000   0.000   0.000   0.000   0.000
  0.000   0.000   0.000   0.000  -0.000   0.000   0.000   0.000   0.000   0.000   0.000   0.000   0.000   0.000  -0.000   0.000
 total augmentation occupancy for first ion, spin component:           1
  2.453  -0.000   0.000   0.000   0.000  -0.790   0.000  -0.000   0.000   0.000  -0.000   0.000   0.000   0.000   0.000   0.000
 -0.000   2.453  -0.000   0.000   0.000   0.000  -0.790  -0.000  -0.000  -0.000  -0.000  -0.000   0.000   0.000   0.000   0.000
  0.000  -0.000   3.093   0.000   0.000   0.000   0.000  -1.064  -0.000   0.000   0.000  -0.000   0.000   0.000   0.000   0.000
 -0.000   0.000  -0.000   2.453   0.000  -0.000   0.000  -0.000  -0.790   0.000   0.000  -0.000   0.000   0.000   0.000   0.000
  0.000  -0.000   0.000   0.000   3.093  -0.000   0.000   0.000  -0.000  -1.064  -0.000   0.000   0.000   0.000   0.000   0.000
 -0.790  -0.000   0.000  -0.000  -0.000   0.825   0.000  -0.000   0.000  -0.000   0.000   0.000   0.000   0.000   0.000   0.000
  0.000  -0.790  -0.000   0.000   0.000  -0.000   0.825   0.000  -0.000  -0.000   0.000   0.000   0.000   0.000   0.000   0.000
 -0.000  -0.000  -1.064  -0.000   0.000   0.000   0.000   0.860  -0.000   0.000  -0.000  -0.000   0.000   0.000   0.000   0.000
 -0.000  -0.000   0.000  -0.790  -0.000   0.000   0.000   0.000   0.825   0.000  -0.000  -0.000   0.000   0.000   0.000   0.000
 -0.000  -0.000   0.000  -0.000  -1.064   0.000  -0.000   0.000   0.000   0.860  -0.000  -0.000   0.000   0.000   0.000   0.000
  0.000   0.000   0.000   0.000   0.000   0.000   0.000  -0.000   0.000  -0.000   1.839  -0.222   0.000   0.000   0.000   0.000
  0.000   0.000  -0.000  -0.000   0.000   0.000   0.000   0.000   0.000  -0.000  -0.222   0.032   0.000   0.000   0.000   0.000
  0.000   0.000   0.000   0.000   0.000   0.000   0.000   0.000   0.000   0.000   0.000   0.000   0.210   0.000   0.000  -0.021
  0.000   0.000   0.000   0.000   0.000   0.000   0.000   0.000   0.000   0.000   0.000   0.000   0.000   0.210  -0.000   0.000
  0.000   0.000   0.000   0.000   0.000   0.000   0.000   0.000   0.000   0.000   0.000   0.000  -0.000   0.000   0.210  -0.000
  0.000   0.000   0.000   0.000   0.000   0.000   0.000   0.000   0.000   0.000   0.000   0.000  -0.021   0.000  -0.000   0.002
  0.000   0.000   0.000   0.000   0.000   0.000   0.000   0.000   0.000   0.000   0.000   0.000  -0.000  -0.021   0.000   0.000
  0.000   0.000   0.000   0.000   0.000   0.000   0.000   0.000   0.000   0.000   0.000   0.000   0.000  -0.000  -0.021  -0.000
 total augmentation occupancy for first ion, spin component:           2
  0.929   0.000   0.000   0.000  -0.000  -0.426  -0.000   0.000  -0.000   0.000   0.000  -0.000   0.000   0.000   0.000   0.000
  0.000   0.929   0.000   0.000   0.000  -0.000  -0.426   0.000   0.000  -0.000   0.000  -0.000   0.000   0.000   0.000   0.000
  0.000  -0.000   0.549   0.000   0.000  -0.000   0.000  -0.259  -0.000   0.000   0.000   0.000   0.000   0.000   0.000   0.000
  0.000   0.000  -0.000   0.929  -0.000  -0.000   0.000   0.000  -0.426   0.000  -0.000  -0.000   0.000   0.000   0.000   0.000
  0.000  -0.000  -0.000  -0.000   0.549  -0.000  -0.000   0.000   0.000  -0.259   0.000  -0.000   0.000   0.000   0.000   0.000
 -0.426   0.000   0.000   0.000  -0.000   0.116   0.000   0.000  -0.000  -0.000  -0.000   0.000   0.000   0.000   0.000   0.000
 -0.000  -0.426  -0.000   0.000  -0.000   0.000   0.116  -0.000   0.000  -0.000  -0.000   0.000   0.000   0.000   0.000   0.000
 -0.000   0.000  -0.259  -0.000   0.000   0.000  -0.000   0.063   0.000   0.000  -0.000   0.000   0.000   0.000   0.000   0.000
  0.000   0.000   0.000  -0.426   0.000   0.000   0.000   0.000   0.116   0.000  -0.000  -0.000   0.000   0.000   0.000   0.000
  0.000  -0.000   0.000   0.000  -0.259   0.000   0.000   0.000  -0.000   0.063   0.000   0.000   0.000   0.000   0.000   0.000
 -0.000  -0.000   0.000   0.000   0.000  -0.000  -0.000  -0.000   0.000   0.000  -0.114   0.035   0.000   0.000   0.000   0.000
 -0.000  -0.000   0.000  -0.000   0.000   0.000   0.000   0.000  -0.000   0.000   0.035  -0.006   0.000   0.000   0.000   0.000
  0.000   0.000   0.000   0.000   0.000   0.000   0.000   0.000   0.000   0.000   0.000   0.000  -0.015  -0.000   0.000   0.002
  0.000   0.000   0.000   0.000   0.000   0.000   0.000   0.000   0.000   0.000   0.000   0.000   0.000  -0.015  -0.000   0.000
  0.000   0.000   0.000   0.000   0.000   0.000   0.000   0.000   0.000   0.000   0.000   0.000  -0.000   0.000  -0.015   0.000
  0.000   0.000   0.000   0.000   0.000   0.000   0.000   0.000   0.000   0.000   0.000   0.000   0.002  -0.000   0.000  -0.000
  0.000   0.000   0.000   0.000   0.000   0.000   0.000   0.000   0.000   0.000   0.000   0.000   0.000   0.002  -0.000  -0.000
  0.000   0.000   0.000   0.000   0.000   0.000   0.000   0.000   0.000   0.000   0.000   0.000   0.000  -0.000   0.002   0.000


------------------------ aborting loop because EDIFF is reached ----------------------------------------


    CHARGE:  cpu time    0.0056: real time    0.0056
    FORLOC:  cpu time    0.0001: real time    0.0001
    FORNL :  cpu time    0.0126: real time    0.0126
    STRESS:  cpu time    0.0470: real time    0.0472
    FORCOR:  cpu time    0.0036: real time    0.0036
    FORHAR:  cpu time    0.0005: real time    0.0006
    MIXING:  cpu time    0.0003: real time    0.0003
    OFIELD:  cpu time    0.0000: real time    0.0000

  FORCE on cell =-STRESS in cart. coord.  units (eV):
  Direction    XX          YY          ZZ          XY          YZ          ZX
  --------------------------------------------------------------------------------------
  Alpha Z    38.68399    38.68399    38.68399
  Ewald    -293.42685  -293.42685  -293.42685    -0.00000    -0.00000     0.00000
  Hartree    84.81237    84.81237    84.81237     0.00000     0.00000     0.00000
  E(xc)     -54.57728   -54.57728   -54.57728     0.00000     0.00000     0.00000
  Local     -19.92571   -19.92571   -19.92571     0.00068     0.00068     0.00068
  n-local   -10.64231   -10.19139   -12.46027     1.54790    -1.59560     0.02033
  augment   176.78708   176.78708   176.78708    -0.00057    -0.00057    -0.00057
  Kinetic    75.73537    76.05729    77.73270    -0.64552     0.63971     0.03269
  Fock        0.00000     0.00000     0.00000     0.00000     0.00000     0.00000
  -------------------------------------------------------------------------------------
  Total      -2.23593    -2.23593    -2.23593     0.00000     0.00000     0.00000
  in kB    -271.72859  -271.72859  -271.72859     0.00000     0.00000     0.00000
  external pressure =     -271.73 kB  Pullay stress =        0.00 kB


 VOLUME and BASIS-vectors are now :
 -----------------------------------------------------------------------------
  energy-cutoff  :      270.00
  volume of cell :       13.18
      direct lattice vectors                 reciprocal lattice vectors
     0.000000000  1.875000000  1.875000000    -0.266666667  0.266666667  0.266666667
     1.875000000  0.000000000  1.875000000     0.266666667 -0.266666667  0.266666667
     1.875000000  1.875000000  0.000000000     0.266666667  0.266666667 -0.266666667

  length of vectors
     2.651650429  2.651650429  2.651650429     0.461880215  0.461880215  0.461880215


 FORCES acting on ions
    electron-ion (+dipol)            ewald-force                    non-local-force                 convergence-correction
 -----------------------------------------------------------------------------------------------
   -.209E-14 -.106E-13 0.321E-14   0.110E-14 0.871E-15 -.287E-14   -.827E-23 0.165E-23 0.662E-23   -.143E-14 0.125E-13 0.345E-15
 -----------------------------------------------------------------------------------------------
   -.209E-14 -.106E-13 0.321E-14   0.110E-14 0.871E-15 -.287E-14   -.827E-23 0.165E-23 0.662E-23   -.143E-14 0.125E-13 0.345E-15
 
 
 POSITION                                       TOTAL-FORCE (eV/Angst)
 -----------------------------------------------------------------------------------
      0.00000      0.00000      0.00000        -0.000000      0.000000     -0.000000
 -----------------------------------------------------------------------------------
    total drift:                               -0.000000      0.000000      0.000000


--------------------------------------------------------------------------------------------------------



  FREE ENERGIE OF THE ION-ELECTRON SYSTEM (eV)
  ---------------------------------------------------
  free  energy   TOTEN  =        -5.26336710 eV

  energy  without entropy=       -5.25853983  energy(sigma->0) =       -5.26175801
 


--------------------------------------------------------------------------------------------------------


    POTLOK:  cpu time    0.0074: real time    0.0074


--------------------------------------------------------------------------------------------------------


 writing wavefunctions
     LOOP+:  cpu time    3.6173: real time    3.6965
    4ORBIT:  cpu time    0.0000: real time    0.0000

 total amount of memory used by VASP MPI-rank0    34835. kBytes
=======================================================================

   base      :      30000. kBytes
   nonl-proj :       2283. kBytes
   fftplans  :        238. kBytes
   grid      :        552. kBytes
   one-center:         31. kBytes
   wavefun   :       1731. kBytes
 
  
  
 General timing and accounting informations for this job:
 ========================================================
  
                  Total CPU time used (sec):        4.076
                            User time (sec):        3.570
                          System time (sec):        0.505
                         Elapsed time (sec):        4.231
  
                   Maximum memory used (kb):       60480.
                   Average memory used (kb):           0.
  
                          Minor page faults:        39785
                          Major page faults:            0
                 Voluntary context switches:         3422
