<?xml version="1.0" encoding="ISO-8859-1"?>
<modeling>
 <generator>
  <i name="program" type="string">vasp </i>
  <i name="version" type="string">5.4.4.18Apr17-6-g9f103f2a35  </i>
  <i name="subversion" type="string">(build Jul 01 2019 03:25:34) complex            parallel </i>
  <i name="platform" type="string">LinuxIFC </i>
  <i name="date" type="string">2020 07 09 </i>
  <i name="time" type="string">19:35:56 </i>
 </generator>
 <incar>
  <i type="string" name="SYSTEM"> fcc Ni</i>
  <i type="string" name="PREC">normal</i>
  <i type="int" name="ISPIN">     2</i>
  <i name="EDIFF">      0.00010000</i>
  <i name="ENCUT">    270.00000000</i>
  <v name="MAGMOM">      3.00000000</v>
  <v type="int" name="KPOINT_BSE">    -1     0     0     0</v>
 </incar>
 <structure name="primitive_cell" >
  <crystal>
   <varray name="basis" >
    <v>       0.00000000       1.87500000       1.87500000 </v>
    <v>       1.87500000       0.00000000       1.87500000 </v>
    <v>       1.87500000       1.87500000       0.00000000 </v>
   </varray>
   <i name="volume">     13.18359375 </i>
   <varray name="rec_basis" >
    <v>      -0.26666667       0.26666667       0.26666667 </v>
    <v>       0.26666667      -0.26666667       0.26666667 </v>
    <v>       0.26666667       0.26666667      -0.26666667 </v>
   </varray>
  </crystal>
  <varray name="positions" >
   <v>       0.00000000       0.00000000       0.00000000 </v>
  </varray>
 </structure>
 <varray name="primitive_index" >
  <v type="int" >        1 </v>
 </varray>
 <kpoints>
  <generation param="Monkhorst-Pack">
   <v type="int" name="divisions">      10       10       10 </v>
   <v name="usershift">      0.00000000       0.00000000       0.00000000 </v>
   <v name="genvec1">      0.10000000       0.00000000       0.00000000 </v>
   <v name="genvec2">      0.00000000       0.10000000       0.00000000 </v>
   <v name="genvec3">      0.00000000       0.00000000       0.10000000 </v>
   <v name="shift">      0.50000000       0.50000000       0.50000000 </v>
  </generation>
  <varray name="kpointlist" >
   <v>       0.05000000       0.05000000       0.05000000 </v>
   <v>       0.15000000       0.05000000       0.05000000 </v>
   <v>       0.25000000       0.05000000       0.05000000 </v>
   <v>       0.35000000       0.05000000       0.05000000 </v>
   <v>       0.45000000       0.05000000       0.05000000 </v>
   <v>      -0.45000000       0.05000000       0.05000000 </v>
   <v>      -0.35000000       0.05000000       0.05000000 </v>
   <v>      -0.25000000       0.05000000       0.05000000 </v>
   <v>      -0.15000000       0.05000000       0.05000000 </v>
   <v>      -0.05000000       0.05000000       0.05000000 </v>
   <v>       0.15000000       0.15000000       0.05000000 </v>
   <v>       0.25000000       0.15000000       0.05000000 </v>
   <v>       0.35000000       0.15000000       0.05000000 </v>
   <v>       0.45000000       0.15000000       0.05000000 </v>
   <v>      -0.45000000       0.15000000       0.05000000 </v>
   <v>      -0.35000000       0.15000000       0.05000000 </v>
   <v>      -0.25000000       0.15000000       0.05000000 </v>
   <v>      -0.15000000       0.15000000       0.05000000 </v>
   <v>      -0.05000000       0.15000000       0.05000000 </v>
   <v>       0.25000000       0.25000000       0.05000000 </v>
   <v>       0.35000000       0.25000000       0.05000000 </v>
   <v>       0.45000000       0.25000000       0.05000000 </v>
   <v>      -0.45000000       0.25000000       0.05000000 </v>
   <v>      -0.35000000       0.25000000       0.05000000 </v>
   <v>      -0.25000000       0.25000000       0.05000000 </v>
   <v>      -0.15000000       0.25000000       0.05000000 </v>
   <v>      -0.05000000       0.25000000       0.05000000 </v>
   <v>       0.35000000       0.35000000       0.05000000 </v>
   <v>       0.45000000       0.35000000       0.05000000 </v>
   <v>      -0.45000000       0.35000000       0.05000000 </v>
   <v>      -0.35000000       0.35000000       0.05000000 </v>
   <v>      -0.25000000       0.35000000       0.05000000 </v>
   <v>      -0.15000000       0.35000000       0.05000000 </v>
   <v>      -0.05000000       0.35000000       0.05000000 </v>
   <v>       0.45000000       0.45000000       0.05000000 </v>
   <v>      -0.45000000       0.45000000       0.05000000 </v>
   <v>      -0.35000000       0.45000000       0.05000000 </v>
   <v>      -0.25000000       0.45000000       0.05000000 </v>
   <v>      -0.15000000       0.45000000       0.05000000 </v>
   <v>      -0.05000000       0.45000000       0.05000000 </v>
   <v>      -0.45000000      -0.45000000       0.05000000 </v>
   <v>      -0.35000000      -0.45000000       0.05000000 </v>
   <v>      -0.25000000      -0.45000000       0.05000000 </v>
   <v>      -0.15000000      -0.45000000       0.05000000 </v>
   <v>      -0.35000000      -0.35000000       0.05000000 </v>
   <v>      -0.25000000      -0.35000000       0.05000000 </v>
   <v>      -0.15000000      -0.35000000       0.05000000 </v>
   <v>      -0.25000000      -0.25000000       0.05000000 </v>
   <v>      -0.15000000      -0.25000000       0.05000000 </v>
   <v>      -0.15000000      -0.15000000       0.05000000 </v>
   <v>       0.15000000       0.15000000       0.15000000 </v>
   <v>       0.25000000       0.15000000       0.15000000 </v>
   <v>       0.35000000       0.15000000       0.15000000 </v>
   <v>       0.45000000       0.15000000       0.15000000 </v>
   <v>      -0.45000000       0.15000000       0.15000000 </v>
   <v>      -0.35000000       0.15000000       0.15000000 </v>
   <v>      -0.25000000       0.15000000       0.15000000 </v>
   <v>      -0.15000000       0.15000000       0.15000000 </v>
   <v>       0.25000000       0.25000000       0.15000000 </v>
   <v>       0.35000000       0.25000000       0.15000000 </v>
   <v>       0.45000000       0.25000000       0.15000000 </v>
   <v>      -0.45000000       0.25000000       0.15000000 </v>
   <v>      -0.35000000       0.25000000       0.15000000 </v>
   <v>      -0.25000000       0.25000000       0.15000000 </v>
   <v>      -0.15000000       0.25000000       0.15000000 </v>
   <v>       0.35000000       0.35000000       0.15000000 </v>
   <v>       0.45000000       0.35000000       0.15000000 </v>
   <v>      -0.45000000       0.35000000       0.15000000 </v>
   <v>      -0.35000000       0.35000000       0.15000000 </v>
   <v>      -0.25000000       0.35000000       0.15000000 </v>
   <v>      -0.15000000       0.35000000       0.15000000 </v>
   <v>       0.45000000       0.45000000       0.15000000 </v>
   <v>      -0.45000000       0.45000000       0.15000000 </v>
   <v>      -0.35000000       0.45000000       0.15000000 </v>
   <v>      -0.25000000       0.45000000       0.15000000 </v>
   <v>      -0.15000000       0.45000000       0.15000000 </v>
   <v>      -0.45000000      -0.45000000       0.15000000 </v>
   <v>      -0.35000000      -0.45000000       0.15000000 </v>
   <v>      -0.25000000      -0.45000000       0.15000000 </v>
   <v>      -0.35000000      -0.35000000       0.15000000 </v>
   <v>      -0.25000000      -0.35000000       0.15000000 </v>
   <v>      -0.25000000      -0.25000000       0.15000000 </v>
   <v>       0.25000000       0.25000000       0.25000000 </v>
   <v>       0.35000000       0.25000000       0.25000000 </v>
   <v>       0.45000000       0.25000000       0.25000000 </v>
   <v>      -0.45000000       0.25000000       0.25000000 </v>
   <v>      -0.35000000       0.25000000       0.25000000 </v>
   <v>      -0.25000000       0.25000000       0.25000000 </v>
   <v>       0.35000000       0.35000000       0.25000000 </v>
   <v>       0.45000000       0.35000000       0.25000000 </v>
   <v>      -0.45000000       0.35000000       0.25000000 </v>
   <v>      -0.35000000       0.35000000       0.25000000 </v>
   <v>      -0.25000000       0.35000000       0.25000000 </v>
   <v>       0.45000000       0.45000000       0.25000000 </v>
   <v>      -0.45000000       0.45000000       0.25000000 </v>
   <v>      -0.35000000       0.45000000       0.25000000 </v>
   <v>      -0.25000000       0.45000000       0.25000000 </v>
   <v>      -0.45000000      -0.45000000       0.25000000 </v>
   <v>      -0.35000000      -0.45000000       0.25000000 </v>
   <v>      -0.35000000      -0.35000000       0.25000000 </v>
   <v>       0.35000000       0.35000000       0.35000000 </v>
   <v>       0.45000000       0.35000000       0.35000000 </v>
   <v>      -0.45000000       0.35000000       0.35000000 </v>
   <v>      -0.35000000       0.35000000       0.35000000 </v>
   <v>       0.45000000       0.45000000       0.35000000 </v>
   <v>      -0.45000000       0.45000000       0.35000000 </v>
   <v>      -0.35000000       0.45000000       0.35000000 </v>
   <v>      -0.45000000      -0.45000000       0.35000000 </v>
   <v>       0.45000000       0.45000000       0.45000000 </v>
   <v>      -0.45000000       0.45000000       0.45000000 </v>
  </varray>
  <varray name="weights" >
   <v>       0.00200000 </v>
   <v>       0.00600000 </v>
   <v>       0.00600000 </v>
   <v>       0.00600000 </v>
   <v>       0.00600000 </v>
   <v>       0.00600000 </v>
   <v>       0.00600000 </v>
   <v>       0.00600000 </v>
   <v>       0.00600000 </v>
   <v>       0.00600000 </v>
   <v>       0.00600000 </v>
   <v>       0.01200000 </v>
   <v>       0.01200000 </v>
   <v>       0.01200000 </v>
   <v>       0.01200000 </v>
   <v>       0.01200000 </v>
   <v>       0.01200000 </v>
   <v>       0.01200000 </v>
   <v>       0.01200000 </v>
   <v>       0.00600000 </v>
   <v>       0.01200000 </v>
   <v>       0.01200000 </v>
   <v>       0.01200000 </v>
   <v>       0.01200000 </v>
   <v>       0.01200000 </v>
   <v>       0.01200000 </v>
   <v>       0.01200000 </v>
   <v>       0.00600000 </v>
   <v>       0.01200000 </v>
   <v>       0.01200000 </v>
   <v>       0.01200000 </v>
   <v>       0.01200000 </v>
   <v>       0.01200000 </v>
   <v>       0.01200000 </v>
   <v>       0.00600000 </v>
   <v>       0.01200000 </v>
   <v>       0.01200000 </v>
   <v>       0.01200000 </v>
   <v>       0.01200000 </v>
   <v>       0.01200000 </v>
   <v>       0.00600000 </v>
   <v>       0.01200000 </v>
   <v>       0.01200000 </v>
   <v>       0.01200000 </v>
   <v>       0.00600000 </v>
   <v>       0.01200000 </v>
   <v>       0.01200000 </v>
   <v>       0.00600000 </v>
   <v>       0.01200000 </v>
   <v>       0.00600000 </v>
   <v>       0.00200000 </v>
   <v>       0.00600000 </v>
   <v>       0.00600000 </v>
   <v>       0.00600000 </v>
   <v>       0.00600000 </v>
   <v>       0.00600000 </v>
   <v>       0.00600000 </v>
   <v>       0.00600000 </v>
   <v>       0.00600000 </v>
   <v>       0.01200000 </v>
   <v>       0.01200000 </v>
   <v>       0.01200000 </v>
   <v>       0.01200000 </v>
   <v>       0.01200000 </v>
   <v>       0.01200000 </v>
   <v>       0.00600000 </v>
   <v>       0.01200000 </v>
   <v>       0.01200000 </v>
   <v>       0.01200000 </v>
   <v>       0.01200000 </v>
   <v>       0.01200000 </v>
   <v>       0.00600000 </v>
   <v>       0.01200000 </v>
   <v>       0.01200000 </v>
   <v>       0.01200000 </v>
   <v>       0.01200000 </v>
   <v>       0.00600000 </v>
   <v>       0.01200000 </v>
   <v>       0.01200000 </v>
   <v>       0.00600000 </v>
   <v>       0.01200000 </v>
   <v>       0.00600000 </v>
   <v>       0.00200000 </v>
   <v>       0.00600000 </v>
   <v>       0.00600000 </v>
   <v>       0.00600000 </v>
   <v>       0.00600000 </v>
   <v>       0.00600000 </v>
   <v>       0.00600000 </v>
   <v>       0.01200000 </v>
   <v>       0.01200000 </v>
   <v>       0.01200000 </v>
   <v>       0.01200000 </v>
   <v>       0.00600000 </v>
   <v>       0.01200000 </v>
   <v>       0.01200000 </v>
   <v>       0.01200000 </v>
   <v>       0.00600000 </v>
   <v>       0.01200000 </v>
   <v>       0.00600000 </v>
   <v>       0.00200000 </v>
   <v>       0.00600000 </v>
   <v>       0.00600000 </v>
   <v>       0.00600000 </v>
   <v>       0.00600000 </v>
   <v>       0.01200000 </v>
   <v>       0.01200000 </v>
   <v>       0.00600000 </v>
   <v>       0.00200000 </v>
   <v>       0.00600000 </v>
  </varray>
 </kpoints>
 <parameters>
  <separator name="general" >
   <i type="string" name="SYSTEM">fcc Ni</i>
   <i type="logical" name="LCOMPAT"> F  </i>
  </separator>
  <separator name="electronic" >
   <i type="string" name="PREC">normal</i>
   <i name="ENMAX">    270.00000000</i>
   <i name="ENAUG">    544.56500000</i>
   <i name="EDIFF">      0.00010000</i>
   <i type="int" name="IALGO">    38</i>
   <i type="int" name="IWAVPR">    10</i>
   <i type="int" name="NBANDS">    12</i>
   <i name="NELECT">     10.00000000</i>
   <i type="int" name="TURBO">     0</i>
   <i type="int" name="IRESTART">     0</i>
   <i type="int" name="NREBOOT">     0</i>
   <i type="int" name="NMIN">     0</i>
   <i name="EREF">      0.00000000</i>
   <separator name="electronic smearing" >
    <i type="int" name="ISMEAR">     1</i>
    <i name="SIGMA">      0.20000000</i>
    <i name="KSPACING">      0.50000000</i>
    <i type="logical" name="KGAMMA"> T  </i>
   </separator>
   <separator name="electronic projectors" >
    <i type="logical" name="LREAL"> F  </i>
    <v name="ROPT">      0.00000000</v>
    <i type="int" name="LMAXPAW">  -100</i>
    <i type="int" name="LMAXMIX">     2</i>
    <i type="logical" name="NLSPLINE"> F  </i>
   </separator>
   <separator name="electronic startup" >
    <i type="int" name="ISTART">     0</i>
    <i type="int" name="ICHARG">     2</i>
    <i type="int" name="INIWAV">     1</i>
   </separator>
   <separator name="electronic spin" >
    <i type="int" name="ISPIN">     2</i>
    <i type="logical" name="LNONCOLLINEAR"> F  </i>
    <v name="MAGMOM">      3.00000000</v>
    <i name="NUPDOWN">     -1.00000000</i>
    <i type="logical" name="LSORBIT"> F  </i>
    <v name="SAXIS">      0.00000000      0.00000000      1.00000000</v>
    <i type="logical" name="LSPIRAL"> F  </i>
    <v name="QSPIRAL">      0.00000000      0.00000000      0.00000000</v>
    <i type="logical" name="LZEROZ"> F  </i>
   </separator>
   <separator name="electronic exchange-correlation" >
    <i type="logical" name="LASPH"> F  </i>
    <i type="logical" name="LMETAGGA"> F  </i>
   </separator>
   <separator name="electronic convergence" >
    <i type="int" name="NELM">    60</i>
    <i type="int" name="NELMDL">    -5</i>
    <i type="int" name="NELMIN">     2</i>
    <i name="ENINI">    270.00000000</i>
    <separator name="electronic convergence detail" >
     <i type="logical" name="LDIAG"> T  </i>
     <i type="logical" name="LSUBROT"> F  </i>
     <i name="WEIMIN">      0.00000000</i>
     <i name="EBREAK">      0.00000208</i>
     <i name="DEPER">      0.30000000</i>
     <i type="int" name="NRMM">     4</i>
     <i name="TIME">      0.40000000</i>
    </separator>
   </separator>
   <separator name="electronic mixer" >
    <i name="AMIX">      0.40000000</i>
    <i name="BMIX">      1.00000000</i>
    <i name="AMIN">      0.10000000</i>
    <i name="AMIX_MAG">      1.60000000</i>
    <i name="BMIX_MAG">      1.00000000</i>
    <separator name="electronic mixer details" >
     <i type="int" name="IMIX">     4</i>
     <i type="logical" name="MIXFIRST"> F  </i>
     <i type="int" name="MAXMIX">   -45</i>
     <i name="WC">    100.00000000</i>
     <i type="int" name="INIMIX">     1</i>
     <i type="int" name="MIXPRE">     1</i>
     <i type="int" name="MREMOVE">     5</i>
    </separator>
   </separator>
   <separator name="electronic dipolcorrection" >
    <i type="logical" name="LDIPOL"> F  </i>
    <i type="logical" name="LMONO"> F  </i>
    <i type="int" name="IDIPOL">     0</i>
    <i name="EPSILON">      1.00000000</i>
    <v name="DIPOL">   -100.00000000   -100.00000000   -100.00000000</v>
    <i name="EFIELD">      0.00000000</i>
   </separator>
  </separator>
  <separator name="grids" >
   <i type="int" name="NGX">    12</i>
   <i type="int" name="NGY">    12</i>
   <i type="int" name="NGZ">    12</i>
   <i type="int" name="NGXF">    24</i>
   <i type="int" name="NGYF">    24</i>
   <i type="int" name="NGZF">    24</i>
   <i type="logical" name="ADDGRID"> F  </i>
  </separator>
  <separator name="ionic" >
   <i type="int" name="NSW">     0</i>
   <i type="int" name="IBRION">    -1</i>
   <i type="int" name="MDALGO">     0</i>
   <i type="int" name="ISIF">     2</i>
   <i name="PSTRESS">      0.00000000</i>
   <i name="EDIFFG">      0.00100000</i>
   <i type="int" name="NFREE">     0</i>
   <i name="POTIM">      0.50000000</i>
   <i name="SMASS">     -3.00000000</i>
   <i name="SCALEE">      1.00000000</i>
  </separator>
  <separator name="ionic md" >
   <i name="TEBEG">      0.00010000</i>
   <i name="TEEND">      0.00010000</i>
   <i type="int" name="NBLOCK">     1</i>
   <i type="int" name="KBLOCK">     1</i>
   <i type="int" name="NPACO">   256</i>
   <i name="APACO">     16.00000000</i>
  </separator>
  <separator name="symmetry" >
   <i type="int" name="ISYM">     2</i>
   <i name="SYMPREC">      0.00001000</i>
  </separator>
  <separator name="dos" >
   <i type="int" name="LORBIT">     0</i>
   <v name="RWIGS">     -1.00000000</v>
   <i type="int" name="NEDOS">   301</i>
   <i name="EMIN">     10.00000000</i>
   <i name="EMAX">    -10.00000000</i>
   <i name="EFERMI">      0.00000000</i>
  </separator>
  <separator name="writing" >
   <i type="int" name="NWRITE">     2</i>
   <i type="logical" name="LWAVE"> T  </i>
   <i type="logical" name="LDOWNSAMPLE"> F  </i>
   <i type="logical" name="LCHARG"> T  </i>
   <i type="logical" name="LPARD"> F  </i>
   <i type="logical" name="LVTOT"> F  </i>
   <i type="logical" name="LVHAR"> F  </i>
   <i type="logical" name="LELF"> F  </i>
   <i type="logical" name="LOPTICS"> F  </i>
   <v name="STM">      0.00000000      0.00000000      0.00000000      0.00000000      0.00000000      0.00000000      0.00000000</v>
  </separator>
  <separator name="performance" >
   <i type="int" name="NPAR">     4</i>
   <i type="int" name="NSIM">     4</i>
   <i type="int" name="NBLK">    -1</i>
   <i type="logical" name="LPLANE"> T  </i>
   <i type="logical" name="LSCALAPACK"> T  </i>
   <i type="logical" name="LSCAAWARE"> F  </i>
   <i type="logical" name="LSCALU"> F  </i>
   <i type="logical" name="LASYNC"> F  </i>
   <i type="logical" name="LORBITALREAL"> F  </i>
  </separator>
  <separator name="miscellaneous" >
   <i type="int" name="IDIOT">     3</i>
   <i type="int" name="ISPECIAL">     0</i>
   <i type="logical" name="LMUSIC"> F  </i>
   <v name="POMASS">     58.69000000</v>
   <v name="DARWINR">      0.00000000</v>
   <v name="DARWINV">      1.00000000</v>
   <i type="logical" name="LCORR"> T  </i>
  </separator>
  <i type="logical" name="GGA_COMPAT"> T  </i>
  <i type="logical" name="LBERRY"> F  </i>
  <i type="int" name="ICORELEVEL">     0</i>
  <i type="logical" name="LDAU"> F  </i>
  <i type="int" name="I_CONSTRAINED_M">     0</i>
  <separator name="electronic exchange-correlation" >
   <i type="string" name="GGA">--</i>
   <i type="int" name="VOSKOWN">     0</i>
   <i type="logical" name="LHFCALC"> F  </i>
   <i type="string" name="PRECFOCK"></i>
   <i type="logical" name="LSYMGRAD"> F  </i>
   <i type="logical" name="LHFONE"> F  </i>
   <i type="logical" name="LRHFCALC"> F  </i>
   <i type="logical" name="LTHOMAS"> F  </i>
   <i type="logical" name="LMODELHF"> F  </i>
   <i name="ENCUT4O">     -1.00000000</i>
   <i type="int" name="EXXOEP">     0</i>
   <i type="int" name="FOURORBIT">     0</i>
   <i name="AEXX">      0.00000000</i>
   <i name="HFALPHA">      0.00000000</i>
   <i name="MCALPHA">      0.00000000</i>
   <i name="ALDAX">      1.00000000</i>
   <i name="AGGAX">      1.00000000</i>
   <i name="ALDAC">      1.00000000</i>
   <i name="AGGAC">      1.00000000</i>
   <i type="int" name="NKREDX">     1</i>
   <i type="int" name="NKREDY">     1</i>
   <i type="int" name="NKREDZ">     1</i>
   <i type="logical" name="SHIFTRED"> F  </i>
   <i type="logical" name="ODDONLY"> F  </i>
   <i type="logical" name="EVENONLY"> F  </i>
   <i type="int" name="LMAXFOCK">     0</i>
   <i type="int" name="NMAXFOCKAE">     0</i>
   <i type="logical" name="LFOCKAEDFT"> F  </i>
   <i name="HFSCREEN">      0.00000000</i>
   <i name="HFSCREENC">      0.00000000</i>
   <i type="int" name="NBANDSGWLOW">     0</i>
  </separator>
  <separator name="vdW DFT" >
   <i type="logical" name="LUSE_VDW"> F  </i>
   <i name="Zab_VDW">     -0.84910000</i>
   <i name="PARAM1">      0.12340000</i>
   <i name="PARAM2">      1.00000000</i>
   <i name="PARAM3">      0.00000000</i>
  </separator>
  <separator name="model GW" >
   <i type="int" name="MODEL_GW">     0</i>
   <i name="MODEL_EPS0">      7.91015625</i>
   <i name="MODEL_ALPHA">      1.00000000</i>
  </separator>
  <separator name="linear response parameters" >
   <i type="logical" name="LEPSILON"> F  </i>
   <i type="logical" name="LRPA"> F  </i>
   <i type="logical" name="LNABLA"> F  </i>
   <i type="logical" name="LVEL"> F  </i>
   <i type="int" name="KINTER">     0</i>
   <i name="CSHIFT">      0.10000000</i>
   <i name="OMEGAMAX">     -1.00000000</i>
   <i name="DEG_THRESHOLD">      0.00200000</i>
   <i name="RTIME">     -0.10000000</i>
   <i name="WPLASMAI">      0.00000000</i>
   <v name="DFIELD">      0.00000000      0.00000000      0.00000000</v>
   <v name="WPLASMA">      0.00000000      0.00000000      0.00000000      0.00000000      0.00000000      0.00000000      0.00000000      0.00000000      0.00000000</v>
  </separator>
  <separator name="orbital magnetization" >
   <i type="logical" name="NUCIND"> F  </i>
   <v name="MAGPOS">      0.00000000      0.00000000      0.00000000</v>
   <i type="logical" name="LNICSALL"> T  </i>
   <i type="logical" name="ORBITALMAG"> F  </i>
   <i type="logical" name="LMAGBLOCH"> F  </i>
   <i type="logical" name="LCHIMAG"> F  </i>
   <i type="logical" name="LGAUGE"> T  </i>
   <i type="int" name="MAGATOM">     0</i>
   <v name="MAGDIPOL">      0.00000000      0.00000000      0.00000000</v>
   <v name="AVECCONST">      0.00000000      0.00000000      0.00000000</v>
  </separator>
  <separator name="response functions" >
   <i type="logical" name="LADDER"> F  </i>
   <i type="logical" name="LRPAFORCE"> F  </i>
   <i type="logical" name="LFXC"> F  </i>
   <i type="logical" name="LHARTREE"> T  </i>
   <i type="int" name="IBSE">     0</i>
   <v type="int" name="KPOINT">    -1     0     0     0</v>
   <i type="logical" name="LTCTE"> F  </i>
   <i type="logical" name="LTETE"> F  </i>
   <i type="logical" name="LTRIPLET"> F  </i>
   <i type="logical" name="LFXCEPS"> F  </i>
   <i type="logical" name="LFXHEG"> F  </i>
   <i type="int" name="NATURALO">     2</i>
   <i type="logical" name="L2ORDER"> F  </i>
   <i type="logical" name="LMP2LT"> F  </i>
   <i type="logical" name="LUSEW"> F  </i>
   <i name="ENCUTGW">     -2.00000000</i>
   <i name="ENCUTGWSOFT">     -2.00000000</i>
   <i name="ENCUTLF">     -1.00000000</i>
   <i type="int" name="LMAXMP2">    -1</i>
   <i name="SCISSOR">      0.00000000</i>
   <i type="int" name="NOMEGA">     0</i>
   <i type="int" name="NOMEGAR">     0</i>
   <i type="int" name="NBANDSGW">    -1</i>
   <i type="int" name="NBANDSO">    -1</i>
   <i type="int" name="NBANDSV">    -1</i>
   <i type="int" name="NELM">     1</i>
   <i type="int" name="NELMHF">     1</i>
   <i type="int" name="DIM">     3</i>
   <i type="int" name="ANTIRES">     0</i>
   <i name="OMEGAMAX">    -30.00000000</i>
   <i name="OMEGAMIN">    -30.00000000</i>
   <i name="OMEGATL">   -200.00000000</i>
   <i type="int" name="OMEGAGRID">   140</i>
   <i name="CSHIFT">     -0.10000000</i>
   <i type="logical" name="SELFENERGY"> F  </i>
   <i type="logical" name="LSPECTRAL"> F  </i>
   <i type="logical" name="LSPECTRALGW"> F  </i>
   <i type="logical" name="LSINGLES"> F  </i>
   <i type="logical" name="LFERMIGW"> F  </i>
   <i type="logical" name="ODDONLYGW"> F  </i>
   <i type="logical" name="EVENONLYGW"> F  </i>
   <i type="int" name="NKREDLFX">     1</i>
   <i type="int" name="NKREDLFY">     1</i>
   <i type="int" name="NKREDLFZ">     1</i>
   <i type="int" name="MAXMEM">  2800</i>
   <i type="int" name="TELESCOPE">     0</i>
   <i type="int" name="TAUPAR">     1</i>
   <i type="int" name="OMEGAPAR">    -1</i>
   <i name="LAMBDA">      1.00000000</i>
  </separator>
  <separator name="External order field" >
   <i name="OFIELD_KAPPA">      0.00000000</i>
   <v name="OFIELD_K">      0.00000000      0.00000000      0.00000000</v>
   <i name="OFIELD_Q6_NEAR">      0.00000000</i>
   <i name="OFIELD_Q6_FAR">      0.00000000</i>
   <i name="OFIELD_A">      0.00000000</i>
  </separator>
 </parameters>
 <atominfo>
  <atoms>       1 </atoms>
  <types>       1 </types>
  <array name="atoms" >
   <dimension dim="1">ion</dimension>
   <field type="string">element</field>
   <field type="int">atomtype</field>
   <set>
    <rc><c>Ni</c><c>   1</c></rc>
   </set>
  </array>
  <array name="atomtypes" >
   <dimension dim="1">type</dimension>
   <field type="int">atomspertype</field>
   <field type="string">element</field>
   <field>mass</field>
   <field>valence</field>
   <field type="string">pseudopotential</field>
   <set>
    <rc><c>   1</c><c>Ni</c><c>     58.69000000</c><c>     10.00000000</c><c>  PAW_PBE Ni 02Aug2007                  </c></rc>
   </set>
  </array>
 </atominfo>
 <structure name="initialpos" >
  <crystal>
   <varray name="basis" >
    <v>       0.00000000       1.87500000       1.87500000 </v>
    <v>       1.87500000       0.00000000       1.87500000 </v>
    <v>       1.87500000       1.87500000       0.00000000 </v>
   </varray>
   <i name="volume">     13.18359375 </i>
   <varray name="rec_basis" >
    <v>      -0.26666667       0.26666667       0.26666667 </v>
    <v>       0.26666667      -0.26666667       0.26666667 </v>
    <v>       0.26666667       0.26666667      -0.26666667 </v>
   </varray>
  </crystal>
  <varray name="positions" >
   <v>       0.00000000       0.00000000       0.00000000 </v>
  </varray>
 </structure>
 <calculation>
  <scstep>
   <time name="dav">    0.30    0.31</time>
   <time name="total">    0.31    0.32</time>
   <energy>
    <i name="alphaZ">     38.68399009 </i>
    <i name="ewald">   -880.28050729 </i>
    <i name="hartreedc">   -273.96066808 </i>
    <i name="XCdc">     32.17816140 </i>
    <i name="pawpsdc">    961.92645289 </i>
    <i name="pawaedc">  -1028.66799202 </i>
    <i name="eentropy">      0.00144994 </i>
    <i name="bandstr">     92.17455718 </i>
    <i name="atom">   1077.63607467 </i>
    <i name="e_fr_energy">     19.69151877 </i>
    <i name="e_wo_entrp">     19.69006883 </i>
    <i name="e_0_energy">     19.69103545 </i>
   </energy>
  </scstep>
  <scstep>
   <time name="dav">    0.29    0.30</time>
   <time name="total">    0.29    0.30</time>
   <energy>
    <i name="e_fr_energy">     -5.21569218 </i>
    <i name="e_wo_entrp">     -5.21684021 </i>
    <i name="e_0_energy">     -5.21607486 </i>
   </energy>
  </scstep>
  <scstep>
   <time name="dav">    0.32    0.32</time>
   <time name="total">    0.32    0.32</time>
   <energy>
    <i name="e_fr_energy">     -5.72592717 </i>
    <i name="e_wo_entrp">     -5.72664177 </i>
    <i name="e_0_energy">     -5.72616537 </i>
   </energy>
  </scstep>
  <scstep>
   <time name="dav">    0.30    0.31</time>
   <time name="total">    0.31    0.31</time>
   <energy>
    <i name="e_fr_energy">     -5.72864073 </i>
    <i name="e_wo_entrp">     -5.72935439 </i>
    <i name="e_0_energy">     -5.72887862 </i>
   </energy>
  </scstep>
  <scstep>
   <time name="dav">    0.31    0.32</time>
   <time name="total">    0.32    0.33</time>
   <energy>
    <i name="e_fr_energy">     -5.72868042 </i>
    <i name="e_wo_entrp">     -5.72939409 </i>
    <i name="e_0_energy">     -5.72891831 </i>
   </energy>
  </scstep>
  <scstep>
   <time name="dav">    0.32    0.33</time>
   <time name="total">    0.34    0.34</time>
   <energy>
    <i name="e_fr_energy">     -5.99620857 </i>
    <i name="e_wo_entrp">     -5.98924023 </i>
    <i name="e_0_energy">     -5.99388579 </i>
   </energy>
  </scstep>
  <scstep>
   <time name="dav">    0.31    0.32</time>
   <time name="total">    0.33    0.34</time>
   <energy>
    <i name="e_fr_energy">     -5.26802323 </i>
    <i name="e_wo_entrp">     -5.26323408 </i>
    <i name="e_0_energy">     -5.26642685 </i>
   </energy>
  </scstep>
  <scstep>
   <time name="dav">    0.31    0.31</time>
   <time name="total">    0.32    0.33</time>
   <energy>
    <i name="e_fr_energy">     -5.26640534 </i>
    <i name="e_wo_entrp">     -5.26155118 </i>
    <i name="e_0_energy">     -5.26478728 </i>
   </energy>
  </scstep>
  <scstep>
   <time name="dav">    0.30    0.31</time>
   <time name="total">    0.32    0.33</time>
   <energy>
    <i name="e_fr_energy">     -5.26441709 </i>
    <i name="e_wo_entrp">     -5.25955483 </i>
    <i name="e_0_energy">     -5.26279634 </i>
   </energy>
  </scstep>
  <scstep>
   <time name="dav">    0.34    0.35</time>
   <time name="total">    0.35    0.36</time>
   <energy>
    <i name="e_fr_energy">     -5.26335071 </i>
    <i name="e_wo_entrp">     -5.25854953 </i>
    <i name="e_0_energy">     -5.26175032 </i>
   </energy>
  </scstep>
  <scstep>
   <time name="dav">    0.21    0.22</time>
   <time name="total">    0.22    0.23</time>
   <energy>
    <i name="alphaZ">     38.68399009 </i>
    <i name="ewald">   -880.28050729 </i>
    <i name="hartreedc">   -254.46653700 </i>
    <i name="XCdc">     30.28250768 </i>
    <i name="pawpsdc">   1055.87270906 </i>
    <i name="pawaedc">  -1123.52946849 </i>
    <i name="eentropy">     -0.00482727 </i>
    <i name="bandstr">     50.54269146 </i>
    <i name="atom">   1077.63607467 </i>
    <i name="e_fr_energy">     -5.26336710 </i>
    <i name="e_wo_entrp">     -5.25853983 </i>
    <i name="e_0_energy">     -5.26175801 </i>
   </energy>
  </scstep>
  <structure>
   <crystal>
    <varray name="basis" >
     <v>       0.00000000       1.87500000       1.87500000 </v>
     <v>       1.87500000       0.00000000       1.87500000 </v>
     <v>       1.87500000       1.87500000       0.00000000 </v>
    </varray>
    <i name="volume">     13.18359375 </i>
    <varray name="rec_basis" >
     <v>      -0.26666667       0.26666667       0.26666667 </v>
     <v>       0.26666667      -0.26666667       0.26666667 </v>
     <v>       0.26666667       0.26666667      -0.26666667 </v>
    </varray>
   </crystal>
   <varray name="positions" >
    <v>       0.00000000       0.00000000       0.00000000 </v>
   </varray>
  </structure>
  <varray name="forces" >
   <v>      -0.00000000       0.00000000      -0.00000000 </v>
  </varray>
  <varray name="stress" >
   <v>    -271.72859194      -0.00000000       0.00000000 </v>
   <v>       0.00000000    -271.72859194       0.00000000 </v>
   <v>      -0.00000000       0.00000000    -271.72859194 </v>
  </varray>
  <energy>
   <i name="e_fr_energy">     -5.26336710 </i>
   <i name="e_wo_entrp">     -5.26175801 </i>
   <i name="e_0_energy">     -0.00482727 </i>
  </energy>
  <time name="totalsc">    3.62    3.70</time>
  <eigenvalues>
   <array>
    <dimension dim="1">band</dimension>
    <dimension dim="2">kpoint</dimension>
    <dimension dim="3">spin</dimension>
    <field>eigene</field>
    <field>occ</field>
    <set>
     <set comment="spin 1">
      <set comment="kpoint 1">
       <r>   -0.7452    1.0000 </r>
       <r>    4.8740    1.0000 </r>
       <r>    4.9084    1.0000 </r>
       <r>    4.9084    1.0000 </r>
       <r>    5.7788    1.0000 </r>
       <r>    5.7788    1.0000 </r>
       <r>   28.5726    0.0000 </r>
       <r>   30.2853    0.0000 </r>
       <r>   31.1496    0.0000 </r>
       <r>   31.1496    0.0000 </r>
       <r>   34.4127    0.0000 </r>
       <r>   34.4127    0.0000 </r>
      </set>
      <set comment="kpoint 2">
       <r>   -0.2979    1.0000 </r>
       <r>    4.7801    1.0000 </r>
       <r>    4.9842    1.0000 </r>
       <r>    4.9979    1.0000 </r>
       <r>    5.7085    1.0000 </r>
       <r>    5.8013    1.0000 </r>
       <r>   25.9378    0.0000 </r>
       <r>   27.9677    0.0000 </r>
       <r>   30.5477    0.0000 </r>
       <r>   31.7521    0.0000 </r>
       <r>   34.5961    0.0000 </r>
       <r>   34.6716    0.0000 </r>
      </set>
      <set comment="kpoint 3">
       <r>    0.7572    1.0000 </r>
       <r>    4.6481    1.0000 </r>
       <r>    5.0739    1.0000 </r>
       <r>    5.0935    1.0000 </r>
       <r>    5.6933    1.0000 </r>
       <r>    5.8826    1.0000 </r>
       <r>   21.1196    0.0000 </r>
       <r>   26.9812    0.0000 </r>
       <r>   30.1187    0.0000 </r>
       <r>   31.0302    0.0000 </r>
       <r>   34.1679    0.0000 </r>
       <r>   34.2270    0.0000 </r>
      </set>
      <set comment="kpoint 4">
       <r>    2.1184    1.0000 </r>
       <r>    4.7878    1.0000 </r>
       <r>    5.0247    1.0000 </r>
       <r>    5.0572    1.0000 </r>
       <r>    5.8893    1.0000 </r>
       <r>    6.1219    1.0000 </r>
       <r>   16.6606    0.0000 </r>
       <r>   26.4609    0.0000 </r>
       <r>   29.0833    0.0000 </r>
       <r>   30.0859    0.0000 </r>
       <r>   32.2746    0.0000 </r>
       <r>   33.7986    0.0000 </r>
      </set>
      <set comment="kpoint 5">
       <r>    2.9282    1.0000 </r>
       <r>    4.9309    1.0000 </r>
       <r>    4.9746    1.0000 </r>
       <r>    5.6809    1.0000 </r>
       <r>    6.1445    1.0000 </r>
       <r>    6.6261    1.0278 </r>
       <r>   12.9348    0.0000 </r>
       <r>   26.4513    0.0000 </r>
       <r>   28.2061    0.0000 </r>
       <r>   28.7813    0.0000 </r>
       <r>   31.7808    0.0000 </r>
       <r>   33.0295    0.0000 </r>
      </set>
      <set comment="kpoint 6">
       <r>    3.0511    1.0000 </r>
       <r>    4.8971    1.0000 </r>
       <r>    4.9513    1.0000 </r>
       <r>    5.9586    1.0000 </r>
       <r>    6.2613    1.0000 </r>
       <r>    7.2944   -0.0127 </r>
       <r>   11.4484   -0.0000 </r>
       <r>   26.9161    0.0000 </r>
       <r>   27.7435    0.0000 </r>
       <r>   27.9350    0.0000 </r>
       <r>   32.2605    0.0000 </r>
       <r>   32.4712    0.0000 </r>
      </set>
      <set comment="kpoint 7">
       <r>    2.7631    1.0000 </r>
       <r>    4.9510    1.0000 </r>
       <r>    5.0064    1.0000 </r>
       <r>    5.3183    1.0000 </r>
       <r>    6.1827    1.0000 </r>
       <r>    6.2939    1.0000 </r>
       <r>   14.0570    0.0000 </r>
       <r>   27.3356    0.0000 </r>
       <r>   27.4585    0.0000 </r>
       <r>   28.7335    0.0000 </r>
       <r>   32.4212    0.0000 </r>
       <r>   33.4461    0.0000 </r>
      </set>
      <set comment="kpoint 8">
       <r>    1.6726    1.0000 </r>
       <r>    4.6681    1.0000 </r>
       <r>    5.0516    1.0000 </r>
       <r>    5.0829    1.0000 </r>
       <r>    5.8575    1.0000 </r>
       <r>    5.9808    1.0000 </r>
       <r>   18.0845    0.0000 </r>
       <r>   27.5473    0.0000 </r>
       <r>   27.9843    0.0000 </r>
       <r>   30.4105    0.0000 </r>
       <r>   32.8034    0.0000 </r>
       <r>   35.2421    0.0000 </r>
      </set>
      <set comment="kpoint 9">
       <r>    0.3480    1.0000 </r>
       <r>    4.6774    1.0000 </r>
       <r>    5.0651    1.0000 </r>
       <r>    5.0720    1.0000 </r>
       <r>    5.6789    1.0000 </r>
       <r>    5.8356    1.0000 </r>
       <r>   22.7079    0.0000 </r>
       <r>   28.3167    0.0000 </r>
       <r>   28.6086    0.0000 </r>
       <r>   31.8646    0.0000 </r>
       <r>   33.3847    0.0000 </r>
       <r>   36.3129    0.0000 </r>
      </set>
      <set comment="kpoint 10">
       <r>   -0.5200    1.0000 </r>
       <r>    4.8136    1.0000 </r>
       <r>    4.9580    1.0000 </r>
       <r>    4.9603    1.0000 </r>
       <r>    5.7216    1.0000 </r>
       <r>    5.8058    1.0000 </r>
       <r>   27.4567    0.0000 </r>
       <r>   29.3203    0.0000 </r>
       <r>   29.5653    0.0000 </r>
       <r>   31.2432    0.0000 </r>
       <r>   34.5780    0.0000 </r>
       <r>   36.0816    0.0000 </r>
      </set>
      <set comment="kpoint 11">
       <r>   -0.0774    1.0000 </r>
       <r>    4.6915    1.0000 </r>
       <r>    5.0609    1.0000 </r>
       <r>    5.0638    1.0000 </r>
       <r>    5.6123    1.0000 </r>
       <r>    5.8585    1.0000 </r>
       <r>   26.1051    0.0000 </r>
       <r>   27.8294    0.0000 </r>
       <r>   28.2628    0.0000 </r>
       <r>   30.2411    0.0000 </r>
       <r>   34.0143    0.0000 </r>
       <r>   36.3411    0.0000 </r>
      </set>
      <set comment="kpoint 12">
       <r>    0.7675    1.0000 </r>
       <r>    4.5287    1.0000 </r>
       <r>    5.1325    1.0000 </r>
       <r>    5.2104    1.0000 </r>
       <r>    5.5656    1.0000 </r>
       <r>    5.9486    1.0000 </r>
       <r>   23.0388    0.0000 </r>
       <r>   25.0200    0.0000 </r>
       <r>   28.7743    0.0000 </r>
       <r>   29.9900    0.0000 </r>
       <r>   32.1129    0.0000 </r>
       <r>   36.7154    0.0000 </r>
      </set>
      <set comment="kpoint 13">
       <r>    2.0437    1.0000 </r>
       <r>    4.4587    1.0000 </r>
       <r>    4.9968    1.0000 </r>
       <r>    5.2439    1.0000 </r>
       <r>    5.8573    1.0000 </r>
       <r>    6.2031    1.0000 </r>
       <r>   18.4343    0.0000 </r>
       <r>   24.3076    0.0000 </r>
       <r>   27.3272    0.0000 </r>
       <r>   28.8628    0.0000 </r>
       <r>   34.3838    0.0000 </r>
       <r>   35.3784    0.0000 </r>
      </set>
      <set comment="kpoint 14">
       <r>    3.0599    1.0000 </r>
       <r>    4.7676    1.0000 </r>
       <r>    4.8857    1.0000 </r>
       <r>    5.1744    1.0000 </r>
       <r>    6.1752    1.0000 </r>
       <r>    6.9774    0.2877 </r>
       <r>   14.3743    0.0000 </r>
       <r>   24.2030    0.0000 </r>
       <r>   25.4769    0.0000 </r>
       <r>   28.3268    0.0000 </r>
       <r>   34.1626    0.0000 </r>
       <r>   36.3551    0.0000 </r>
      </set>
      <set comment="kpoint 15">
       <r>    3.3071    1.0000 </r>
       <r>    4.7384    1.0000 </r>
       <r>    5.1120    1.0000 </r>
       <r>    5.3072    1.0000 </r>
       <r>    6.2404    1.0000 </r>
       <r>    8.3997   -0.0000 </r>
       <r>   11.5956   -0.0000 </r>
       <r>   23.9301    0.0000 </r>
       <r>   24.9085    0.0000 </r>
       <r>   28.3572    0.0000 </r>
       <r>   33.4173    0.0000 </r>
       <r>   36.0626    0.0000 </r>
      </set>
      <set comment="kpoint 16">
       <r>    3.2100    1.0000 </r>
       <r>    4.7911    1.0000 </r>
       <r>    5.0733    1.0000 </r>
       <r>    5.1522    1.0000 </r>
       <r>    6.1034    1.0000 </r>
       <r>    7.5012   -0.0002 </r>
       <r>   13.2235    0.0000 </r>
       <r>   23.1640    0.0000 </r>
       <r>   26.1331    0.0000 </r>
       <r>   28.9951    0.0000 </r>
       <r>   33.0739    0.0000 </r>
       <r>   35.7376    0.0000 </r>
      </set>
      <set comment="kpoint 17">
       <r>    2.4739    1.0000 </r>
       <r>    4.5604    1.0000 </r>
       <r>    4.9370    1.0000 </r>
       <r>    5.2158    1.0000 </r>
       <r>    5.8015    1.0000 </r>
       <r>    6.5021    1.0054 </r>
       <r>   17.0160    0.0000 </r>
       <r>   23.0241    0.0000 </r>
       <r>   27.9627    0.0000 </r>
       <r>   30.2032    0.0000 </r>
       <r>   33.1953    0.0000 </r>
       <r>   35.0202    0.0000 </r>
      </set>
      <set comment="kpoint 18">
       <r>    1.1644    1.0000 </r>
       <r>    4.5252    1.0000 </r>
       <r>    5.0758    1.0000 </r>
       <r>    5.2317    1.0000 </r>
       <r>    5.5671    1.0000 </r>
       <r>    6.0594    1.0000 </r>
       <r>   21.4651    0.0000 </r>
       <r>   23.5159    0.0000 </r>
       <r>   30.1502    0.0000 </r>
       <r>   31.2744    0.0000 </r>
       <r>   33.2397    0.0000 </r>
       <r>   34.4439    0.0000 </r>
      </set>
      <set comment="kpoint 19">
       <r>    0.1381    1.0000 </r>
       <r>    4.6795    1.0000 </r>
       <r>    5.0658    1.0000 </r>
       <r>    5.0723    1.0000 </r>
       <r>    5.6286    1.0000 </r>
       <r>    5.8560    1.0000 </r>
       <r>   24.4342    0.0000 </r>
       <r>   26.4595    0.0000 </r>
       <r>   29.9206    0.0000 </r>
       <r>   31.8017    0.0000 </r>
       <r>   33.5639    0.0000 </r>
       <r>   35.5709    0.0000 </r>
      </set>
      <set comment="kpoint 20">
       <r>    1.3578    1.0000 </r>
       <r>    4.3286    1.0000 </r>
       <r>    5.2588    1.0000 </r>
       <r>    5.3956    1.0000 </r>
       <r>    5.5284    1.0000 </r>
       <r>    6.0129    1.0000 </r>
       <r>   23.4215    0.0000 </r>
       <r>   24.6158    0.0000 </r>
       <r>   26.2583    0.0000 </r>
       <r>   26.9173    0.0000 </r>
       <r>   29.4662    0.0000 </r>
       <r>   40.4387    0.0000 </r>
      </set>
      <set comment="kpoint 21">
       <r>    2.3680    1.0000 </r>
       <r>    4.1625    1.0000 </r>
       <r>    5.0937    1.0000 </r>
       <r>    5.5829    1.0000 </r>
       <r>    5.8886    1.0000 </r>
       <r>    6.2215    1.0000 </r>
       <r>   20.6456    0.0000 </r>
       <r>   22.4843    0.0000 </r>
       <r>   24.1177    0.0000 </r>
       <r>   27.3468    0.0000 </r>
       <r>   30.0390    0.0000 </r>
       <r>   39.7875    0.0000 </r>
      </set>
      <set comment="kpoint 22">
       <r>    3.3202    1.0000 </r>
       <r>    4.1719    1.0000 </r>
       <r>    4.8937    1.0000 </r>
       <r>    5.5493    1.0000 </r>
       <r>    6.2165    1.0000 </r>
       <r>    7.2456   -0.0230 </r>
       <r>   16.4237    0.0000 </r>
       <r>   21.8140    0.0000 </r>
       <r>   22.2669    0.0000 </r>
       <r>   27.3119    0.0000 </r>
       <r>   33.4225    0.0000 </r>
       <r>   38.1991    0.0000 </r>
      </set>
      <set comment="kpoint 23">
       <r>    3.6865    1.0000 </r>
       <r>    4.3535    1.0000 </r>
       <r>    4.8639    1.0000 </r>
       <r>    5.4647    1.0000 </r>
       <r>    6.2514    1.0000 </r>
       <r>    9.2811   -0.0000 </r>
       <r>   12.8432    0.0000 </r>
       <r>   20.1727    0.0000 </r>
       <r>   22.6912    0.0000 </r>
       <r>   27.5018    0.0000 </r>
       <r>   36.2993    0.0000 </r>
       <r>   38.3265    0.0000 </r>
      </set>
      <set comment="kpoint 24">
       <r>    3.7613    1.0000 </r>
       <r>    4.4676    1.0000 </r>
       <r>    4.7858    1.0000 </r>
       <r>    5.4254    1.0000 </r>
       <r>    6.0715    1.0000 </r>
       <r>    9.3733   -0.0000 </r>
       <r>   12.8589    0.0000 </r>
       <r>   19.0955    0.0000 </r>
       <r>   23.8865    0.0000 </r>
       <r>   28.2003    0.0000 </r>
       <r>   35.6386    0.0000 </r>
       <r>   39.1625    0.0000 </r>
      </set>
      <set comment="kpoint 25">
       <r>    3.4523    1.0000 </r>
       <r>    4.4380    1.0000 </r>
       <r>    4.6792    1.0000 </r>
       <r>    5.4735    1.0000 </r>
       <r>    5.7468    1.0000 </r>
       <r>    7.5635   -0.0000 </r>
       <r>   16.4337    0.0000 </r>
       <r>   18.7193    0.0000 </r>
       <r>   25.6774    0.0000 </r>
       <r>   29.5289    0.0000 </r>
       <r>   34.6358    0.0000 </r>
       <r>   37.7965    0.0000 </r>
      </set>
      <set comment="kpoint 26">
       <r>    2.3940    1.0000 </r>
       <r>    4.4224    1.0000 </r>
       <r>    4.9240    1.0000 </r>
       <r>    5.3855    1.0000 </r>
       <r>    5.5902    1.0000 </r>
       <r>    6.5573    1.0129 </r>
       <r>   18.7866    0.0000 </r>
       <r>   20.9043    0.0000 </r>
       <r>   27.9083    0.0000 </r>
       <r>   31.1633    0.0000 </r>
       <r>   33.0119    0.0000 </r>
       <r>   35.6506    0.0000 </r>
      </set>
      <set comment="kpoint 27">
       <r>    1.3402    1.0000 </r>
       <r>    4.5733    1.0000 </r>
       <r>    5.0697    1.0000 </r>
       <r>    5.1495    1.0000 </r>
       <r>    5.7059    1.0000 </r>
       <r>    6.0183    1.0000 </r>
       <r>   19.6952    0.0000 </r>
       <r>   25.5928    0.0000 </r>
       <r>   29.1502    0.0000 </r>
       <r>   30.8814    0.0000 </r>
       <r>   33.2836    0.0000 </r>
       <r>   34.6895    0.0000 </r>
      </set>
      <set comment="kpoint 28">
       <r>    2.8811    1.0000 </r>
       <r>    3.9399    1.0000 </r>
       <r>    5.5471    1.0000 </r>
       <r>    5.8286    1.0000 </r>
       <r>    6.1423    1.0000 </r>
       <r>    6.1848    1.0000 </r>
       <r>   21.0802    0.0000 </r>
       <r>   21.2812    0.0000 </r>
       <r>   22.0829    0.0000 </r>
       <r>   25.5049    0.0000 </r>
       <r>   27.8679    0.0000 </r>
       <r>   44.1672    0.0000 </r>
      </set>
      <set comment="kpoint 29">
       <r>    3.3279    1.0000 </r>
       <r>    3.8384    1.0000 </r>
       <r>    5.5048    1.0000 </r>
       <r>    5.9984    1.0000 </r>
       <r>    6.2314    1.0000 </r>
       <r>    7.4421   -0.0008 </r>
       <r>   18.7585    0.0000 </r>
       <r>   18.9432    0.0000 </r>
       <r>   20.6526    0.0000 </r>
       <r>   26.3313    0.0000 </r>
       <r>   29.0014    0.0000 </r>
       <r>   42.5051    0.0000 </r>
      </set>
      <set comment="kpoint 30">
       <r>    3.6543    1.0000 </r>
       <r>    3.9172    1.0000 </r>
       <r>    5.2361    1.0000 </r>
       <r>    5.8914    1.0000 </r>
       <r>    6.2817    1.0000 </r>
       <r>    9.6906   -0.0000 </r>
       <r>   15.1785    0.0000 </r>
       <r>   16.9828    0.0000 </r>
       <r>   20.9094    0.0000 </r>
       <r>   26.6785    0.0000 </r>
       <r>   32.7630    0.0000 </r>
       <r>   40.7971    0.0000 </r>
      </set>
      <set comment="kpoint 31">
       <r>    3.9239    1.0000 </r>
       <r>    4.1171    1.0000 </r>
       <r>    4.8842    1.0000 </r>
       <r>    5.7625    1.0000 </r>
       <r>    6.1222    1.0000 </r>
       <r>   11.8089   -0.0000 </r>
       <r>   12.6298    0.0000 </r>
       <r>   15.9230    0.0000 </r>
       <r>   21.9768    0.0000 </r>
       <r>   27.2083    0.0000 </r>
       <r>   37.4060    0.0000 </r>
       <r>   39.1735    0.0000 </r>
      </set>
      <set comment="kpoint 32">
       <r>    3.9501    1.0000 </r>
       <r>    4.3912    1.0000 </r>
       <r>    4.5896    1.0000 </r>
       <r>    5.5798    1.0000 </r>
       <r>    5.9444    1.0000 </r>
       <r>    9.3627   -0.0000 </r>
       <r>   14.3773    0.0000 </r>
       <r>   17.0489    0.0000 </r>
       <r>   23.6869    0.0000 </r>
       <r>   28.1655    0.0000 </r>
       <r>   36.7095    0.0000 </r>
       <r>   40.2332    0.0000 </r>
      </set>
      <set comment="kpoint 33">
       <r>    3.3417    1.0000 </r>
       <r>    4.6852    1.0000 </r>
       <r>    4.7243    1.0000 </r>
       <r>    5.2971    1.0000 </r>
       <r>    5.9329    1.0000 </r>
       <r>    7.5462   -0.0001 </r>
       <r>   14.7225    0.0000 </r>
       <r>   20.8401    0.0000 </r>
       <r>   25.8308    0.0000 </r>
       <r>   29.3609    0.0000 </r>
       <r>   33.8494    0.0000 </r>
       <r>   36.9589    0.0000 </r>
      </set>
      <set comment="kpoint 34">
       <r>    2.6074    1.0000 </r>
       <r>    4.8598    1.0000 </r>
       <r>    4.9509    1.0000 </r>
       <r>    5.0884    1.0000 </r>
       <r>    6.0115    1.0000 </r>
       <r>    6.3933    1.0006 </r>
       <r>   15.4254    0.0000 </r>
       <r>   25.2703    0.0000 </r>
       <r>   27.9605    0.0000 </r>
       <r>   29.1465    0.0000 </r>
       <r>   32.9802    0.0000 </r>
       <r>   34.4701    0.0000 </r>
      </set>
      <set comment="kpoint 35">
       <r>    3.2857    1.0000 </r>
       <r>    3.6699    1.0000 </r>
       <r>    6.1292    1.0000 </r>
       <r>    6.1929    1.0000 </r>
       <r>    6.3095    1.0001 </r>
       <r>    8.1612   -0.0000 </r>
       <r>   16.3823    0.0000 </r>
       <r>   19.7477    0.0000 </r>
       <r>   20.5173    0.0000 </r>
       <r>   24.9363    0.0000 </r>
       <r>   27.2886    0.0000 </r>
       <r>   46.3485    0.0000 </r>
      </set>
      <set comment="kpoint 36">
       <r>    3.3949    1.0000 </r>
       <r>    3.6760    1.0000 </r>
       <r>    5.9164    1.0000 </r>
       <r>    6.2089    1.0000 </r>
       <r>    6.3298    1.0001 </r>
       <r>    9.7708   -0.0000 </r>
       <r>   14.9154    0.0000 </r>
       <r>   18.0875    0.0000 </r>
       <r>   19.7689    0.0000 </r>
       <r>   25.9372    0.0000 </r>
       <r>   28.6316    0.0000 </r>
       <r>   44.7658    0.0000 </r>
      </set>
      <set comment="kpoint 37">
       <r>    3.6524    1.0000 </r>
       <r>    3.8614    1.0000 </r>
       <r>    5.3606    1.0000 </r>
       <r>    5.9986    1.0000 </r>
       <r>    6.2579    1.0000 </r>
       <r>   10.9706   -0.0000 </r>
       <r>   14.8446    0.0000 </r>
       <r>   15.3058    0.0000 </r>
       <r>   20.6346    0.0000 </r>
       <r>   26.5613    0.0000 </r>
       <r>   32.6335    0.0000 </r>
       <r>   41.8436    0.0000 </r>
      </set>
      <set comment="kpoint 38">
       <r>    3.8502    1.0000 </r>
       <r>    4.1974    1.0000 </r>
       <r>    4.8718    1.0000 </r>
       <r>    5.6311    1.0000 </r>
       <r>    6.1968    1.0000 </r>
       <r>   10.7749   -0.0000 </r>
       <r>   12.4174    0.0000 </r>
       <r>   17.8155    0.0000 </r>
       <r>   22.2167    0.0000 </r>
       <r>   27.3000    0.0000 </r>
       <r>   37.1532    0.0000 </r>
       <r>   38.5103    0.0000 </r>
      </set>
      <set comment="kpoint 39">
       <r>    3.5298    1.0000 </r>
       <r>    4.5967    1.0000 </r>
       <r>    5.0377    1.0000 </r>
       <r>    5.2553    1.0000 </r>
       <r>    6.1846    1.0000 </r>
       <r>    9.1597   -0.0000 </r>
       <r>   11.7699   -0.0000 </r>
       <r>   21.4576    0.0000 </r>
       <r>   24.2825    0.0000 </r>
       <r>   28.2663    0.0000 </r>
       <r>   34.4454    0.0000 </r>
       <r>   37.7226    0.0000 </r>
      </set>
      <set comment="kpoint 40">
       <r>    3.1069    1.0000 </r>
       <r>    4.8566    1.0000 </r>
       <r>    5.0142    1.0000 </r>
       <r>    5.5646    1.0000 </r>
       <r>    6.2245    1.0000 </r>
       <r>    7.4099   -0.0016 </r>
       <r>   12.0854   -0.0000 </r>
       <r>   25.5186    0.0000 </r>
       <r>   26.6074    0.0000 </r>
       <r>   28.4557    0.0000 </r>
       <r>   32.5794    0.0000 </r>
       <r>   34.1727    0.0000 </r>
      </set>
      <set comment="kpoint 41">
       <r>    3.2919    1.0000 </r>
       <r>    3.6112    1.0000 </r>
       <r>    6.2423    1.0000 </r>
       <r>    6.2841    1.0000 </r>
       <r>    6.3385    1.0001 </r>
       <r>    9.2544   -0.0000 </r>
       <r>   14.8220    0.0000 </r>
       <r>   19.4377    0.0000 </r>
       <r>   20.1855    0.0000 </r>
       <r>   24.8316    0.0000 </r>
       <r>   27.2002    0.0000 </r>
       <r>   46.8494    0.0000 </r>
      </set>
      <set comment="kpoint 42">
       <r>    3.3958    1.0000 </r>
       <r>    3.7317    1.0000 </r>
       <r>    5.7672    1.0000 </r>
       <r>    6.1493    1.0000 </r>
       <r>    6.2909    1.0000 </r>
       <r>    8.6542   -0.0000 </r>
       <r>   16.5232    0.0000 </r>
       <r>   18.3717    0.0000 </r>
       <r>   20.0693    0.0000 </r>
       <r>   26.0667    0.0000 </r>
       <r>   28.7483    0.0000 </r>
       <r>   43.8131    0.0000 </r>
      </set>
      <set comment="kpoint 43">
       <r>    3.5901    1.0000 </r>
       <r>    4.0279    1.0000 </r>
       <r>    5.0402    1.0000 </r>
       <r>    5.7300    1.0000 </r>
       <r>    6.2763    1.0000 </r>
       <r>    8.3299   -0.0000 </r>
       <r>   15.6967    0.0000 </r>
       <r>   19.2925    0.0000 </r>
       <r>   21.4469    0.0000 </r>
       <r>   26.9216    0.0000 </r>
       <r>   33.0263    0.0000 </r>
       <r>   39.4978    0.0000 </r>
      </set>
      <set comment="kpoint 44">
       <r>    3.4238    1.0000 </r>
       <r>    4.5573    1.0000 </r>
       <r>    4.8699    1.0000 </r>
       <r>    5.3049    1.0000 </r>
       <r>    6.2502    1.0000 </r>
       <r>    7.9694   -0.0000 </r>
       <r>   13.5100    0.0000 </r>
       <r>   22.6943    0.0000 </r>
       <r>   23.4189    0.0000 </r>
       <r>   27.8315    0.0000 </r>
       <r>   35.2205    0.0000 </r>
       <r>   38.3776    0.0000 </r>
      </set>
      <set comment="kpoint 45">
       <r>    3.2047    1.0000 </r>
       <r>    3.7827    1.0000 </r>
       <r>    5.9022    1.0000 </r>
       <r>    6.0325    1.0000 </r>
       <r>    6.2568    1.0000 </r>
       <r>    6.9412    0.4329 </r>
       <r>   18.6221    0.0000 </r>
       <r>   20.3458    0.0000 </r>
       <r>   21.1605    0.0000 </r>
       <r>   25.1576    0.0000 </r>
       <r>   27.4994    0.0000 </r>
       <r>   45.4109    0.0000 </r>
      </set>
      <set comment="kpoint 46">
       <r>    3.0230    1.0000 </r>
       <r>    3.9866    1.0000 </r>
       <r>    5.2197    1.0000 </r>
       <r>    5.7971    1.0000 </r>
       <r>    6.1206    1.0000 </r>
       <r>    6.5993    1.0217 </r>
       <r>   19.6816    0.0000 </r>
       <r>   21.2735    0.0000 </r>
       <r>   21.5619    0.0000 </r>
       <r>   26.7506    0.0000 </r>
       <r>   29.4202    0.0000 </r>
       <r>   41.1503    0.0000 </r>
      </set>
      <set comment="kpoint 47">
       <r>    2.7619    1.0000 </r>
       <r>    4.3212    1.0000 </r>
       <r>    4.8999    1.0000 </r>
       <r>    5.3805    1.0000 </r>
       <r>    6.0815    1.0000 </r>
       <r>    6.5460    1.0110 </r>
       <r>   17.3416    0.0000 </r>
       <r>   23.1580    0.0000 </r>
       <r>   24.6355    0.0000 </r>
       <r>   27.9041    0.0000 </r>
       <r>   33.9344    0.0000 </r>
       <r>   36.9096    0.0000 </r>
      </set>
      <set comment="kpoint 48">
       <r>    2.2030    1.0000 </r>
       <r>    4.1276    1.0000 </r>
       <r>    5.2924    1.0000 </r>
       <r>    5.6073    1.0000 </r>
       <r>    5.7576    1.0000 </r>
       <r>    6.1006    1.0000 </r>
       <r>   22.2190    0.0000 </r>
       <r>   23.2460    0.0000 </r>
       <r>   23.8648    0.0000 </r>
       <r>   26.0053    0.0000 </r>
       <r>   28.4604    0.0000 </r>
       <r>   42.5008    0.0000 </r>
      </set>
      <set comment="kpoint 49">
       <r>    1.5453    1.0000 </r>
       <r>    4.3495    1.0000 </r>
       <r>    5.1202    1.0000 </r>
       <r>    5.3822    1.0000 </r>
       <r>    5.6505    1.0000 </r>
       <r>    6.0637    1.0000 </r>
       <r>   21.7708    0.0000 </r>
       <r>   23.6871    0.0000 </r>
       <r>   26.8663    0.0000 </r>
       <r>   28.2047    0.0000 </r>
       <r>   30.9080    0.0000 </r>
       <r>   38.3551    0.0000 </r>
      </set>
      <set comment="kpoint 50">
       <r>    0.5631    1.0000 </r>
       <r>    4.5232    1.0000 </r>
       <r>    5.1945    1.0000 </r>
       <r>    5.2102    1.0000 </r>
       <r>    5.5002    1.0000 </r>
       <r>    5.9293    1.0000 </r>
       <r>   24.7330    0.0000 </r>
       <r>   26.1570    0.0000 </r>
       <r>   27.2941    0.0000 </r>
       <r>   28.8025    0.0000 </r>
       <r>   31.3400    0.0000 </r>
       <r>   38.2876    0.0000 </r>
      </set>
      <set comment="kpoint 51">
       <r>   -0.0797    1.0000 </r>
       <r>    4.7555    1.0000 </r>
       <r>    5.0146    1.0000 </r>
       <r>    5.0146    1.0000 </r>
       <r>    5.7545    1.0000 </r>
       <r>    5.7545    1.0000 </r>
       <r>   24.2713    0.0000 </r>
       <r>   29.4877    0.0000 </r>
       <r>   30.0954    0.0000 </r>
       <r>   30.0954    0.0000 </r>
       <r>   35.4969    0.0000 </r>
       <r>   36.1424    0.0000 </r>
      </set>
      <set comment="kpoint 52">
       <r>    0.5596    1.0000 </r>
       <r>    4.6286    1.0000 </r>
       <r>    5.0784    1.0000 </r>
       <r>    5.1230    1.0000 </r>
       <r>    5.5996    1.0000 </r>
       <r>    5.9206    1.0000 </r>
       <r>   22.8752    0.0000 </r>
       <r>   24.9250    0.0000 </r>
       <r>   31.2876    0.0000 </r>
       <r>   32.8657    0.0000 </r>
       <r>   32.9831    0.0000 </r>
       <r>   34.0523    0.0000 </r>
      </set>
      <set comment="kpoint 53">
       <r>    1.7255    1.0000 </r>
       <r>    4.4922    1.0000 </r>
       <r>    5.0252    1.0000 </r>
       <r>    5.2910    1.0000 </r>
       <r>    5.5307    1.0000 </r>
       <r>    6.2662    1.0000 </r>
       <r>   20.0462    0.0000 </r>
       <r>   22.1298    0.0000 </r>
       <r>   30.5354    0.0000 </r>
       <r>   31.0687    0.0000 </r>
       <r>   33.1601    0.0000 </r>
       <r>   34.3538    0.0000 </r>
      </set>
      <set comment="kpoint 54">
       <r>    2.9328    1.0000 </r>
       <r>    4.6534    1.0000 </r>
       <r>    4.8656    1.0000 </r>
       <r>    5.2187    1.0000 </r>
       <r>    5.8152    1.0000 </r>
       <r>    6.9136    0.5493 </r>
       <r>   15.7790    0.0000 </r>
       <r>   21.8468    0.0000 </r>
       <r>   28.4553    0.0000 </r>
       <r>   28.7241    0.0000 </r>
       <r>   34.2442    0.0000 </r>
       <r>   34.6097    0.0000 </r>
      </set>
      <set comment="kpoint 55">
       <r>    3.3628    1.0000 </r>
       <r>    4.7215    1.0000 </r>
       <r>    5.1554    1.0000 </r>
       <r>    5.1578    1.0000 </r>
       <r>    6.1221    1.0000 </r>
       <r>    8.2529   -0.0000 </r>
       <r>   12.3245   -0.0000 </r>
       <r>   22.2209    0.0000 </r>
       <r>   26.4666    0.0000 </r>
       <r>   27.5723    0.0000 </r>
       <r>   34.6284    0.0000 </r>
       <r>   35.4068    0.0000 </r>
      </set>
      <set comment="kpoint 56">
       <r>    3.3483    1.0000 </r>
       <r>    4.6863    1.0000 </r>
       <r>    5.1013    1.0000 </r>
       <r>    5.1764    1.0000 </r>
       <r>    6.2742    1.0000 </r>
       <r>    8.1959   -0.0000 </r>
       <r>   12.3065   -0.0000 </r>
       <r>   23.2512    0.0000 </r>
       <r>   25.2220    0.0000 </r>
       <r>   27.0491    0.0000 </r>
       <r>   35.5534    0.0000 </r>
       <r>   35.9074    0.0000 </r>
      </set>
      <set comment="kpoint 57">
       <r>    2.9043    1.0000 </r>
       <r>    4.5149    1.0000 </r>
       <r>    4.8834    1.0000 </r>
       <r>    5.2497    1.0000 </r>
       <r>    6.2246    1.0000 </r>
       <r>    6.6407    1.0309 </r>
       <r>   15.7523    0.0000 </r>
       <r>   24.7840    0.0000 </r>
       <r>   24.8485    0.0000 </r>
       <r>   27.0857    0.0000 </r>
       <r>   36.0894    0.0000 </r>
       <r>   36.6198    0.0000 </r>
      </set>
      <set comment="kpoint 58">
       <r>    1.7184    1.0000 </r>
       <r>    4.3859    1.0000 </r>
       <r>    5.0693    1.0000 </r>
       <r>    5.2937    1.0000 </r>
       <r>    5.8213    1.0000 </r>
       <r>    6.0534    1.0000 </r>
       <r>   20.0295    0.0000 </r>
       <r>   25.1184    0.0000 </r>
       <r>   26.5031    0.0000 </r>
       <r>   27.9175    0.0000 </r>
       <r>   32.6197    0.0000 </r>
       <r>   37.4098    0.0000 </r>
      </set>
      <set comment="kpoint 59">
       <r>    0.9631    1.0000 </r>
       <r>    4.5467    1.0000 </r>
       <r>    5.1107    1.0000 </r>
       <r>    5.1635    1.0000 </r>
       <r>    5.6618    1.0000 </r>
       <r>    5.9410    1.0000 </r>
       <r>   21.2917    0.0000 </r>
       <r>   26.6385    0.0000 </r>
       <r>   27.6385    0.0000 </r>
       <r>   30.5339    0.0000 </r>
       <r>   33.0526    0.0000 </r>
       <r>   35.8765    0.0000 </r>
      </set>
      <set comment="kpoint 60">
       <r>    1.9038    1.0000 </r>
       <r>    4.3855    1.0000 </r>
       <r>    5.0042    1.0000 </r>
       <r>    5.3830    1.0000 </r>
       <r>    5.6477    1.0000 </r>
       <r>    6.2553    1.0000 </r>
       <r>   20.2056    0.0000 </r>
       <r>   22.2543    0.0000 </r>
       <r>   27.3694    0.0000 </r>
       <r>   30.2082    0.0000 </r>
       <r>   32.6305    0.0000 </r>
       <r>   35.7623    0.0000 </r>
      </set>
      <set comment="kpoint 61">
       <r>    3.0655    1.0000 </r>
       <r>    4.3274    1.0000 </r>
       <r>    4.7718    1.0000 </r>
       <r>    5.5300    1.0000 </r>
       <r>    5.7560    1.0000 </r>
       <r>    6.9993    0.2092 </r>
       <r>   17.6931    0.0000 </r>
       <r>   19.8546    0.0000 </r>
       <r>   25.0113    0.0000 </r>
       <r>   31.2427    0.0000 </r>
       <r>   32.7241    0.0000 </r>
       <r>   36.0511    0.0000 </r>
      </set>
      <set comment="kpoint 62">
       <r>    3.6653    1.0000 </r>
       <r>    4.5100    1.0000 </r>
       <r>    4.6866    1.0000 </r>
       <r>    5.4306    1.0000 </r>
       <r>    6.0685    1.0000 </r>
       <r>    8.5079   -0.0000 </r>
       <r>   13.8475    0.0000 </r>
       <r>   20.0208    0.0000 </r>
       <r>   23.1098    0.0000 </r>
       <r>   30.1218    0.0000 </r>
       <r>   33.5531    0.0000 </r>
       <r>   39.0635    0.0000 </r>
      </set>
      <set comment="kpoint 63">
       <r>    3.7151    1.0000 </r>
       <r>    4.4409    1.0000 </r>
       <r>    4.8582    1.0000 </r>
       <r>    5.4029    1.0000 </r>
       <r>    6.2010    1.0000 </r>
       <r>    9.7760   -0.0000 </r>
       <r>   11.9647   -0.0000 </r>
       <r>   20.8752    0.0000 </r>
       <r>   21.7960    0.0000 </r>
       <r>   29.4495    0.0000 </r>
       <r>   34.0393    0.0000 </r>
       <r>   40.4078    0.0000 </r>
      </set>
      <set comment="kpoint 64">
       <r>    3.5149    1.0000 </r>
       <r>    4.3643    1.0000 </r>
       <r>    4.7287    1.0000 </r>
       <r>    5.4867    1.0000 </r>
       <r>    6.1318    1.0000 </r>
       <r>    7.8109   -0.0000 </r>
       <r>   15.0393    0.0000 </r>
       <r>   21.0941    0.0000 </r>
       <r>   22.4215    0.0000 </r>
       <r>   29.2918    0.0000 </r>
       <r>   34.3192    0.0000 </r>
       <r>   36.9621    0.0000 </r>
      </set>
      <set comment="kpoint 65">
       <r>    2.6741    1.0000 </r>
       <r>    4.2313    1.0000 </r>
       <r>    4.9063    1.0000 </r>
       <r>    5.5662    1.0000 </r>
       <r>    5.8373    1.0000 </r>
       <r>    6.5599    1.0134 </r>
       <r>   19.1044    0.0000 </r>
       <r>   21.1518    0.0000 </r>
       <r>   24.4870    0.0000 </r>
       <r>   29.3904    0.0000 </r>
       <r>   31.9801    0.0000 </r>
       <r>   36.9271    0.0000 </r>
      </set>
      <set comment="kpoint 66">
       <r>    2.5097    1.0000 </r>
       <r>    4.2129    1.0000 </r>
       <r>    5.0139    1.0000 </r>
       <r>    5.4538    1.0000 </r>
       <r>    6.1624    1.0000 </r>
       <r>    6.1898    1.0000 </r>
       <r>   18.9232    0.0000 </r>
       <r>   23.7753    0.0000 </r>
       <r>   24.2040    0.0000 </r>
       <r>   26.6999    0.0000 </r>
       <r>   31.8771    0.0000 </r>
       <r>   39.4233    0.0000 </r>
      </set>
      <set comment="kpoint 67">
       <r>    3.2795    1.0000 </r>
       <r>    4.0811    1.0000 </r>
       <r>    4.9081    1.0000 </r>
       <r>    5.7693    1.0000 </r>
       <r>    6.0262    1.0000 </r>
       <r>    7.1285   -0.0267 </r>
       <r>   18.1736    0.0000 </r>
       <r>   20.2225    0.0000 </r>
       <r>   21.7230    0.0000 </r>
       <r>   28.7609    0.0000 </r>
       <r>   31.4551    0.0000 </r>
       <r>   38.1065    0.0000 </r>
      </set>
      <set comment="kpoint 68">
       <r>    3.8190    1.0000 </r>
       <r>    4.1191    1.0000 </r>
       <r>    4.7164    1.0000 </r>
       <r>    5.8378    1.0000 </r>
       <r>    6.1043    1.0000 </r>
       <r>    8.8432   -0.0000 </r>
       <r>   16.0415    0.0000 </r>
       <r>   18.3326    0.0000 </r>
       <r>   19.6452    0.0000 </r>
       <r>   30.5624    0.0000 </r>
       <r>   33.0079    0.0000 </r>
       <r>   36.8740    0.0000 </r>
      </set>
      <set comment="kpoint 69">
       <r>    4.0610    1.0000 </r>
       <r>    4.1767    1.0000 </r>
       <r>    4.6314    1.0000 </r>
       <r>    5.6855    1.0000 </r>
       <r>    6.2109    1.0000 </r>
       <r>   11.2955   -0.0000 </r>
       <r>   12.7234    0.0000 </r>
       <r>   18.1324    0.0000 </r>
       <r>   18.9931    0.0000 </r>
       <r>   30.9717    0.0000 </r>
       <r>   34.5876    0.0000 </r>
       <r>   38.2827    0.0000 </r>
      </set>
      <set comment="kpoint 70">
       <r>    4.0519    1.0000 </r>
       <r>    4.2901    1.0000 </r>
       <r>    4.4587    1.0000 </r>
       <r>    5.7136    1.0000 </r>
       <r>    6.0902    1.0000 </r>
       <r>    9.6958   -0.0000 </r>
       <r>   14.7649    0.0000 </r>
       <r>   17.3217    0.0000 </r>
       <r>   20.3280    0.0000 </r>
       <r>   31.7013    0.0000 </r>
       <r>   33.6200    0.0000 </r>
       <r>   37.4450    0.0000 </r>
      </set>
      <set comment="kpoint 71">
       <r>    3.5870    1.0000 </r>
       <r>    4.2227    1.0000 </r>
       <r>    4.6630    1.0000 </r>
       <r>    5.7042    1.0000 </r>
       <r>    5.9434    1.0000 </r>
       <r>    7.7367   -0.0000 </r>
       <r>   16.7737    0.0000 </r>
       <r>   18.9950    0.0000 </r>
       <r>   22.2401    0.0000 </r>
       <r>   30.9415    0.0000 </r>
       <r>   32.8415    0.0000 </r>
       <r>   36.3057    0.0000 </r>
      </set>
      <set comment="kpoint 72">
       <r>    3.4261    1.0000 </r>
       <r>    3.8996    1.0000 </r>
       <r>    5.3302    1.0000 </r>
       <r>    5.8219    1.0000 </r>
       <r>    6.3061    1.0001 </r>
       <r>    7.7802   -0.0000 </r>
       <r>   17.2417    0.0000 </r>
       <r>   18.9551    0.0000 </r>
       <r>   21.7577    0.0000 </r>
       <r>   25.8345    0.0000 </r>
       <r>   30.8135    0.0000 </r>
       <r>   42.2861    0.0000 </r>
      </set>
      <set comment="kpoint 73">
       <r>    3.5931    1.0000 </r>
       <r>    3.8564    1.0000 </r>
       <r>    5.3135    1.0000 </r>
       <r>    6.0493    1.0000 </r>
       <r>    6.2558    1.0000 </r>
       <r>    9.3859   -0.0000 </r>
       <r>   16.7954    0.0000 </r>
       <r>   16.9383    0.0000 </r>
       <r>   19.0006    0.0000 </r>
       <r>   27.9922    0.0000 </r>
       <r>   30.8448    0.0000 </r>
       <r>   40.6521    0.0000 </r>
      </set>
      <set comment="kpoint 74">
       <r>    3.7966    1.0000 </r>
       <r>    4.0038    1.0000 </r>
       <r>    5.0090    1.0000 </r>
       <r>    5.8964    1.0000 </r>
       <r>    6.3256    1.0001 </r>
       <r>   11.6003   -0.0000 </r>
       <r>   15.2169    0.0000 </r>
       <r>   15.5094    0.0000 </r>
       <r>   17.6601    0.0000 </r>
       <r>   30.1364    0.0000 </r>
       <r>   33.1096    0.0000 </r>
       <r>   38.6166    0.0000 </r>
      </set>
      <set comment="kpoint 75">
       <r>    4.0428    1.0000 </r>
       <r>    4.2047    1.0000 </r>
       <r>    4.6147    1.0000 </r>
       <r>    5.7437    1.0000 </r>
       <r>    6.2369    1.0000 </r>
       <r>   12.2365   -0.0000 </r>
       <r>   13.0782    0.0000 </r>
       <r>   16.1743    0.0000 </r>
       <r>   18.7816    0.0000 </r>
       <r>   31.0283    0.0000 </r>
       <r>   35.7136    0.0000 </r>
       <r>   37.5042    0.0000 </r>
      </set>
      <set comment="kpoint 76">
       <r>    3.9083    1.0000 </r>
       <r>    4.3104    1.0000 </r>
       <r>    4.6588    1.0000 </r>
       <r>    5.5719    1.0000 </r>
       <r>    6.1594    1.0000 </r>
       <r>    9.7949   -0.0000 </r>
       <r>   13.1641    0.0000 </r>
       <r>   19.3980    0.0000 </r>
       <r>   20.5229    0.0000 </r>
       <r>   30.7092    0.0000 </r>
       <r>   33.7523    0.0000 </r>
       <r>   38.8342    0.0000 </r>
      </set>
      <set comment="kpoint 77">
       <r>    3.4875    1.0000 </r>
       <r>    3.7379    1.0000 </r>
       <r>    5.7172    1.0000 </r>
       <r>    6.1197    1.0000 </r>
       <r>    6.2909    1.0000 </r>
       <r>   10.2169   -0.0000 </r>
       <r>   15.0116    0.0000 </r>
       <r>   16.4511    0.0000 </r>
       <r>   20.8302    0.0000 </r>
       <r>   25.5327    0.0000 </r>
       <r>   30.3916    0.0000 </r>
       <r>   44.3992    0.0000 </r>
      </set>
      <set comment="kpoint 78">
       <r>    3.5793    1.0000 </r>
       <r>    3.8070    1.0000 </r>
       <r>    5.4614    1.0000 </r>
       <r>    6.0688    1.0000 </r>
       <r>    6.3261    1.0001 </r>
       <r>   10.5964   -0.0000 </r>
       <r>   15.1207    0.0000 </r>
       <r>   16.6462    0.0000 </r>
       <r>   18.7389    0.0000 </r>
       <r>   27.8415    0.0000 </r>
       <r>   30.7323    0.0000 </r>
       <r>   41.6823    0.0000 </r>
      </set>
      <set comment="kpoint 79">
       <r>    3.8299    1.0000 </r>
       <r>    4.0418    1.0000 </r>
       <r>    4.8852    1.0000 </r>
       <r>    5.8932    1.0000 </r>
       <r>    6.2427    1.0000 </r>
       <r>   10.2421   -0.0000 </r>
       <r>   15.5246    0.0000 </r>
       <r>   17.2858    0.0000 </r>
       <r>   17.8932    0.0000 </r>
       <r>   30.2843    0.0000 </r>
       <r>   33.0882    0.0000 </r>
       <r>   37.7696    0.0000 </r>
      </set>
      <set comment="kpoint 80">
       <r>    3.4898    1.0000 </r>
       <r>    3.7931    1.0000 </r>
       <r>    5.5780    1.0000 </r>
       <r>    5.9931    1.0000 </r>
       <r>    6.3193    1.0001 </r>
       <r>    9.0474   -0.0000 </r>
       <r>   16.6209    0.0000 </r>
       <r>   16.7686    0.0000 </r>
       <r>   21.1442    0.0000 </r>
       <r>   25.6297    0.0000 </r>
       <r>   30.5287    0.0000 </r>
       <r>   43.4984    0.0000 </r>
      </set>
      <set comment="kpoint 81">
       <r>    3.5505    1.0000 </r>
       <r>    3.9511    1.0000 </r>
       <r>    5.0843    1.0000 </r>
       <r>    5.9491    1.0000 </r>
       <r>    6.1558    1.0000 </r>
       <r>    8.0976   -0.0000 </r>
       <r>   17.4331    0.0000 </r>
       <r>   19.1068    0.0000 </r>
       <r>   19.5276    0.0000 </r>
       <r>   28.2955    0.0000 </r>
       <r>   31.0809    0.0000 </r>
       <r>   39.3658    0.0000 </r>
      </set>
      <set comment="kpoint 82">
       <r>    3.1344    1.0000 </r>
       <r>    4.0455    1.0000 </r>
       <r>    5.0892    1.0000 </r>
       <r>    5.6353    1.0000 </r>
       <r>    6.2504    1.0000 </r>
       <r>    6.8109    0.9069 </r>
       <r>   17.9866    0.0000 </r>
       <r>   21.5109    0.0000 </r>
       <r>   22.6448    0.0000 </r>
       <r>   26.1689    0.0000 </r>
       <r>   31.2615    0.0000 </r>
       <r>   41.0549    0.0000 </r>
      </set>
      <set comment="kpoint 83">
       <r>    1.1390    1.0000 </r>
       <r>    4.6718    1.0000 </r>
       <r>    5.0706    1.0000 </r>
       <r>    5.0706    1.0000 </r>
       <r>    5.8318    1.0000 </r>
       <r>    5.8318    1.0000 </r>
       <r>   19.5158    0.0000 </r>
       <r>   28.9102    0.0000 </r>
       <r>   29.2133    0.0000 </r>
       <r>   29.2133    0.0000 </r>
       <r>   34.6344    0.0000 </r>
       <r>   34.6344    0.0000 </r>
      </set>
      <set comment="kpoint 84">
       <r>    1.8652    1.0000 </r>
       <r>    4.5842    1.0000 </r>
       <r>    5.0275    1.0000 </r>
       <r>    5.1600    1.0000 </r>
       <r>    5.7053    1.0000 </r>
       <r>    6.2146    1.0000 </r>
       <r>   18.2673    0.0000 </r>
       <r>   24.2414    0.0000 </r>
       <r>   29.8980    0.0000 </r>
       <r>   30.9852    0.0000 </r>
       <r>   32.7353    0.0000 </r>
       <r>   33.5666    0.0000 </r>
      </set>
      <set comment="kpoint 85">
       <r>    2.9433    1.0000 </r>
       <r>    4.4434    1.0000 </r>
       <r>    4.8352    1.0000 </r>
       <r>    5.3933    1.0000 </r>
       <r>    5.6180    1.0000 </r>
       <r>    6.9646    0.3371 </r>
       <r>   17.5288    0.0000 </r>
       <r>   19.7174    0.0000 </r>
       <r>   28.3191    0.0000 </r>
       <r>   28.8641    0.0000 </r>
       <r>   34.9363    0.0000 </r>
       <r>   35.9509    0.0000 </r>
      </set>
      <set comment="kpoint 86">
       <r>    3.7492    1.0000 </r>
       <r>    4.5319    1.0000 </r>
       <r>    4.5652    1.0000 </r>
       <r>    5.4829    1.0000 </r>
       <r>    5.8163    1.0000 </r>
       <r>    8.3249   -0.0000 </r>
       <r>   15.3253    0.0000 </r>
       <r>   17.7802    0.0000 </r>
       <r>   25.8673    0.0000 </r>
       <r>   27.5363    0.0000 </r>
       <r>   37.1658    0.0000 </r>
       <r>   37.6366    0.0000 </r>
      </set>
      <set comment="kpoint 87">
       <r>    3.8173    1.0000 </r>
       <r>    4.3520    1.0000 </r>
       <r>    4.8392    1.0000 </r>
       <r>    5.5022    1.0000 </r>
       <r>    6.1299    1.0000 </r>
       <r>   10.3515   -0.0000 </r>
       <r>   12.1541   -0.0000 </r>
       <r>   18.3576    0.0000 </r>
       <r>   24.0084    0.0000 </r>
       <r>   26.6592    0.0000 </r>
       <r>   38.3005    0.0000 </r>
       <r>   38.5468    0.0000 </r>
      </set>
      <set comment="kpoint 88">
       <r>    3.6415    1.0000 </r>
       <r>    4.1800    1.0000 </r>
       <r>    4.9495    1.0000 </r>
       <r>    5.5649    1.0000 </r>
       <r>    6.2953    1.0000 </r>
       <r>    8.7467   -0.0000 </r>
       <r>   14.1385    0.0000 </r>
       <r>   19.6414    0.0000 </r>
       <r>   22.8971    0.0000 </r>
       <r>   26.2421    0.0000 </r>
       <r>   35.3122    0.0000 </r>
       <r>   39.4222    0.0000 </r>
      </set>
      <set comment="kpoint 89">
       <r>    2.2956    1.0000 </r>
       <r>    4.6191    1.0000 </r>
       <r>    4.9775    1.0000 </r>
       <r>    5.1422    1.0000 </r>
       <r>    6.0971    1.0000 </r>
       <r>    6.1174    1.0000 </r>
       <r>   16.8307    0.0000 </r>
       <r>   26.0631    0.0000 </r>
       <r>   26.9400    0.0000 </r>
       <r>   28.4131    0.0000 </r>
       <r>   34.4381    0.0000 </r>
       <r>   36.0401    0.0000 </r>
      </set>
      <set comment="kpoint 90">
       <r>    3.0627    1.0000 </r>
       <r>    4.4928    1.0000 </r>
       <r>    4.8017    1.0000 </r>
       <r>    5.3322    1.0000 </r>
       <r>    5.9844    1.0000 </r>
       <r>    6.9834    0.2654 </r>
       <r>   15.9391    0.0000 </r>
       <r>   21.9711    0.0000 </r>
       <r>   25.1658    0.0000 </r>
       <r>   29.7284    0.0000 </r>
       <r>   33.6941    0.0000 </r>
       <r>   36.7129    0.0000 </r>
      </set>
      <set comment="kpoint 91">
       <r>    3.8391    1.0000 </r>
       <r>    4.3979    1.0000 </r>
       <r>    4.5034    1.0000 </r>
       <r>    5.6078    1.0000 </r>
       <r>    5.9176    1.0000 </r>
       <r>    8.4605   -0.0000 </r>
       <r>   15.5070    0.0000 </r>
       <r>   17.9197    0.0000 </r>
       <r>   22.9284    0.0000 </r>
       <r>   30.5648    0.0000 </r>
       <r>   34.0196    0.0000 </r>
       <r>   37.8650    0.0000 </r>
      </set>
      <set comment="kpoint 92">
       <r>    4.0916    1.0000 </r>
       <r>    4.2021    1.0000 </r>
       <r>    4.6132    1.0000 </r>
       <r>    5.6815    1.0000 </r>
       <r>    6.0956    1.0000 </r>
       <r>   10.6857   -0.0000 </r>
       <r>   13.6088    0.0000 </r>
       <r>   16.5177    0.0000 </r>
       <r>   21.1615    0.0000 </r>
       <r>   29.4791    0.0000 </r>
       <r>   36.1606    0.0000 </r>
       <r>   39.4114    0.0000 </r>
      </set>
      <set comment="kpoint 93">
       <r>    3.8543    1.0000 </r>
       <r>    4.0806    1.0000 </r>
       <r>    4.8849    1.0000 </r>
       <r>    5.7816    1.0000 </r>
       <r>    6.2352    1.0000 </r>
       <r>   10.4735   -0.0000 </r>
       <r>   13.8240    0.0000 </r>
       <r>   17.4641    0.0000 </r>
       <r>   19.9768    0.0000 </r>
       <r>   28.7313    0.0000 </r>
       <r>   35.0307    0.0000 </r>
       <r>   37.9717    0.0000 </r>
      </set>
      <set comment="kpoint 94">
       <r>    3.3748    1.0000 </r>
       <r>    4.3537    1.0000 </r>
       <r>    4.8667    1.0000 </r>
       <r>    5.3939    1.0000 </r>
       <r>    6.2873    1.0000 </r>
       <r>    7.5277   -0.0001 </r>
       <r>   14.8518    0.0000 </r>
       <r>   22.1984    0.0000 </r>
       <r>   23.7190    0.0000 </r>
       <r>   26.5544    0.0000 </r>
       <r>   35.6711    0.0000 </r>
       <r>   38.1543    0.0000 </r>
      </set>
      <set comment="kpoint 95">
       <r>    3.7682    1.0000 </r>
       <r>    4.2043    1.0000 </r>
       <r>    4.7745    1.0000 </r>
       <r>    5.6501    1.0000 </r>
       <r>    6.2089    1.0000 </r>
       <r>    9.0089   -0.0000 </r>
       <r>   14.3298    0.0000 </r>
       <r>   19.8035    0.0000 </r>
       <r>   20.4530    0.0000 </r>
       <r>   28.9576    0.0000 </r>
       <r>   34.8303    0.0000 </r>
       <r>   37.2330    0.0000 </r>
      </set>
      <set comment="kpoint 96">
       <r>    4.0234    1.0000 </r>
       <r>    4.2677    1.0000 </r>
       <r>    4.5289    1.0000 </r>
       <r>    5.7591    1.0000 </r>
       <r>    6.2370    1.0000 </r>
       <r>   11.1961   -0.0000 </r>
       <r>   14.2359    0.0000 </r>
       <r>   16.9228    0.0000 </r>
       <r>   17.9487    0.0000 </r>
       <r>   32.5230    0.0000 </r>
       <r>   33.8277    0.0000 </r>
       <r>   36.9271    0.0000 </r>
      </set>
      <set comment="kpoint 97">
       <r>    3.9585    1.0000 </r>
       <r>    4.2659    1.0000 </r>
       <r>    4.6074    1.0000 </r>
       <r>    5.7664    1.0000 </r>
       <r>    6.3258    1.0001 </r>
       <r>   12.7204    0.0000 </r>
       <r>   13.9496    0.0000 </r>
       <r>   15.9908    0.0000 </r>
       <r>   16.7387    0.0000 </r>
       <r>   32.6323    0.0000 </r>
       <r>   34.9242    0.0000 </r>
       <r>   36.1788    0.0000 </r>
      </set>
      <set comment="kpoint 98">
       <r>    3.7478    1.0000 </r>
       <r>    4.0442    1.0000 </r>
       <r>    5.0734    1.0000 </r>
       <r>    5.7423    1.0000 </r>
       <r>    6.2526    1.0000 </r>
       <r>   10.2139   -0.0000 </r>
       <r>   13.6277    0.0000 </r>
       <r>   17.3085    0.0000 </r>
       <r>   22.3371    0.0000 </r>
       <r>   26.0616    0.0000 </r>
       <r>   35.0709    0.0000 </r>
       <r>   40.7495    0.0000 </r>
      </set>
      <set comment="kpoint 99">
       <r>    3.8588    1.0000 </r>
       <r>    4.0274    1.0000 </r>
       <r>    4.9703    1.0000 </r>
       <r>    5.8515    1.0000 </r>
       <r>    6.2416    1.0000 </r>
       <r>   11.9122   -0.0000 </r>
       <r>   13.5230    0.0000 </r>
       <r>   15.6320    0.0000 </r>
       <r>   19.7417    0.0000 </r>
       <r>   28.6197    0.0000 </r>
       <r>   35.0656    0.0000 </r>
       <r>   38.8031    0.0000 </r>
      </set>
      <set comment="kpoint 100">
       <r>    3.7738    1.0000 </r>
       <r>    3.9750    1.0000 </r>
       <r>    5.1552    1.0000 </r>
       <r>    5.8856    1.0000 </r>
       <r>    6.1787    1.0000 </r>
       <r>   11.6269   -0.0000 </r>
       <r>   13.3121    0.0000 </r>
       <r>   15.5175    0.0000 </r>
       <r>   22.0528    0.0000 </r>
       <r>   25.9745    0.0000 </r>
       <r>   34.9444    0.0000 </r>
       <r>   41.8343    0.0000 </r>
      </set>
      <set comment="kpoint 101">
       <r>    2.4357    1.0000 </r>
       <r>    5.0054    1.0000 </r>
       <r>    5.0054    1.0000 </r>
       <r>    5.1038    1.0000 </r>
       <r>    6.0549    1.0000 </r>
       <r>    6.0549    1.0000 </r>
       <r>   15.2563    0.0000 </r>
       <r>   28.1637    0.0000 </r>
       <r>   28.6776    0.0000 </r>
       <r>   28.6776    0.0000 </r>
       <r>   32.7115    0.0000 </r>
       <r>   32.7115    0.0000 </r>
      </set>
      <set comment="kpoint 102">
       <r>    2.9222    1.0000 </r>
       <r>    4.8955    1.0000 </r>
       <r>    5.0735    1.0000 </r>
       <r>    5.0825    1.0000 </r>
       <r>    5.9971    1.0000 </r>
       <r>    6.8041    0.9226 </r>
       <r>   14.2223    0.0000 </r>
       <r>   24.1457    0.0000 </r>
       <r>   28.4779    0.0000 </r>
[...]
       <r>    33.6824     0.2408    10.5942 </r>
       <r>    33.8571     0.2225    10.6331 </r>
       <r>    34.0319     0.2509    10.6769 </r>
       <r>    34.2066     0.3014    10.7296 </r>
       <r>    34.3813     0.3061    10.7831 </r>
       <r>    34.5560     0.3568    10.8454 </r>
       <r>    34.7307     0.2885    10.8958 </r>
       <r>    34.9054     0.1751    10.9264 </r>
       <r>    35.0801     0.2634    10.9724 </r>
       <r>    35.2548     0.2060    11.0084 </r>
       <r>    35.4295     0.1243    11.0301 </r>
       <r>    35.6043     0.1795    11.0615 </r>
       <r>    35.7790     0.2688    11.1085 </r>
       <r>    35.9537     0.1757    11.1392 </r>
       <r>    36.1284     0.2537    11.1835 </r>
       <r>    36.3031     0.2923    11.2346 </r>
       <r>    36.4778     0.1720    11.2646 </r>
       <r>    36.6525     0.0876    11.2799 </r>
       <r>    36.8272     0.2217    11.3186 </r>
       <r>    37.0020     0.3105    11.3729 </r>
       <r>    37.1767     0.1748    11.4034 </r>
       <r>    37.3514     0.1436    11.4285 </r>
       <r>    37.5261     0.1655    11.4574 </r>
       <r>    37.7008     0.1333    11.4807 </r>
       <r>    37.8755     0.1758    11.5114 </r>
       <r>    38.0502     0.1267    11.5336 </r>
       <r>    38.2249     0.2103    11.5703 </r>
       <r>    38.3996     0.2981    11.6224 </r>
       <r>    38.5744     0.1696    11.6520 </r>
       <r>    38.7491     0.0992    11.6693 </r>
       <r>    38.9238     0.0906    11.6852 </r>
       <r>    39.0985     0.0897    11.7008 </r>
       <r>    39.2732     0.1300    11.7236 </r>
       <r>    39.4479     0.1719    11.7536 </r>
       <r>    39.6226     0.1516    11.7801 </r>
       <r>    39.7973     0.0650    11.7914 </r>
       <r>    39.9721     0.0244    11.7957 </r>
       <r>    40.1468     0.0098    11.7974 </r>
       <r>    40.3215     0.0931    11.8137 </r>
       <r>    40.4962     0.1187    11.8344 </r>
       <r>    40.6709     0.0763    11.8477 </r>
       <r>    40.8456     0.0897    11.8634 </r>
       <r>    41.0203     0.0469    11.8716 </r>
       <r>    41.1950     0.0600    11.8821 </r>
       <r>    41.3698     0.0236    11.8862 </r>
       <r>    41.5445    -0.0004    11.8861 </r>
       <r>    41.7192     0.0521    11.8952 </r>
       <r>    41.8939     0.0915    11.9112 </r>
       <r>    42.0686     0.0300    11.9165 </r>
       <r>    42.2433     0.0057    11.9175 </r>
       <r>    42.4180     0.0418    11.9248 </r>
       <r>    42.5927     0.0715    11.9373 </r>
       <r>    42.7674     0.0193    11.9406 </r>
       <r>    42.9422    -0.0032    11.9401 </r>
       <r>    43.1169    -0.0008    11.9399 </r>
       <r>    43.2916    -0.0007    11.9398 </r>
       <r>    43.4663     0.0124    11.9420 </r>
       <r>    43.6410     0.0214    11.9457 </r>
       <r>    43.8157     0.0369    11.9522 </r>
       <r>    43.9904     0.0335    11.9580 </r>
       <r>    44.1651     0.0166    11.9609 </r>
       <r>    44.3399     0.0264    11.9655 </r>
       <r>    44.5146     0.0206    11.9691 </r>
       <r>    44.6893     0.0198    11.9726 </r>
       <r>    44.8640     0.0446    11.9804 </r>
       <r>    45.0387     0.0110    11.9823 </r>
       <r>    45.2134    -0.0024    11.9819 </r>
       <r>    45.3881     0.0145    11.9844 </r>
       <r>    45.5628     0.0197    11.9879 </r>
       <r>    45.7375     0.0015    11.9881 </r>
       <r>    45.9123    -0.0008    11.9880 </r>
       <r>    46.0870    -0.0011    11.9878 </r>
       <r>    46.2617     0.0070    11.9890 </r>
       <r>    46.4364     0.0227    11.9930 </r>
       <r>    46.6111     0.0059    11.9940 </r>
       <r>    46.7858     0.0086    11.9955 </r>
       <r>    46.9605     0.0223    11.9994 </r>
       <r>    47.1352     0.0045    12.0002 </r>
       <r>    47.3100    -0.0010    12.0000 </r>
       <r>    47.4847    -0.0001    12.0000 </r>
       <r>    47.6594    -0.0000    12.0000 </r>
       <r>    47.8341    -0.0000    12.0000 </r>
       <r>    48.0088    -0.0000    12.0000 </r>
       <r>    48.1835    -0.0000    12.0000 </r>
       <r>    48.3582     0.0000    12.0000 </r>
       <r>    48.5329     0.0000    12.0000 </r>
       <r>    48.7077     0.0000    12.0000 </r>
       <r>    48.8824     0.0000    12.0000 </r>
       <r>    49.0571     0.0000    12.0000 </r>
       <r>    49.2318     0.0000    12.0000 </r>
      </set>
      <set comment="spin 2">
       <r>    -3.1818     0.0000     0.0000 </r>
       <r>    -3.0071     0.0000     0.0000 </r>
       <r>    -2.8324     0.0000     0.0000 </r>
       <r>    -2.6576     0.0000     0.0000 </r>
       <r>    -2.4829    -0.0000    -0.0000 </r>
       <r>    -2.3082    -0.0000    -0.0000 </r>
       <r>    -2.1335    -0.0000    -0.0000 </r>
       <r>    -1.9588    -0.0000    -0.0000 </r>
       <r>    -1.7841    -0.0000    -0.0000 </r>
       <r>    -1.6094    -0.0000    -0.0000 </r>
       <r>    -1.4347    -0.0000    -0.0000 </r>
       <r>    -1.2599    -0.0000    -0.0000 </r>
       <r>    -1.0852    -0.0004    -0.0001 </r>
       <r>    -0.9105     0.0009     0.0001 </r>
       <r>    -0.7358     0.0081     0.0015 </r>
       <r>    -0.5611     0.0211     0.0052 </r>
       <r>    -0.3864     0.0272     0.0099 </r>
       <r>    -0.2117     0.0289     0.0150 </r>
       <r>    -0.0370     0.0384     0.0217 </r>
       <r>     0.1377     0.0514     0.0307 </r>
       <r>     0.3125     0.0381     0.0373 </r>
       <r>     0.4872     0.0394     0.0442 </r>
       <r>     0.6619     0.0691     0.0563 </r>
       <r>     0.8366     0.0741     0.0692 </r>
       <r>     1.0113     0.0409     0.0764 </r>
       <r>     1.1860     0.0631     0.0874 </r>
       <r>     1.3607     0.0866     0.1025 </r>
       <r>     1.5354     0.0745     0.1155 </r>
       <r>     1.7102     0.0844     0.1303 </r>
       <r>     1.8849     0.0966     0.1472 </r>
       <r>     2.0596     0.0892     0.1628 </r>
       <r>     2.2343     0.0785     0.1765 </r>
       <r>     2.4090     0.1226     0.1979 </r>
       <r>     2.5837     0.1485     0.2238 </r>
       <r>     2.7584     0.1273     0.2461 </r>
       <r>     2.9331     0.1171     0.2665 </r>
       <r>     3.1079     0.1720     0.2966 </r>
       <r>     3.2826     0.2495     0.3402 </r>
       <r>     3.4573     0.2363     0.3815 </r>
       <r>     3.6320     0.3821     0.4482 </r>
       <r>     3.8067     0.5313     0.5410 </r>
       <r>     3.9814     0.5518     0.6375 </r>
       <r>     4.1561     0.5666     0.7364 </r>
       <r>     4.3308     0.7343     0.8647 </r>
       <r>     4.5055     1.0009     1.0396 </r>
       <r>     4.6803     1.0895     1.2299 </r>
       <r>     4.8550     1.0449     1.4125 </r>
       <r>     5.0297     1.0345     1.5932 </r>
       <r>     5.2044     1.2394     1.8098 </r>
       <r>     5.3791     1.5308     2.0772 </r>
       <r>     5.5538     1.7125     2.3764 </r>
       <r>     5.7285     1.9040     2.7091 </r>
       <r>     5.9032     1.8519     3.0326 </r>
       <r>     6.0780     1.5187     3.2980 </r>
       <r>     6.2527     1.4545     3.5521 </r>
       <r>     6.4274     1.6808     3.8457 </r>
       <r>     6.6021     1.6428     4.1328 </r>
       <r>     6.7768     1.4826     4.3918 </r>
       <r>     6.9515     1.9096     4.7254 </r>
       <r>     7.1262     2.1682     5.1042 </r>
       <r>     7.3009     1.0806     5.2930 </r>
       <r>     7.4756     0.2121     5.3301 </r>
       <r>     7.6504     0.2166     5.3679 </r>
       <r>     7.8251     0.2534     5.4122 </r>
       <r>     7.9998     0.1617     5.4404 </r>
       <r>     8.1745     0.1852     5.4728 </r>
       <r>     8.3492     0.2138     5.5102 </r>
       <r>     8.5239     0.1504     5.5364 </r>
       <r>     8.6986     0.1575     5.5639 </r>
       <r>     8.8733     0.2289     5.6039 </r>
       <r>     9.0481     0.1743     5.6344 </r>
       <r>     9.2228     0.0927     5.6506 </r>
       <r>     9.3975     0.1423     5.6755 </r>
       <r>     9.5722     0.1313     5.6984 </r>
       <r>     9.7469     0.1908     5.7317 </r>
       <r>     9.9216     0.1703     5.7615 </r>
       <r>    10.0963     0.1766     5.7923 </r>
       <r>    10.2710     0.0668     5.8040 </r>
       <r>    10.4458     0.0536     5.8134 </r>
       <r>    10.6205     0.1067     5.8320 </r>
       <r>    10.7952     0.1569     5.8594 </r>
       <r>    10.9699     0.1601     5.8874 </r>
       <r>    11.1446     0.1017     5.9052 </r>
       <r>    11.3193     0.0393     5.9120 </r>
       <r>    11.4940     0.0723     5.9247 </r>
       <r>    11.6687     0.0639     5.9358 </r>
       <r>    11.8434     0.1008     5.9534 </r>
       <r>    12.0182     0.1807     5.9850 </r>
       <r>    12.1929     0.1740     6.0154 </r>
       <r>    12.3676     0.1350     6.0390 </r>
       <r>    12.5423     0.1763     6.0698 </r>
       <r>    12.7170     0.1841     6.1020 </r>
       <r>    12.8917     0.1643     6.1307 </r>
       <r>    13.0664     0.1463     6.1562 </r>
       <r>    13.2411     0.1402     6.1807 </r>
       <r>    13.4159     0.1462     6.2063 </r>
       <r>    13.5906     0.1305     6.2291 </r>
       <r>    13.7653     0.1533     6.2559 </r>
       <r>    13.9400     0.1490     6.2819 </r>
       <r>    14.1147     0.1363     6.3057 </r>
       <r>    14.2894     0.0925     6.3219 </r>
       <r>    14.4641     0.1482     6.3478 </r>
       <r>    14.6388     0.1535     6.3746 </r>
       <r>    14.8135     0.0540     6.3840 </r>
       <r>    14.9883     0.1458     6.4095 </r>
       <r>    15.1630     0.1848     6.4418 </r>
       <r>    15.3377     0.2085     6.4782 </r>
       <r>    15.5124     0.1808     6.5098 </r>
       <r>    15.6871     0.2350     6.5508 </r>
       <r>    15.8618     0.2123     6.5879 </r>
       <r>    16.0365     0.1453     6.6133 </r>
       <r>    16.2112     0.1843     6.6455 </r>
       <r>    16.3860     0.0951     6.6621 </r>
       <r>    16.5607     0.1542     6.6891 </r>
       <r>    16.7354     0.2672     6.7357 </r>
       <r>    16.9101     0.2587     6.7809 </r>
       <r>    17.0848     0.2658     6.8274 </r>
       <r>    17.2595     0.1881     6.8602 </r>
       <r>    17.4342     0.1758     6.8910 </r>
       <r>    17.6089     0.2160     6.9287 </r>
       <r>    17.7836     0.1403     6.9532 </r>
       <r>    17.9584     0.1861     6.9857 </r>
       <r>    18.1331     0.2383     7.0274 </r>
       <r>    18.3078     0.2016     7.0626 </r>
       <r>    18.4825     0.1932     7.0963 </r>
       <r>    18.6572     0.1516     7.1228 </r>
       <r>    18.8319     0.1966     7.1572 </r>
       <r>    19.0066     0.2933     7.2084 </r>
       <r>    19.1813     0.3161     7.2636 </r>
       <r>    19.3561     0.1769     7.2945 </r>
       <r>    19.5308     0.1125     7.3142 </r>
       <r>    19.7055     0.1957     7.3484 </r>
       <r>    19.8802     0.3527     7.4100 </r>
       <r>    20.0549     0.2678     7.4568 </r>
       <r>    20.2296     0.2515     7.5008 </r>
       <r>    20.4043     0.2150     7.5383 </r>
       <r>    20.5790     0.1798     7.5697 </r>
       <r>    20.7538     0.2155     7.6074 </r>
       <r>    20.9285     0.2173     7.6454 </r>
       <r>    21.1032     0.2220     7.6842 </r>
       <r>    21.2779     0.2589     7.7294 </r>
       <r>    21.4526     0.2468     7.7725 </r>
       <r>    21.6273     0.2233     7.8115 </r>
       <r>    21.8020     0.1891     7.8446 </r>
       <r>    21.9767     0.2394     7.8864 </r>
       <r>    22.1514     0.1937     7.9202 </r>
       <r>    22.3262     0.2987     7.9724 </r>
       <r>    22.5009     0.2719     8.0199 </r>
       <r>    22.6756     0.1371     8.0439 </r>
       <r>    22.8503     0.1385     8.0681 </r>
       <r>    23.0250     0.1521     8.0946 </r>
       <r>    23.1997     0.2397     8.1365 </r>
       <r>    23.3744     0.1707     8.1664 </r>
       <r>    23.5491     0.1381     8.1905 </r>
       <r>    23.7239     0.1790     8.2218 </r>
       <r>    23.8986     0.2042     8.2574 </r>
       <r>    24.0733     0.1574     8.2849 </r>
       <r>    24.2480     0.1835     8.3170 </r>
       <r>    24.4227     0.2132     8.3542 </r>
       <r>    24.5974     0.1674     8.3835 </r>
       <r>    24.7721     0.1502     8.4097 </r>
       <r>    24.9468     0.1684     8.4391 </r>
       <r>    25.1215     0.2223     8.4780 </r>
       <r>    25.2963     0.1816     8.5097 </r>
       <r>    25.4710     0.1258     8.5317 </r>
       <r>    25.6457     0.1884     8.5646 </r>
       <r>    25.8204     0.1785     8.5958 </r>
       <r>    25.9951     0.2037     8.6314 </r>
       <r>    26.1698     0.3126     8.6860 </r>
       <r>    26.3445     0.2524     8.7301 </r>
       <r>    26.5192     0.2111     8.7669 </r>
       <r>    26.6940     0.2990     8.8192 </r>
       <r>    26.8687     0.3109     8.8735 </r>
       <r>    27.0434     0.1896     8.9066 </r>
       <r>    27.2181     0.1718     8.9366 </r>
       <r>    27.3928     0.3900     9.0047 </r>
       <r>    27.5675     0.3633     9.0682 </r>
       <r>    27.7422     0.1669     9.0974 </r>
       <r>    27.9169     0.3220     9.1536 </r>
       <r>    28.0916     0.3977     9.2231 </r>
       <r>    28.2664     0.3167     9.2785 </r>
       <r>    28.4411     0.3402     9.3379 </r>
       <r>    28.6158     0.2678     9.3847 </r>
       <r>    28.7905     0.3843     9.4518 </r>
       <r>    28.9652     0.3633     9.5153 </r>
       <r>    29.1399     0.2273     9.5550 </r>
       <r>    29.3146     0.2533     9.5993 </r>
       <r>    29.4893     0.3518     9.6607 </r>
       <r>    29.6641     0.2352     9.7018 </r>
       <r>    29.8388     0.1132     9.7216 </r>
       <r>    30.0135     0.1572     9.7490 </r>
       <r>    30.1882     0.3348     9.8075 </r>
       <r>    30.3629     0.2582     9.8526 </r>
       <r>    30.5376     0.1868     9.8853 </r>
       <r>    30.7123     0.1880     9.9181 </r>
       <r>    30.8870     0.1833     9.9502 </r>
       <r>    31.0618     0.3470    10.0108 </r>
       <r>    31.2365     0.3601    10.0737 </r>
       <r>    31.4112     0.1723    10.1038 </r>
       <r>    31.5859     0.0827    10.1183 </r>
       <r>    31.7606     0.1539    10.1452 </r>
       <r>    31.9353     0.1358    10.1689 </r>
       <r>    32.1100     0.0724    10.1815 </r>
       <r>    32.2847     0.0864    10.1966 </r>
       <r>    32.4594     0.1205    10.2177 </r>
       <r>    32.6342     0.2284    10.2576 </r>
       <r>    32.8089     0.3589    10.3203 </r>
       <r>    32.9836     0.3332    10.3785 </r>
       <r>    33.1583     0.3805    10.4450 </r>
       <r>    33.3330     0.3179    10.5005 </r>
       <r>    33.5077     0.2822    10.5498 </r>
       <r>    33.6824     0.2597    10.5952 </r>
       <r>    33.8571     0.2238    10.6343 </r>
       <r>    34.0319     0.2444    10.6770 </r>
       <r>    34.2066     0.3118    10.7315 </r>
       <r>    34.3813     0.3106    10.7858 </r>
       <r>    34.5560     0.3838    10.8528 </r>
       <r>    34.7307     0.2621    10.8986 </r>
       <r>    34.9054     0.1599    10.9265 </r>
       <r>    35.0801     0.2465    10.9696 </r>
       <r>    35.2548     0.2331    11.0103 </r>
       <r>    35.4295     0.1291    11.0329 </r>
       <r>    35.6043     0.1645    11.0616 </r>
       <r>    35.7790     0.2948    11.1131 </r>
       <r>    35.9537     0.1629    11.1416 </r>
       <r>    36.1284     0.2526    11.1857 </r>
       <r>    36.3031     0.2882    11.2361 </r>
       <r>    36.4778     0.1800    11.2675 </r>
       <r>    36.6525     0.1132    11.2873 </r>
       <r>    36.8272     0.2058    11.3232 </r>
       <r>    37.0020     0.2943    11.3747 </r>
       <r>    37.1767     0.1806    11.4062 </r>
       <r>    37.3514     0.1246    11.4280 </r>
       <r>    37.5261     0.1461    11.4535 </r>
       <r>    37.7008     0.1689    11.4830 </r>
       <r>    37.8755     0.1530    11.5097 </r>
       <r>    38.0502     0.1550    11.5368 </r>
       <r>    38.2249     0.2375    11.5783 </r>
       <r>    38.3996     0.2792    11.6271 </r>
       <r>    38.5744     0.1729    11.6573 </r>
       <r>    38.7491     0.0835    11.6719 </r>
       <r>    38.9238     0.0717    11.6844 </r>
       <r>    39.0985     0.1194    11.7053 </r>
       <r>    39.2732     0.1338    11.7286 </r>
       <r>    39.4479     0.1650    11.7575 </r>
       <r>    39.6226     0.1524    11.7841 </r>
       <r>    39.7973     0.0589    11.7944 </r>
       <r>    39.9721     0.0078    11.7957 </r>
       <r>    40.1468     0.0166    11.7987 </r>
       <r>    40.3215     0.1111    11.8181 </r>
       <r>    40.4962     0.1149    11.8381 </r>
       <r>    40.6709     0.0787    11.8519 </r>
       <r>    40.8456     0.0798    11.8658 </r>
       <r>    41.0203     0.0454    11.8738 </r>
       <r>    41.1950     0.0602    11.8843 </r>
       <r>    41.3698     0.0095    11.8860 </r>
       <r>    41.5445     0.0137    11.8883 </r>
       <r>    41.7192     0.0767    11.9018 </r>
       <r>    41.8939     0.0748    11.9148 </r>
       <r>    42.0686     0.0081    11.9162 </r>
       <r>    42.2433     0.0118    11.9183 </r>
       <r>    42.4180     0.0609    11.9289 </r>
       <r>    42.5927     0.0607    11.9396 </r>
       <r>    42.7674     0.0049    11.9404 </r>
       <r>    42.9422    -0.0023    11.9400 </r>
       <r>    43.1169    -0.0008    11.9399 </r>
       <r>    43.2916     0.0007    11.9400 </r>
       <r>    43.4663     0.0168    11.9429 </r>
       <r>    43.6410     0.0242    11.9472 </r>
       <r>    43.8157     0.0435    11.9548 </r>
       <r>    43.9904     0.0240    11.9590 </r>
       <r>    44.1651     0.0211    11.9626 </r>
       <r>    44.3399     0.0259    11.9672 </r>
       <r>    44.5146     0.0163    11.9700 </r>
       <r>    44.6893     0.0344    11.9760 </r>
       <r>    44.8640     0.0345    11.9821 </r>
       <r>    45.0387     0.0001    11.9821 </r>
       <r>    45.2134     0.0004    11.9821 </r>
       <r>    45.3881     0.0198    11.9856 </r>
       <r>    45.5628     0.0145    11.9881 </r>
       <r>    45.7375    -0.0004    11.9881 </r>
       <r>    45.9123    -0.0007    11.9879 </r>
       <r>    46.0870    -0.0007    11.9878 </r>
       <r>    46.2617     0.0133    11.9902 </r>
       <r>    46.4364     0.0201    11.9937 </r>
       <r>    46.6111     0.0025    11.9941 </r>
       <r>    46.7858     0.0168    11.9970 </r>
       <r>    46.9605     0.0172    12.0000 </r>
       <r>    47.1352     0.0003    12.0001 </r>
       <r>    47.3100    -0.0005    12.0000 </r>
       <r>    47.4847    -0.0000    12.0000 </r>
       <r>    47.6594    -0.0000    12.0000 </r>
       <r>    47.8341    -0.0000    12.0000 </r>
       <r>    48.0088    -0.0000    12.0000 </r>
       <r>    48.1835     0.0000    12.0000 </r>
       <r>    48.3582     0.0000    12.0000 </r>
       <r>    48.5329     0.0000    12.0000 </r>
       <r>    48.7077     0.0000    12.0000 </r>
       <r>    48.8824     0.0000    12.0000 </r>
       <r>    49.0571     0.0000    12.0000 </r>
       <r>    49.2318     0.0000    12.0000 </r>
      </set>
     </set>
    </array>
   </total>
  </dos>
 </calculation>
 <structure name="finalpos" >
  <crystal>
   <varray name="basis" >
    <v>       0.00000000       1.87500000       1.87500000 </v>
    <v>       1.87500000       0.00000000       1.87500000 </v>
    <v>       1.87500000       1.87500000       0.00000000 </v>
   </varray>
   <i name="volume">     13.18359375 </i>
   <varray name="rec_basis" >
    <v>      -0.26666667       0.26666667       0.26666667 </v>
    <v>       0.26666667      -0.26666667       0.26666667 </v>
    <v>       0.26666667       0.26666667      -0.26666667 </v>
   </varray>
  </crystal>
  <varray name="positions" >
   <v>       0.00000000       0.00000000       0.00000000 </v>
  </varray>
 </structure>
</modeling>
