fcc Ni                                  
           1
     0.000000    1.875000    1.875000
     1.875000    0.000000    1.875000
     1.875000    1.875000    0.000000
   Ni
   1
Direct configuration=     1
   0.00000000  0.00000000  0.00000000
