fcc Ni                                  
   3.50000000000000     
     0.000000    0.500000    0.500000
     0.500000    0.000000    0.500000
     0.500000    0.500000    0.000000
   Ni
     1
Direct
  0.000000  0.000000  0.000000
 
   20   20   20
  148.26      138.93      114.08      81.512      50.039      26.048      11.838      5.8800      4.2862      3.6253    
  3.4154      3.6253      4.2862      5.8800      11.838      26.048      50.039      81.512      114.08      138.93    
  138.93      121.88      93.366      61.826      34.890      16.786      7.7054      4.7400      3.8519      3.4302    
  3.4313      3.8533      4.7399      7.7064      16.791      34.895      61.819      93.341      121.85      138.92    
  114.08      93.366      66.288      40.317      20.849      9.6981      5.2976      4.0804      3.4759      3.2868    
  3.4765      4.0801      5.2975      9.7023      20.857      40.319      66.274      93.339      114.06      121.85    
  81.512      61.826      40.317      22.421      11.008      5.8233      4.2652      3.5404      3.1983      3.1982    
  3.5396      4.2637      5.8226      11.010      22.426      40.321      61.825      81.508      93.339      93.341    
  50.039      34.890      20.849      11.008      6.0433      4.3698      3.5980      3.1554      3.0214      3.1557    
  3.5977      4.3677      6.0395      11.004      20.849      34.896      50.047      61.825      66.274      61.819    
  26.048      16.786      9.6981      5.8233      4.3698      3.6219      3.1413      2.9272      2.9274      3.1424    
  3.6237      4.3700      5.8190      9.6899      16.779      26.044      34.896      40.321      40.319      34.895    
  11.838      7.7054      5.2976      4.2652      3.5980      3.1413      2.8985      2.8249      2.8980      3.1432    
  3.6033      4.2705      5.2973      7.6971      11.825      16.779      20.849      22.426      20.857      16.791    
  5.8800      4.7400      4.0804      3.5404      3.1554      2.9272      2.8249      2.8238      2.9252      3.1555    
  3.5453      4.0896      4.7481      5.8803      7.6971      9.6899      11.004      11.010      9.7023      7.7064    
  4.2862      3.8519      3.4759      3.1983      3.0214      2.9274      2.8980      2.9252      3.0165      3.1930    
  3.4759      3.8605      4.2989      4.7481      5.2973      5.8190      6.0395      5.8226      5.2975      4.7399    
  3.6253      3.4302      3.2868      3.1982      3.1557      3.1424      3.1432      3.1555      3.1930      3.2773    
  3.4226      3.6252      3.8605      4.0896      4.2705      4.3700      4.3677      4.2637      4.0801      3.8533    
  3.4154      3.4313      3.4765      3.5396      3.5977      3.6237      3.6033      3.5453      3.4759      3.4226    
  3.4030      3.4226      3.4759      3.5453      3.6033      3.6237      3.5977      3.5396      3.4765      3.4313    
  3.6253      3.8533      4.0801      4.2637      4.3677      4.3700      4.2705      4.0896      3.8605      3.6252    
  3.4226      3.2773      3.1930      3.1555      3.1432      3.1424      3.1557      3.1982      3.2868      3.4302    
  4.2862      4.7399      5.2975      5.8226      6.0395      5.8190      5.2973      4.7481      4.2989      3.8605    
  3.4759      3.1930      3.0165      2.9252      2.8980      2.9274      3.0214      3.1983      3.4759      3.8519    
  5.8800      7.7064      9.7023      11.010      11.004      9.6899      7.6971      5.8803      4.7481      4.0896    
  3.5453      3.1555      2.9252      2.8238      2.8249      2.9272      3.1554      3.5404      4.0804      4.7400    
  11.838      16.791      20.857      22.426      20.849      16.779      11.825      7.6971      5.2973      4.2705    
  3.6033      3.1432      2.8980      2.8249      2.8985      3.1413      3.5980      4.2652      5.2976      7.7054    
  26.048      34.895      40.319      40.321      34.896      26.044      16.779      9.6899      5.8190      4.3700    
  3.6237      3.1424      2.9274      2.9272      3.1413      3.6219      4.3698      5.8233      9.6981      16.786    
  50.039      61.819      66.274      61.825      50.047      34.896      20.849      11.004      6.0395      4.3677    
  3.5977      3.1557      3.0214      3.1554      3.5980      4.3698      6.0433      11.008      20.849      34.890    
  81.512      93.341      93.339      81.508      61.825      40.321      22.426      11.010      5.8226      4.2637    
  3.5396      3.1982      3.1983      3.5404      4.2652      5.8233      11.008      22.421      40.317      61.826    
  114.08      121.85      114.06      93.339      66.274      40.319      20.857      9.7023      5.2975      4.0801    
  3.4765      3.2868      3.4759      4.0804      5.2976      9.6981      20.849      40.317      66.288      93.366    
  138.93      138.92      121.85      93.341      61.819      34.895      16.791      7.7064      4.7399      3.8533    
  3.4313      3.4302      3.8519      4.7400      7.7054      16.786      34.890      61.826      93.366      121.88    
  138.93      121.88      93.366      61.826      34.890      16.786      7.7054      4.7400      3.8519      3.4302    
  3.4313      3.8533      4.7399      7.7064      16.791      34.895      61.819      93.341      121.85      138.92    
  121.88      99.710      70.789      43.099      22.308      10.298      5.4651      4.1514      3.5307      3.3358    
  3.5316      4.1509      5.4651      10.305      22.320      43.100      70.765      99.665      121.85      130.21    
  93.366      70.789      46.199      25.716      12.493      6.2954      4.4081      3.6475      3.2832      3.2833    
  3.6467      4.4061      6.2966      12.501      25.726      46.198      70.771      93.341      106.96      106.98    
  61.826      43.099      25.716      13.354      6.8651      4.5963      3.7532      3.2658      3.1176      3.2667    
  3.7524      4.5929      6.8626      13.356      25.723      43.107      61.831      76.437      81.974      76.436    
  34.890      22.308      12.493      6.8651      4.6725      3.8192      3.2690      3.0216      3.0225      3.2705    
  3.8185      4.6681      6.8588      12.490      22.312      34.901      46.875      54.220      54.215      46.863    
  16.786      10.298      6.2954      4.5963      3.8192      3.2742      2.9806      2.8928      2.9809      3.2760    
  3.8220      4.5965      6.2901      10.290      16.780      24.344      30.491      32.860      30.489      24.345    
  7.7054      5.4651      4.4081      3.7532      3.2690      2.9806      2.8535      2.8526      2.9802      3.2724    
  3.7604      4.4141      5.4647      7.6975      11.101      14.674      16.978      16.981      14.683      11.112    
  4.7400      4.1514      3.6475      3.2658      3.0216      2.8928      2.8526      2.8908      3.0191      3.2660    
  3.6532      4.1615      4.7484      5.6680      6.9606      8.1515      8.6407      8.1586      6.9674      5.6674    
  3.8519      3.5307      3.2832      3.1176      3.0225      2.9809      2.9802      3.0191      3.1108      3.2768    
  3.5311      3.8609      4.2203      4.5561      4.8823      5.1130      5.1137      4.8816      4.5493      4.2086    
  3.4302      3.3358      3.2833      3.2667      3.2705      3.2760      3.2724      3.2660      3.2768      3.3257    
  3.4230      3.5635      3.7276      3.8842      3.9973      4.0371      3.9926      3.8769      3.7218      3.5637    
  3.4313      3.5316      3.6467      3.7524      3.8185      3.8220      3.7604      3.6532      3.5311      3.4230    
  3.3484      3.3161      3.3219      3.3475      3.3677      3.3653      3.3433      3.3221      3.3237      3.3599    
  3.8533      4.1509      4.4061      4.5929      4.6681      4.5965      4.4141      4.1615      3.8609      3.5635    
  3.3161      3.1430      3.0416      2.9930      2.9787      2.9929      3.0446      3.1501      3.3228      3.5637    
  4.7399      5.4651      6.2966      6.8626      6.8588      6.2901      5.4647      4.7484      4.2203      3.7276    
  3.3219      3.0416      2.8782      2.8057      2.8067      2.8812      3.0451      3.3218      3.7206      4.2086    
  7.7064      10.305      12.501      13.356      12.490      10.290      7.6975      5.6680      4.5561      3.8842    
  3.3475      2.9930      2.8057      2.7494      2.8069      2.9933      3.3444      3.8774      4.5494      5.6674    
  16.791      22.320      25.726      25.723      22.312      16.780      11.101      6.9606      4.8823      3.9973    
  3.3677      2.9787      2.8067      2.8069      2.9780      3.3648      3.9938      4.8827      6.9675      11.112    
  34.895      43.100      46.198      43.107      34.901      24.344      14.674      8.1515      5.1130      4.0371    
  3.3653      2.9929      2.8812      2.9933      3.3648      4.0365      5.1153      8.1580      14.680      24.345    
  61.819      70.765      70.771      61.831      46.875      30.491      16.978      8.6407      5.1137      3.9926    
  3.3433      3.0446      3.0451      3.3444      3.9938      5.1153      8.6424      16.977      30.485      46.863    
  93.341      99.665      93.341      76.437      54.220      32.860      16.981      8.1586      4.8816      3.8769    
  3.3221      3.1501      3.3218      3.8774      4.8827      8.1580      16.977      32.854      54.215      76.436    
  121.85      121.85      106.96      81.974      54.215      30.489      14.683      6.9674      4.5493      3.7218    
  3.3237      3.3228      3.7206      4.5494      6.9675      14.680      30.485      54.215      81.982      106.98    
  138.92      130.21      106.98      76.436      46.863      24.345      11.112      5.6674      4.2086      3.5637    
  3.3599      3.5637      4.2086      5.6674      11.112      24.345      46.863      76.436      106.98      130.21    
  114.08      93.366      66.288      40.317      20.849      9.6981      5.2976      4.0804      3.4759      3.2868    
  3.4765      4.0801      5.2975      9.7023      20.857      40.319      66.274      93.339      114.06      121.85    
  93.366      70.789      46.199      25.716      12.493      6.2954      4.4081      3.6475      3.2832      3.2833    
  3.6467      4.4061      6.2966      12.501      25.726      46.198      70.771      93.341      106.96      106.98    
  66.288      46.199      27.559      14.256      7.1926      4.6815      3.8077      3.3051      3.1519      3.3060    
  3.8064      4.6780      7.1920      14.263      27.570      46.206      66.287      81.978      87.936      81.982    
  40.317      25.716      14.256      7.5543      4.8611      3.9245      3.3392      3.0740      3.0751      3.3406    
  3.9226      4.8553      7.5489      14.258      25.728      40.337      54.233      62.772      62.765      54.215    
  20.849      12.493      7.1926      4.8611      3.9679      3.3662      3.0379      2.9404      3.0389      3.3674    
  3.9671      4.8557      7.1845      12.490      20.856      30.502      38.318      41.328      38.304      30.485    
  9.6981      6.2954      4.6815      3.9245      3.3662      3.0287      2.8813      2.8809      3.0290      3.3692    
  3.9282      4.6810      6.2892      9.6905      14.677      19.808      23.089      23.087      19.807      14.680    
  5.2976      4.4081      3.8077      3.3392      3.0379      2.8813      2.8335      2.8799      3.0381      3.3435    
  3.8149      4.4137      5.2974      6.9611      9.2277      11.250      12.066      11.256      9.2367      6.9675    
  4.0804      3.6475      3.3051      3.0740      2.9404      2.8809      2.8799      2.9376      3.0708      3.3050    
  3.6532      4.0900      4.5567      5.1420      5.8383      6.3358      6.3385      5.8426      5.1416      4.5494    
  3.4759      3.2832      3.1519      3.0751      3.0389      3.0290      3.0381      3.0708      3.1440      3.2768    
  3.4766      3.7283      3.9952      4.2300      4.3937      4.4565      4.3925      4.2250      3.9862      3.7206    
  3.2868      3.2833      3.3060      3.3406      3.3674      3.3692      3.3435      3.3050      3.2768      3.2778    
  3.3168      3.3910      3.4859      3.5755      3.6296      3.6275      3.5707      3.4818      3.3913      3.3228    
  3.4765      3.6467      3.8064      3.9226      3.9671      3.9282      3.8149      3.6532      3.4766      3.3168    
  3.1969      3.1262      3.0981      3.0936      3.0933      3.0910      3.0976      3.1315      3.2060      3.3237    
  4.0801      4.4061      4.6780      4.8553      4.8557      4.6810      4.4137      4.0900      3.7283      3.3910    
  3.1262      2.9495      2.8495      2.8058      2.8057      2.8506      2.9535      3.1308      3.3913      3.7218    
  5.2975      6.2966      7.1920      7.5489      7.1845      6.2892      5.2974      4.5567      3.9952      3.4859    
  3.0981      2.8495      2.7185      2.6788      2.7199      2.8514      3.0979      3.4810      3.9862      4.5493    
  9.7023      12.501      14.263      14.258      12.490      9.6905      6.9611      5.1420      4.2300      3.5755    
  3.0936      2.8058      2.6788      2.6793      2.8062      3.0919      3.5713      4.2256      5.1416      6.9674    
  20.857      25.726      27.570      25.728      20.856      14.677      9.2277      5.8383      4.3937      3.6296    
  3.0933      2.8057      2.7199      2.8062      3.0923      3.6272      4.3938      5.8440      9.2367      14.683    
  40.319      46.198      46.206      40.337      30.502      19.808      11.250      6.3358      4.4565      3.6275    
  3.0910      2.8506      2.8514      3.0919      3.6272      4.4570      6.3402      11.255      19.807      30.489    
  66.274      70.771      66.287      54.233      38.318      23.089      12.066      6.3385      4.3925      3.5707    
  3.0976      2.9535      3.0979      3.5713      4.3938      6.3402      12.065      23.083      38.304      54.215    
  93.339      93.341      81.978      62.772      41.328      23.087      11.256      5.8426      4.2250      3.4818    
  3.1315      3.1308      3.4810      4.2256      5.8440      11.255      23.083      41.320      62.765      81.974    
  114.06      106.96      87.936      62.765      38.304      19.807      9.2367      5.1416      3.9862      3.3913    
  3.2060      3.3913      3.9862      5.1416      9.2367      19.807      38.304      62.765      87.936      106.96    
  121.85      106.98      81.982      54.215      30.485      14.680      6.9675      4.5494      3.7206      3.3228    
  3.3237      3.7218      4.5493      6.9674      14.683      30.489      54.215      81.974      106.96      121.85    
  81.512      61.826      40.317      22.421      11.008      5.8233      4.2652      3.5404      3.1983      3.1982    
  3.5396      4.2637      5.8226      11.010      22.426      40.321      61.825      81.508      93.339      93.341    
  61.826      43.099      25.716      13.354      6.8651      4.5963      3.7532      3.2658      3.1176      3.2667    
  3.7524      4.5929      6.8626      13.356      25.723      43.107      61.831      76.437      81.974      76.436    
  40.317      25.716      14.256      7.5543      4.8611      3.9245      3.3392      3.0740      3.0751      3.3406    
  3.9226      4.8553      7.5489      14.258      25.728      40.337      54.233      62.772      62.765      54.215    
  22.421      13.354      7.5543      4.9672      4.0192      3.3988      3.0587      2.9578      3.0597      3.3999    
  4.0175      4.9601      7.5449      13.352      22.436      32.880      41.341      44.598      41.320      32.854    
  11.008      6.8651      4.8611      4.0192      3.4215      3.0568      2.8986      2.8986      3.0579      3.4240    
  4.0192      4.8541      6.8540      11.003      16.986      23.098      26.993      26.986      23.083      16.977    
  5.8233      4.5963      3.9245      3.3988      3.0568      2.8808      2.8283      2.8804      3.0585      3.4030    
  3.9277      4.5943      5.8164      8.1509      11.252      13.976      15.065      13.976      11.255      8.1580    
  4.2652      3.7532      3.3392      3.0587      2.8986      2.8283      2.8273      2.8970      3.0592      3.3435    
  3.7596      4.2697      4.8818      5.8378      6.9809      7.7815      7.7847      6.9882      5.8440      4.8827    
  3.5404      3.2658      3.0740      2.9578      2.8986      2.8804      2.8970      2.9544      3.0705      3.2657    
  3.5453      3.8847      4.2302      4.5410      4.8092      4.9236      4.8114      4.5412      4.2256      3.8774    
  3.1983      3.1176      3.0751      3.0597      3.0579      3.0585      3.0592      3.0705      3.1100      3.1928    
  3.3225      3.4864      3.6577      3.8012      3.8832      3.8825      3.7981      3.6520      3.4810      3.3218    
  3.1982      3.2667      3.3406      3.3999      3.4240      3.4030      3.3435      3.2657      3.1928      3.1433    
  3.1264      3.1419      3.1781      3.2137      3.2274      3.2112      3.1755      3.1422      3.1308      3.1501    
  3.5396      3.7524      3.9226      4.0175      4.0192      3.9277      3.7596      3.5453      3.3225      3.1264    
  2.9802      2.8893      2.8431      2.8249      2.8239      2.8422      2.8920      2.9864      3.1315      3.3221    
  4.2637      4.5929      4.8553      4.9601      4.8541      4.5943      4.2697      3.8847      3.4864      3.1419    
  2.8893      2.7303      2.6466      2.6206      2.6465      2.7316      2.8917      3.1422      3.4818      3.8769    
  5.8226      6.8626      7.5489      7.5449      6.8540      5.8164      4.8818      4.2302      3.6577      3.1781    
  2.8431      2.6466      2.5591      2.5595      2.6473      2.8428      3.1751      3.6520      4.2250      4.8816    
  11.010      13.356      14.258      13.352      11.003      8.1509      5.8378      4.5410      3.8012      3.2137    
  2.8249      2.6206      2.5595      2.6214      2.8246      3.2112      3.7984      4.5412      5.8426      8.1586    
  22.426      25.723      25.728      22.436      16.986      11.252      6.9809      4.8092      3.8832      3.2274    
  2.8239      2.6465      2.6473      2.8246      3.2264      3.8826      4.8128      6.9882      11.256      16.981    
  40.321      43.107      40.337      32.880      23.098      13.976      7.7815      4.9236      3.8825      3.2112    
  2.8422      2.7316      2.8428      3.2112      3.8826      4.9263      7.7863      13.976      23.087      32.860    
  61.825      61.831      54.233      41.341      26.993      15.065      7.7847      4.8114      3.7981      3.1755    
  2.8920      2.8917      3.1751      3.7984      4.8128      7.7863      15.064      26.986      41.328      54.220    
  81.508      76.437      62.772      44.598      26.986      13.976      6.9882      4.5412      3.6520      3.1422    
  2.9864      3.1422      3.6520      4.5412      6.9882      13.976      26.986      44.598      62.772      76.437    
  93.339      81.974      62.765      41.320      23.083      11.255      5.8440      4.2256      3.4810      3.1308    
  3.1315      3.4818      4.2250      5.8426      11.256      23.087      41.328      62.772      81.978      93.341    
  93.341      76.436      54.215      32.854      16.977      8.1580      4.8827      3.8774      3.3218      3.1501    
  3.3221      3.8769      4.8816      8.1586      16.981      32.860      54.220      76.437      93.341      99.665    
  50.039      34.890      20.849      11.008      6.0433      4.3698      3.5980      3.1554      3.0214      3.1557    
  3.5977      4.3677      6.0395      11.004      20.849      34.896      50.047      61.825      66.274      61.819    
  34.890      22.308      12.493      6.8651      4.6725      3.8192      3.2690      3.0216      3.0225      3.2705    
  3.8185      4.6681      6.8588      12.490      22.312      34.901      46.875      54.220      54.215      46.863    
  20.849      12.493      7.1926      4.8611      3.9679      3.3662      3.0379      2.9404      3.0389      3.3674    
  3.9671      4.8557      7.1845      12.490      20.856      30.502      38.318      41.328      38.304      30.485    
  11.008      6.8651      4.8611      4.0192      3.4215      3.0568      2.8986      2.8986      3.0579      3.4240    
  4.0192      4.8541      6.8540      11.003      16.986      23.098      26.993      26.986      23.083      16.977    
  6.0433      4.6725      3.9679      3.4215      3.0644      2.8817      2.8279      2.8821      3.0670      3.4253    
  3.9680      4.6655      6.0330      8.6366      12.068      15.068      16.264      15.064      12.065      8.6424    
  4.3698      3.8192      3.3662      3.0568      2.8817      2.8064      2.8060      2.8818      3.0592      3.3703    
  3.8218      4.3680      5.1093      6.3330      7.7809      8.7844      8.7863      7.7863      6.3402      5.1153    
  3.5980      3.2690      3.0379      2.8986      2.8279      2.8060      2.8264      2.8972      3.0386      3.2727    
  3.6031      3.9968      4.3921      4.8077      5.2010      5.3708      5.2055      4.8128      4.3938      3.9938    
  3.1554      3.0216      2.9404      2.8986      2.8821      2.8818      2.8972      2.9374      3.0186      3.1552    
  3.3477      3.5758      3.8008      3.9798      4.0788      4.0794      3.9799      3.7984      3.5713      3.3444    
  3.0214      3.0225      3.0389      3.0579      3.0670      3.0592      3.0386      3.0186      3.0156      3.0412    
  3.0980      3.1780      3.2630      3.3285      3.3527      3.3268      3.2598      3.1751      3.0979      3.0451    
  3.1557      3.2705      3.3674      3.4240      3.4253      3.3703      3.2727      3.1552      3.0412      2.9490    
  2.8888      2.8607      2.8550      2.8569      2.8560      2.8534      2.8608      2.8917      2.9535      3.0446    
  3.5977      3.8185      3.9671      4.0192      3.9680      3.8218      3.6031      3.3477      3.0980      2.8888    
  2.7376      2.6433      2.5941      2.5785      2.5933      2.6441      2.7409      2.8920      3.0976      3.3433    
  4.3677      4.6681      4.8557      4.8541      4.6655      4.3680      3.9968      3.5758      3.1780      2.8607    
  2.6433      2.5152      2.4570      2.4568      2.5152      2.6440      2.8608      3.1755      3.5707      3.9926    
  6.0395      6.8588      7.1845      6.8540      6.0330      5.1093      4.3921      3.8008      3.2630      2.8550    
  2.5941      2.4570      2.4154      2.4574      2.5939      2.8532      3.2598      3.7981      4.3925      5.1137    
  11.004      12.490      12.490      11.003      8.6366      6.3330      4.8077      3.9798      3.3285      2.8569    
  2.5785      2.4568      2.4574      2.5792      2.8560      3.3267      3.9799      4.8114      6.3385      8.6407    
  20.849      22.312      20.856      16.986      12.068      7.7809      5.2010      4.0788      3.3527      2.8560    
  2.5933      2.5152      2.5939      2.8560      3.3525      4.0806      5.2055      7.7847      12.066      16.978    
  34.896      34.901      30.502      23.098      15.068      8.7844      5.3708      4.0794      3.3268      2.8534    
  2.6441      2.6440      2.8532      3.3267      4.0806      5.3737      8.7863      15.065      23.089      30.491    
  50.047      46.875      38.318      26.993      16.264      8.7863      5.2055      3.9799      3.2598      2.8608    
  2.7409      2.8608      3.2598      3.9799      5.2055      8.7863      16.264      26.993      38.318      46.875    
  61.825      54.220      41.328      26.986      15.064      7.7863      4.8128      3.7984      3.1751      2.8917    
  2.8920      3.1755      3.7981      4.8114      7.7847      15.065      26.993      41.341      54.233      61.831    
  66.274      54.215      38.304      23.083      12.065      6.3402      4.3938      3.5713      3.0979      2.9535    
  3.0976      3.5707      4.3925      6.3385      12.066      23.089      38.318      54.233      66.287      70.771    
  61.819      46.863      30.485      16.977      8.6424      5.1153      3.9938      3.3444      3.0451      3.0446    
  3.3433      3.9926      5.1137      8.6407      16.978      30.491      46.875      61.831      70.771      70.765    
  26.048      16.786      9.6981      5.8233      4.3698      3.6219      3.1413      2.9272      2.9274      3.1424    
  3.6237      4.3700      5.8190      9.6899      16.779      26.044      34.896      40.321      40.319      34.895    
  16.786      10.298      6.2954      4.5963      3.8192      3.2742      2.9806      2.8928      2.9809      3.2760    
  3.8220      4.5965      6.2901      10.290      16.780      24.344      30.491      32.860      30.489      24.345    
  9.6981      6.2954      4.6815      3.9245      3.3662      3.0287      2.8813      2.8809      3.0290      3.3692    
  3.9282      4.6810      6.2892      9.6905      14.677      19.808      23.089      23.087      19.807      14.680    
  5.8233      4.5963      3.9245      3.3988      3.0568      2.8808      2.8283      2.8804      3.0585      3.4030    
  3.9277      4.5943      5.8164      8.1509      11.252      13.976      15.065      13.976      11.255      8.1580    
  4.3698      3.8192      3.3662      3.0568      2.8817      2.8064      2.8060      2.8818      3.0592      3.3703    
  3.8218      4.3680      5.1093      6.3330      7.7809      8.7844      8.7863      7.7863      6.3402      5.1153    
  3.6219      3.2742      3.0287      2.8808      2.8064      2.7838      2.8057      2.8807      3.0304      3.2778    
  3.6256      4.0374      4.4535      4.9198      5.3686      5.5623      5.3737      4.9263      4.4570      4.0365    
  3.1413      2.9806      2.8813      2.8283      2.8060      2.8057      2.8273      2.8802      2.9808      3.1440    
  3.3690      3.6298      3.8814      4.0771      4.1849      4.1868      4.0806      3.8826      3.6272      3.3648    
  2.9272      2.8928      2.8809      2.8804      2.8818      2.8807      2.8802      2.8906      2.9251      2.9932    
  3.0940      3.2135      3.3277      3.4100      3.4402      3.4101      3.3267      3.2112      3.0919      2.9933    
  2.9274      2.9809      3.0290      3.0585      3.0592      3.0304      2.9808      2.9251      2.8778      2.8490    
  2.8424      2.8545      2.8745      2.8889      2.8882      2.8729      2.8532      2.8428      2.8514      2.8812    
  3.1424      3.2760      3.3692      3.4030      3.3703      3.2778      3.1440      2.9932      2.8490      2.7292    
  2.6425      2.5886      2.5609      2.5523      2.5602      2.5885      2.6440      2.7316      2.8506      2.9929    
  3.6237      3.8220      3.9282      3.9277      3.8218      3.6256      3.3690      3.0940      2.8424      2.6425    
  2.5027      2.4174      2.3774      2.3771      2.4174      2.5039      2.6441      2.8422      3.0910      3.3653    
  4.3700      4.5965      4.6810      4.5943      4.3680      4.0374      3.6298      3.2135      2.8545      2.5886    
  2.4174      2.3249      2.2958      2.3248      2.4174      2.5885      2.8534      3.2112      3.6275      4.0371    
  5.8190      6.2901      6.2892      5.8164      5.1093      4.4535      3.8814      3.3277      2.8745      2.5609    
  2.3774      2.2958      2.2961      2.3777      2.5602      2.8729      3.3268      3.8825      4.4565      5.1130    
  9.6899      10.290      9.6905      8.1509      6.3330      4.9198      4.0771      3.4100      2.8889      2.5523    
  2.3771      2.3248      2.3777      2.5523      2.8882      3.4101      4.0794      4.9236      6.3358      8.1515    
  16.779      16.780      14.677      11.252      7.7809      5.3686      4.1849      3.4402      2.8882      2.5602    
  2.4174      2.4174      2.5602      2.8882      3.4409      4.1868      5.3708      7.7815      11.250      14.674    
  26.044      24.344      19.808      13.976      8.7844      5.5623      4.1868      3.4101      2.8729      2.5885    
  2.5039      2.5885      2.8729      3.4101      4.1868      5.5623      8.7844      13.976      19.808      24.344    
  34.896      30.491      23.089      15.065      8.7863      5.3737      4.0806      3.3267      2.8532      2.6440    
  2.6441      2.8534      3.3268      4.0794      5.3708      8.7844      15.068      23.098      30.502      34.901    
  40.321      32.860      23.087      13.976      7.7863      4.9263      3.8826      3.2112      2.8428      2.7316    
  2.8422      3.2112      3.8825      4.9236      7.7815      13.976      23.098      32.880      40.337      43.107    
  40.319      30.489      19.807      11.255      6.3402      4.4570      3.6272      3.0919      2.8514      2.8506    
  3.0910      3.6275      4.4565      6.3358      11.250      19.808      30.502      40.337      46.206      46.198    
  34.895      24.345      14.680      8.1580      5.1153      4.0365      3.3648      2.9933      2.8812      2.9929    
  3.3653      4.0371      5.1130      8.1515      14.674      24.344      34.901      43.107      46.198      43.100    
  11.838      7.7054      5.2976      4.2652      3.5980      3.1413      2.8985      2.8249      2.8980      3.1432    
  3.6033      4.2705      5.2973      7.6971      11.825      16.779      20.849      22.426      20.857      16.791    
  7.7054      5.4651      4.4081      3.7532      3.2690      2.9806      2.8535      2.8526      2.9802      3.2724    
  3.7604      4.4141      5.4647      7.6975      11.101      14.674      16.978      16.981      14.683      11.112    
  5.2976      4.4081      3.8077      3.3392      3.0379      2.8813      2.8335      2.8799      3.0381      3.3435    