fcc Ni                                  
   3.50000000000000     
     0.000000    0.500000    0.500000
     0.500000    0.000000    0.500000
     0.500000    0.500000    0.000000
   Ni
     1
Direct
  0.000000  0.000000  0.000000
 
   20   20   20
 0.14825854393E+03 0.13893197908E+03 0.11408224075E+03 0.81512089082E+02 0.50038752234E+02
 0.26047560225E+02 0.11838460354E+02 0.58800163959E+01 0.42861917607E+01 0.36253092334E+01
 0.34153531560E+01 0.36253092334E+01 0.42861917607E+01 0.58800163959E+01 0.11838460354E+02
 0.26047560225E+02 0.50038752234E+02 0.81512089082E+02 0.11408224075E+03 0.13893197908E+03
 0.13893197908E+03 0.12188460219E+03 0.93366486314E+02 0.61826271234E+02 0.34890367423E+02
 0.16786385314E+02 0.77054095994E+01 0.47400486251E+01 0.38519027505E+01 0.34302337827E+01
 0.34313064496E+01 0.38532917468E+01 0.47399198728E+01 0.77063515932E+01 0.16791484644E+02
 0.34894901446E+02 0.61818592260E+02 0.93341419882E+02 0.12185426193E+03 0.13891820451E+03
 0.11408224075E+03 0.93366486314E+02 0.66287572844E+02 0.40317270589E+02 0.20848769505E+02
 0.96981436327E+01 0.52975639116E+01 0.40804491184E+01 0.34758567509E+01 0.32867513655E+01
 0.34765067047E+01 0.40801362801E+01 0.52974894294E+01 0.97023136445E+01 0.20856693300E+02
 0.40319466228E+02 0.66273642342E+02 0.93339139475E+02 0.11405959376E+03 0.12185426193E+03
 0.81512089082E+02 0.61826271234E+02 0.40317270589E+02 0.22421499506E+02 0.11007768607E+02
 0.58232624971E+01 0.42652164428E+01 0.35403760271E+01 0.31983300419E+01 0.31982450797E+01
 0.35396447870E+01 0.42636767741E+01 0.58226160700E+01 0.11010166037E+02 0.22426303088E+02
 0.40320622794E+02 0.61825072493E+02 0.81507910845E+02 0.93339139475E+02 0.93341419882E+02
 0.50038752234E+02 0.34890367423E+02 0.20848769505E+02 0.11007768607E+02 0.60433109990E+01
 0.43697779750E+01 0.35980062791E+01 0.31553560361E+01 0.30214385716E+01 0.31556887877E+01
 0.35976856388E+01 0.43676750457E+01 0.60395194613E+01 0.11004434213E+02 0.20849101607E+02
 0.34895948611E+02 0.50047366674E+02 0.61825072493E+02 0.66273642342E+02 0.61818592260E+02
 0.26047560225E+02 0.16786385314E+02 0.96981436327E+01 0.58232624971E+01 0.43697779750E+01
 0.36218595074E+01 0.31413211638E+01 0.29272152391E+01 0.29274182367E+01 0.31423745450E+01
 0.36236735996E+01 0.43700188683E+01 0.58190464816E+01 0.96898758817E+01 0.16778521020E+02
 0.26044361080E+02 0.34895948611E+02 0.40320622794E+02 0.40319466228E+02 0.34894901446E+02
 0.11838460354E+02 0.77054095994E+01 0.52975639116E+01 0.42652164428E+01 0.35980062791E+01
 0.31413211638E+01 0.28984508835E+01 0.28248588605E+01 0.28979958687E+01 0.31431545836E+01
 0.36032885371E+01 0.42705321307E+01 0.52973242772E+01 0.76970895090E+01 0.11824929296E+02
 0.16778521020E+02 0.20849101607E+02 0.22426303088E+02 0.20856693300E+02 0.16791484644E+02
 0.58800163959E+01 0.47400486251E+01 0.40804491184E+01 0.35403760271E+01 0.31553560361E+01
 0.29272152391E+01 0.28248588605E+01 0.28238023899E+01 0.29252400531E+01 0.31554716546E+01
 0.35453311155E+01 0.40896102463E+01 0.47480893761E+01 0.58802606273E+01 0.76970895090E+01
 0.96898758817E+01 0.11004434213E+02 0.11010166037E+02 0.97023136445E+01 0.77063515932E+01
 0.42861917607E+01 0.38519027505E+01 0.34758567509E+01 0.31983300419E+01 0.30214385716E+01
 0.29274182367E+01 0.28979958687E+01 0.29252400531E+01 0.30164894181E+01 0.31930194965E+01
 0.34759038368E+01 0.38605079112E+01 0.42989181727E+01 0.47480893761E+01 0.52973242772E+01
 0.58190464816E+01 0.60395194613E+01 0.58226160700E+01 0.52974894294E+01 0.47399198728E+01
 0.36253092334E+01 0.34302337827E+01 0.32867513655E+01 0.31982450797E+01 0.31556887877E+01
 0.31423745450E+01 0.31431545836E+01 0.31554716546E+01 0.31930194965E+01 0.32772557536E+01
 0.34226071370E+01 0.36252035202E+01 0.38605079112E+01 0.40896102463E+01 0.42705321307E+01
 0.43700188683E+01 0.43676750457E+01 0.42636767741E+01 0.40801362801E+01 0.38532917468E+01
 0.34153531560E+01 0.34313064496E+01 0.34765067047E+01 0.35396447870E+01 0.35976856388E+01
 0.36236735996E+01 0.36032885371E+01 0.35453311155E+01 0.34759038368E+01 0.34226071370E+01
 0.34030035866E+01 0.34226071370E+01 0.34759038368E+01 0.35453311155E+01 0.36032885371E+01
 0.36236735996E+01 0.35976856388E+01 0.35396447870E+01 0.34765067047E+01 0.34313064496E+01
 0.36253092334E+01 0.38532917468E+01 0.40801362801E+01 0.42636767741E+01 0.43676750457E+01
 0.43700188683E+01 0.42705321307E+01 0.40896102463E+01 0.38605079112E+01 0.36252035202E+01
 0.34226071370E+01 0.32772557536E+01 0.31930194965E+01 0.31554716546E+01 0.31431545836E+01
 0.31423745450E+01 0.31556887877E+01 0.31982450797E+01 0.32867513655E+01 0.34302337827E+01
 0.42861917607E+01 0.47399198728E+01 0.52974894294E+01 0.58226160700E+01 0.60395194613E+01
 0.58190464816E+01 0.52973242772E+01 0.47480893761E+01 0.42989181727E+01 0.38605079112E+01
 0.34759038368E+01 0.31930194965E+01 0.30164894181E+01 0.29252400531E+01 0.28979958687E+01
 0.29274182367E+01 0.30214385716E+01 0.31983300419E+01 0.34758567509E+01 0.38519027505E+01
 0.58800163959E+01 0.77063515932E+01 0.97023136445E+01 0.11010166037E+02 0.11004434213E+02
 0.96898758817E+01 0.76970895090E+01 0.58802606273E+01 0.47480893761E+01 0.40896102463E+01
 0.35453311155E+01 0.31554716546E+01 0.29252400531E+01 0.28238023899E+01 0.28248588605E+01
 0.29272152391E+01 0.31553560361E+01 0.35403760271E+01 0.40804491184E+01 0.47400486251E+01
 0.11838460354E+02 0.16791484644E+02 0.20856693300E+02 0.22426303088E+02 0.20849101607E+02
 0.16778521020E+02 0.11824929296E+02 0.76970895090E+01 0.52973242772E+01 0.42705321307E+01
 0.36032885371E+01 0.31431545836E+01 0.28979958687E+01 0.28248588605E+01 0.28984508835E+01
 0.31413211638E+01 0.35980062791E+01 0.42652164428E+01 0.52975639116E+01 0.77054095994E+01
 0.26047560225E+02 0.34894901446E+02 0.40319466228E+02 0.40320622794E+02 0.34895948611E+02
 0.26044361080E+02 0.16778521020E+02 0.96898758817E+01 0.58190464816E+01 0.43700188683E+01
 0.36236735996E+01 0.31423745450E+01 0.29274182367E+01 0.29272152391E+01 0.31413211638E+01
 0.36218595074E+01 0.43697779750E+01 0.58232624971E+01 0.96981436327E+01 0.16786385314E+02
 0.50038752234E+02 0.61818592260E+02 0.66273642342E+02 0.61825072493E+02 0.50047366674E+02
 0.34895948611E+02 0.20849101607E+02 0.11004434213E+02 0.60395194613E+01 0.43676750457E+01
 0.35976856388E+01 0.31556887877E+01 0.30214385716E+01 0.31553560361E+01 0.35980062791E+01
 0.43697779750E+01 0.60433109990E+01 0.11007768607E+02 0.20848769505E+02 0.34890367423E+02
 0.81512089082E+02 0.93341419882E+02 0.93339139475E+02 0.81507910845E+02 0.61825072493E+02
 0.40320622794E+02 0.22426303088E+02 0.11010166037E+02 0.58226160700E+01 0.42636767741E+01
 0.35396447870E+01 0.31982450797E+01 0.31983300419E+01 0.35403760271E+01 0.42652164428E+01
 0.58232624971E+01 0.11007768607E+02 0.22421499506E+02 0.40317270589E+02 0.61826271234E+02
 0.11408224075E+03 0.12185426193E+03 0.11405959376E+03 0.93339139475E+02 0.66273642342E+02
 0.40319466228E+02 0.20856693300E+02 0.97023136445E+01 0.52974894294E+01 0.40801362801E+01
 0.34765067047E+01 0.32867513655E+01 0.34758567509E+01 0.40804491184E+01 0.52975639116E+01
 0.96981436327E+01 0.20848769505E+02 0.40317270589E+02 0.66287572844E+02 0.93366486314E+02
 0.13893197908E+03 0.13891820451E+03 0.12185426193E+03 0.93341419882E+02 0.61818592260E+02
 0.34894901446E+02 0.16791484644E+02 0.77063515932E+01 0.47399198728E+01 0.38532917468E+01
 0.34313064496E+01 0.34302337827E+01 0.38519027505E+01 0.47400486251E+01 0.77054095994E+01
 0.16786385314E+02 0.34890367423E+02 0.61826271234E+02 0.93366486314E+02 0.12188460219E+03
 0.13893197908E+03 0.12188460219E+03 0.93366486314E+02 0.61826271234E+02 0.34890367423E+02
 0.16786385314E+02 0.77054095994E+01 0.47400486251E+01 0.38519027505E+01 0.34302337827E+01
 0.34313064496E+01 0.38532917468E+01 0.47399198728E+01 0.77063515932E+01 0.16791484644E+02
 0.34894901446E+02 0.61818592260E+02 0.93341419882E+02 0.12185426193E+03 0.13891820451E+03
 0.12188460219E+03 0.99709500399E+02 0.70789378073E+02 0.43099085603E+02 0.22308494417E+02
 0.10298375035E+02 0.54651181358E+01 0.41514446749E+01 0.35307393338E+01 0.33357514383E+01
 0.35315549249E+01 0.41508749309E+01 0.54650928329E+01 0.10304628949E+02 0.22319653451E+02
 0.43100387169E+02 0.70765344990E+02 0.99665152634E+02 0.12184847615E+03 0.13021232021E+03
 0.93366486314E+02 0.70789378073E+02 0.46199173649E+02 0.25715730353E+02 0.12493351300E+02
 0.62954114439E+01 0.44080568747E+01 0.36474907658E+01 0.32832296288E+01 0.32833317728E+01
 0.36466655598E+01 0.44061169585E+01 0.62965520789E+01 0.12501395384E+02 0.25725595050E+02
 0.46198042838E+02 0.70770554611E+02 0.93340614563E+02 0.10696329918E+03 0.10697545209E+03
 0.61826271234E+02 0.43099085603E+02 0.25715730353E+02 0.13353596058E+02 0.68651062718E+01
 0.45962734896E+01 0.37532438712E+01 0.32657534761E+01 0.31176295340E+01 0.32666548101E+01
 0.37524258747E+01 0.45929006395E+01 0.68625579462E+01 0.13356060067E+02 0.25723121602E+02
 0.43106925561E+02 0.61830646266E+02 0.76437024095E+02 0.81973884267E+02 0.76435923144E+02
 0.34890367423E+02 0.22308494417E+02 0.12493351300E+02 0.68651062718E+01 0.46724687252E+01
 0.38192093299E+01 0.32689979187E+01 0.30215811440E+01 0.30225068075E+01 0.32704888608E+01
 0.38185356389E+01 0.46680911133E+01 0.68588417586E+01 0.12489945984E+02 0.22312185686E+02
 0.34900834699E+02 0.46874777434E+02 0.54220091903E+02 0.54215140036E+02 0.46863329004E+02
 0.16786385314E+02 0.10298375035E+02 0.62954114439E+01 0.45962734896E+01 0.38192093299E+01
 0.32741925422E+01 0.29806440741E+01 0.28927626114E+01 0.29808519749E+01 0.32760011597E+01
 0.38220435887E+01 0.45964683279E+01 0.62901194757E+01 0.10289782645E+02 0.16780128449E+02
 0.24344398311E+02 0.30490826731E+02 0.32860385842E+02 0.30489152002E+02 0.24345343409E+02
 0.77054095994E+01 0.54651181358E+01 0.44080568747E+01 0.37532438712E+01 0.32689979187E+01
 0.29806440741E+01 0.28534896572E+01 0.28526167558E+01 0.29801603005E+01 0.32724347886E+01
 0.37604468161E+01 0.44141149010E+01 0.54646581694E+01 0.76974533579E+01 0.11100893348E+02
 0.14673673793E+02 0.16977721730E+02 0.16981303219E+02 0.14683153512E+02 0.11112385030E+02
 0.47400486251E+01 0.41514446749E+01 0.36474907658E+01 0.32657534761E+01 0.30215811440E+01
 0.28927626114E+01 0.28526167558E+01 0.28907574440E+01 0.30191396776E+01 0.32660263493E+01
 0.36532255920E+01 0.41614546481E+01 0.47483890823E+01 0.56680069924E+01 0.69605940587E+01
 0.81514695352E+01 0.86407005132E+01 0.81585597961E+01 0.69674180348E+01 0.56673639166E+01
 0.38519027505E+01 0.35307393338E+01 0.32832296288E+01 0.31176295340E+01 0.30225068075E+01
 0.29808519749E+01 0.29801603005E+01 0.30191396776E+01 0.31107786073E+01 0.32767948519E+01
 0.35311370668E+01 0.38608551071E+01 0.42202628129E+01 0.45561183123E+01 0.48823334239E+01
 0.51129522381E+01 0.51137243389E+01 0.48815935729E+01 0.45492574112E+01 0.42086185457E+01
 0.34302337827E+01 0.33357514383E+01 0.32833317728E+01 0.32666548101E+01 0.32704888608E+01
 0.32760011597E+01 0.32724347886E+01 0.32660263493E+01 0.32767948519E+01 0.33257118030E+01
 0.34229701513E+01 0.35634831597E+01 0.37275970123E+01 0.38841943986E+01 0.39972696699E+01
 0.40371380178E+01 0.39926286212E+01 0.38768907839E+01 0.37217871185E+01 0.35636847096E+01
 0.34313064496E+01 0.35315549249E+01 0.36466655598E+01 0.37524258747E+01 0.38185356389E+01
 0.38220435887E+01 0.37604468161E+01 0.36532255920E+01 0.35311370668E+01 0.34229701513E+01
 0.33483969929E+01 0.33161043390E+01 0.33218779762E+01 0.33475331203E+01 0.33677155751E+01
 0.33652665365E+01 0.33433235130E+01 0.33221075555E+01 0.33236968386E+01 0.33598707440E+01
 0.38532917468E+01 0.41508749309E+01 0.44061169585E+01 0.45929006395E+01 0.46680911133E+01
 0.45964683279E+01 0.44141149010E+01 0.41614546481E+01 0.38608551071E+01 0.35634831597E+01
 0.33161043390E+01 0.31429659204E+01 0.30415718539E+01 0.29930155212E+01 0.29787207944E+01
 0.29929443710E+01 0.30446268639E+01 0.31501083915E+01 0.33228282102E+01 0.35636847096E+01
 0.47399198728E+01 0.54650928329E+01 0.62965520789E+01 0.68625579462E+01 0.68588417586E+01
 0.62901194757E+01 0.54646581694E+01 0.47483890823E+01 0.42202628129E+01 0.37275970123E+01
 0.33218779762E+01 0.30415718539E+01 0.28781563088E+01 0.28057194853E+01 0.28067423843E+01
 0.28811919974E+01 0.30451154252E+01 0.33218362410E+01 0.37205676858E+01 0.42086185457E+01
 0.77063515932E+01 0.10304628949E+02 0.12501395384E+02 0.13356060067E+02 0.12489945984E+02
 0.10289782645E+02 0.76974533579E+01 0.56680069924E+01 0.45561183123E+01 0.38841943986E+01
 0.33475331203E+01 0.29930155212E+01 0.28057194853E+01 0.27494310267E+01 0.28068598529E+01
 0.29932615604E+01 0.33444021502E+01 0.38774022172E+01 0.45493614424E+01 0.56673639166E+01
 0.16791484644E+02 0.22319653451E+02 0.25725595050E+02 0.25723121602E+02 0.22312185686E+02
 0.16780128449E+02 0.11100893348E+02 0.69605940587E+01 0.48823334239E+01 0.39972696699E+01
 0.33677155751E+01 0.29787207944E+01 0.28067423843E+01 0.28068598529E+01 0.29779544201E+01
 0.33647622358E+01 0.39938421718E+01 0.48827059825E+01 0.69674544248E+01 0.11112385030E+02
 0.34894901446E+02 0.43100387169E+02 0.46198042838E+02 0.43106925561E+02 0.34900834699E+02
 0.24344398311E+02 0.14673673793E+02 0.81514695352E+01 0.51129522381E+01 0.40371380178E+01
 0.33652665365E+01 0.29929443710E+01 0.28811919974E+01 0.29932615604E+01 0.33647622358E+01
 0.40365113493E+01 0.51152680107E+01 0.81580080287E+01 0.14680461096E+02 0.24345343409E+02
 0.61818592260E+02 0.70765344990E+02 0.70770554611E+02 0.61830646266E+02 0.46874777434E+02
 0.30490826731E+02 0.16977721730E+02 0.86407005132E+01 0.51137243389E+01 0.39926286212E+01
 0.33433235130E+01 0.30446268639E+01 0.30451154252E+01 0.33444021502E+01 0.39938421718E+01
 0.51152680107E+01 0.86423506736E+01 0.16977244611E+02 0.30485015603E+02 0.46863329004E+02
 0.93341419882E+02 0.99665152634E+02 0.93340614563E+02 0.76437024095E+02 0.54220091903E+02
 0.32860385842E+02 0.16981303219E+02 0.81585597961E+01 0.48815935729E+01 0.38768907839E+01
 0.33221075555E+01 0.31501083915E+01 0.33218362410E+01 0.38774022172E+01 0.48827059825E+01
 0.81580080287E+01 0.16977244611E+02 0.32854201543E+02 0.54215445270E+02 0.76435923144E+02
 0.12185426193E+03 0.12184847615E+03 0.10696329918E+03 0.81973884267E+02 0.54215140036E+02
 0.30489152002E+02 0.14683153512E+02 0.69674180348E+01 0.45492574112E+01 0.37217871185E+01
 0.33236968386E+01 0.33228282102E+01 0.37205676858E+01 0.45493614424E+01 0.69674544248E+01
 0.14680461096E+02 0.30485015603E+02 0.54215445270E+02 0.81982419059E+02 0.10697545209E+03
 0.13891820451E+03 0.13021232021E+03 0.10697545209E+03 0.76435923144E+02 0.46863329004E+02
 0.24345343409E+02 0.11112385030E+02 0.56673639166E+01 0.42086185457E+01 0.35636847096E+01
 0.33598707440E+01 0.35636847096E+01 0.42086185457E+01 0.56673639166E+01 0.11112385030E+02
 0.24345343409E+02 0.46863329004E+02 0.76435923144E+02 0.10697545209E+03 0.13021232021E+03
 0.11408224075E+03 0.93366486314E+02 0.66287572844E+02 0.40317270589E+02 0.20848769505E+02
 0.96981436327E+01 0.52975639116E+01 0.40804491184E+01 0.34758567509E+01 0.32867513655E+01
 0.34765067047E+01 0.40801362801E+01 0.52974894294E+01 0.97023136445E+01 0.20856693300E+02
 0.40319466228E+02 0.66273642342E+02 0.93339139475E+02 0.11405959376E+03 0.12185426193E+03
 0.93366486314E+02 0.70789378073E+02 0.46199173649E+02 0.25715730353E+02 0.12493351300E+02
 0.62954114439E+01 0.44080568747E+01 0.36474907658E+01 0.32832296288E+01 0.32833317728E+01
 0.36466655598E+01 0.44061169585E+01 0.62965520789E+01 0.12501395384E+02 0.25725595050E+02
 0.46198042838E+02 0.70770554611E+02 0.93340614563E+02 0.10696329918E+03 0.10697545209E+03
 0.66287572844E+02 0.46199173649E+02 0.27558973242E+02 0.14255953413E+02 0.71926444317E+01
 0.46815256093E+01 0.38077094085E+01 0.33051333934E+01 0.31518845343E+01 0.33059669043E+01
 0.38064237379E+01 0.46780035544E+01 0.71919648319E+01 0.14262530175E+02 0.27569831865E+02
 0.46206163194E+02 0.66286714842E+02 0.81978475182E+02 0.87936282321E+02 0.81982419059E+02
 0.40317270589E+02 0.25715730353E+02 0.14255953413E+02 0.75542960823E+01 0.48611268140E+01
 0.39244868159E+01 0.33392321156E+01 0.30739518246E+01 0.30750889850E+01 0.33406483400E+01
 0.39225635237E+01 0.48552500007E+01 0.75489045194E+01 0.14257687742E+02 0.25727990906E+02
 0.40336729255E+02 0.54233320783E+02 0.62772452046E+02 0.62765226080E+02 0.54215445270E+02
 0.20848769505E+02 0.12493351300E+02 0.71926444317E+01 0.48611268140E+01 0.39679435253E+01
 0.33661549375E+01 0.30378868242E+01 0.29404132783E+01 0.30388635347E+01 0.33673868053E+01
 0.39670609557E+01 0.48557136218E+01 0.71845089969E+01 0.12489771902E+02 0.20856465399E+02
 0.30501762452E+02 0.38318430254E+02 0.41327971163E+02 0.38304396576E+02 0.30485015603E+02
 0.96981436327E+01 0.62954114439E+01 0.46815256093E+01 0.39244868159E+01 0.33661549375E+01
 0.30286919674E+01 0.28813418705E+01 0.28809190398E+01 0.30290371474E+01 0.33691952512E+01
 0.39281652586E+01 0.46810351600E+01 0.62891637467E+01 0.96904980513E+01 0.14677000703E+02
 0.19808272172E+02 0.23088573332E+02 0.23087256594E+02 0.19807121353E+02 0.14680461096E+02
 0.52975639116E+01 0.44080568747E+01 0.38077094085E+01 0.33392321156E+01 0.30378868242E+01
 0.28813418705E+01 0.28335092711E+01 0.28799406486E+01 0.30380725663E+01 0.33435210628E+01
 0.38149199569E+01 0.44136974343E+01 0.52974392212E+01 0.69610806857E+01 0.92277255468E+01
 0.11249689661E+02 0.12065550345E+02 0.11256014167E+02 0.92367117848E+01 0.69674544248E+01
 0.40804491184E+01 0.36474907658E+01 0.33051333934E+01 0.30739518246E+01 0.29404132783E+01
 0.28809190398E+01 0.28799406486E+01 0.29376252009E+01 0.30708013350E+01 0.33050479073E+01
 0.36531978633E+01 0.40900477650E+01 0.45566933266E+01 0.51420380389E+01 0.58382853197E+01
 0.63358376078E+01 0.63384657551E+01 0.58426217404E+01 0.51415612945E+01 0.45493614424E+01
 0.34758567509E+01 0.32832296288E+01 0.31518845343E+01 0.30750889850E+01 0.30388635347E+01
 0.30290371474E+01 0.30380725663E+01 0.30708013350E+01 0.31439638888E+01 0.32767626552E+01
 0.34765551368E+01 0.37283316223E+01 0.39951992200E+01 0.42300136049E+01 0.43936926380E+01
 0.44565278080E+01 0.43925385697E+01 0.42250111324E+01 0.39862365146E+01 0.37205676858E+01
 0.32867513655E+01 0.32833317728E+01 0.33059669043E+01 0.33406483400E+01 0.33673868053E+01
 0.33691952512E+01 0.33435210628E+01 0.33050479073E+01 0.32767626552E+01 0.32777720006E+01
 0.33167811838E+01 0.33910377257E+01 0.34859172436E+01 0.35755064275E+01 0.36295651231E+01
 0.36275469973E+01 0.35707236344E+01 0.34817526866E+01 0.33912913414E+01 0.33228282102E+01
 0.34765067047E+01 0.36466655598E+01 0.38064237379E+01 0.39225635237E+01 0.39670609557E+01
 0.39281652586E+01 0.38149199569E+01 0.36531978633E+01 0.34765551368E+01 0.33167811838E+01
 0.31968708652E+01 0.31261834173E+01 0.30980691601E+01 0.30935544843E+01 0.30932521141E+01
 0.30909886964E+01 0.30975716685E+01 0.31314653339E+01 0.32060318598E+01 0.33236968386E+01
 0.40801362801E+01 0.44061169585E+01 0.46780035544E+01 0.48552500007E+01 0.48557136218E+01
 0.46810351600E+01 0.44136974343E+01 0.40900477650E+01 0.37283316223E+01 0.33910377257E+01
 0.31261834173E+01 0.29495207808E+01 0.28495224531E+01 0.28058043582E+01 0.28056897150E+01
 0.28506291326E+01 0.29535049586E+01 0.31308453985E+01 0.33912913414E+01 0.37217871185E+01
 0.52974894294E+01 0.62965520789E+01 0.71919648319E+01 0.75489045194E+01 0.71845089969E+01
 0.62891637467E+01 0.52974392212E+01 0.45566933266E+01 0.39951992200E+01 0.34859172436E+01
 0.30980691601E+01 0.28495224531E+01 0.27185140033E+01 0.26788099160E+01 0.27199475152E+01
 0.28514189253E+01 0.30978835014E+01 0.34809639630E+01 0.39862365146E+01 0.45492574112E+01
 0.97023136445E+01 0.12501395384E+02 0.14262530175E+02 0.14257687742E+02 0.12489771902E+02
 0.96904980513E+01 0.69610806857E+01 0.51420380389E+01 0.42300136049E+01 0.35755064275E+01
 0.30935544843E+01 0.28058043582E+01 0.26788099160E+01 0.26792738147E+01 0.28061915656E+01
 0.30919356154E+01 0.35713425200E+01 0.42256123261E+01 0.51415612945E+01 0.69674180348E+01
 0.20856693300E+02 0.25725595050E+02 0.27569831865E+02 0.25727990906E+02 0.20856465399E+02
 0.14677000703E+02 0.92277255468E+01 0.58382853197E+01 0.43936926380E+01 0.36295651231E+01
 0.30932521141E+01 0.28056897150E+01 0.27199475152E+01 0.28061915656E+01 0.30922670171E+01
 0.36272102604E+01 0.43937735037E+01 0.58439765042E+01 0.92367117848E+01 0.14683153512E+02
 0.40319466228E+02 0.46198042838E+02 0.46206163194E+02 0.40336729255E+02 0.30501762452E+02
 0.19808272172E+02 0.11249689661E+02 0.63358376078E+01 0.44565278080E+01 0.36275469973E+01
 0.30909886964E+01 0.28506291326E+01 0.28514189253E+01 0.30919356154E+01 0.36272102604E+01
 0.44570263069E+01 0.63401659624E+01 0.11255342612E+02 0.19807121353E+02 0.30489152002E+02
 0.66273642342E+02 0.70770554611E+02 0.66286714842E+02 0.54233320783E+02 0.38318430254E+02
 0.23088573332E+02 0.12065550345E+02 0.63384657551E+01 0.43925385697E+01 0.35707236344E+01
 0.30975716685E+01 0.29535049586E+01 0.30978835014E+01 0.35713425200E+01 0.43937735037E+01
 0.63401659624E+01 0.12065463825E+02 0.23082602727E+02 0.38304396576E+02 0.54215140036E+02
 0.93339139475E+02 0.93340614563E+02 0.81978475182E+02 0.62772452046E+02 0.41327971163E+02
 0.23087256594E+02 0.11256014167E+02 0.58426217404E+01 0.42250111324E+01 0.34817526866E+01
 0.31314653339E+01 0.31308453985E+01 0.34809639630E+01 0.42256123261E+01 0.58439765042E+01
 0.11255342612E+02 0.23082602727E+02 0.41320463495E+02 0.62765226080E+02 0.81973884267E+02
 0.11405959376E+03 0.10696329918E+03 0.87936282321E+02 0.62765226080E+02 0.38304396576E+02
 0.19807121353E+02 0.92367117848E+01 0.51415612945E+01 0.39862365146E+01 0.33912913414E+01
 0.32060318598E+01 0.33912913414E+01 0.39862365146E+01 0.51415612945E+01 0.92367117848E+01
 0.19807121353E+02 0.38304396576E+02 0.62765226080E+02 0.87936282321E+02 0.10696329918E+03
 0.12185426193E+03 0.10697545209E+03 0.81982419059E+02 0.54215445270E+02 0.30485015603E+02
 0.14680461096E+02 0.69674544248E+01 0.45493614424E+01 0.37205676858E+01 0.33228282102E+01
 0.33236968386E+01 0.37217871185E+01 0.45492574112E+01 0.69674180348E+01 0.14683153512E+02
 0.30489152002E+02 0.54215140036E+02 0.81973884267E+02 0.10696329918E+03 0.12184847615E+03
 0.81512089082E+02 0.61826271234E+02 0.40317270589E+02 0.22421499506E+02 0.11007768607E+02
 0.58232624971E+01 0.42652164428E+01 0.35403760271E+01 0.31983300419E+01 0.31982450797E+01
 0.35396447870E+01 0.42636767741E+01 0.58226160700E+01 0.11010166037E+02 0.22426303088E+02
 0.40320622794E+02 0.61825072493E+02 0.81507910845E+02 0.93339139475E+02 0.93341419882E+02
 0.61826271234E+02 0.43099085603E+02 0.25715730353E+02 0.13353596058E+02 0.68651062718E+01
 0.45962734896E+01 0.37532438712E+01 0.32657534761E+01 0.31176295340E+01 0.32666548101E+01
 0.37524258747E+01 0.45929006395E+01 0.68625579462E+01 0.13356060067E+02 0.25723121602E+02
 0.43106925561E+02 0.61830646266E+02 0.76437024095E+02 0.81973884267E+02 0.76435923144E+02
 0.40317270589E+02 0.25715730353E+02 0.14255953413E+02 0.75542960823E+01 0.48611268140E+01
 0.39244868159E+01 0.33392321156E+01 0.30739518246E+01 0.30750889850E+01 0.33406483400E+01
 0.39225635237E+01 0.48552500007E+01 0.75489045194E+01 0.14257687742E+02 0.25727990906E+02
 0.40336729255E+02 0.54233320783E+02 0.62772452046E+02 0.62765226080E+02 0.54215445270E+02
 0.22421499506E+02 0.13353596058E+02 0.75542960823E+01 0.49672387755E+01 0.40192186038E+01
 0.33987875414E+01 0.30586931998E+01 0.29577993501E+01 0.30597296941E+01 0.33998704083E+01
 0.40174517003E+01 0.49600947303E+01 0.75449275204E+01 0.13351871116E+02 0.22435692594E+02
 0.32880134463E+02 0.41341303060E+02 0.44597691815E+02 0.41320463495E+02 0.32854201543E+02
 0.11007768607E+02 0.68651062718E+01 0.48611268140E+01 0.40192186038E+01 0.34215013604E+01
 0.30568274516E+01 0.28986176975E+01 0.28986181829E+01 0.30579290257E+01 0.34240097985E+01
 0.40191754193E+01 0.48541074210E+01 0.68539977553E+01 0.11002911988E+02 0.16985587344E+02
 0.23097957834E+02 0.26993341237E+02 0.26985645824E+02 0.23082602727E+02 0.16977244611E+02
 0.58232624971E+01 0.45962734896E+01 0.39244868159E+01 0.33987875414E+01 0.30568274516E+01
 0.28808410968E+01 0.28282877939E+01 0.28804317888E+01 0.30584507016E+01 0.34029972195E+01
 0.39276822558E+01 0.45942686560E+01 0.58163593133E+01 0.81508808920E+01 0.11251812608E+02
 0.13975961534E+02 0.15065209708E+02 0.13976463808E+02 0.11255342612E+02 0.81580080287E+01
 0.42652164428E+01 0.37532438712E+01 0.33392321156E+01 0.30586931998E+01 0.28986176975E+01
 0.28282877939E+01 0.28272851846E+01 0.28969751638E+01 0.30592401188E+01 0.33435165157E+01
 0.37596491464E+01 0.42696954866E+01 0.48818088150E+01 0.58378423064E+01 0.69808799752E+01
 0.77814944567E+01 0.77846996788E+01 0.69881509023E+01 0.58439765042E+01 0.48827059825E+01
 0.35403760271E+01 0.32657534761E+01 0.30739518246E+01 0.29577993501E+01 0.28986181829E+01
 0.28804317888E+01 0.28969751638E+01 0.29544308349E+01 0.30705286832E+01 0.32656591843E+01
 0.35453452654E+01 0.38847280827E+01 0.42302330554E+01 0.45410130448E+01 0.48092025924E+01
 0.49235982525E+01 0.48113505753E+01 0.45412358148E+01 0.42256123261E+01 0.38774022172E+01
 0.31983300419E+01 0.31176295340E+01 0.30750889850E+01 0.30597296941E+01 0.30579290257E+01
 0.30584507016E+01 0.30592401188E+01 0.30705286832E+01 0.31100202796E+01 0.31928464085E+01
 0.33224660475E+01 0.34864187916E+01 0.36577126337E+01 0.38011879985E+01 0.38832489476E+01
 0.38824956092E+01 0.37981303119E+01 0.36520066931E+01 0.34809639630E+01 0.33218362410E+01
 0.31982450797E+01 0.32666548101E+01 0.33406483400E+01 0.33998704083E+01 0.34240097985E+01
 0.34029972195E+01 0.33435165157E+01 0.32656591843E+01 0.31928464085E+01 0.31432510734E+01
 0.31264027662E+01 0.31419355249E+01 0.31780995257E+01 0.32136650702E+01 0.32274175680E+01
 0.32111732449E+01 0.31754632696E+01 0.31421797435E+01 0.31308453985E+01 0.31501083915E+01
 0.35396447870E+01 0.37524258747E+01 0.39225635237E+01 0.40174517003E+01 0.40191754193E+01
 0.39276822558E+01 0.37596491464E+01 0.35453452654E+01 0.33224660475E+01 0.31264027662E+01
 0.29802420905E+01 0.28892866544E+01 0.28430934707E+01 0.28249003335E+01 0.28238722825E+01
 0.28421585840E+01 0.28919600988E+01 0.29863712104E+01 0.31314653339E+01 0.33221075555E+01
 0.42636767741E+01 0.45929006395E+01 0.48552500007E+01 0.49600947303E+01 0.48541074210E+01
 0.45942686560E+01 0.42696954866E+01 0.38847280827E+01 0.34864187916E+01 0.31419355249E+01
 0.28892866544E+01 0.27302658085E+01 0.26465622533E+01 0.26205638252E+01 0.26465334480E+01
 0.27316291250E+01 0.28917180745E+01 0.31421797435E+01 0.34817526866E+01 0.38768907839E+01
 0.58226160700E+01 0.68625579462E+01 0.75489045194E+01 0.75449275204E+01 0.68539977553E+01
 0.58163593133E+01 0.48818088150E+01 0.42302330554E+01 0.36577126337E+01 0.31780995257E+01
 0.28430934707E+01 0.26465622533E+01 0.25591006548E+01 0.25594961450E+01 0.26472946831E+01
 0.28427716251E+01 0.31750679158E+01 0.36520066931E+01 0.42250111324E+01 0.48815935729E+01
 0.11010166037E+02 0.13356060067E+02 0.14257687742E+02 0.13351871116E+02 0.11002911988E+02
 0.81508808920E+01 0.58378423064E+01 0.45410130448E+01 0.38011879985E+01 0.32136650702E+01
 0.28249003335E+01 0.26205638252E+01 0.25594961450E+01 0.26213711053E+01 0.28245954798E+01
 0.32112053020E+01 0.37984112634E+01 0.45412358148E+01 0.58426217404E+01 0.81585597961E+01
 0.22426303088E+02 0.25723121602E+02 0.25727990906E+02 0.22435692594E+02 0.16985587344E+02
 0.11251812608E+02 0.69808799752E+01 0.48092025924E+01 0.38832489476E+01 0.32274175680E+01
 0.28238722825E+01 0.26465334480E+01 0.26472946831E+01 0.28245954798E+01 0.32263770304E+01
 0.38825860608E+01 0.48128476492E+01 0.69881509023E+01 0.11256014167E+02 0.16981303219E+02
 0.40320622794E+02 0.43106925561E+02 0.40336729255E+02 0.32880134463E+02 0.23097957834E+02
 0.13975961534E+02 0.77814944567E+01 0.49235982525E+01 0.38824956092E+01 0.32111732449E+01
 0.28421585840E+01 0.27316291250E+01 0.28427716251E+01 0.32112053020E+01 0.38825860608E+01
 0.49262759004E+01 0.77863017272E+01 0.13976463808E+02 0.23087256594E+02 0.32860385842E+02
 0.61825072493E+02 0.61830646266E+02 0.54233320783E+02 0.41341303060E+02 0.26993341237E+02
 0.15065209708E+02 0.77846996788E+01 0.48113505753E+01 0.37981303119E+01 0.31754632696E+01
 0.28919600988E+01 0.28917180745E+01 0.31750679158E+01 0.37984112634E+01 0.48128476492E+01
 0.77863017272E+01 0.15063730341E+02 0.26985645824E+02 0.41327971163E+02 0.54220091903E+02
 0.81507910845E+02 0.76437024095E+02 0.62772452046E+02 0.44597691815E+02 0.26985645824E+02
 0.13976463808E+02 0.69881509023E+01 0.45412358148E+01 0.36520066931E+01 0.31421797435E+01
 0.29863712104E+01 0.31421797435E+01 0.36520066931E+01 0.45412358148E+01 0.69881509023E+01
 0.13976463808E+02 0.26985645824E+02 0.44597691815E+02 0.62772452046E+02 0.76437024095E+02
 0.93339139475E+02 0.81973884267E+02 0.62765226080E+02 0.41320463495E+02 0.23082602727E+02
 0.11255342612E+02 0.58439765042E+01 0.42256123261E+01 0.34809639630E+01 0.31308453985E+01
 0.31314653339E+01 0.34817526866E+01 0.42250111324E+01 0.58426217404E+01 0.11256014167E+02
 0.23087256594E+02 0.41327971163E+02 0.62772452046E+02 0.81978475182E+02 0.93340614563E+02
 0.93341419882E+02 0.76435923144E+02 0.54215445270E+02 0.32854201543E+02 0.16977244611E+02
 0.81580080287E+01 0.48827059825E+01 0.38774022172E+01 0.33218362410E+01 0.31501083915E+01
 0.33221075555E+01 0.38768907839E+01 0.48815935729E+01 0.81585597961E+01 0.16981303219E+02
 0.32860385842E+02 0.54220091903E+02 0.76437024095E+02 0.93340614563E+02 0.99665152634E+02
 0.50038752234E+02 0.34890367423E+02 0.20848769505E+02 0.11007768607E+02 0.60433109990E+01
 0.43697779750E+01 0.35980062791E+01 0.31553560361E+01 0.30214385716E+01 0.31556887877E+01
 0.35976856388E+01 0.43676750457E+01 0.60395194613E+01 0.11004434213E+02 0.20849101607E+02
 0.34895948611E+02 0.50047366674E+02 0.61825072493E+02 0.66273642342E+02 0.61818592260E+02
 0.34890367423E+02 0.22308494417E+02 0.12493351300E+02 0.68651062718E+01 0.46724687252E+01
 0.38192093299E+01 0.32689979187E+01 0.30215811440E+01 0.30225068075E+01 0.32704888608E+01