   1   1   0   0
  0.1071875E+02  0.2474874E-09  0.2474874E-09  0.2474874E-09  0.5000000E-15
  1.000000000000000E-004
  CAR 
 fcc Ni                                  
     56.62348227     -2.13277173  301      9.58270329      1.00000000
     -2.133  0.0000E+00  0.0000E+00  0.0000E+00  0.0000E+00
     -1.937  0.0000E+00  0.0000E+00  0.0000E+00  0.0000E+00
     -1.741  0.0000E+00  0.0000E+00  0.0000E+00  0.0000E+00
     -1.545  0.0000E+00  0.0000E+00  0.0000E+00  0.0000E+00
     -1.349  0.0000E+00  0.0000E+00  0.0000E+00  0.0000E+00
     -1.154 -0.1063E-33 -0.2104E-32 -0.2083E-34 -0.4121E-33
     -0.958 -0.7966E-27 -0.1114E-25 -0.1560E-27 -0.2182E-26
     -0.762 -0.8622E-21 -0.8515E-20 -0.1689E-21 -0.1668E-20
     -0.566 -0.1302E-15 -0.9044E-15 -0.2550E-16 -0.1771E-15
     -0.370 -0.2845E-11 -0.1390E-10 -0.5571E-12 -0.2722E-11
     -0.174 -0.8633E-08 -0.2947E-07 -0.1691E-08 -0.5775E-08
      0.022 -0.3461E-05 -0.8124E-05 -0.6795E-06 -0.1597E-05
      0.217 -0.1543E-03 -0.2309E-03 -0.3090E-04 -0.4681E-04
      0.413  0.9127E-04  0.6500E-03 -0.1302E-04  0.8049E-04
      0.609  0.5614E-02  0.6859E-02  0.1087E-02  0.1424E-02
      0.805  0.1557E-01  0.1813E-01  0.4136E-02  0.4975E-02
      1.001  0.2373E-01  0.2344E-01  0.8783E-02  0.9566E-02
      1.197  0.2399E-01  0.2442E-01  0.1348E-01  0.1435E-01
      1.393  0.3003E-01  0.3157E-01  0.1936E-01  0.2053E-01
      1.588  0.4282E-01  0.4487E-01  0.2775E-01  0.2932E-01
      1.784  0.4044E-01  0.3634E-01  0.3567E-01  0.3644E-01
      1.980  0.2806E-01  0.2979E-01  0.4117E-01  0.4227E-01
      2.176  0.5202E-01  0.5502E-01  0.5136E-01  0.5305E-01
      2.372  0.7385E-01  0.7268E-01  0.6582E-01  0.6728E-01
      2.568  0.4222E-01  0.3733E-01  0.7409E-01  0.7459E-01
      2.764  0.4594E-01  0.4790E-01  0.8309E-01  0.8397E-01
      2.959  0.7968E-01  0.7840E-01  0.9869E-01  0.9933E-01
      3.155  0.7088E-01  0.6885E-01  0.1126E+00  0.1128E+00
      3.351  0.7699E-01  0.7175E-01  0.1277E+00  0.1269E+00
      3.547  0.8813E-01  0.8551E-01  0.1449E+00  0.1436E+00
      3.743  0.9729E-01  0.8728E-01  0.1640E+00  0.1607E+00
      3.939  0.8174E-01  0.7712E-01  0.1800E+00  0.1758E+00
      4.135  0.1288E+00  0.1015E+00  0.2052E+00  0.1957E+00
      4.330  0.1646E+00  0.1441E+00  0.2374E+00  0.2239E+00
      4.526  0.1509E+00  0.1252E+00  0.2670E+00  0.2484E+00
      4.722  0.2520E+00  0.1220E+00  0.3163E+00  0.2723E+00
      4.918  0.4444E+00  0.1908E+00  0.4034E+00  0.3097E+00
      5.114  0.5072E+00  0.2939E+00  0.5027E+00  0.3673E+00
      5.310  0.5927E+00  0.3740E+00  0.6188E+00  0.4405E+00
      5.506  0.7360E+00  0.4771E+00  0.7630E+00  0.5339E+00
      5.701  0.9338E+00  0.5295E+00  0.9459E+00  0.6377E+00
      5.897  0.9840E+00  0.4715E+00  0.1139E+01  0.7300E+00
      6.093  0.8772E+00  0.7007E+00  0.1310E+01  0.8672E+00
      6.289  0.8195E+00  0.8364E+00  0.1471E+01  0.1031E+01
      6.485  0.8473E+00  0.8680E+00  0.1637E+01  0.1201E+01
      6.681  0.1049E+01  0.8087E+00  0.1842E+01  0.1359E+01
      6.877  0.1191E+01  0.7866E+00  0.2076E+01  0.1513E+01
      7.072  0.1274E+01  0.7858E+00  0.2325E+01  0.1667E+01
      7.268  0.1597E+01  0.9937E+00  0.2638E+01  0.1862E+01
      7.464  0.1620E+01  0.1149E+01  0.2955E+01  0.2087E+01
      7.660  0.1147E+01  0.1210E+01  0.3180E+01  0.2324E+01
      7.856  0.9315E+00  0.1393E+01  0.3362E+01  0.2597E+01
      8.052  0.1155E+01  0.1435E+01  0.3588E+01  0.2878E+01
      8.247  0.1340E+01  0.1308E+01  0.3851E+01  0.3134E+01
      8.443  0.1365E+01  0.1021E+01  0.4118E+01  0.3334E+01
      8.639  0.1234E+01  0.1019E+01  0.4360E+01  0.3533E+01
      8.835  0.1600E+01  0.1261E+01  0.4673E+01  0.3781E+01
      9.031  0.2092E+01  0.1262E+01  0.5083E+01  0.4028E+01
      9.227  0.8470E+00  0.1107E+01  0.5249E+01  0.4244E+01
      9.423  0.2184E+00  0.1093E+01  0.5291E+01  0.4459E+01
      9.618  0.1095E+00  0.1505E+01  0.5313E+01  0.4753E+01
      9.814  0.1491E+00  0.1760E+01  0.5342E+01  0.5098E+01
     10.010  0.2211E+00  0.9177E+00  0.5385E+01  0.5278E+01
     10.206  0.1406E+00  0.2301E+00  0.5413E+01  0.5323E+01
     10.402  0.1217E+00  0.1208E+00  0.5437E+01  0.5347E+01
     10.598  0.1404E+00  0.2374E+00  0.5464E+01  0.5393E+01
     10.794  0.1526E+00  0.1773E+00  0.5494E+01  0.5428E+01
     10.989  0.1380E+00  0.1140E+00  0.5521E+01  0.5450E+01
     11.185  0.1219E+00  0.1710E+00  0.5545E+01  0.5484E+01
     11.381  0.1247E+00  0.1749E+00  0.5569E+01  0.5518E+01
     11.577  0.1802E+00  0.1578E+00  0.5605E+01  0.5549E+01
     11.773  0.1506E+00  0.1133E+00  0.5634E+01  0.5571E+01
     11.969  0.4767E-01  0.1854E+00  0.5644E+01  0.5607E+01
     12.165  0.1401E+00  0.1546E+00  0.5671E+01  0.5638E+01
     12.360  0.1013E+00  0.8317E-01  0.5691E+01  0.5654E+01
     12.556  0.1348E+00  0.1296E+00  0.5717E+01  0.5679E+01
     12.752  0.1531E+00  0.1069E+00  0.5747E+01  0.5700E+01
     12.948  0.1445E+00  0.1875E+00  0.5776E+01  0.5737E+01
     13.144  0.1252E+00  0.1309E+00  0.5800E+01  0.5763E+01
     13.340  0.2673E-01  0.1316E+00  0.5805E+01  0.5788E+01
     13.536  0.5906E-01  0.8883E-01  0.5817E+01  0.5806E+01
     13.731  0.9843E-01  0.2849E-01  0.5836E+01  0.5811E+01
     13.927  0.1464E+00  0.1014E+00  0.5865E+01  0.5831E+01
     14.123  0.1278E+00  0.1314E+00  0.5890E+01  0.5857E+01
     14.319  0.8889E-01  0.1317E+00  0.5907E+01  0.5883E+01
     14.515  0.1587E-01  0.1194E+00  0.5910E+01  0.5906E+01
     14.711  0.6590E-01  0.2021E-01  0.5923E+01  0.5910E+01
     14.907  0.6471E-01  0.4327E-01  0.5936E+01  0.5918E+01
     15.102  0.5834E-01  0.8454E-01  0.5947E+01  0.5935E+01
     15.298  0.5969E-01  0.6303E-01  0.5959E+01  0.5947E+01
     15.494  0.1183E+00  0.5466E-01  0.5982E+01  0.5958E+01
     15.690  0.1105E+00  0.7793E-01  0.6004E+01  0.5973E+01
     15.886  0.1359E+00  0.6246E-01  0.6030E+01  0.5986E+01
     16.082  0.1170E+00  0.1549E+00  0.6053E+01  0.6016E+01
     16.278  0.1806E+00  0.1225E+00  0.6089E+01  0.6040E+01
     16.473  0.2118E+00  0.1644E+00  0.6130E+01  0.6072E+01
     16.669  0.8037E-01  0.2456E+00  0.6146E+01  0.6120E+01
     16.865  0.1341E+00  0.1106E+00  0.6172E+01  0.6142E+01
     17.061  0.1187E+00  0.1220E+00  0.6195E+01  0.6166E+01
     17.257  0.1435E+00  0.1229E+00  0.6224E+01  0.6190E+01
     17.453  0.1372E+00  0.1436E+00  0.6250E+01  0.6218E+01
     17.649  0.1182E+00  0.1520E+00  0.6274E+01  0.6248E+01
     17.844  0.1395E+00  0.1244E+00  0.6301E+01  0.6272E+01
     18.040  0.7732E-01  0.1418E+00  0.6316E+01  0.6300E+01
     18.236  0.9586E-01  0.8098E-01  0.6335E+01  0.6316E+01
     18.432  0.1477E+00  0.9079E-01  0.6364E+01  0.6334E+01
     18.628  0.9361E-01  0.1410E+00  0.6382E+01  0.6361E+01
     18.824  0.1042E+00  0.1122E+00  0.6403E+01  0.6383E+01
     19.019  0.8654E-01  0.1016E+00  0.6419E+01  0.6403E+01
     19.215  0.1589E+00  0.9078E-01  0.6451E+01  0.6421E+01
     19.411  0.1915E+00  0.1569E+00  0.6488E+01  0.6452E+01
     19.607  0.1333E+00  0.1752E+00  0.6514E+01  0.6486E+01
     19.803  0.1527E+00  0.1547E+00  0.6544E+01  0.6516E+01
     19.999  0.1817E+00  0.1544E+00  0.6580E+01  0.6546E+01
     20.195  0.2032E+00  0.1824E+00  0.6619E+01  0.6582E+01
     20.390  0.1389E+00  0.2132E+00  0.6647E+01  0.6624E+01
     20.586  0.6886E-01  0.1249E+00  0.6660E+01  0.6648E+01
     20.782  0.1752E+00  0.8724E-01  0.6694E+01  0.6665E+01
     20.978  0.2591E+00  0.2039E+00  0.6745E+01  0.6705E+01
     21.174  0.1765E+00  0.2535E+00  0.6780E+01  0.6755E+01
     21.370  0.1408E+00  0.1506E+00  0.6807E+01  0.6784E+01
     21.566  0.2569E+00  0.1743E+00  0.6858E+01  0.6819E+01
     21.761  0.2089E+00  0.2633E+00  0.6899E+01  0.6870E+01
     21.957  0.1612E+00  0.2001E+00  0.6930E+01  0.6909E+01
     22.153  0.1001E+00  0.1328E+00  0.6950E+01  0.6935E+01
     22.349  0.1271E+00  0.1129E+00  0.6975E+01  0.6957E+01
     22.545  0.2282E+00  0.1696E+00  0.7019E+01  0.6991E+01
     22.741  0.2555E+00  0.2525E+00  0.7069E+01  0.7040E+01
     22.937  0.1600E+00  0.2266E+00  0.7101E+01  0.7085E+01
     23.132  0.1432E+00  0.1316E+00  0.7129E+01  0.7110E+01
     23.328  0.1670E+00  0.1670E+00  0.7161E+01  0.7143E+01
     23.524  0.2050E+00  0.1725E+00  0.7202E+01  0.7177E+01
     23.720  0.3055E+00  0.2571E+00  0.7261E+01  0.7227E+01
     23.916  0.1959E+00  0.2877E+00  0.7300E+01  0.7284E+01
     24.112  0.8318E-01  0.1348E+00  0.7316E+01  0.7310E+01
     24.308  0.1448E+00  0.8759E-01  0.7344E+01  0.7327E+01
     24.503  0.3386E+00  0.2595E+00  0.7411E+01  0.7378E+01
     24.699  0.2641E+00  0.3210E+00  0.7463E+01  0.7441E+01
     24.895  0.2521E+00  0.2547E+00  0.7512E+01  0.7491E+01
     25.091  0.1382E+00  0.2007E+00  0.7539E+01  0.7530E+01
     25.287  0.9756E-01  0.9390E-01  0.7558E+01  0.7548E+01
     25.483  0.2588E+00  0.1876E+00  0.7609E+01  0.7585E+01
     25.679  0.2486E+00  0.2791E+00  0.7657E+01  0.7640E+01
     25.874  0.2178E+00  0.2292E+00  0.7700E+01  0.7685E+01
     26.070  0.1943E+00  0.2047E+00  0.7738E+01  0.7725E+01
     26.266  0.1720E+00  0.1510E+00  0.7772E+01  0.7754E+01
     26.462  0.2035E+00  0.2206E+00  0.7812E+01  0.7798E+01
     26.658  0.1512E+00  0.1573E+00  0.7841E+01  0.7828E+01
     26.854  0.2032E+00  0.1788E+00  0.7881E+01  0.7863E+01
     27.050  0.2192E+00  0.2303E+00  0.7924E+01  0.7908E+01
     27.245  0.2459E+00  0.2380E+00  0.7972E+01  0.7955E+01
     27.441  0.2238E+00  0.2352E+00  0.8016E+01  0.8001E+01
     27.637  0.1674E+00  0.1914E+00  0.8049E+01  0.8039E+01
     27.833  0.9920E-01  0.1150E+00  0.8068E+01  0.8061E+01
     28.029  0.1648E+00  0.1242E+00  0.8101E+01  0.8085E+01
     28.225  0.2396E+00  0.2527E+00  0.8147E+01  0.8135E+01
     28.420  0.9322E-01  0.1367E+00  0.8166E+01  0.8162E+01
     28.616  0.6762E-01  0.5667E-01  0.8179E+01  0.8173E+01
     28.812  0.2124E+00  0.1622E+00  0.8221E+01  0.8205E+01
     29.008  0.2132E+00  0.2369E+00  0.8262E+01  0.8251E+01
     29.204  0.1794E+00  0.1874E+00  0.8297E+01  0.8288E+01
     29.400  0.1757E+00  0.1849E+00  0.8332E+01  0.8324E+01
     29.596  0.1465E+00  0.1501E+00  0.8361E+01  0.8353E+01
     29.791  0.1538E+00  0.1532E+00  0.8391E+01  0.8383E+01
     29.987  0.1469E+00  0.1352E+00  0.8419E+01  0.8410E+01
     30.183  0.1087E+00  0.1087E+00  0.8441E+01  0.8431E+01
     30.379  0.2070E+00  0.2031E+00  0.8481E+01  0.8471E+01
     30.575  0.2351E+00  0.2531E+00  0.8527E+01  0.8520E+01
     30.771  0.1122E+00  0.1167E+00  0.8549E+01  0.8543E+01
     30.967  0.1296E+00  0.1238E+00  0.8575E+01  0.8568E+01
     31.162  0.1857E+00  0.1703E+00  0.8611E+01  0.8601E+01
     31.358  0.2480E+00  0.2515E+00  0.8660E+01  0.8650E+01
     31.554  0.2300E+00  0.2328E+00  0.8705E+01  0.8696E+01
     31.750  0.2616E+00  0.2475E+00  0.8756E+01  0.8744E+01
     31.946  0.1836E+00  0.2248E+00  0.8792E+01  0.8788E+01
     32.142  0.3003E+00  0.2460E+00  0.8851E+01  0.8836E+01
     32.338  0.2694E+00  0.3003E+00  0.8903E+01  0.8895E+01
     32.533  0.1801E+00  0.2253E+00  0.8939E+01  0.8939E+01
     32.729  0.2011E+00  0.1689E+00  0.8978E+01  0.8972E+01
     32.925  0.3400E+00  0.3243E+00  0.9045E+01  0.9036E+01
     33.121  0.1293E+00  0.1685E+00  0.9070E+01  0.9069E+01
     33.317  0.1650E+00  0.1397E+00  0.9102E+01  0.9096E+01
     33.513  0.3145E+00  0.3098E+00  0.9164E+01  0.9157E+01
     33.709  0.3910E+00  0.3465E+00  0.9241E+01  0.9225E+01
     33.904  0.3433E+00  0.3779E+00  0.9308E+01  0.9299E+01
     34.100  0.2159E+00  0.2410E+00  0.9350E+01  0.9346E+01
     34.296  0.2288E+00  0.2148E+00  0.9395E+01  0.9388E+01
     34.492  0.2583E+00  0.2498E+00  0.9445E+01  0.9437E+01
     34.688  0.1747E+00  0.1855E+00  0.9480E+01  0.9473E+01
     34.884  0.1672E+00  0.1529E+00  0.9512E+01  0.9503E+01
     35.080  0.3490E+00  0.3163E+00  0.9581E+01  0.9565E+01
     35.275  0.3566E+00  0.3601E+00  0.9651E+01  0.9636E+01
     35.471  0.2696E+00  0.3040E+00  0.9703E+01  0.9695E+01
     35.667  0.1908E+00  0.2275E+00  0.9741E+01  0.9740E+01
     35.863  0.1501E+00  0.1444E+00  0.9770E+01  0.9768E+01
     36.059  0.2279E+00  0.2109E+00  0.9815E+01  0.9810E+01
     36.255  0.1276E+00  0.1367E+00  0.9840E+01  0.9836E+01
     36.451  0.1270E+00  0.1356E+00  0.9865E+01  0.9863E+01
     36.646  0.1517E+00  0.1252E+00  0.9894E+01  0.9887E+01
     36.842  0.2079E+00  0.1722E+00  0.9935E+01  0.9921E+01
     37.038  0.1707E+00  0.2282E+00  0.9969E+01  0.9966E+01
     37.234  0.1987E+00  0.1799E+00  0.1001E+02  0.1000E+02
     37.430  0.2532E+00  0.2107E+00  0.1006E+02  0.1004E+02
     37.626  0.1692E+00  0.2077E+00  0.1009E+02  0.1008E+02
     37.821  0.1466E+00  0.1409E+00  0.1012E+02  0.1011E+02
     38.017  0.1444E+00  0.1322E+00  0.1015E+02  0.1014E+02
     38.213  0.6438E-01  0.9597E-01  0.1016E+02  0.1016E+02
     38.409  0.5455E-01  0.7054E-01  0.1017E+02  0.1017E+02
     38.605  0.1727E+00  0.1567E+00  0.1020E+02  0.1020E+02
     38.801  0.2579E+00  0.2576E+00  0.1025E+02  0.1025E+02
     38.997  0.2278E+00  0.2211E+00  0.1030E+02  0.1029E+02
     39.192  0.1644E+00  0.1786E+00  0.1033E+02  0.1033E+02
     39.388  0.2479E+00  0.2011E+00  0.1038E+02  0.1037E+02
     39.584  0.3472E+00  0.2956E+00  0.1045E+02  0.1043E+02
     39.780  0.3462E+00  0.3751E+00  0.1052E+02  0.1050E+02
     39.976  0.2960E+00  0.3412E+00  0.1057E+02  0.1057E+02
     40.172  0.2973E+00  0.3063E+00  0.1063E+02  0.1063E+02
     40.368  0.2585E+00  0.2707E+00  0.1068E+02  0.1068E+02
     40.563  0.2308E+00  0.2469E+00  0.1073E+02  0.1073E+02
     40.759  0.3272E+00  0.2972E+00  0.1079E+02  0.1079E+02
     40.955  0.3125E+00  0.3184E+00  0.1085E+02  0.1085E+02
     41.151  0.1720E+00  0.1630E+00  0.1089E+02  0.1088E+02
     41.347  0.1589E+00  0.1789E+00  0.1092E+02  0.1091E+02
     41.543  0.2272E+00  0.2362E+00  0.1096E+02  0.1096E+02
     41.739  0.1534E+00  0.1532E+00  0.1099E+02  0.1099E+02
     41.934  0.1570E+00  0.1322E+00  0.1102E+02  0.1102E+02
     42.130  0.2199E+00  0.2369E+00  0.1107E+02  0.1106E+02
     42.326  0.1991E+00  0.2187E+00  0.1111E+02  0.1111E+02
     42.522  0.2240E+00  0.2043E+00  0.1115E+02  0.1115E+02
     42.718  0.1896E+00  0.2020E+00  0.1119E+02  0.1119E+02
     42.914  0.2009E+00  0.2056E+00  0.1123E+02  0.1123E+02
     43.110  0.1783E+00  0.1663E+00  0.1126E+02  0.1126E+02
     43.305  0.1354E+00  0.1186E+00  0.1129E+02  0.1128E+02
     43.501  0.1997E+00  0.2280E+00  0.1133E+02  0.1133E+02
     43.697  0.1932E+00  0.1894E+00  0.1136E+02  0.1136E+02
     43.893  0.1017E+00  0.9934E-01  0.1138E+02  0.1138E+02
     44.089  0.1084E+00  0.7419E-01  0.1141E+02  0.1140E+02
     44.285  0.1587E+00  0.1782E+00  0.1144E+02  0.1143E+02
     44.481  0.1076E+00  0.1173E+00  0.1146E+02  0.1146E+02
     44.676  0.1767E+00  0.1804E+00  0.1149E+02  0.1149E+02
     44.872  0.3229E+00  0.3197E+00  0.1156E+02  0.1155E+02
     45.068  0.2146E+00  0.2371E+00  0.1160E+02  0.1160E+02
     45.264  0.1068E+00  0.1040E+00  0.1162E+02  0.1162E+02
     45.460  0.1210E+00  0.6581E-01  0.1164E+02  0.1163E+02
     45.656  0.1545E+00  0.1680E+00  0.1167E+02  0.1167E+02
     45.852  0.1023E+00  0.1568E+00  0.1169E+02  0.1170E+02
     46.047  0.6338E-01  0.4609E-01  0.1170E+02  0.1171E+02
     46.243  0.1243E+00  0.1173E+00  0.1173E+02  0.1173E+02
     46.439  0.2318E+00  0.2354E+00  0.1177E+02  0.1178E+02
     46.635  0.5159E-01  0.5086E-01  0.1178E+02  0.1178E+02
     46.831  0.1072E-01  0.4922E-02  0.1179E+02  0.1179E+02
     47.027  0.9286E-01  0.1078E+00  0.1180E+02  0.1181E+02
     47.222  0.8655E-01  0.8617E-01  0.1182E+02  0.1182E+02
     47.418  0.2932E-01  0.2281E-01  0.1183E+02  0.1183E+02
     47.614  0.6885E-01  0.7291E-01  0.1184E+02  0.1184E+02
     47.810  0.1024E+00  0.8312E-01  0.1186E+02  0.1186E+02
     48.006  0.6195E-01  0.8055E-01  0.1187E+02  0.1187E+02
     48.202  0.5883E-01  0.5578E-01  0.1188E+02  0.1189E+02
     48.398  0.1463E-01  0.1903E-01  0.1189E+02  0.1189E+02
     48.593  0.7101E-01  0.8076E-01  0.1190E+02  0.1191E+02
     48.789  0.7148E-01  0.5653E-01  0.1192E+02  0.1192E+02
     48.985  0.3027E-02 -0.6050E-03  0.1192E+02  0.1192E+02
     49.181  0.8911E-02  0.1647E-01  0.1192E+02  0.1192E+02
     49.377  0.3287E-01  0.2877E-01  0.1192E+02  0.1193E+02
     49.573  0.4556E-01  0.4761E-01  0.1193E+02  0.1193E+02
     49.769  0.3548E-01  0.3071E-01  0.1194E+02  0.1194E+02
     49.964 -0.1093E-03 -0.1239E-02  0.1194E+02  0.1194E+02
     50.160 -0.9563E-03 -0.8255E-03  0.1194E+02  0.1194E+02
     50.356 -0.7011E-03 -0.3349E-03  0.1194E+02  0.1194E+02
     50.552  0.1386E-01  0.1570E-01  0.1194E+02  0.1194E+02
     50.748  0.1674E-01  0.1639E-01  0.1195E+02  0.1195E+02
     50.944  0.3174E-01  0.3644E-01  0.1195E+02  0.1195E+02
     51.140  0.3138E-01  0.2715E-01  0.1196E+02  0.1196E+02
     51.335  0.3174E-01  0.3586E-01  0.1196E+02  0.1197E+02
     51.531  0.2786E-01  0.2189E-01  0.1197E+02  0.1197E+02
     51.727  0.1091E-01  0.1834E-01  0.1197E+02  0.1197E+02
     51.923  0.4402E-01  0.4123E-01  0.1198E+02  0.1198E+02
     52.119  0.8783E-02  0.3198E-02  0.1198E+02  0.1198E+02
     52.315 -0.1906E-02 -0.1512E-02  0.1198E+02  0.1198E+02
     52.511 -0.3566E-03  0.3287E-03  0.1198E+02  0.1198E+02
     52.706  0.1666E-01  0.1870E-01  0.1199E+02  0.1199E+02
     52.902  0.1536E-01  0.1299E-01  0.1199E+02  0.1199E+02
     53.098 -0.6212E-03 -0.9395E-03  0.1199E+02  0.1199E+02
     53.294 -0.1214E-02 -0.1155E-02  0.1199E+02  0.1199E+02
     53.490  0.7833E-02  0.9574E-02  0.1199E+02  0.1199E+02
     53.686  0.2077E-01  0.1993E-01  0.1199E+02  0.1199E+02
     53.882  0.1047E-01  0.1175E-01  0.1200E+02  0.1200E+02
     54.077  0.2112E-01  0.2014E-01  0.1200E+02  0.1200E+02
     54.273  0.2820E-02  0.1517E-02  0.1200E+02  0.1200E+02
     54.469 -0.6788E-03 -0.5475E-03  0.1200E+02  0.1200E+02
     54.665 -0.2435E-04 -0.1498E-04  0.1200E+02  0.1200E+02
     54.861 -0.8841E-07 -0.4377E-07  0.1200E+02  0.1200E+02
     55.057 -0.4169E-10 -0.1677E-10  0.1200E+02  0.1200E+02
     55.253 -0.2714E-14 -0.8911E-15  0.1200E+02  0.1200E+02
     55.448  0.0000E+00  0.0000E+00  0.1200E+02  0.1200E+02
     55.644  0.0000E+00  0.0000E+00  0.1200E+02  0.1200E+02
     55.840  0.0000E+00  0.0000E+00  0.1200E+02  0.1200E+02
     56.036  0.0000E+00  0.0000E+00  0.1200E+02  0.1200E+02
     56.232  0.0000E+00  0.0000E+00  0.1200E+02  0.1200E+02
     56.428  0.0000E+00  0.0000E+00  0.1200E+02  0.1200E+02
     56.623  0.0000E+00  0.0000E+00  0.1200E+02  0.1200E+02
