    1    1    1    2
  0.1071875E+02  0.2474874E-09  0.2474874E-09  0.2474874E-09  0.5000000E-15
  1.000000000000000E-004
  CAR 
 fcc Ni                                  
     10    110     12
 
  0.5000000E-01  0.5000000E-01  0.5000000E-01  0.2000000E-02
    1        0.573141      0.537967   1.000000   1.000000
    2        7.096128      7.817660   1.000000   1.000000
    3        7.144282      7.870047   1.000000   1.000000
    4        7.144282      7.870047   1.000000   1.000000
    5        8.293680      8.915919   1.000000   1.000013
    6        8.293680      8.915919   1.000000   1.000013
    7       33.193409     33.063611   0.000000   0.000000
    8       36.064729     36.052022   0.000000   0.000000
    9       37.199692     37.195873   0.000000   0.000000
   10       37.199692     37.195873   0.000000   0.000000
   11       40.918482     40.976323   0.000000   0.000000
   12       40.918484     40.976327   0.000000   0.000000
 
  0.1500000E+00  0.5000000E-01  0.5000000E-01  0.6000000E-02
    1        1.092086      1.058133   1.000000   1.000000
    2        6.961999      7.667108   1.000000   1.000000
    3        7.247354      7.977637   1.000000   1.000000
    4        7.263700      7.987651   1.000000   1.000000
    5        8.193212      8.809319   1.000000   1.000000
    6        8.323744      8.950463   1.000000   1.000037
    7       31.035397     31.046412   0.000000   0.000000
    8       33.396289     33.382812   0.000000   0.000000
    9       36.064559     36.028964   0.000000   0.000000
   10       37.903931     37.903603   0.000000   0.000000
   11       40.575211     40.539991   0.000000   0.000000
   12       41.120330     41.165130   0.000000   0.000000
 
  0.2500000E+00  0.5000000E-01  0.5000000E-01  0.6000000E-02
    1        2.299725      2.279103   1.000000   1.000000
    2        6.772069      7.429109   1.000000   1.000000
    3        7.357543      8.050912   1.000000   1.000000
    4        7.386984      8.093775   1.000000   1.000000
    5        8.181342      8.823678   1.000000   1.000001
    6        8.445247      9.104845   1.000000   1.001872
    7       25.961941     26.066580   0.000000   0.000000
    8       32.298322     32.292427   0.000000   0.000000
    9       35.468018     35.432599   0.000000   0.000000
   10       37.342546     37.402350   0.000000   0.000000
   11       40.200311     40.163110   0.000000   0.000000
   12       40.578654     40.607910   0.000000   0.000000
 
  0.3500000E+00  0.5000000E-01  0.5000000E-01  0.6000000E-02
    1        3.793494      3.872528   1.000000   1.000000
    2        6.930447      7.438792   1.000000   1.000000
    3        7.273522      7.922039   1.000000   1.000000
    4        7.325186      7.977569   1.000000   1.000000
    5        8.469000      9.174653   1.000000   1.007004
    6        8.785501      9.485676   1.000000   0.861825
    7       21.050959     21.232615   0.000000   0.000000
    8       31.649741     31.630482   0.000000   0.000000
    9       34.338798     34.322816   0.000000   0.000000
   10       36.548190     36.654984   0.000000   0.000000
   11       38.328071     38.346269   0.000000   0.000000
   12       40.076926     40.082785   0.000000   0.000000
 
  0.4500000E+00  0.5000000E-01  0.5000000E-01  0.6000000E-02
    1        4.610169      4.948299   1.000000   1.000000
    2        7.140125      7.757217   1.000000   1.000000
    3        7.202845      7.831585   1.000000   1.000000
    4        7.999386      8.262083   1.000000   1.000000
    5        8.822834      9.564699   1.000001   0.575840
    6        9.326939      9.940261   1.035040  -0.014905
    7       16.984359     17.284139   0.000000   0.000000
    8       31.390682     31.323107   0.000000   0.000000
    9       33.594948     33.620386   0.000000   0.000000
   10       34.965465     35.055791   0.000000   0.000000
   11       37.845797     37.883435   0.000000   0.000000
   12       39.238152     39.260981   0.000000   0.000000
 
 -0.4500000E+00  0.5000000E-01  0.5000000E-01  0.6000000E-02
    1        4.727522      5.144731   1.000000   1.000000
    2        7.091728      7.700919   1.000000   1.000000
    3        7.172164      7.797629   1.000000   1.000000
    4        8.426750      8.768984   1.000000   1.000000
    5        8.989275      9.741474   1.000112   0.011542
    6        9.852247     10.219527  -0.033498  -0.000032
    7       15.456430     15.851991   0.000000   0.000000
    8       31.493418     31.382111   0.000000   0.000000
    9       33.694165     33.774687   0.000000   0.000000
   10       33.787530     33.860181   0.000000   0.000000
   11       38.473430     38.514194   0.000000   0.000000
   12       38.559251     38.580747   0.000000   0.000000
 
 -0.3500000E+00  0.5000000E-01  0.5000000E-01  0.6000000E-02
    1        4.449225      4.705435   1.000000   1.000000
    2        7.167295      7.761607   1.000000   1.000000
    3        7.249348      7.888764   1.000000   1.000000
    4        7.560492      7.912076   1.000000   1.000000
    5        8.877744      9.613298   1.000004   0.372206
    6        8.969095      9.633959   1.000064   0.290817
    7       18.193336     18.445661   0.000000   0.000000
    8       31.970950     31.855287   0.000000   0.000000
    9       33.195850     33.279288   0.000000   0.000000
   10       34.975220     35.073763   0.000000   0.000000
   11       38.379752     38.388738   0.000000   0.000000
   12       39.753626     39.786149   0.000000   0.000000
 
 -0.2500000E+00  0.5000000E-01  0.5000000E-01  0.6000000E-02
    1        3.316191      3.341389   1.000000   1.000000
    2        6.784494      7.364285   1.000000   1.000000
    3        7.316690      7.973708   1.000000   1.000000
    4        7.364804      8.037418   1.000000   1.000000
    5        8.419135      9.103140   1.000000   1.001806
    6        8.591022      9.284199   1.000000   1.027984
    7       22.624337     22.777950   0.000000   0.000000
    8       32.751728     32.654016   0.000000   0.000000
    9       33.412789     33.496929   0.000000   0.000000
   10       36.802536     36.898515   0.000000   0.000000
   11       38.736151     38.719447   0.000000   0.000000
   12       41.667791     41.680118   0.000000   0.000000
 
 -0.1500000E+00  0.5000000E-01  0.5000000E-01  0.6000000E-02
    1        1.834460      1.806033   1.000000   1.000000
    2        6.813800      7.492506   1.000000   1.000000
    3        7.352486      8.065990   1.000000   1.000000
    4        7.362257      8.078448   1.000000   1.000000
    5        8.159410      8.788543   1.000000   1.000000
    6        8.374430      9.015274   1.000000   1.000225
    7       27.668847     27.749579   0.000000   0.000000
    8       33.567414     33.480231   0.000000   0.000000
    9       34.225161     34.295622   0.000000   0.000000
   10       37.967180     37.960429   0.000000   0.000000
   11       39.449403     39.464747   0.000000   0.000000
   12       43.299033     43.312047   0.000000   0.000000
 
 -0.5000000E-01  0.5000000E-01  0.5000000E-01  0.6000000E-02
    1        0.834847      0.800069   1.000000   1.000000
    2        7.010072      7.723807   1.000000   1.000000
    3        7.211384      7.938968   1.000000   1.000000
    4        7.215002      7.942394   1.000000   1.000000
    5        8.210384      8.827301   1.000000   1.000001
    6        8.330756      8.954987   1.000000   1.000042
    7       32.403155     32.343319   0.000000   0.000000
    8       34.730338     34.699008   0.000000   0.000000
    9       35.548429     35.590180   0.000000   0.000000
   10       37.130149     37.102276   0.000000   0.000000
   11       40.984546     41.023248   0.000000   0.000000
   12       42.494723     42.488866   0.000000   0.000000
 
  0.1500000E+00  0.1500000E+00  0.5000000E-01  0.6000000E-02
    1        1.346609      1.313288   1.000000   1.000000
    2        6.837531      7.537092   1.000000   1.000000
    3        7.350754      8.080599   1.000000   1.000000
    4        7.354883      8.085598   1.000000   1.000000
    5        8.063764      8.670723   1.000000   1.000000
    6        8.401682      9.029839   1.000000   1.000328
    7       31.226081     31.237609   0.000000   0.000000
    8       33.417104     33.379646   0.000000   0.000000
    9       33.634774     33.699675   0.000000   0.000000
   10       35.791468     35.753911   0.000000   0.000000
   11       41.432187     41.579333   0.000000   0.000000
   12       42.924172     42.971468   0.000000   0.000000
 
  0.2500000E+00  0.1500000E+00  0.5000000E-01  0.1200000E-01
    1        2.312901      2.288008   1.000000   1.000000
    2        6.608641      7.282780   1.000000   1.000000
    3        7.434661      8.114705   1.000000   1.000000
    4        7.553714      8.287059   1.000000   1.000000
    5        8.005264      8.632666   1.000000   1.000000
    6        8.533576      9.184489   1.000000   1.008228
    7       28.035048     28.115274   0.000000   0.000000
    8       30.263572     30.308240   0.000000   0.000000
    9       34.056622     34.038277   0.000000   0.000000
   10       35.496024     35.478546   0.000000   0.000000
   11       39.547310     39.734374   0.000000   0.000000
   12       42.989875     42.954089   0.000000   0.000000
 
  0.3500000E+00  0.1500000E+00  0.5000000E-01  0.1200000E-01
    1        3.734233      3.766658   1.000000   1.000000
    2        6.505121      7.113322   1.000000   1.000000
    3        7.227923      7.851959   1.000000   1.000000
    4        7.584908      8.264055   1.000000   1.000000
    5        8.415008      9.092010   1.000000   1.001422
    6        8.892254      9.579791   1.000006   0.512323
    7       22.998627     23.141879   0.000000   0.000000
    8       29.448675     29.497721   0.000000   0.000000
    9       32.522216     32.520413   0.000000   0.000000
   10       34.919658     34.988959   0.000000   0.000000
   11       41.171947     41.231520   0.000000   0.000000
   12       41.569266     41.541122   0.000000   0.000000
 
  0.4500000E+00  0.1500000E+00  0.5000000E-01  0.1200000E-01
    1        4.797475      5.069190   1.000000   1.000000
    2        6.857240      7.291329   1.000000   1.000000
    3        7.087609      7.697139   1.000000   1.000000
    4        7.476315      8.118448   1.000000   1.000000
    5        8.861257      9.589740   1.000002   0.470244
    6        9.805237     10.367584  -0.033215  -0.000000
    7       18.512023     18.741977   0.000000   0.000000
    8       29.199058     29.224695   0.000000   0.000000
    9       30.860127     30.916884   0.000000   0.000000
   10       34.021741     34.063128   0.000000   0.000000
   11       40.436754     40.446029   0.000000   0.000000
   12       42.821112     42.809305   0.000000   0.000000
 
 -0.4500000E+00  0.1500000E+00  0.5000000E-01  0.1200000E-01
    1        5.043764      5.482636   1.000000   1.000000
    2        6.844949      7.357060   1.000000   1.000000
    3        7.387451      8.013751   1.000000   1.000000
    4        7.578566      8.061703   1.000000   1.000000
    5        8.958907      9.714524   1.000047   0.055223
    6       11.244556     11.551453  -0.000000  -0.000000
    7       15.581407     15.949759   0.000000   0.000000
    8       28.798029     28.814122   0.000000   0.000000
    9       30.418538     30.501739   0.000000   0.000000
   10       33.851520     33.859117   0.000000   0.000000
   11       39.735958     39.767611   0.000000   0.000000
   12       42.447171     42.436752   0.000000   0.000000
 
 -0.3500000E+00  0.1500000E+00  0.5000000E-01  0.1200000E-01
    1        4.952181      5.308579   1.000000   1.000000
    2        6.922458      7.426212   1.000000   1.000000
    3        7.285975      7.784453   1.000000   1.000000
    4        7.430824      8.050823   1.000000   1.000000
    5        8.766985      9.508907   1.000000   0.789939
    6       10.397384     10.886994  -0.000000  -0.000000
    7       17.266746     17.540546   0.000000   0.000000
    8       28.126417     28.174515   0.000000   0.000000
    9       31.575770     31.619361   0.000000   0.000000
   10       34.598480     34.611311   0.000000   0.000000
   11       39.366565     39.400673   0.000000   0.000000
   12       42.156343     42.145196   0.000000   0.000000
 
 -0.2500000E+00  0.1500000E+00  0.5000000E-01  0.1200000E-01
    1        4.201329      4.287278   1.000000   1.000000
    2        6.635418      7.197249   1.000000   1.000000
    3        7.138750      7.755555   1.000000   1.000000
    4        7.538812      8.189752   1.000000   1.000000
    5        8.344897      9.048873   1.000000   1.000526
    6        9.283019      9.954967   1.027722  -0.012188
    7       21.428309     21.598086   0.000000   0.000000
    8       28.026609     28.089768   0.000000   0.000000
    9       33.414584     33.417118   0.000000   0.000000
   10       36.206354     36.250169   0.000000   0.000000
   11       39.341559     39.348405   0.000000   0.000000
   12       41.423935     41.419556   0.000000   0.000000
 
 -0.1500000E+00  0.1500000E+00  0.5000000E-01  0.1200000E-01
    1        2.763440      2.747649   1.000000   1.000000
    2        6.603047      7.263721   1.000000   1.000000
    3        7.346654      8.005653   1.000000   1.000000
    4        7.583287      8.310958   1.000000   1.000000
    5        8.003114      8.626684   1.000000   1.000000
    6        8.694489      9.369674   1.000000   1.030634
    7       26.318847     26.422265   0.000000   0.000000
    8       28.598758     28.658847   0.000000   0.000000
    9       35.604664     35.575704   0.000000   0.000000
   10       37.077344     37.052325   0.000000   0.000000
   11       40.188103     40.227799   0.000000   0.000000
   12       40.677693     40.742899   0.000000   0.000000
 
 -0.5000000E-01  0.1500000E+00  0.5000000E-01  0.1200000E-01
    1        1.594568      1.563048   1.000000   1.000000
    2        6.819935      7.511436   1.000000   1.000000
    3        7.353481      8.068186   1.000000   1.000000
    4        7.366692      8.099366   1.000000   1.000000
    5        8.086391      8.698557   1.000000   1.000000
    6        8.403241      9.039742   1.000000   1.000421
    7       29.506501     29.560049   0.000000   0.000000
    8       31.805673     31.823615   0.000000   0.000000
    9       35.379048     35.349962   0.000000   0.000000
   10       37.488044     37.442012   0.000000   0.000000
   11       40.306647     40.358636   0.000000   0.000000
   12       42.338414     42.336849   0.000000   0.000000
 
  0.2500000E+00  0.2500000E+00  0.5000000E-01  0.6000000E-02
    1        2.971669      2.958867   1.000000   1.000000
    2        6.332947      6.993468   1.000000   1.000000
    3        7.589113      8.186137   1.000000   1.000000
    4        7.810885      8.554137   1.000000   1.000000
    5        7.976453      8.677458   1.000000   1.000000
    6        8.617633      9.259527   1.000000   1.022333
    7       28.493390     28.567274   0.000000   0.000000
    8       29.970136     30.043733   0.000000   0.000000
    9       31.066733     31.049810   0.000000   0.000000
   10       32.143500     32.170439   0.000000   0.000000
   11       36.624800     36.815664   0.000000   0.000000
   12       46.967778     46.898025   0.000000   0.000000
 
  0.3500000E+00  0.2500000E+00  0.5000000E-01  0.1200000E-01
    1        4.072016      4.116665   1.000000   1.000000
    2        6.103208      6.738566   1.000000   1.000000
    3        7.361441      7.932534   1.000000   1.000000
    4        8.063213      8.786349   1.000000   1.000000
    5        8.450238      9.109743   1.000000   1.002074
    6        8.911993      9.592078   1.000011   0.460382
    7       25.393752     25.494672   0.000000   0.000000
    8       27.415453     27.480714   0.000000   0.000000
    9       29.252392     29.310098   0.000000   0.000000
   10       32.744014     32.787003   0.000000   0.000000
   11       36.741320     36.871905   0.000000   0.000000
   12       46.461754     46.419317   0.000000   0.000000
 
  0.4500000E+00  0.2500000E+00  0.5000000E-01  0.1200000E-01
    1        5.084326      5.307120   1.000000   1.000000
    2        6.099427      6.659969   1.000000   1.000000
    3        7.095270      7.666144   1.000000   1.000000
    4        7.996894      8.665589   1.000000   1.000000
    5        8.918016      9.646658   1.000014   0.244115
    6       10.153367     10.683564  -0.000207  -0.000000
    7       20.716880     20.873709   0.000000   0.000000
    8       26.537654     26.604413   0.000000   0.000000
    9       27.442883     27.529624   0.000000   0.000000
   10       32.859356     32.910794   0.000000   0.000000
   11       40.132569     40.206287   0.000000   0.000000
   12       44.916654     44.909821   0.000000   0.000000
 
 -0.4500000E+00  0.2500000E+00  0.5000000E-01  0.1200000E-01
    1        5.502263      5.959766   1.000000   1.000000
    2        6.286896      6.713619   1.000000   1.000000
    3        7.051157      7.638805   1.000000   1.000000
    4        7.869062      8.508582   1.000000   1.000000
    5        8.975914      9.740818   1.000077   0.012403
    6       12.428454     12.750622  -0.000000  -0.000000
    7       16.785349     17.038687   0.000000   0.000000
    8       24.893395     24.989578   0.000000   0.000000
    9       27.788747     27.863849   0.000000   0.000000
   10       32.990537     33.022691   0.000000   0.000000
   11       42.845585     42.845198   0.000000   0.000000
   12       45.561219     45.621016   0.000000   0.000000
 
 -0.3500000E+00  0.2500000E+00  0.5000000E-01  0.1200000E-01
    1        5.616544      6.073901   1.000000   1.000000
    2        6.438715      6.867537   1.000000   1.000000
    3        6.929580      7.505318   1.000000   1.000000
    4        7.808374      8.429708   1.000000   1.000000
    5        8.730253      9.498710   1.000000   0.823031
    6       12.567489     12.901919  -0.000000  -0.000000
    7       16.799044     17.064137   0.000000   0.000000
    8       23.726836     23.836158   0.000000   0.000000
    9       29.126673     29.198226   0.000000   0.000000
   10       33.712444     33.727822   0.000000   0.000000
   11       42.027143     42.019848   0.000000   0.000000
   12       45.882385     45.849605   0.000000   0.000000
 
 -0.2500000E+00  0.2500000E+00  0.5000000E-01  0.1200000E-01
    1        5.298440      5.498494   1.000000   1.000000
    2        6.472584      7.055776   1.000000   1.000000
    3        6.758566      7.316237   1.000000   1.000000
    4        7.870669      8.471657   1.000000   1.000000
    5        8.287769      9.052945   1.000000   1.000581
    6       10.592451     11.149954  -0.000000  -0.000000
    7       20.717281     20.894791   0.000000   0.000000
    8       23.338101     23.451134   0.000000   0.000000
    9       31.109694     31.165905   0.000000   0.000000
   10       35.228445     35.245296   0.000000   0.000000
   11       40.705378     40.665774   0.000000   0.000000
   12       44.717889     44.710085   0.000000   0.000000
 
 -0.1500000E+00  0.2500000E+00  0.5000000E-01  0.1200000E-01
    1        4.134839      4.177861   1.000000   1.000000
    2        6.459914      7.085593   1.000000   1.000000
    3        7.117348      7.722109   1.000000   1.000000
    4        7.775825      8.422729   1.000000   1.000000
    5        8.051714      8.758426   1.000000   1.000000
    6        9.364694     10.037578   1.032125  -0.002988
    7       23.375041     23.516470   0.000000   0.000000
    8       25.736088     25.825756   0.000000   0.000000
    9       33.474992     33.495991   0.000000   0.000000
   10       37.203137     37.229354   0.000000   0.000000
   11       38.882503     38.845285   0.000000   0.000000
   12       42.542648     42.583039   0.000000   0.000000
 
 -0.5000000E-01  0.2500000E+00  0.5000000E-01  0.1200000E-01
    1        2.955792      2.952167   1.000000   1.000000
    2        6.664856      7.298486   1.000000   1.000000
    3        7.339634      7.999822   1.000000   1.000000
    4        7.459194      8.149201   1.000000   1.000000
    5        8.205137      8.869314   1.000000   1.000003
    6        8.638876      9.318323   1.000000   1.034188
    7       24.397188     24.523347   0.000000   0.000000
    8       30.838928     30.867074   0.000000   0.000000
    9       34.427804     34.400069   0.000000   0.000000
   10       37.305915     37.373293   0.000000   0.000000
   11       39.297745     39.285949   0.000000   0.000000
   12       41.121433     41.137769   0.000000   0.000000
 
  0.3500000E+00  0.3500000E+00  0.5000000E-01  0.6000000E-02
    1        4.559662      4.704673   1.000000   1.000000
    2        5.799356      6.421748   1.000000   1.000000
    3        7.967325      8.429730   1.000000   1.000000
    4        8.404538      9.159105   1.000000   1.005361
    5        8.773123      9.428350   1.000000   0.982468
    6        8.856216      9.527126   1.000002   0.725400
    7       25.686217     25.758374   0.000000   0.000000
    8       26.227319     26.314322   0.000000   0.000000
    9       26.989325     27.041549   0.000000   0.000000
   10       30.636129     30.723133   0.000000   0.000000
   11       34.389501     34.526207   0.000000   0.000000
   12       51.295889     51.270461   0.000000   0.000000
 
  0.4500000E+00  0.3500000E+00  0.5000000E-01  0.1200000E-01
    1        5.000527      5.277140   1.000000   1.000000
    2        5.660973      6.265565   1.000000   1.000000
    3        7.919398      8.474545   1.000000   1.000000
    4        8.623977      9.322073   1.000000   1.034608
    5        8.929815      9.658330   1.000020   0.203951
    6       10.313188     10.743587  -0.000002  -0.000000
    7       23.142687     23.248966   0.000000   0.000000
    8       23.671038     23.785573   0.000000   0.000000
    9       25.404855     25.462996   0.000000   0.000000
   10       31.641629     31.716671   0.000000   0.000000
   11       35.462318     35.576188   0.000000   0.000000
   12       49.591875     49.569786   0.000000   0.000000
 
 -0.4500000E+00  0.3500000E+00  0.5000000E-01  0.1200000E-01
    1        5.380790      5.764917   1.000000   1.000000
    2        5.755435      6.317096   1.000000   1.000000
    3        7.549165      8.131250   1.000000   1.000000
    4        8.455457      9.104289   1.000000   1.001850
    5        9.021168      9.808807   1.000263  -0.033908
    6       12.902351     13.184494  -0.000000  -0.000000
    7       19.218261     19.363119   0.000000   0.000000
    8       21.507074     21.666943   0.000000   0.000000
    9       25.691677     25.750557   0.000000   0.000000
   10       32.165630     32.232433   0.000000   0.000000
   11       39.441116     39.523333   0.000000   0.000000
   12       47.681777     47.659071   0.000000   0.000000
 
 -0.3500000E+00  0.3500000E+00  0.5000000E-01  0.1200000E-01
    1        5.769324      6.255529   1.000000   1.000000
    2        5.982930      6.444375   1.000000   1.000000
    3        7.070780      7.659403   1.000000   1.000000
    4        8.264216      8.874367   1.000000   1.000003
    5        8.813555      9.619608   1.000000   0.346753
    6       15.316370     15.534423   0.000000   0.000000
    7       16.343755     16.562751   0.000000   0.000000
    8       20.377029     20.552524   0.000000   0.000000
    9       26.945978     27.015947   0.000000   0.000000
   10       32.702989     32.748064   0.000000   0.000000
   11       44.552045     44.610227   0.000000   0.000000
   12       45.781030     45.750837   0.000000   0.000000
 
 -0.2500000E+00  0.3500000E+00  0.5000000E-01  0.1200000E-01
    1        5.860843      6.275365   1.000000   1.000000
    2        6.332778      6.790650   1.000000   1.000000
    3        6.677022      7.267464   1.000000   1.000000
    4        8.010690      8.610795   1.000000   1.000000
    5        8.566642      9.356688   1.000000   1.033892
    6       12.639124     13.005485  -0.000000  -0.000000
    7       18.353951     18.558961   0.000000   0.000000
    8       21.543634     21.683662   0.000000   0.000000
    9       28.905312     28.978497   0.000000   0.000000
   10       33.705256     33.726914   0.000000   0.000000
   11       43.027402     42.988602   0.000000   0.000000
   12       47.043563     46.997119   0.000000   0.000000
 
 -0.1500000E+00  0.3500000E+00  0.5000000E-01  0.1200000E-01
    1        5.139350      5.422418   1.000000   1.000000
    2        6.757832      7.200826   1.000000   1.000000
    3        6.855269      7.473289   1.000000   1.000000
    4        7.637436      8.262768   1.000000   1.000000
    5        8.533356      9.275350   1.000000   1.025987
    6       10.535343     11.071185  -0.000000  -0.000000
    7       18.874785     19.090122   0.000000   0.000000
    8       25.630659     25.718023   0.000000   0.000000
    9       31.260478     31.310817   0.000000   0.000000
   10       35.002647     35.013419   0.000000   0.000000
   11       40.092738     40.097426   0.000000   0.000000
   12       43.515072     43.497065   0.000000   0.000000
 
 -0.5000000E-01  0.3500000E+00  0.5000000E-01  0.1200000E-01
    1        4.312667      4.476747   1.000000   1.000000
    2        7.009111      7.452936   1.000000   1.000000
    3        7.164525      7.798844   1.000000   1.000000
    4        7.360898      8.005955   1.000000   1.000000
    5        8.634373      9.344972   1.000000   1.035247
    6        9.127763      9.802104   1.002984  -0.032486
    7       19.683206     19.891143   0.000000   0.000000
    8       30.407859     30.420306   0.000000   0.000000
    9       33.195394     33.185983   0.000000   0.000000
   10       35.333328     35.420880   0.000000   0.000000
   11       39.060700     39.070769   0.000000   0.000000
   12       40.845846     40.853540   0.000000   0.000000
 
  0.4500000E+00  0.4500000E+00  0.5000000E-01  0.6000000E-02
    1        4.895246      5.230880   1.000000   1.000000
    2        5.432400      6.030425   1.000000   1.000000
    3        8.803330      9.526248   1.000000   0.728656
    4        8.887741      9.574761   1.000005   0.533576
    5        9.044977      9.824632   1.000479  -0.035422
    6       10.952122     11.105579  -0.000000  -0.000000
    7       20.821054     21.009369   0.000000   0.000000
    8       24.284807     24.327182   0.000000   0.000000
    9       25.108553     25.129713   0.000000   0.000000
   10       30.087659     30.210093   0.000000   0.000000
   11       33.677044     33.807616   0.000000   0.000000
   12       53.559430     53.543688   0.000000   0.000000
 
 -0.4500000E+00  0.4500000E+00  0.5000000E-01  0.1200000E-01
    1        5.015622      5.383289   1.000000   1.000000
    2        5.442019      6.032662   1.000000   1.000000
    3        8.484088      9.156900   1.000000   1.005155
    4        8.884693      9.528431   1.000005   0.720538
    5        9.098565      9.924391   1.001638  -0.018181
    6       12.761834     12.890988  -0.000000  -0.000000
    7       19.282497     19.519336   0.000000   0.000000
    8       22.461342     22.533000   0.000000   0.000000
    9       24.318854     24.354515   0.000000   0.000000
   10       31.237990     31.330216   0.000000   0.000000
   11       35.055364     35.172409   0.000000   0.000000
   12       51.817853     51.779236   0.000000   0.000000
 
 -0.3500000E+00  0.4500000E+00  0.5000000E-01  0.1200000E-01
    1        5.359198      5.756736   1.000000   1.000000
    2        5.684974      6.251914   1.000000   1.000000
    3        7.713656      8.319399   1.000000   1.000000
    4        8.592309      9.219861   1.000000   1.013891
    5        8.998602      9.815573   1.000145  -0.034848
    6       14.264324     14.460034  -0.000000  -0.000000
    7       18.706265     18.859443   0.000000   0.000000
    8       19.848169     20.042953   0.000000   0.000000
    9       25.360281     25.414365   0.000000   0.000000
   10       32.041684     32.113450   0.000000   0.000000
   11       39.307995     39.393703   0.000000   0.000000
   12       48.659568     48.617346   0.000000   0.000000
 
 -0.2500000E+00  0.4500000E+00  0.5000000E-01  0.1200000E-01
    1        5.693564      6.194025   1.000000   1.000000
    2        6.079488      6.506848   1.000000   1.000000
    3        7.058150      7.645511   1.000000   1.000000
    4        8.093718      8.723582   1.000000   1.000000
    5        8.906610      9.689004   1.000010   0.113092
    6       14.083289     14.327953  -0.000000  -0.000000
    7       16.299244     16.552433   0.000000   0.000000
    8       22.359894     22.494274   0.000000   0.000000
    9       27.228059     27.299340   0.000000   0.000000
   10       32.793608     32.833347   0.000000   0.000000
   11       43.961947     43.970281   0.000000   0.000000
   12       45.538369     45.578829   0.000000   0.000000
 
 -0.1500000E+00  0.4500000E+00  0.5000000E-01  0.1200000E-01
    1        5.320823      5.781118   1.000000   1.000000
    2        6.628512      7.081551   1.000000   1.000000
    3        7.246441      7.788623   1.000000   1.000000
    4        7.580061      8.208336   1.000000   1.000000
    5        8.881017      9.641257   1.000004   0.263619
    6       12.168484     12.456770  -0.000000  -0.000000
    7       15.734665     16.076961   0.000000   0.000000
    8       26.273153     26.346962   0.000000   0.000000
    9       29.587216     29.657693   0.000000   0.000000
   10       33.746084     33.753452   0.000000   0.000000
   11       40.820858     40.838108   0.000000   0.000000
   12       44.296084     44.274338   0.000000   0.000000
 
 -0.5000000E-01  0.4500000E+00  0.5000000E-01  0.1200000E-01
    1        4.805846      5.204667   1.000000   1.000000
    2        7.027057      7.604444   1.000000   1.000000