       N       E                     dE             d eps       ncg     rms          rms(c)
DAV:   1     0.181899354816E+02    0.18190E+02   -0.29990E+03  5860   0.642E+02
DAV:   2    -0.542498830757E+01   -0.23615E+02   -0.22101E+02  5716   0.120E+02
DAV:   3    -0.584417359314E+01   -0.41919E+00   -0.41781E+00  6068   0.180E+01
DAV:   4    -0.584619370366E+01   -0.20201E-02   -0.20198E-02  5944   0.111E+00
DAV:   5    -0.584622033885E+01   -0.26635E-04   -0.26637E-04  5928   0.121E-01    0.141E+01
DAV:   6    -0.584054509948E+01    0.56752E-02   -0.13334E+01  6564   0.468E+01    0.601E+00
DAV:   7    -0.547696183776E+01    0.36358E+00   -0.28524E+00  6604   0.183E+01    0.161E+00
DAV:   8    -0.546725467880E+01    0.97072E-02   -0.16453E-02  6004   0.910E-01    0.909E-01
DAV:   9    -0.546417708171E+01    0.30776E-02   -0.16640E-03  6352   0.274E-01    0.406E-01
DAV:  10    -0.546313464587E+01    0.10424E-02   -0.15751E-03  5668   0.257E-01    0.518E-02
DAV:  11    -0.546315056004E+01   -0.15914E-04   -0.28546E-05  2836   0.408E-02
   1 F= -.54631506E+01 E0= -.54625586E+01  d E =-.177592E-02  mag=     0.6188
