 vasp.5.4.4.18Apr17-6-g9f103f2a35 (build Jul 01 2019 03:25:34) complex          
  
 executed on             LinuxIFC date 2020.07.09  19:35:30
 running on    4 total cores
 distrk:  each k-point on    4 cores,    1 groups
 distr:  one band on NCORES_PER_BAND=   1 cores,    4 groups


--------------------------------------------------------------------------------------------------------


 INCAR:
 POTCAR:    PAW_PBE Ni 02Aug2007                  
 POTCAR:    PAW_PBE Ni 02Aug2007                  
   VRHFIN =Ni:                                                                  
   LEXCH  = PE                                                                  
   EATOM  =  1077.6739 eV,   79.2068 Ry                                         
                                                                                
   TITEL  = PAW_PBE Ni 02Aug2007                                                
   LULTRA =        F    use ultrasoft PP ?                                      
   IUNSCR =        1    unscreen: 0-lin 1-nonlin 2-no                           
   RPACOR =    2.000    partial core radius                                     
   POMASS =   58.690; ZVAL   =   10.000    mass and valenz                      
   RCORE  =    2.300    outmost cutoff radius                                   
   RWIGS  =    2.430; RWIGS  =    1.286    wigner-seitz radius (au A)           
   ENMAX  =  269.532; ENMIN  =  202.149 eV                                      
   RCLOC  =    1.201    cutoff for local pot                                    
   LCOR   =        T    correct aug charges                                     
   LPAW   =        T    paw PP                                                  
   EAUG   =  544.565                                                            
   DEXC   =    0.000                                                            
   RMAX   =    2.357    core radius for proj-oper                               
   RAUG   =    1.300    factor for augmentation sphere                          
   RDEP   =    2.390    radius for radial grids                                 
   RDEPT  =    1.838    core radius for aug-charge                              
                                                                                
   Atomic configuration                                                         
    9 entries                                                                   
     n  l   j            E        occ.                                          
     1  0  0.50     -8206.4253   2.0000                                         
     2  0  0.50      -976.1748   2.0000                                         
     2  1  1.50      -839.0571   6.0000                                         
     3  0  0.50      -105.9991   2.0000                                         
     3  1  1.50       -66.4603   6.0000                                         
     3  2  2.50        -4.6458   9.0000                                         
     4  0  0.50        -4.4926   1.0000                                         
     4  1  1.50        -4.0817   0.0000                                         
     4  3  2.50        -1.3606   0.0000                                         
   Description                                                                  
     l       E           TYP  RCUT    TYP  RCUT                                 
     2     -4.6457903     23  2.300                                             
     2     -6.0063729     23  2.300                                             
     0     -4.4925590     23  2.300                                             
     0      5.0102601     23  2.300                                             
     1     -2.7211652     23  2.300                                             
     1     16.5183231     23  2.300                                             
  local pseudopotential read in
  partial core-charges read in
  partial kinetic energy density read in
  atomic valenz-charges read in
  non local Contribution for L=           2  read in
    real space projection operators read in
  non local Contribution for L=           2  read in
    real space projection operators read in
  non local Contribution for L=           0  read in
    real space projection operators read in
  non local Contribution for L=           0  read in
    real space projection operators read in
  non local Contribution for L=           1  read in
    real space projection operators read in
  non local Contribution for L=           1  read in
    real space projection operators read in
    PAW grid and wavefunctions read in
 
   number of l-projection  operators is LMAX  =           6
   number of lm-projection operators is LMMAX =          18
 
  PAW_PBE Ni 02Aug2007                  :
 energy of atom  1       EATOM=-1077.6739
 kinetic energy error for atom=    0.0378 (will be added to EATOM!!)
 
 
 POSCAR: FCC Ni Bulk                             
  positions in direct lattice
  No initial velocities read in
 exchange correlation table for  LEXCH =        8
   RHO(1)=    0.500       N(1)  =     2000
   RHO(2)=  100.500       N(2)  =     4000
 


--------------------------------------------------------------------------------------------------------


 ion  position               nearest neighbor table
   1  0.000  0.000  0.000-
 
  LATTYP: Found a face centered cubic cell.
 ALAT       =     3.5000000000
  
  Lattice vectors:
  
 A1 = (   0.0000000000,   1.7500000000,   1.7500000000)
 A2 = (   1.7500000000,   0.0000000000,   1.7500000000)
 A3 = (   1.7500000000,   1.7500000000,   0.0000000000)


Analysis of symmetry for initial positions (statically):
=====================================================================
 Subroutine PRICEL returns:
 Original cell was already a primitive cell.
 

 Routine SETGRP: Setting up the symmetry group for a 
 face centered cubic supercell.


 Subroutine GETGRP returns: Found 48 space group operations
 (whereof 48 operations were pure point group operations)
 out of a pool of 48 trial point group operations.


The static configuration has the point symmetry O_h .


Analysis of symmetry for dynamics (positions and initial velocities):
=====================================================================
 Subroutine PRICEL returns:
 Original cell was already a primitive cell.
 

 Routine SETGRP: Setting up the symmetry group for a 
 face centered cubic supercell.


 Subroutine GETGRP returns: Found 48 space group operations
 (whereof 48 operations were pure point group operations)
 out of a pool of 48 trial point group operations.


The dynamic configuration has the point symmetry O_h .


Analysis of structural, dynamic, and magnetic symmetry:
=====================================================================
 Subroutine PRICEL returns:
 Original cell was already a primitive cell.
 

 Routine SETGRP: Setting up the symmetry group for a 
 face centered cubic supercell.


 Subroutine GETGRP returns: Found 48 space group operations
 (whereof 48 operations were pure point group operations)
 out of a pool of 48 trial point group operations.


The magnetic configuration has the point symmetry O_h .


 Subroutine INISYM returns: Found 48 space group operations
 (whereof 48 operations are pure point group operations),
 and found     1 'primitive' translations

 
 
 KPOINTS: 10x10x10                                

Automatic generation of k-mesh.
Space group operators:
 irot       det(A)        alpha          n_x          n_y          n_z        tau_x        tau_y        tau_z
    1     1.000000     0.000000     1.000000     0.000000     0.000000     0.000000     0.000000     0.000000
    2    -1.000000     0.000000     1.000000     0.000000     0.000000     0.000000     0.000000     0.000000
    3     1.000000   120.000000    -0.577350    -0.577350    -0.577350     0.000000     0.000000     0.000000
    4    -1.000000   120.000000    -0.577350    -0.577350    -0.577350     0.000000     0.000000     0.000000
    5     1.000000   120.000000     0.577350     0.577350     0.577350     0.000000     0.000000     0.000000
    6    -1.000000   120.000000     0.577350     0.577350     0.577350     0.000000     0.000000     0.000000
    7     1.000000    90.000000     0.000000     0.000000    -1.000000     0.000000     0.000000     0.000000
    8    -1.000000    90.000000     0.000000     0.000000    -1.000000     0.000000     0.000000     0.000000
    9     1.000000   180.000000     0.000000     0.707107     0.707107     0.000000     0.000000     0.000000
   10    -1.000000   180.000000     0.000000     0.707107     0.707107     0.000000     0.000000     0.000000
   11     1.000000    90.000000     0.000000     1.000000     0.000000     0.000000     0.000000     0.000000
   12    -1.000000    90.000000     0.000000     1.000000     0.000000     0.000000     0.000000     0.000000
   13     1.000000   180.000000     0.000000     0.000000     1.000000     0.000000     0.000000     0.000000
   14    -1.000000   180.000000     0.000000     0.000000     1.000000     0.000000     0.000000     0.000000
   15     1.000000   120.000000    -0.577350     0.577350     0.577350     0.000000     0.000000     0.000000
   16    -1.000000   120.000000    -0.577350     0.577350     0.577350     0.000000     0.000000     0.000000
   17     1.000000   120.000000    -0.577350     0.577350    -0.577350     0.000000     0.000000     0.000000
   18    -1.000000   120.000000    -0.577350     0.577350    -0.577350     0.000000     0.000000     0.000000
   19     1.000000    90.000000     0.000000     0.000000     1.000000     0.000000     0.000000     0.000000
   20    -1.000000    90.000000     0.000000     0.000000     1.000000     0.000000     0.000000     0.000000
   21     1.000000    90.000000    -1.000000     0.000000     0.000000     0.000000     0.000000     0.000000
   22    -1.000000    90.000000    -1.000000     0.000000     0.000000     0.000000     0.000000     0.000000
   23     1.000000   180.000000     0.707107     0.000000     0.707107     0.000000     0.000000     0.000000
   24    -1.000000   180.000000     0.707107     0.000000     0.707107     0.000000     0.000000     0.000000
   25     1.000000   120.000000     0.577350    -0.577350     0.577350     0.000000     0.000000     0.000000
   26    -1.000000   120.000000     0.577350    -0.577350     0.577350     0.000000     0.000000     0.000000
   27     1.000000   120.000000    -0.577350    -0.577350     0.577350     0.000000     0.000000     0.000000
   28    -1.000000   120.000000    -0.577350    -0.577350     0.577350     0.000000     0.000000     0.000000
   29     1.000000   180.000000     1.000000     0.000000     0.000000     0.000000     0.000000     0.000000
   30    -1.000000   180.000000     1.000000     0.000000     0.000000     0.000000     0.000000     0.000000
   31     1.000000    90.000000     0.000000    -1.000000     0.000000     0.000000     0.000000     0.000000
   32    -1.000000    90.000000     0.000000    -1.000000     0.000000     0.000000     0.000000     0.000000
   33     1.000000   180.000000     0.707107     0.707107     0.000000     0.000000     0.000000     0.000000
   34    -1.000000   180.000000     0.707107     0.707107     0.000000     0.000000     0.000000     0.000000
   35     1.000000    90.000000     1.000000     0.000000     0.000000     0.000000     0.000000     0.000000
   36    -1.000000    90.000000     1.000000     0.000000     0.000000     0.000000     0.000000     0.000000
   37     1.000000   120.000000     0.577350    -0.577350    -0.577350     0.000000     0.000000     0.000000
   38    -1.000000   120.000000     0.577350    -0.577350    -0.577350     0.000000     0.000000     0.000000
   39     1.000000   180.000000     0.000000     1.000000     0.000000     0.000000     0.000000     0.000000
   40    -1.000000   180.000000     0.000000     1.000000     0.000000     0.000000     0.000000     0.000000
   41     1.000000   120.000000     0.577350     0.577350    -0.577350     0.000000     0.000000     0.000000
   42    -1.000000   120.000000     0.577350     0.577350    -0.577350     0.000000     0.000000     0.000000
   43     1.000000   180.000000     0.000000    -0.707107     0.707107     0.000000     0.000000     0.000000
   44    -1.000000   180.000000     0.000000    -0.707107     0.707107     0.000000     0.000000     0.000000
   45     1.000000   180.000000     0.707107    -0.707107     0.000000     0.000000     0.000000     0.000000
   46    -1.000000   180.000000     0.707107    -0.707107     0.000000     0.000000     0.000000     0.000000
   47     1.000000   180.000000     0.707107     0.000000    -0.707107     0.000000     0.000000     0.000000
   48    -1.000000   180.000000     0.707107     0.000000    -0.707107     0.000000     0.000000     0.000000
 
 Subroutine IBZKPT returns following result:
 ===========================================
 
 Found    110 irreducible k-points:
 
 Following reciprocal coordinates:
            Coordinates               Weight
  0.050000  0.050000  0.050000     96.000000
  0.150000  0.050000  0.050000    288.000000
  0.250000  0.050000  0.050000    288.000000
  0.350000  0.050000  0.050000    288.000000
  0.450000  0.050000  0.050000    288.000000
 -0.450000  0.050000  0.050000    288.000000
 -0.350000  0.050000  0.050000    288.000000
 -0.250000  0.050000  0.050000    288.000000
 -0.150000  0.050000  0.050000    288.000000
 -0.050000  0.050000  0.050000    288.000000
  0.150000  0.150000  0.050000    288.000000
  0.250000  0.150000  0.050000    576.000000
  0.350000  0.150000  0.050000    576.000000
  0.450000  0.150000  0.050000    576.000000
 -0.450000  0.150000  0.050000    576.000000
 -0.350000  0.150000  0.050000    576.000000
 -0.250000  0.150000  0.050000    576.000000
 -0.150000  0.150000  0.050000    576.000000
 -0.050000  0.150000  0.050000    576.000000
  0.250000  0.250000  0.050000    288.000000
  0.350000  0.250000  0.050000    576.000000
  0.450000  0.250000  0.050000    576.000000
 -0.450000  0.250000  0.050000    576.000000
 -0.350000  0.250000  0.050000    576.000000
 -0.250000  0.250000  0.050000    576.000000
 -0.150000  0.250000  0.050000    576.000000
 -0.050000  0.250000  0.050000    576.000000
  0.350000  0.350000  0.050000    288.000000
  0.450000  0.350000  0.050000    576.000000
 -0.450000  0.350000  0.050000    576.000000
 -0.350000  0.350000  0.050000    576.000000
 -0.250000  0.350000  0.050000    576.000000
 -0.150000  0.350000  0.050000    576.000000
 -0.050000  0.350000  0.050000    576.000000
  0.450000  0.450000  0.050000    288.000000
 -0.450000  0.450000  0.050000    576.000000
 -0.350000  0.450000  0.050000    576.000000
 -0.250000  0.450000  0.050000    576.000000
 -0.150000  0.450000  0.050000    576.000000
 -0.050000  0.450000  0.050000    576.000000
 -0.450000 -0.450000  0.050000    288.000000
 -0.350000 -0.450000  0.050000    576.000000
 -0.250000 -0.450000  0.050000    576.000000
 -0.150000 -0.450000  0.050000    576.000000
 -0.350000 -0.350000  0.050000    288.000000
 -0.250000 -0.350000  0.050000    576.000000
 -0.150000 -0.350000  0.050000    576.000000
 -0.250000 -0.250000  0.050000    288.000000
 -0.150000 -0.250000  0.050000    576.000000
 -0.150000 -0.150000  0.050000    288.000000
  0.150000  0.150000  0.150000     96.000000
  0.250000  0.150000  0.150000    288.000000
  0.350000  0.150000  0.150000    288.000000
  0.450000  0.150000  0.150000    288.000000
 -0.450000  0.150000  0.150000    288.000000
 -0.350000  0.150000  0.150000    288.000000
 -0.250000  0.150000  0.150000    288.000000
 -0.150000  0.150000  0.150000    288.000000
  0.250000  0.250000  0.150000    288.000000
  0.350000  0.250000  0.150000    576.000000
  0.450000  0.250000  0.150000    576.000000
 -0.450000  0.250000  0.150000    576.000000
 -0.350000  0.250000  0.150000    576.000000
 -0.250000  0.250000  0.150000    576.000000
 -0.150000  0.250000  0.150000    576.000000
  0.350000  0.350000  0.150000    288.000000
  0.450000  0.350000  0.150000    576.000000
 -0.450000  0.350000  0.150000    576.000000
 -0.350000  0.350000  0.150000    576.000000
 -0.250000  0.350000  0.150000    576.000000
 -0.150000  0.350000  0.150000    576.000000
  0.450000  0.450000  0.150000    288.000000
 -0.450000  0.450000  0.150000    576.000000
 -0.350000  0.450000  0.150000    576.000000
 -0.250000  0.450000  0.150000    576.000000
 -0.150000  0.450000  0.150000    576.000000
 -0.450000 -0.450000  0.150000    288.000000
 -0.350000 -0.450000  0.150000    576.000000
 -0.250000 -0.450000  0.150000    576.000000
 -0.350000 -0.350000  0.150000    288.000000
 -0.250000 -0.350000  0.150000    576.000000
 -0.250000 -0.250000  0.150000    288.000000
  0.250000  0.250000  0.250000     96.000000
  0.350000  0.250000  0.250000    288.000000
  0.450000  0.250000  0.250000    288.000000
 -0.450000  0.250000  0.250000    288.000000
 -0.350000  0.250000  0.250000    288.000000
 -0.250000  0.250000  0.250000    288.000000
  0.350000  0.350000  0.250000    288.000000
  0.450000  0.350000  0.250000    576.000000
 -0.450000  0.350000  0.250000    576.000000
 -0.350000  0.350000  0.250000    576.000000
 -0.250000  0.350000  0.250000    576.000000
  0.450000  0.450000  0.250000    288.000000
 -0.450000  0.450000  0.250000    576.000000
 -0.350000  0.450000  0.250000    576.000000
 -0.250000  0.450000  0.250000    576.000000
 -0.450000 -0.450000  0.250000    288.000000
 -0.350000 -0.450000  0.250000    576.000000
 -0.350000 -0.350000  0.250000    288.000000
  0.350000  0.350000  0.350000     96.000000
  0.450000  0.350000  0.350000    288.000000
 -0.450000  0.350000  0.350000    288.000000
 -0.350000  0.350000  0.350000    288.000000
  0.450000  0.450000  0.350000    288.000000
 -0.450000  0.450000  0.350000    576.000000
 -0.350000  0.450000  0.350000    576.000000
 -0.450000 -0.450000  0.350000    288.000000
  0.450000  0.450000  0.450000     96.000000
 -0.450000  0.450000  0.450000    288.000000
 
 Following cartesian coordinates:
            Coordinates               Weight
  0.050000  0.050000  0.050000     96.000000
 -0.050000  0.150000  0.150000    288.000000
 -0.150000  0.250000  0.250000    288.000000
 -0.250000  0.350000  0.350000    288.000000
 -0.350000  0.450000  0.450000    288.000000
  0.550000 -0.450000 -0.450000    288.000000
  0.450000 -0.350000 -0.350000    288.000000
  0.350000 -0.250000 -0.250000    288.000000
  0.250000 -0.150000 -0.150000    288.000000
  0.150000 -0.050000 -0.050000    288.000000
  0.050000  0.050000  0.250000    288.000000
 -0.050000  0.150000  0.350000    576.000000
 -0.150000  0.250000  0.450000    576.000000
 -0.250000  0.350000  0.550000    576.000000
  0.650000 -0.550000 -0.350000    576.000000
  0.550000 -0.450000 -0.250000    576.000000
  0.450000 -0.350000 -0.150000    576.000000
  0.350000 -0.250000 -0.050000    576.000000
  0.250000 -0.150000  0.050000    576.000000
  0.050000  0.050000  0.450000    288.000000
 -0.050000  0.150000  0.550000    576.000000
 -0.150000  0.250000  0.650000    576.000000
  0.750000 -0.650000 -0.250000    576.000000
  0.650000 -0.550000 -0.150000    576.000000
  0.550000 -0.450000 -0.050000    576.000000
  0.450000 -0.350000  0.050000    576.000000
  0.350000 -0.250000  0.150000    576.000000
  0.050000  0.050000  0.650000    288.000000
 -0.050000  0.150000  0.750000    576.000000
  0.850000 -0.750000 -0.150000    576.000000
  0.750000 -0.650000 -0.050000    576.000000
  0.650000 -0.550000  0.050000    576.000000
  0.550000 -0.450000  0.150000    576.000000
  0.450000 -0.350000  0.250000    576.000000
  0.050000  0.050000  0.850000    288.000000
  0.950000 -0.850000 -0.050000    576.000000
  0.850000 -0.750000  0.050000    576.000000
  0.750000 -0.650000  0.150000    576.000000
  0.650000 -0.550000  0.250000    576.000000
  0.550000 -0.450000  0.350000    576.000000
  0.050000  0.050000 -0.950000    288.000000
 -0.050000  0.150000 -0.850000    576.000000
 -0.150000  0.250000 -0.750000    576.000000
 -0.250000  0.350000 -0.650000    576.000000
  0.050000  0.050000 -0.750000    288.000000
 -0.050000  0.150000 -0.650000    576.000000
 -0.150000  0.250000 -0.550000    576.000000
  0.050000  0.050000 -0.550000    288.000000
 -0.050000  0.150000 -0.450000    576.000000
  0.050000  0.050000 -0.350000    288.000000
  0.150000  0.150000  0.150000     96.000000
  0.050000  0.250000  0.250000    288.000000
 -0.050000  0.350000  0.350000    288.000000
 -0.150000  0.450000  0.450000    288.000000
  0.750000 -0.450000 -0.450000    288.000000
  0.650000 -0.350000 -0.350000    288.000000
  0.550000 -0.250000 -0.250000    288.000000
  0.450000 -0.150000 -0.150000    288.000000
  0.150000  0.150000  0.350000    288.000000
  0.050000  0.250000  0.450000    576.000000
 -0.050000  0.350000  0.550000    576.000000
  0.850000 -0.550000 -0.350000    576.000000
  0.750000 -0.450000 -0.250000    576.000000
  0.650000 -0.350000 -0.150000    576.000000
  0.550000 -0.250000 -0.050000    576.000000
  0.150000  0.150000  0.550000    288.000000
  0.050000  0.250000  0.650000    576.000000
  0.950000 -0.650000 -0.250000    576.000000
  0.850000 -0.550000 -0.150000    576.000000
  0.750000 -0.450000 -0.050000    576.000000
  0.650000 -0.350000  0.050000    576.000000
  0.150000  0.150000  0.750000    288.000000
  1.050000 -0.750000 -0.150000    576.000000
  0.950000 -0.650000 -0.050000    576.000000
  0.850000 -0.550000  0.050000    576.000000
  0.750000 -0.450000  0.150000    576.000000
  0.150000  0.150000 -1.050000    288.000000
  0.050000  0.250000 -0.950000    576.000000
 -0.050000  0.350000 -0.850000    576.000000
  0.150000  0.150000 -0.850000    288.000000
  0.050000  0.250000 -0.750000    576.000000
  0.150000  0.150000 -0.650000    288.000000
  0.250000  0.250000  0.250000     96.000000
  0.150000  0.350000  0.350000    288.000000
  0.050000  0.450000  0.450000    288.000000
  0.950000 -0.450000 -0.450000    288.000000
  0.850000 -0.350000 -0.350000    288.000000
  0.750000 -0.250000 -0.250000    288.000000
  0.250000  0.250000  0.450000    288.000000
  0.150000  0.350000  0.550000    576.000000
  1.050000 -0.550000 -0.350000    576.000000
  0.950000 -0.450000 -0.250000    576.000000
  0.850000 -0.350000 -0.150000    576.000000
  0.250000  0.250000  0.650000    288.000000
  1.150000 -0.650000 -0.250000    576.000000
  1.050000 -0.550000 -0.150000    576.000000
  0.950000 -0.450000 -0.050000    576.000000
  0.250000  0.250000 -1.150000    288.000000
  0.150000  0.350000 -1.050000    576.000000
  0.250000  0.250000 -0.950000    288.000000
  0.350000  0.350000  0.350000     96.000000
  0.250000  0.450000  0.450000    288.000000
  1.150000 -0.450000 -0.450000    288.000000
  1.050000 -0.350000 -0.350000    288.000000
  0.350000  0.350000  0.550000    288.000000
  1.250000 -0.550000 -0.350000    576.000000
  1.150000 -0.450000 -0.250000    576.000000
  0.350000  0.350000 -1.250000    288.000000
  0.450000  0.450000  0.450000     96.000000
  1.350000 -0.450000 -0.450000    288.000000
 


--------------------------------------------------------------------------------------------------------




 Dimension of arrays:
   k-points           NKPTS =    110   k-points in BZ     NKDIM =    110   number of bands    NBANDS=     12
   number of dos      NEDOS =    301   number of ions     NIONS =      1
   non local maximal  LDIM  =      6   non local SUM 2l+1 LMDIM =     18
   total plane-waves  NPLWV =   1000
   max r-space proj   IRMAX =      1   max aug-charges    IRDMAX=   3223
   dimension x,y,z NGX =    10 NGY =   10 NGZ =   10
   dimension x,y,z NGXF=    20 NGYF=   20 NGZF=   20
   support grid    NGXF=    20 NGYF=   20 NGZF=   20
   ions per type =               1
   NGX,Y,Z   is equivalent  to a cutoff of   6.72,  6.72,  6.72 a.u.
   NGXF,Y,Z  is equivalent  to a cutoff of  13.43, 13.43, 13.43 a.u.

 SYSTEM =  fcc Ni                                  
 POSCAR =  FCC Ni Bulk                             

 Startparameter for this run:
   NWRITE =      2    write-flag & timer
   PREC   = normal    normal or accurate (medium, high low for compatibility)
   ISTART =      0    job   : 0-new  1-cont  2-samecut
   ICHARG =      2    charge: 1-file 2-atom 10-const
   ISPIN  =      2    spin polarized calculation?
   LNONCOLLINEAR =      F non collinear calculations
   LSORBIT =      F    spin-orbit coupling
   INIWAV =      1    electr: 0-lowe 1-rand  2-diag
   LASPH  =      F    aspherical Exc in radial PAW
   METAGGA=      F    non-selfconsistent MetaGGA calc.

 Electronic Relaxation 1
   ENCUT  =  270.0 eV  19.84 Ry    4.45 a.u.   3.32  3.32  3.32*2*pi/ulx,y,z
   ENINI  =  270.0     initial cutoff
   ENAUG  =  544.6 eV  augmentation charge cutoff
   NELM   =     60;   NELMIN=  2; NELMDL= -5     # of ELM steps 
   EDIFF  = 0.1E-03   stopping-criterion for ELM
   LREAL  =      F    real-space projection
   NLSPLINE    = F    spline interpolate recip. space projectors
   LCOMPAT=      F    compatible to vasp.4.4
   GGA_COMPAT  = T    GGA compatible to vasp.4.4-vasp.4.6
   LMAXPAW     = -100 max onsite density
   LMAXMIX     =    2 max onsite mixed and CHGCAR
   VOSKOWN=      0    Vosko Wilk Nusair interpolation
   ROPT   =    0.00000
 Ionic relaxation
   EDIFFG = 0.1E-02   stopping-criterion for IOM
   NSW    =      0    number of steps for IOM
   NBLOCK =      1;   KBLOCK =      1    inner block; outer block 
   IBRION =     -1    ionic relax: 0-MD 1-quasi-New 2-CG
   NFREE  =      0    steps in history (QN), initial steepest desc. (CG)
   ISIF   =      2    stress and relaxation
   IWAVPR =     10    prediction:  0-non 1-charg 2-wave 3-comb
   ISYM   =      2    0-nonsym 1-usesym 2-fastsym
   LCORR  =      T    Harris-Foulkes like correction to forces

   POTIM  = 0.5000    time-step for ionic-motion
   TEIN   =    0.0    initial temperature
   TEBEG  =    0.0;   TEEND  =   0.0 temperature during run
   SMASS  =  -3.00    Nose mass-parameter (am)
   estimated Nose-frequenzy (Omega)   =  0.10E-29 period in steps =****** mass=  -0.140E-27a.u.
   SCALEE = 1.0000    scale energy and forces
   NPACO  =    256;   APACO  = 16.0  distance and # of slots for P.C.
   PSTRESS=    0.0 pullay stress

  Mass of Ions in am
   POMASS =  58.69
  Ionic Valenz
   ZVAL   =  10.00
  Atomic Wigner-Seitz radii
   RWIGS  =  -1.00
  virtual crystal weights 
   VCA    =   1.00
   NELECT =      10.0000    total number of electrons
   NUPDOWN=      -1.0000    fix difference up-down

 DOS related values:
   EMIN   =  10.00;   EMAX   =-10.00  energy-range for DOS
   EFERMI =   0.00
   ISMEAR =     1;   SIGMA  =   0.20  broadening in eV -4-tet -1-fermi 0-gaus

 Electronic relaxation 2 (details)
   IALGO  =     38    algorithm
   LDIAG  =      T    sub-space diagonalisation (order eigenvalues)
   LSUBROT=      F    optimize rotation matrix (better conditioning)
   TURBO    =      0    0=normal 1=particle mesh
   IRESTART =      0    0=no restart 2=restart with 2 vectors
   NREBOOT  =      0    no. of reboots
   NMIN     =      0    reboot dimension
   EREF     =   0.00    reference energy to select bands
   IMIX   =      4    mixing-type and parameters
     AMIX     =   0.40;   BMIX     =  1.00
     AMIX_MAG =   1.60;   BMIX_MAG =  1.00
     AMIN     =   0.10
     WC   =   100.;   INIMIX=   1;  MIXPRE=   1;  MAXMIX= -45

 Intra band minimization:
   WEIMIN = 0.0000     energy-eigenvalue tresh-hold
   EBREAK =  0.21E-05  absolut break condition
   DEPER  =   0.30     relativ break condition  

   TIME   =   0.40     timestep for ELM

  volume/ion in A,a.u.               =      10.72        72.33
  Fermi-wavevector in a.u.,A,eV,Ry     =   1.599657  3.022913 34.815968  2.558901
  Thomas-Fermi vector in A             =   2.696915
 
 Write flags
   LWAVE        =      T    write WAVECAR
   LDOWNSAMPLE  =      F    k-point downsampling of WAVECAR
   LCHARG       =      T    write CHGCAR
   LVTOT        =      F    write LOCPOT, total local potential
   LVHAR        =      F    write LOCPOT, Hartree potential only
   LELF         =      F    write electronic localiz. function (ELF)
   LORBIT       =      0    0 simple, 1 ext, 2 COOP (PROOUT), +10 PAW based schemes


 Dipole corrections
   LMONO  =      F    monopole corrections only (constant potential shift)
   LDIPOL =      F    correct potential (dipole corrections)
   IDIPOL =      0    1-x, 2-y, 3-z, 4-all directions 
   EPSILON=  1.0000000 bulk dielectric constant

 Exchange correlation treatment:
   GGA     =    --    GGA type
   LEXCH   =     8    internal setting for exchange type
   VOSKOWN=      0    Vosko Wilk Nusair interpolation
   LHFCALC =     F    Hartree Fock is set to
   LHFONE  =     F    Hartree Fock one center treatment
   AEXX    =    0.0000 exact exchange contribution

 Linear response parameters
   LEPSILON=     F    determine dielectric tensor
   LRPA    =     F    only Hartree local field effects (RPA)
   LNABLA  =     F    use nabla operator in PAW spheres
   LVEL    =     F    velocity operator in full k-point grid
   LINTERFAST=   F  fast interpolation
   KINTER  =     0    interpolate to denser k-point grid
   CSHIFT  =0.1000    complex shift for real part using Kramers Kronig
   OMEGAMAX=  -1.0    maximum frequency
   DEG_THRESHOLD= 0.2000000E-02 threshold for treating states as degnerate
   RTIME   =   -0.100 relaxation time in fs
  (WPLASMAI=    0.000 imaginary part of plasma frequency in eV, 0.658/RTIME)
   DFIELD  = 0.0000000 0.0000000 0.0000000 field for delta impulse in time
 
 Orbital magnetization related:
   ORBITALMAG=     F  switch on orbital magnetization
   LCHIMAG   =     F  perturbation theory with respect to B field
   DQ        =  0.001000  dq finite difference perturbation B field
   LLRAUG    =     F  two centre corrections for induced B field



--------------------------------------------------------------------------------------------------------


 Static calculation
 charge density and potential will be updated during run
 spin polarized calculation
 Variant of blocked Davidson
 Davidson routine will perform the subspace rotation
 perform sub-space diagonalisation
    after iterative eigenvector-optimisation
 modified Broyden-mixing scheme, WC =      100.0
 initial mixing is a Kerker type mixing with AMIX =  0.4000 and BMIX =      1.0000
 Hartree-type preconditioning will be used
 using additional bands            7
 reciprocal scheme for non local part
 use partial core corrections
 calculate Harris-corrections to forces 
   (improved forces if not selfconsistent)
 use gradient corrections 
 use of overlap-Matrix (Vanderbilt PP)
 Methfessel and Paxton  Order N= 1 SIGMA  =   0.20


--------------------------------------------------------------------------------------------------------


  energy-cutoff  :      270.00
  volume of cell :       10.72
      direct lattice vectors                 reciprocal lattice vectors
     0.000000000  1.750000000  1.750000000    -0.285714286  0.285714286  0.285714286
     1.750000000  0.000000000  1.750000000     0.285714286 -0.285714286  0.285714286
     1.750000000  1.750000000  0.000000000     0.285714286  0.285714286 -0.285714286

  length of vectors
     2.474873734  2.474873734  2.474873734     0.494871659  0.494871659  0.494871659


 
 k-points in units of 2pi/SCALE and weight: 10x10x10                                
   0.05000000  0.05000000  0.05000000       0.002
  -0.05000000  0.15000000  0.15000000       0.006
  -0.15000000  0.25000000  0.25000000       0.006
  -0.25000000  0.35000000  0.35000000       0.006
  -0.35000000  0.45000000  0.45000000       0.006
   0.55000000 -0.45000000 -0.45000000       0.006
   0.45000000 -0.35000000 -0.35000000       0.006
   0.35000000 -0.25000000 -0.25000000       0.006
   0.25000000 -0.15000000 -0.15000000       0.006
   0.15000000 -0.05000000 -0.05000000       0.006
   0.05000000  0.05000000  0.25000000       0.006
  -0.05000000  0.15000000  0.35000000       0.012
  -0.15000000  0.25000000  0.45000000       0.012
  -0.25000000  0.35000000  0.55000000       0.012
   0.65000000 -0.55000000 -0.35000000       0.012
   0.55000000 -0.45000000 -0.25000000       0.012
   0.45000000 -0.35000000 -0.15000000       0.012
   0.35000000 -0.25000000 -0.05000000       0.012
   0.25000000 -0.15000000  0.05000000       0.012
   0.05000000  0.05000000  0.45000000       0.006
  -0.05000000  0.15000000  0.55000000       0.012
  -0.15000000  0.25000000  0.65000000       0.012
   0.75000000 -0.65000000 -0.25000000       0.012
   0.65000000 -0.55000000 -0.15000000       0.012
   0.55000000 -0.45000000 -0.05000000       0.012
   0.45000000 -0.35000000  0.05000000       0.012
   0.35000000 -0.25000000  0.15000000       0.012
   0.05000000  0.05000000  0.65000000       0.006
  -0.05000000  0.15000000  0.75000000       0.012
   0.85000000 -0.75000000 -0.15000000       0.012
   0.75000000 -0.65000000 -0.05000000       0.012
   0.65000000 -0.55000000  0.05000000       0.012
   0.55000000 -0.45000000  0.15000000       0.012
   0.45000000 -0.35000000  0.25000000       0.012
   0.05000000  0.05000000  0.85000000       0.006
   0.95000000 -0.85000000 -0.05000000       0.012
   0.85000000 -0.75000000  0.05000000       0.012
   0.75000000 -0.65000000  0.15000000       0.012
   0.65000000 -0.55000000  0.25000000       0.012
   0.55000000 -0.45000000  0.35000000       0.012
   0.05000000  0.05000000 -0.95000000       0.006
  -0.05000000  0.15000000 -0.85000000       0.012
  -0.15000000  0.25000000 -0.75000000       0.012
  -0.25000000  0.35000000 -0.65000000       0.012
   0.05000000  0.05000000 -0.75000000       0.006
  -0.05000000  0.15000000 -0.65000000       0.012
  -0.15000000  0.25000000 -0.55000000       0.012
   0.05000000  0.05000000 -0.55000000       0.006
  -0.05000000  0.15000000 -0.45000000       0.012
   0.05000000  0.05000000 -0.35000000       0.006
   0.15000000  0.15000000  0.15000000       0.002
   0.05000000  0.25000000  0.25000000       0.006
  -0.05000000  0.35000000  0.35000000       0.006
  -0.15000000  0.45000000  0.45000000       0.006
   0.75000000 -0.45000000 -0.45000000       0.006
   0.65000000 -0.35000000 -0.35000000       0.006
   0.55000000 -0.25000000 -0.25000000       0.006
   0.45000000 -0.15000000 -0.15000000       0.006
   0.15000000  0.15000000  0.35000000       0.006
   0.05000000  0.25000000  0.45000000       0.012
  -0.05000000  0.35000000  0.55000000       0.012
   0.85000000 -0.55000000 -0.35000000       0.012
   0.75000000 -0.45000000 -0.25000000       0.012
   0.65000000 -0.35000000 -0.15000000       0.012
   0.55000000 -0.25000000 -0.05000000       0.012
   0.15000000  0.15000000  0.55000000       0.006
   0.05000000  0.25000000  0.65000000       0.012
   0.95000000 -0.65000000 -0.25000000       0.012
   0.85000000 -0.55000000 -0.15000000       0.012
   0.75000000 -0.45000000 -0.05000000       0.012
   0.65000000 -0.35000000  0.05000000       0.012
   0.15000000  0.15000000  0.75000000       0.006
   1.05000000 -0.75000000 -0.15000000       0.012
   0.95000000 -0.65000000 -0.05000000       0.012
   0.85000000 -0.55000000  0.05000000       0.012
   0.75000000 -0.45000000  0.15000000       0.012
   0.15000000  0.15000000 -1.05000000       0.006
   0.05000000  0.25000000 -0.95000000       0.012
  -0.05000000  0.35000000 -0.85000000       0.012
   0.15000000  0.15000000 -0.85000000       0.006
   0.05000000  0.25000000 -0.75000000       0.012
   0.15000000  0.15000000 -0.65000000       0.006
   0.25000000  0.25000000  0.25000000       0.002
   0.15000000  0.35000000  0.35000000       0.006
   0.05000000  0.45000000  0.45000000       0.006
   0.95000000 -0.45000000 -0.45000000       0.006
   0.85000000 -0.35000000 -0.35000000       0.006
   0.75000000 -0.25000000 -0.25000000       0.006
   0.25000000  0.25000000  0.45000000       0.006
   0.15000000  0.35000000  0.55000000       0.012
   1.05000000 -0.55000000 -0.35000000       0.012
   0.95000000 -0.45000000 -0.25000000       0.012
   0.85000000 -0.35000000 -0.15000000       0.012
   0.25000000  0.25000000  0.65000000       0.006
   1.15000000 -0.65000000 -0.25000000       0.012
   1.05000000 -0.55000000 -0.15000000       0.012
   0.95000000 -0.45000000 -0.05000000       0.012
   0.25000000  0.25000000 -1.15000000       0.006
   0.15000000  0.35000000 -1.05000000       0.012
   0.25000000  0.25000000 -0.95000000       0.006
   0.35000000  0.35000000  0.35000000       0.002
   0.25000000  0.45000000  0.45000000       0.006
   1.15000000 -0.45000000 -0.45000000       0.006
   1.05000000 -0.35000000 -0.35000000       0.006
   0.35000000  0.35000000  0.55000000       0.006
   1.25000000 -0.55000000 -0.35000000       0.012
   1.15000000 -0.45000000 -0.25000000       0.012
   0.35000000  0.35000000 -1.25000000       0.006
   0.45000000  0.45000000  0.45000000       0.002
   1.35000000 -0.45000000 -0.45000000       0.006
 
 k-points in reciprocal lattice and weights: 10x10x10                                
   0.05000000  0.05000000  0.05000000       0.002
   0.15000000  0.05000000  0.05000000       0.006
   0.25000000  0.05000000  0.05000000       0.006
   0.35000000  0.05000000  0.05000000       0.006
   0.45000000  0.05000000  0.05000000       0.006
  -0.45000000  0.05000000  0.05000000       0.006
  -0.35000000  0.05000000  0.05000000       0.006
  -0.25000000  0.05000000  0.05000000       0.006
  -0.15000000  0.05000000  0.05000000       0.006
  -0.05000000  0.05000000  0.05000000       0.006
   0.15000000  0.15000000  0.05000000       0.006
   0.25000000  0.15000000  0.05000000       0.012
   0.35000000  0.15000000  0.05000000       0.012
   0.45000000  0.15000000  0.05000000       0.012
  -0.45000000  0.15000000  0.05000000       0.012
  -0.35000000  0.15000000  0.05000000       0.012
  -0.25000000  0.15000000  0.05000000       0.012
  -0.15000000  0.15000000  0.05000000       0.012
  -0.05000000  0.15000000  0.05000000       0.012
   0.25000000  0.25000000  0.05000000       0.006
   0.35000000  0.25000000  0.05000000       0.012
   0.45000000  0.25000000  0.05000000       0.012
  -0.45000000  0.25000000  0.05000000       0.012
  -0.35000000  0.25000000  0.05000000       0.012
  -0.25000000  0.25000000  0.05000000       0.012
  -0.15000000  0.25000000  0.05000000       0.012
  -0.05000000  0.25000000  0.05000000       0.012
   0.35000000  0.35000000  0.05000000       0.006
   0.45000000  0.35000000  0.05000000       0.012
  -0.45000000  0.35000000  0.05000000       0.012
  -0.35000000  0.35000000  0.05000000       0.012
  -0.25000000  0.35000000  0.05000000       0.012
  -0.15000000  0.35000000  0.05000000       0.012
  -0.05000000  0.35000000  0.05000000       0.012
   0.45000000  0.45000000  0.05000000       0.006
  -0.45000000  0.45000000  0.05000000       0.012
  -0.35000000  0.45000000  0.05000000       0.012
  -0.25000000  0.45000000  0.05000000       0.012
  -0.15000000  0.45000000  0.05000000       0.012
  -0.05000000  0.45000000  0.05000000       0.012
  -0.45000000 -0.45000000  0.05000000       0.006
  -0.35000000 -0.45000000  0.05000000       0.012
  -0.25000000 -0.45000000  0.05000000       0.012
  -0.15000000 -0.45000000  0.05000000       0.012
  -0.35000000 -0.35000000  0.05000000       0.006
  -0.25000000 -0.35000000  0.05000000       0.012
  -0.15000000 -0.35000000  0.05000000       0.012
  -0.25000000 -0.25000000  0.05000000       0.006
  -0.15000000 -0.25000000  0.05000000       0.012
  -0.15000000 -0.15000000  0.05000000       0.006
   0.15000000  0.15000000  0.15000000       0.002
   0.25000000  0.15000000  0.15000000       0.006
   0.35000000  0.15000000  0.15000000       0.006
   0.45000000  0.15000000  0.15000000       0.006
  -0.45000000  0.15000000  0.15000000       0.006
  -0.35000000  0.15000000  0.15000000       0.006
  -0.25000000  0.15000000  0.15000000       0.006
  -0.15000000  0.15000000  0.15000000       0.006
   0.25000000  0.25000000  0.15000000       0.006
   0.35000000  0.25000000  0.15000000       0.012
   0.45000000  0.25000000  0.15000000       0.012
  -0.45000000  0.25000000  0.15000000       0.012
  -0.35000000  0.25000000  0.15000000       0.012
  -0.25000000  0.25000000  0.15000000       0.012
  -0.15000000  0.25000000  0.15000000       0.012
   0.35000000  0.35000000  0.15000000       0.006
   0.45000000  0.35000000  0.15000000       0.012
  -0.45000000  0.35000000  0.15000000       0.012
  -0.35000000  0.35000000  0.15000000       0.012
  -0.25000000  0.35000000  0.15000000       0.012
  -0.15000000  0.35000000  0.15000000       0.012
   0.45000000  0.45000000  0.15000000       0.006
  -0.45000000  0.45000000  0.15000000       0.012
  -0.35000000  0.45000000  0.15000000       0.012
  -0.25000000  0.45000000  0.15000000       0.012
  -0.15000000  0.45000000  0.15000000       0.012
  -0.45000000 -0.45000000  0.15000000       0.006
  -0.35000000 -0.45000000  0.15000000       0.012
  -0.25000000 -0.45000000  0.15000000       0.012
  -0.35000000 -0.35000000  0.15000000       0.006
  -0.25000000 -0.35000000  0.15000000       0.012
  -0.25000000 -0.25000000  0.15000000       0.006
   0.25000000  0.25000000  0.25000000       0.002
   0.35000000  0.25000000  0.25000000       0.006
   0.45000000  0.25000000  0.25000000       0.006
  -0.45000000  0.25000000  0.25000000       0.006
  -0.35000000  0.25000000  0.25000000       0.006
  -0.25000000  0.25000000  0.25000000       0.006
   0.35000000  0.35000000  0.25000000       0.006
   0.45000000  0.35000000  0.25000000       0.012
  -0.45000000  0.35000000  0.25000000       0.012
  -0.35000000  0.35000000  0.25000000       0.012
  -0.25000000  0.35000000  0.25000000       0.012
   0.45000000  0.45000000  0.25000000       0.006
  -0.45000000  0.45000000  0.25000000       0.012
  -0.35000000  0.45000000  0.25000000       0.012
  -0.25000000  0.45000000  0.25000000       0.012
  -0.45000000 -0.45000000  0.25000000       0.006
  -0.35000000 -0.45000000  0.25000000       0.012
  -0.35000000 -0.35000000  0.25000000       0.006
   0.35000000  0.35000000  0.35000000       0.002
   0.45000000  0.35000000  0.35000000       0.006
  -0.45000000  0.35000000  0.35000000       0.006
  -0.35000000  0.35000000  0.35000000       0.006
   0.45000000  0.45000000  0.35000000       0.006
  -0.45000000  0.45000000  0.35000000       0.012
  -0.35000000  0.45000000  0.35000000       0.012
  -0.45000000 -0.45000000  0.35000000       0.006
   0.45000000  0.45000000  0.45000000       0.002
  -0.45000000  0.45000000  0.45000000       0.006
 
 position of ions in fractional coordinates (direct lattice) 
   0.00000000  0.00000000  0.00000000
 
 position of ions in cartesian coordinates  (Angst):
   0.00000000  0.00000000  0.00000000
 


--------------------------------------------------------------------------------------------------------


 k-point  1 :   0.0500 0.0500 0.0500  plane waves:     113
 k-point  2 :   0.1500 0.0500 0.0500  plane waves:     113
 k-point  3 :   0.2500 0.0500 0.0500  plane waves:     109
 k-point  4 :   0.3500 0.0500 0.0500  plane waves:     107
 k-point  5 :   0.4500 0.0500 0.0500  plane waves:     109
 k-point  6 :  -0.4500 0.0500 0.0500  plane waves:     108
 k-point  7 :  -0.3500 0.0500 0.0500  plane waves:     108
 k-point  8 :  -0.2500 0.0500 0.0500  plane waves:     107
 k-point  9 :  -0.1500 0.0500 0.0500  plane waves:     112
 k-point 10 :  -0.0500 0.0500 0.0500  plane waves:     113
 k-point 11 :   0.1500 0.1500 0.0500  plane waves:     112
 k-point 12 :   0.2500 0.1500 0.0500  plane waves:     112
 k-point 13 :   0.3500 0.1500 0.0500  plane waves:     107
 k-point 14 :   0.4500 0.1500 0.0500  plane waves:     109
 k-point 15 :  -0.4500 0.1500 0.0500  plane waves:     109
 k-point 16 :  -0.3500 0.1500 0.0500  plane waves:     107
 k-point 17 :  -0.2500 0.1500 0.0500  plane waves:     107
 k-point 18 :  -0.1500 0.1500 0.0500  plane waves:     110
 k-point 19 :  -0.0500 0.1500 0.0500  plane waves:     113
 k-point 20 :   0.2500 0.2500 0.0500  plane waves:     109
 k-point 21 :   0.3500 0.2500 0.0500  plane waves:     110
 k-point 22 :   0.4500 0.2500 0.0500  plane waves:     110
 k-point 23 :  -0.4500 0.2500 0.0500  plane waves:     108
 k-point 24 :  -0.3500 0.2500 0.0500  plane waves:     107
 k-point 25 :  -0.2500 0.2500 0.0500  plane waves:     108
 k-point 26 :  -0.1500 0.2500 0.0500  plane waves:     105
 k-point 27 :  -0.0500 0.2500 0.0500  plane waves:     107
 k-point 28 :   0.3500 0.3500 0.0500  plane waves:     109
 k-point 29 :   0.4500 0.3500 0.0500  plane waves:     109
 k-point 30 :  -0.4500 0.3500 0.0500  plane waves:     105
 k-point 31 :  -0.3500 0.3500 0.0500  plane waves:     106
 k-point 32 :  -0.2500 0.3500 0.0500  plane waves:     106
 k-point 33 :  -0.1500 0.3500 0.0500  plane waves:     107
 k-point 34 :  -0.0500 0.3500 0.0500  plane waves:     107
 k-point 35 :   0.4500 0.4500 0.0500  plane waves:     111
 k-point 36 :  -0.4500 0.4500 0.0500  plane waves:     108
 k-point 37 :  -0.3500 0.4500 0.0500  plane waves:     106
 k-point 38 :  -0.2500 0.4500 0.0500  plane waves:     105
 k-point 39 :  -0.1500 0.4500 0.0500  plane waves:     109
 k-point 40 :  -0.0500 0.4500 0.0500  plane waves:     109
 k-point 41 :  -0.4500-0.4500 0.0500  plane waves:     112
 k-point 42 :  -0.3500-0.4500 0.0500  plane waves:     107
 k-point 43 :  -0.2500-0.4500 0.0500  plane waves:     107
 k-point 44 :  -0.1500-0.4500 0.0500  plane waves:     110
 k-point 45 :  -0.3500-0.3500 0.0500  plane waves:     110
 k-point 46 :  -0.2500-0.3500 0.0500  plane waves:     110
 k-point 47 :  -0.1500-0.3500 0.0500  plane waves:     110
 k-point 48 :  -0.2500-0.2500 0.0500  plane waves:     108
 k-point 49 :  -0.1500-0.2500 0.0500  plane waves:     111
 k-point 50 :  -0.1500-0.1500 0.0500  plane waves:     113
 k-point 51 :   0.1500 0.1500 0.1500  plane waves:     116
 k-point 52 :   0.2500 0.1500 0.1500  plane waves:     112
 k-point 53 :   0.3500 0.1500 0.1500  plane waves:     107
 k-point 54 :   0.4500 0.1500 0.1500  plane waves:     103
 k-point 55 :  -0.4500 0.1500 0.1500  plane waves:     107
 k-point 56 :  -0.3500 0.1500 0.1500  plane waves:     106
 k-point 57 :  -0.2500 0.1500 0.1500  plane waves:     111
 k-point 58 :  -0.1500 0.1500 0.1500  plane waves:     109
 k-point 59 :   0.2500 0.2500 0.1500  plane waves:     110
 k-point 60 :   0.3500 0.2500 0.1500  plane waves:     109
 k-point 61 :   0.4500 0.2500 0.1500  plane waves:     107
 k-point 62 :  -0.4500 0.2500 0.1500  plane waves:     110
 k-point 63 :  -0.3500 0.2500 0.1500  plane waves:     108
 k-point 64 :  -0.2500 0.2500 0.1500  plane waves:     109
 k-point 65 :  -0.1500 0.2500 0.1500  plane waves:     108
 k-point 66 :   0.3500 0.3500 0.1500  plane waves:     109
 k-point 67 :   0.4500 0.3500 0.1500  plane waves:     110
 k-point 68 :  -0.4500 0.3500 0.1500  plane waves:     107
 k-point 69 :  -0.3500 0.3500 0.1500  plane waves:     107
 k-point 70 :  -0.2500 0.3500 0.1500  plane waves:     109
 k-point 71 :  -0.1500 0.3500 0.1500  plane waves:     109
 k-point 72 :   0.4500 0.4500 0.1500  plane waves:     106
 k-point 73 :  -0.4500 0.4500 0.1500  plane waves:     106
 k-point 74 :  -0.3500 0.4500 0.1500  plane waves:     104
 k-point 75 :  -0.2500 0.4500 0.1500  plane waves:     109
 k-point 76 :  -0.1500 0.4500 0.1500  plane waves:     109
 k-point 77 :  -0.4500-0.4500 0.1500  plane waves:     108
 k-point 78 :  -0.3500-0.4500 0.1500  plane waves:     106
 k-point 79 :  -0.2500-0.4500 0.1500  plane waves:     106
 k-point 80 :  -0.3500-0.3500 0.1500  plane waves:     108
 k-point 81 :  -0.2500-0.3500 0.1500  plane waves:     106
 k-point 82 :  -0.2500-0.2500 0.1500  plane waves:     109
 k-point 83 :   0.2500 0.2500 0.2500  plane waves:     107
 k-point 84 :   0.3500 0.2500 0.2500  plane waves:     106
 k-point 85 :   0.4500 0.2500 0.2500  plane waves:     106
 k-point 86 :  -0.4500 0.2500 0.2500  plane waves:     105
 k-point 87 :  -0.3500 0.2500 0.2500  plane waves:     105
 k-point 88 :  -0.2500 0.2500 0.2500  plane waves:     108
 k-point 89 :   0.3500 0.3500 0.2500  plane waves:     109
 k-point 90 :   0.4500 0.3500 0.2500  plane waves:     107
 k-point 91 :  -0.4500 0.3500 0.2500  plane waves:     109
 k-point 92 :  -0.3500 0.3500 0.2500  plane waves:     108
 k-point 93 :  -0.2500 0.3500 0.2500  plane waves:     107
 k-point 94 :   0.4500 0.4500 0.2500  plane waves:     110
 k-point 95 :  -0.4500 0.4500 0.2500  plane waves:     107
 k-point 96 :  -0.3500 0.4500 0.2500  plane waves:     107
 k-point 97 :  -0.2500 0.4500 0.2500  plane waves:     108
 k-point 98 :  -0.4500-0.4500 0.2500  plane waves:     106
 k-point 99 :  -0.3500-0.4500 0.2500  plane waves:     106
 k-point ** :  -0.3500-0.3500 0.2500  plane waves:     104
 k-point ** :   0.3500 0.3500 0.3500  plane waves:     111
 k-point ** :   0.4500 0.3500 0.3500  plane waves:     107
 k-point ** :  -0.4500 0.3500 0.3500  plane waves:     109
 k-point ** :  -0.3500 0.3500 0.3500  plane waves:     101
 k-point ** :   0.4500 0.4500 0.3500  plane waves:     108
 k-point ** :  -0.4500 0.4500 0.3500  plane waves:     108
 k-point ** :  -0.3500 0.4500 0.3500  plane waves:     108
 k-point ** :  -0.4500-0.4500 0.3500  plane waves:     107
 k-point ** :   0.4500 0.4500 0.4500  plane waves:     108
 k-point ** :  -0.4500 0.4500 0.4500  plane waves:     109

 maximum and minimum number of plane-waves per node :       116      101

 maximum number of plane-waves:       116
 maximum index in each direction: 
   IXMAX=    3   IYMAX=    3   IZMAX=    3
   IXMIN=   -3   IYMIN=   -3   IZMIN=   -3


 serial   3D FFT for wavefunctions
 parallel 3D FFT for charge:
    minimum data exchange during FFTs selected (reduces bandwidth)


 total amount of memory used by VASP MPI-rank0    33768. kBytes
=======================================================================

   base      :      30000. kBytes
   nonl-proj :       1839. kBytes
   fftplans  :        142. kBytes
   grid      :        320. kBytes
   one-center:         31. kBytes
   wavefun   :       1436. kBytes
 
     INWAV:  cpu time    0.0001: real time    0.0002
 Broyden mixing: mesh for mixing (old mesh)
   NGX =  7   NGY =  7   NGZ =  7
  (NGX  = 20   NGY  = 20   NGZ  = 20)
  gives a total of    343 points

 initial charge density was supplied:
 charge density of overlapping atoms calculated
 number of electron      10.0000000 magnetization       3.0000000
 keeping initial charge density in first step


--------------------------------------------------------------------------------------------------------


 Maximum index for augmentation-charges          733 (set IRDMAX)


--------------------------------------------------------------------------------------------------------


 First call to EWALD:  gamma=   0.804
 Maximum number of real-space cells 3x 3x 3
 Maximum number of reciprocal cells 3x 3x 3

    FEWALD:  cpu time    0.0010: real time    0.0010


--------------------------------------- Iteration      1(   1)  ---------------------------------------


    POTLOK:  cpu time    0.0036: real time    0.0048
    SETDIJ:  cpu time    0.0038: real time    0.0038
     EDDAV:  cpu time    0.3198: real time    0.3268
       DOS:  cpu time    0.0020: real time    0.0020
    --------------------------------------------
      LOOP:  cpu time    0.3292: real time    0.3374

 eigenvalue-minimisations  :  5860
 total energy-change (2. order) : 0.1818994E+02  (-0.2998993E+03)
 number of electron      10.0000000 magnetization       3.0000000
 augmentation part       10.0000000 magnetization       3.0000000

 Free energy of the ion-electron system (eV)
  ---------------------------------------------------
  alpha Z        PSCENC =        47.57961609
  Ewald energy   TEWEN  =      -943.15768639
  -Hartree energ DENC   =      -242.77483297
  -exchange      EXHF   =         0.00000000
  -V(xc)+E(xc)   XCENC  =        32.77715544
  PAW double counting   =       961.92645289    -1028.66799202
  entropy T*S    EENTRO =         0.00080999
  eigenvalues    EBANDS =       112.87033778
  atomic energy  EATOM  =      1077.63607467
  Solvation  Ediel_sol  =         0.00000000
  ---------------------------------------------------
  free energy    TOTEN  =        18.18993548 eV

  energy without entropy =       18.18912550  energy(sigma->0) =       18.18966549


--------------------------------------------------------------------------------------------------------




--------------------------------------- Iteration      1(   2)  ---------------------------------------


     EDDAV:  cpu time    0.3174: real time    0.3243
       DOS:  cpu time    0.0020: real time    0.0020
    --------------------------------------------
      LOOP:  cpu time    0.3194: real time    0.3263

 eigenvalue-minimisations  :  5716
 total energy-change (2. order) :-0.2361492E+02  (-0.2210106E+02)
 number of electron      10.0000000 magnetization       3.0000000
 augmentation part       10.0000000 magnetization       3.0000000

 Free energy of the ion-electron system (eV)
  ---------------------------------------------------
  alpha Z        PSCENC =        47.57961609
  Ewald energy   TEWEN  =      -943.15768639
  -Hartree energ DENC   =      -242.77483297
  -exchange      EXHF   =         0.00000000
  -V(xc)+E(xc)   XCENC  =        32.77715544
  PAW double counting   =       961.92645289    -1028.66799202
  entropy T*S    EENTRO =         0.00039117
  eigenvalues    EBANDS =        89.25583281
  atomic energy  EATOM  =      1077.63607467
  Solvation  Ediel_sol  =         0.00000000
  ---------------------------------------------------
  free energy    TOTEN  =        -5.42498831 eV

  energy without entropy =       -5.42537948  energy(sigma->0) =       -5.42511870


--------------------------------------------------------------------------------------------------------




--------------------------------------- Iteration      1(   3)  ---------------------------------------


     EDDAV:  cpu time    0.3357: real time    0.3428
       DOS:  cpu time    0.0020: real time    0.0020
    --------------------------------------------
      LOOP:  cpu time    0.3377: real time    0.3448

 eigenvalue-minimisations  :  6068
 total energy-change (2. order) :-0.4191853E+00  (-0.4178115E+00)
 number of electron      10.0000000 magnetization       3.0000000
 augmentation part       10.0000000 magnetization       3.0000000

 Free energy of the ion-electron system (eV)
  ---------------------------------------------------
  alpha Z        PSCENC =        47.57961609
  Ewald energy   TEWEN  =      -943.15768639
  -Hartree energ DENC   =      -242.77483297
  -exchange      EXHF   =         0.00000000
  -V(xc)+E(xc)   XCENC  =        32.77715544
  PAW double counting   =       961.92645289    -1028.66799202
  entropy T*S    EENTRO =        -0.00061757
  eigenvalues    EBANDS =        88.83765626
  atomic energy  EATOM  =      1077.63607467
  Solvation  Ediel_sol  =         0.00000000
  ---------------------------------------------------
  free energy    TOTEN  =        -5.84417359 eV

  energy without entropy =       -5.84355602  energy(sigma->0) =       -5.84396774


--------------------------------------------------------------------------------------------------------




--------------------------------------- Iteration      1(   4)  ---------------------------------------


     EDDAV:  cpu time    0.3259: real time    0.3330
       DOS:  cpu time    0.0020: real time    0.0020
    --------------------------------------------
      LOOP:  cpu time    0.3279: real time    0.3350

 eigenvalue-minimisations  :  5944
 total energy-change (2. order) :-0.2020111E-02  (-0.2019847E-02)
 number of electron      10.0000000 magnetization       3.0000000
 augmentation part       10.0000000 magnetization       3.0000000

 Free energy of the ion-electron system (eV)
  ---------------------------------------------------
  alpha Z        PSCENC =        47.57961609
  Ewald energy   TEWEN  =      -943.15768639
  -Hartree energ DENC   =      -242.77483297
  -exchange      EXHF   =         0.00000000
  -V(xc)+E(xc)   XCENC  =        32.77715544
  PAW double counting   =       961.92645289    -1028.66799202
  entropy T*S    EENTRO =        -0.00061823
  eigenvalues    EBANDS =        88.83563681
  atomic energy  EATOM  =      1077.63607467
  Solvation  Ediel_sol  =         0.00000000
  ---------------------------------------------------
  free energy    TOTEN  =        -5.84619370 eV

  energy without entropy =       -5.84557547  energy(sigma->0) =       -5.84598763


--------------------------------------------------------------------------------------------------------




--------------------------------------- Iteration      1(   5)  ---------------------------------------


     EDDAV:  cpu time    0.3208: real time    0.3279
       DOS:  cpu time    0.0020: real time    0.0020
    CHARGE:  cpu time    0.0044: real time    0.0045
    MIXING:  cpu time    0.0003: real time    0.0003
    --------------------------------------------
      LOOP:  cpu time    0.3275: real time    0.3346

 eigenvalue-minimisations  :  5928
 total energy-change (2. order) :-0.2663519E-04  (-0.2663686E-04)
 number of electron       9.9999878 magnetization       0.5389046
 augmentation part        5.5614843 magnetization       0.3352282

 Broyden mixing:
  rms(total) = 0.14072E+01    rms(broyden)= 0.14070E+01
  rms(prec ) = 0.35392E+01
  weight for this iteration     100.00

 Free energy of the ion-electron system (eV)
  ---------------------------------------------------
  alpha Z        PSCENC =        47.57961609
  Ewald energy   TEWEN  =      -943.15768639
  -Hartree energ DENC   =      -242.77483297
  -exchange      EXHF   =         0.00000000
  -V(xc)+E(xc)   XCENC  =        32.77715544
  PAW double counting   =       961.92645289    -1028.66799202
  entropy T*S    EENTRO =        -0.00061823
  eigenvalues    EBANDS =        88.83561018
  atomic energy  EATOM  =      1077.63607467
  Solvation  Ediel_sol  =         0.00000000
  ---------------------------------------------------
  free energy    TOTEN  =        -5.84622034 eV

  energy without entropy =       -5.84560211  energy(sigma->0) =       -5.84601426


--------------------------------------------------------------------------------------------------------




--------------------------------------- Iteration      1(   6)  ---------------------------------------


    POTLOK:  cpu time    0.0032: real time    0.0032
    SETDIJ:  cpu time    0.0034: real time    0.0034
     EDDAV:  cpu time    0.3459: real time    0.3529
       DOS:  cpu time    0.0020: real time    0.0020
    CHARGE:  cpu time    0.0044: real time    0.0044
    MIXING:  cpu time    0.0003: real time    0.0003
    --------------------------------------------
      LOOP:  cpu time    0.3591: real time    0.3662

 eigenvalue-minimisations  :  6564
 total energy-change (2. order) : 0.5675239E-02  (-0.1333445E+01)
 number of electron       9.9999850 magnetization       0.5665280
 augmentation part        6.4927170 magnetization       0.6098754

 Broyden mixing:
  rms(total) = 0.60063E+00    rms(broyden)= 0.60055E+00
  rms(prec ) = 0.16067E+01
  weight for this iteration     100.00

 eigenvalues of (default mixing * dielectric matrix)
  average eigenvalue GAMMA=   0.9174
  0.9174

 Free energy of the ion-electron system (eV)
  ---------------------------------------------------
  alpha Z        PSCENC =        47.57961609
  Ewald energy   TEWEN  =      -943.15768639
  -Hartree energ DENC   =      -217.41620764
  -exchange      EXHF   =         0.00000000
  -V(xc)+E(xc)   XCENC  =        30.53008075
  PAW double counting   =      1030.85588351    -1093.37578134
  entropy T*S    EENTRO =        -0.00473324
  eigenvalues    EBANDS =        61.51220848
  atomic energy  EATOM  =      1077.63607467
  Solvation  Ediel_sol  =         0.00000000
  ---------------------------------------------------
  free energy    TOTEN  =        -5.84054510 eV

  energy without entropy =       -5.83581186  energy(sigma->0) =       -5.83896735


--------------------------------------------------------------------------------------------------------




--------------------------------------- Iteration      1(   7)  ---------------------------------------


    POTLOK:  cpu time    0.0031: real time    0.0032
    SETDIJ:  cpu time    0.0033: real time    0.0033
     EDDAV:  cpu time    0.3531: real time    0.3602
       DOS:  cpu time    0.0020: real time    0.0020
    CHARGE:  cpu time    0.0046: real time    0.0046
    MIXING:  cpu time    0.0003: real time    0.0003
    --------------------------------------------
      LOOP:  cpu time    0.3663: real time    0.3735

 eigenvalue-minimisations  :  6604
 total energy-change (2. order) : 0.3635833E+00  (-0.2852404E+00)
 number of electron       9.9999863 magnetization       0.6587584
 augmentation part        6.1232130 magnetization       0.6441577

 Broyden mixing:
  rms(total) = 0.16111E+00    rms(broyden)= 0.16107E+00
  rms(prec ) = 0.34141E+00
  weight for this iteration     100.00

 eigenvalues of (default mixing * dielectric matrix)
  average eigenvalue GAMMA=   0.8609
  1.0183  0.7034

 Free energy of the ion-electron system (eV)
  ---------------------------------------------------
  alpha Z        PSCENC =        47.57961609
  Ewald energy   TEWEN  =      -943.15768639
  -Hartree energ DENC   =      -225.40218516
  -exchange      EXHF   =         0.00000000
  -V(xc)+E(xc)   XCENC  =        30.91516446
  PAW double counting   =      1065.99171931    -1132.50974859
  entropy T*S    EENTRO =        -0.00145172
  eigenvalues    EBANDS =        73.47153549
  atomic energy  EATOM  =      1077.63607467
  Solvation  Ediel_sol  =         0.00000000
  ---------------------------------------------------
  free energy    TOTEN  =        -5.47696184 eV

  energy without entropy =       -5.47551012  energy(sigma->0) =       -5.47647793


--------------------------------------------------------------------------------------------------------




--------------------------------------- Iteration      1(   8)  ---------------------------------------


    POTLOK:  cpu time    0.0031: real time    0.0033
    SETDIJ:  cpu time    0.0032: real time    0.0032
     EDDAV:  cpu time    0.3406: real time    0.3477
       DOS:  cpu time    0.0021: real time    0.0021
    CHARGE:  cpu time    0.0048: real time    0.0048
    MIXING:  cpu time    0.0003: real time    0.0003
    --------------------------------------------
      LOOP:  cpu time    0.3542: real time    0.3615

 eigenvalue-minimisations  :  6004
 total energy-change (2. order) : 0.9707159E-02  (-0.1645273E-02)
 number of electron       9.9999862 magnetization       0.6192899
 augmentation part        6.1415635 magnetization       0.5870449

 Broyden mixing:
  rms(total) = 0.90893E-01    rms(broyden)= 0.90891E-01
  rms(prec ) = 0.17673E+00
  weight for this iteration     100.00

 eigenvalues of (default mixing * dielectric matrix)
  average eigenvalue GAMMA=   0.8566
  1.2456  0.6822  0.6419

 Free energy of the ion-electron system (eV)
  ---------------------------------------------------
  alpha Z        PSCENC =        47.57961609
  Ewald energy   TEWEN  =      -943.15768639
  -Hartree energ DENC   =      -223.74036855
  -exchange      EXHF   =         0.00000000
  -V(xc)+E(xc)   XCENC  =        30.83558487
  PAW double counting   =      1101.20538172    -1168.69390464
  entropy T*S    EENTRO =        -0.00171082
  eigenvalues    EBANDS =        72.86975837
  atomic energy  EATOM  =      1077.63607467
  Solvation  Ediel_sol  =         0.00000000
  ---------------------------------------------------
  free energy    TOTEN  =        -5.46725468 eV

  energy without entropy =       -5.46554386  energy(sigma->0) =       -5.46668441


--------------------------------------------------------------------------------------------------------




--------------------------------------- Iteration      1(   9)  ---------------------------------------


    POTLOK:  cpu time    0.0031: real time    0.0032
    SETDIJ:  cpu time    0.0031: real time    0.0032
     EDDAV:  cpu time    0.3394: real time    0.3462
       DOS:  cpu time    0.0020: real time    0.0020
    CHARGE:  cpu time    0.0046: real time    0.0046
    MIXING:  cpu time    0.0003: real time    0.0003
    --------------------------------------------
      LOOP:  cpu time    0.3525: real time    0.3594

 eigenvalue-minimisations  :  6352
 total energy-change (2. order) : 0.3077597E-02  (-0.1664022E-03)
 number of electron       9.9999862 magnetization       0.6106997
 augmentation part        6.1504444 magnetization       0.5812582

 Broyden mixing:
  rms(total) = 0.40581E-01    rms(broyden)= 0.40581E-01
  rms(prec ) = 0.84952E-01
  weight for this iteration     100.00

 eigenvalues of (default mixing * dielectric matrix)
  average eigenvalue GAMMA=   1.1181
  2.2007  1.0057  0.6658  0.6001

 Free energy of the ion-electron system (eV)
  ---------------------------------------------------
  alpha Z        PSCENC =        47.57961609
  Ewald energy   TEWEN  =      -943.15768639
  -Hartree energ DENC   =      -222.85295145
  -exchange      EXHF   =         0.00000000
  -V(xc)+E(xc)   XCENC  =        30.78854889
  PAW double counting   =      1122.90519158    -1190.97422215
  entropy T*S    EENTRO =        -0.00174307
  eigenvalues    EBANDS =        72.61299475
  atomic energy  EATOM  =      1077.63607467
  Solvation  Ediel_sol  =         0.00000000
  ---------------------------------------------------
  free energy    TOTEN  =        -5.46417708 eV

  energy without entropy =       -5.46243401  energy(sigma->0) =       -5.46359606


--------------------------------------------------------------------------------------------------------




--------------------------------------- Iteration      1(  10)  ---------------------------------------


    POTLOK:  cpu time    0.0031: real time    0.0032
    SETDIJ:  cpu time    0.0032: real time    0.0033
     EDDAV:  cpu time    0.3212: real time    0.3281
       DOS:  cpu time    0.0021: real time    0.0021
    CHARGE:  cpu time    0.0046: real time    0.0047
    MIXING:  cpu time    0.0004: real time    0.0004
    --------------------------------------------
      LOOP:  cpu time    0.3347: real time    0.3417

 eigenvalue-minimisations  :  5668
 total energy-change (2. order) : 0.1042436E-02  (-0.1575096E-03)
 number of electron       9.9999862 magnetization       0.6227067
 augmentation part        6.1584264 magnetization       0.5960546

 Broyden mixing:
  rms(total) = 0.51818E-02    rms(broyden)= 0.51798E-02
  rms(prec ) = 0.74606E-02
  weight for this iteration     100.00

 eigenvalues of (default mixing * dielectric matrix)
  average eigenvalue GAMMA=   1.1328
  2.3938  1.1544  0.8458  0.6349  0.6349

 Free energy of the ion-electron system (eV)
  ---------------------------------------------------
  alpha Z        PSCENC =        47.57961609
  Ewald energy   TEWEN  =      -943.15768639
  -Hartree energ DENC   =      -222.04912762
  -exchange      EXHF   =         0.00000000
  -V(xc)+E(xc)   XCENC  =        30.75225736
  PAW double counting   =      1143.59272924    -1212.17388636
  entropy T*S    EENTRO =        -0.00178780
  eigenvalues    EBANDS =        72.35867616
  atomic energy  EATOM  =      1077.63607467
  Solvation  Ediel_sol  =         0.00000000
  ---------------------------------------------------
  free energy    TOTEN  =        -5.46313465 eV

  energy without entropy =       -5.46134684  energy(sigma->0) =       -5.46253871


--------------------------------------------------------------------------------------------------------




--------------------------------------- Iteration      1(  11)  ---------------------------------------


    POTLOK:  cpu time    0.0030: real time    0.0032
    SETDIJ:  cpu time    0.0031: real time    0.0032
     EDDAV:  cpu time    0.2226: real time    0.2294
       DOS:  cpu time    0.0023: real time    0.0023
    --------------------------------------------
      LOOP:  cpu time    0.2311: real time    0.2381

 eigenvalue-minimisations  :  2836
 total energy-change (2. order) :-0.1591417E-04  (-0.2854635E-05)
 number of electron       9.9999862 magnetization       0.6227067
 augmentation part        6.1584264 magnetization       0.5960546

 Free energy of the ion-electron system (eV)
  ---------------------------------------------------
  alpha Z        PSCENC =        47.57961609
  Ewald energy   TEWEN  =      -943.15768639
  -Hartree energ DENC   =      -221.98440840
  -exchange      EXHF   =         0.00000000
  -V(xc)+E(xc)   XCENC  =        30.75143138
  PAW double counting   =      1146.39336538    -1215.01652336
  entropy T*S    EENTRO =        -0.00177592
  eigenvalues    EBANDS =        72.33675598
  atomic energy  EATOM  =      1077.63607467
  Solvation  Ediel_sol  =         0.00000000
  ---------------------------------------------------
  free energy    TOTEN  =        -5.46315056 eV

  energy without entropy =       -5.46137464  energy(sigma->0) =       -5.46255859


--------------------------------------------------------------------------------------------------------




 average (electrostatic) potential at core
  the test charge radii are     0.9791
  (the norm of the test charge is              1.0000)
       1 -81.8225
 
 
 
 E-fermi :   9.5827     XC(G=0): -13.3431     alpha+bet :-16.7103


 spin component 1

 k-point     1 :       0.0500    0.0500    0.0500
  band No.  band energies     occupation 
      1       0.5731      1.00000
      2       7.0961      1.00000
      3       7.1443      1.00000
      4       7.1443      1.00000
      5       8.2937      1.00000
      6       8.2937      1.00000
      7      33.1934      0.00000
      8      36.0647      0.00000
      9      37.1997      0.00000
     10      37.1997      0.00000
     11      40.9185      0.00000
     12      40.9185      0.00000

 k-point     2 :       0.1500    0.0500    0.0500
  band No.  band energies     occupation 
      1       1.0921      1.00000
      2       6.9620      1.00000
      3       7.2474      1.00000
      4       7.2637      1.00000
      5       8.1932      1.00000
      6       8.3237      1.00000
      7      31.0354      0.00000
      8      33.3963      0.00000
      9      36.0646      0.00000
     10      37.9039      0.00000
     11      40.5752      0.00000
     12      41.1203      0.00000

 k-point     3 :       0.2500    0.0500    0.0500
  band No.  band energies     occupation 
      1       2.2997      1.00000
      2       6.7721      1.00000
      3       7.3575      1.00000
      4       7.3870      1.00000
      5       8.1813      1.00000
      6       8.4452      1.00000
      7      25.9619      0.00000
      8      32.2983      0.00000
      9      35.4680      0.00000
     10      37.3425      0.00000
     11      40.2003      0.00000
     12      40.5787      0.00000

 k-point     4 :       0.3500    0.0500    0.0500
  band No.  band energies     occupation 
      1       3.7935      1.00000
      2       6.9304      1.00000
      3       7.2735      1.00000
      4       7.3252      1.00000
      5       8.4690      1.00000
      6       8.7855      1.00000
      7      21.0510      0.00000
      8      31.6497      0.00000
      9      34.3388      0.00000
     10      36.5482      0.00000
     11      38.3281      0.00000
     12      40.0769      0.00000

 k-point     5 :       0.4500    0.0500    0.0500
  band No.  band energies     occupation 
      1       4.6102      1.00000
      2       7.1401      1.00000
      3       7.2028      1.00000
      4       7.9994      1.00000
      5       8.8228      1.00000
      6       9.3269      1.03504
      7      16.9844      0.00000
      8      31.3907      0.00000
      9      33.5949      0.00000
     10      34.9655      0.00000
     11      37.8458      0.00000
     12      39.2382      0.00000

 k-point     6 :      -0.4500    0.0500    0.0500
  band No.  band energies     occupation 
      1       4.7275      1.00000
      2       7.0917      1.00000
      3       7.1722      1.00000
      4       8.4267      1.00000
      5       8.9893      1.00011
      6       9.8522     -0.03350
      7      15.4564      0.00000
      8      31.4934      0.00000
      9      33.6942      0.00000
     10      33.7875      0.00000
     11      38.4734      0.00000
     12      38.5593      0.00000

 k-point     7 :      -0.3500    0.0500    0.0500
  band No.  band energies     occupation 
      1       4.4492      1.00000
      2       7.1673      1.00000
      3       7.2493      1.00000
      4       7.5605      1.00000
      5       8.8777      1.00000
      6       8.9691      1.00006
      7      18.1933      0.00000
      8      31.9710      0.00000
      9      33.1959      0.00000
     10      34.9752      0.00000
     11      38.3798      0.00000
     12      39.7536      0.00000

 k-point     8 :      -0.2500    0.0500    0.0500
  band No.  band energies     occupation 
      1       3.3162      1.00000
      2       6.7845      1.00000
      3       7.3167      1.00000
      4       7.3648      1.00000
      5       8.4191      1.00000
      6       8.5910      1.00000
      7      22.6243      0.00000
      8      32.7517      0.00000
      9      33.4128      0.00000
     10      36.8025      0.00000
     11      38.7362      0.00000
     12      41.6678      0.00000

 k-point     9 :      -0.1500    0.0500    0.0500
  band No.  band energies     occupation 
      1       1.8345      1.00000
      2       6.8138      1.00000
      3       7.3525      1.00000
      4       7.3623      1.00000
      5       8.1594      1.00000
      6       8.3744      1.00000
      7      27.6688      0.00000
      8      33.5674      0.00000
      9      34.2252      0.00000
     10      37.9672      0.00000
     11      39.4494      0.00000
     12      43.2990      0.00000

 k-point    10 :      -0.0500    0.0500    0.0500
  band No.  band energies     occupation 
      1       0.8348      1.00000
      2       7.0101      1.00000
      3       7.2114      1.00000
      4       7.2150      1.00000
      5       8.2104      1.00000
      6       8.3308      1.00000
      7      32.4032      0.00000
      8      34.7303      0.00000
      9      35.5484      0.00000
     10      37.1301      0.00000
     11      40.9845      0.00000
     12      42.4947      0.00000

 k-point    11 :       0.1500    0.1500    0.0500
  band No.  band energies     occupation 
      1       1.3466      1.00000
      2       6.8375      1.00000
      3       7.3508      1.00000
      4       7.3549      1.00000
      5       8.0638      1.00000
      6       8.4017      1.00000
      7      31.2261      0.00000
      8      33.4171      0.00000
      9      33.6348      0.00000
     10      35.7915      0.00000
     11      41.4322      0.00000
     12      42.9242      0.00000

 k-point    12 :       0.2500    0.1500    0.0500
  band No.  band energies     occupation 
      1       2.3129      1.00000
      2       6.6086      1.00000
      3       7.4347      1.00000
      4       7.5537      1.00000
      5       8.0053      1.00000
      6       8.5336      1.00000
      7      28.0350      0.00000
      8      30.2636      0.00000
      9      34.0566      0.00000
     10      35.4960      0.00000
     11      39.5473      0.00000
     12      42.9899      0.00000

 k-point    13 :       0.3500    0.1500    0.0500
  band No.  band energies     occupation 
      1       3.7342      1.00000
      2       6.5051      1.00000
      3       7.2279      1.00000
      4       7.5849      1.00000
      5       8.4150      1.00000
      6       8.8923      1.00001
      7      22.9986      0.00000
      8      29.4487      0.00000
      9      32.5222      0.00000
     10      34.9197      0.00000
     11      41.1719      0.00000
     12      41.5693      0.00000

 k-point    14 :       0.4500    0.1500    0.0500
  band No.  band energies     occupation 
      1       4.7975      1.00000
      2       6.8572      1.00000
      3       7.0876      1.00000
      4       7.4763      1.00000
      5       8.8613      1.00000
      6       9.8052     -0.03321
      7      18.5120      0.00000
      8      29.1991      0.00000
      9      30.8601      0.00000
     10      34.0217      0.00000
     11      40.4368      0.00000
     12      42.8211      0.00000

 k-point    15 :      -0.4500    0.1500    0.0500
  band No.  band energies     occupation 
      1       5.0438      1.00000
      2       6.8449      1.00000
      3       7.3875      1.00000
      4       7.5786      1.00000
      5       8.9589      1.00005
      6      11.2446     -0.00000
      7      15.5814      0.00000
      8      28.7980      0.00000
      9      30.4185      0.00000
     10      33.8515      0.00000
     11      39.7360      0.00000
     12      42.4472      0.00000

 k-point    16 :      -0.3500    0.1500    0.0500
  band No.  band energies     occupation 
      1       4.9522      1.00000
      2       6.9225      1.00000
      3       7.2860      1.00000
      4       7.4308      1.00000
      5       8.7670      1.00000
      6      10.3974     -0.00000
      7      17.2667      0.00000
      8      28.1264      0.00000
      9      31.5758      0.00000
     10      34.5985      0.00000
     11      39.3666      0.00000
     12      42.1563      0.00000

 k-point    17 :      -0.2500    0.1500    0.0500
  band No.  band energies     occupation 
      1       4.2013      1.00000
      2       6.6354      1.00000
      3       7.1387      1.00000
      4       7.5388      1.00000
      5       8.3449      1.00000
      6       9.2830      1.02772
      7      21.4283      0.00000
      8      28.0266      0.00000
      9      33.4146      0.00000
     10      36.2064      0.00000
     11      39.3416      0.00000
     12      41.4239      0.00000

 k-point    18 :      -0.1500    0.1500    0.0500
  band No.  band energies     occupation 
      1       2.7634      1.00000
      2       6.6030      1.00000
      3       7.3467      1.00000
      4       7.5833      1.00000
      5       8.0031      1.00000
      6       8.6945      1.00000
      7      26.3188      0.00000
      8      28.5988      0.00000
      9      35.6047      0.00000
     10      37.0773      0.00000
     11      40.1881      0.00000
     12      40.6777      0.00000

 k-point    19 :      -0.0500    0.1500    0.0500
  band No.  band energies     occupation 
      1       1.5946      1.00000
      2       6.8199      1.00000
      3       7.3535      1.00000
      4       7.3667      1.00000
      5       8.0864      1.00000
      6       8.4032      1.00000
      7      29.5065      0.00000
      8      31.8057      0.00000
      9      35.3790      0.00000
     10      37.4880      0.00000
     11      40.3066      0.00000
     12      42.3384      0.00000

 k-point    20 :       0.2500    0.2500    0.0500
  band No.  band energies     occupation 
      1       2.9717      1.00000
      2       6.3329      1.00000
      3       7.5891      1.00000
      4       7.8109      1.00000
      5       7.9765      1.00000
      6       8.6176      1.00000
      7      28.4934      0.00000
      8      29.9701      0.00000
      9      31.0667      0.00000
     10      32.1435      0.00000
     11      36.6248      0.00000
     12      46.9678      0.00000

 k-point    21 :       0.3500    0.2500    0.0500
  band No.  band energies     occupation 
      1       4.0720      1.00000
      2       6.1032      1.00000
      3       7.3614      1.00000
      4       8.0632      1.00000
      5       8.4502      1.00000
      6       8.9120      1.00001
      7      25.3938      0.00000
      8      27.4155      0.00000
      9      29.2524      0.00000
     10      32.7440      0.00000
     11      36.7413      0.00000
     12      46.4618      0.00000

[...]
      4       7.8913      1.00000
      5       9.4205      0.99276
      6       9.4205      0.99276
      7      19.7212      0.00000
      8      32.5021      0.00000
      9      34.8780      0.00000
     10      34.8780      0.00000
     11      38.9019      0.00000
     12      38.9019      0.00000

 k-point   102 :       0.4500    0.3500    0.3500
  band No.  band energies     occupation 
      1       4.9021      1.00000
      2       7.6050      1.00000
      3       7.7566      1.00000
      4       7.9689      1.00000
      5       9.3565      1.03392
      6      10.2298     -0.00002
      7      18.6033      0.00000
      8      29.2317      0.00000
      9      33.6169      0.00000
     10      34.8599      0.00000
     11      39.0952      0.00000
     12      40.3202      0.00000

 k-point   103 :      -0.4500    0.3500    0.3500
  band No.  band energies     occupation 
      1       5.7747      1.00000
      2       7.1234      1.00000
      3       7.4911      1.00000
      4       8.2892      1.00000
      5       9.3516      1.03465
      6      11.8513     -0.00000
      7      17.9712      0.00000
      8      24.6708      0.00000
      9      31.7818      0.00000
     10      32.8136      0.00000
     11      42.6810      0.00000
     12      42.7770      0.00000

 k-point   104 :      -0.3500    0.3500    0.3500
  band No.  band energies     occupation 
      1       6.3745      1.00000
      2       6.5515      1.00000
      3       7.4810      1.00000
      4       8.7220      1.00000
      5       9.4654      0.91388
      6      14.1788     -0.00000
      7      17.4288      0.00000
      8      21.0198      0.00000
      9      29.0694      0.00000
     10      31.9988      0.00000
     11      46.2072      0.00000
     12      46.2411      0.00000

 k-point   105 :       0.4500    0.4500    0.3500
  band No.  band energies     occupation 
      1       5.1273      1.00000
      2       7.5300      1.00000
      3       7.9502      1.00000
      4       7.9649      1.00000
      5       9.7310      0.02640
      6      10.3440     -0.00000
      7      17.3987      0.00000
      8      30.5352      0.00000
      9      31.9029      0.00000
     10      33.3028      0.00000
     11      40.3252      0.00000
     12      40.8715      0.00000

 k-point   106 :      -0.4500    0.4500    0.3500
  band No.  band energies     occupation 
      1       5.6839      1.00000
      2       7.1244      1.00000
      3       7.7306      1.00000
      4       8.2093      1.00000
      5       9.6416      0.26245
      6      11.9089     -0.00000
      7      16.7156      0.00000
      8      27.2208      0.00000
      9      28.8627      0.00000
     10      34.8962      0.00000
     11      39.6704      0.00000
     12      44.7704      0.00000

 k-point   107 :      -0.3500    0.4500    0.3500
  band No.  band energies     occupation 
      1       6.3389      1.00000
      2       6.5916      1.00000
      3       7.4437      1.00000
      4       8.6091      1.00000
      5       9.6360      0.28322
      6      14.1567     -0.00000
      7      16.4707      0.00000
      8      23.1989      0.00000
      9      26.4058      0.00000
     10      35.1916      0.00000
     11      41.4116      0.00000
     12      47.8599      0.00000

 k-point   108 :      -0.4500   -0.4500    0.3500
  band No.  band energies     occupation 
      1       5.8790      1.00000
      2       6.9122      1.00000
      3       7.7423      1.00000
      4       8.3171      1.00000
      5       9.7075      0.06942
      6      12.7937     -0.00000
      7      16.1291      0.00000
      8      25.5797      0.00000
      9      29.9269      0.00000
     10      32.1397      0.00000
     11      43.5810      0.00000
     12      43.7321      0.00000

 k-point   109 :       0.4500    0.4500    0.4500
  band No.  band energies     occupation 
      1       5.0232      1.00000
      2       7.7730      1.00000
      3       7.7730      1.00000
      4       8.8787      1.00000
      5       9.6992      0.08797
      6       9.6992      0.08797
      7      16.3477      0.00000
      8      31.8877      0.00000
      9      34.6472      0.00000
     10      34.6472      0.00000
     11      37.7433      0.00000
     12      37.7433      0.00000

 k-point   110 :      -0.4500    0.4500    0.4500
  band No.  band energies     occupation 
      1       5.3200      1.00000
      2       7.5398      1.00000
      3       7.9012      1.00000
      4       8.3101      1.00000
      5       9.6868      0.11885
      6      11.0196     -0.00000
      7      15.9002      0.00000
      8      29.6585      0.00000
      9      32.9201      0.00000
     10      32.9456      0.00000
     11      39.6793      0.00000
     12      40.3454      0.00000


--------------------------------------------------------------------------------------------------------


 soft charge-density along one line, spin component           1
         0         1         2         3         4         5         6         7         8         9
 total charge-density along one line
 
 soft charge-density along one line, spin component           2
         0         1         2         3         4         5         6         7         8         9
 total charge-density along one line
 
 pseudopotential strength for first ion, spin component:           1
 -0.460   0.000   0.000   0.000   0.000   0.000   0.000   0.000  -0.000   0.000  -1.142   0.000   0.000   0.000   0.000   0.000
  0.000   0.000  -0.460   0.000  -0.000   0.000   0.000   0.000   0.000   0.000   0.000   0.000  -1.142   0.000  -0.000   0.000
  0.000   0.000  -0.000   0.000  -0.357   0.000  -0.000   0.000   0.000   0.000   0.000   0.000  -0.000   0.000  -1.044   0.000
  0.000   0.000   0.000   0.000  -0.000   0.000  -0.460   0.000  -0.000   0.000   0.000   0.000   0.000   0.000  -0.000   0.000
 -0.000   0.000   0.000   0.000   0.000   0.000  -0.000   0.000  -0.357   0.000  -0.000   0.000   0.000   0.000   0.000   0.000
 -1.142   0.000   0.000   0.000   0.000   0.000   0.000   0.000  -0.000   0.000  -1.753   0.000   0.000   0.000   0.000   0.000
  0.000   0.000  -1.142   0.000  -0.000   0.000   0.000   0.000   0.000   0.000   0.000   0.000  -1.753   0.000  -0.000   0.000
  0.000   0.000  -0.000   0.000  -1.044   0.000  -0.000   0.000   0.000   0.000   0.000   0.000  -0.000   0.000  -1.658   0.000
  0.000   0.000   0.000   0.000  -0.000   0.000  -1.142   0.000  -0.000   0.000   0.000   0.000   0.000   0.000  -0.000   0.000
 -0.000   0.000   0.000   0.000   0.000   0.000  -0.000   0.000  -1.044   0.000  -0.000   0.000   0.000   0.000   0.000   0.000
 -0.000   0.000  -0.000   0.000   0.000   0.000  -0.000   0.000   0.000   0.000  -0.000   0.000  -0.000   0.000   0.000   0.000
 -0.000   0.000  -0.000   0.000   0.000   0.000  -0.000   0.000   0.000   0.000  -0.000   0.000  -0.000   0.000   0.000   0.000
 -0.000   0.000  -0.000   0.000   0.000   0.000  -0.000   0.000   0.000   0.000  -0.000   0.000  -0.000   0.000   0.000   0.000
 -0.000   0.000  -0.000   0.000  -0.000   0.000  -0.000   0.000  -0.000   0.000  -0.000   0.000  -0.000   0.000  -0.000   0.000
 -0.000   0.000  -0.000   0.000   0.000   0.000  -0.000   0.000  -0.000   0.000  -0.000   0.000  -0.000   0.000   0.000   0.000
 -0.000   0.000  -0.000   0.000   0.000   0.000  -0.000   0.000   0.000   0.000  -0.000   0.000  -0.000   0.000   0.000   0.000
 -0.000   0.000  -0.000   0.000  -0.000   0.000  -0.000   0.000  -0.000   0.000  -0.000   0.000  -0.000   0.000  -0.000   0.000
 -0.000   0.000  -0.000   0.000   0.000   0.000  -0.000   0.000  -0.000   0.000  -0.000   0.000  -0.000   0.000   0.000   0.000
 pseudopotential strength for first ion, spin component:           2
  0.164   0.000   0.000   0.000   0.000   0.000   0.000   0.000  -0.000   0.000  -0.548   0.000   0.000   0.000   0.000   0.000
  0.000   0.000   0.164   0.000  -0.000   0.000   0.000   0.000   0.000   0.000   0.000   0.000  -0.548   0.000  -0.000   0.000
  0.000   0.000  -0.000   0.000   0.139   0.000  -0.000   0.000   0.000   0.000   0.000   0.000  -0.000   0.000  -0.572   0.000
  0.000   0.000   0.000   0.000  -0.000   0.000   0.164   0.000  -0.000   0.000   0.000   0.000   0.000   0.000  -0.000   0.000
 -0.000   0.000   0.000   0.000   0.000   0.000  -0.000   0.000   0.139   0.000  -0.000   0.000   0.000   0.000   0.000   0.000
 -0.548   0.000   0.000   0.000   0.000   0.000   0.000   0.000  -0.000   0.000  -1.186   0.000   0.000   0.000   0.000   0.000
  0.000   0.000  -0.548   0.000  -0.000   0.000   0.000   0.000   0.000   0.000   0.000   0.000  -1.186   0.000  -0.000   0.000
  0.000   0.000  -0.000   0.000  -0.572   0.000  -0.000   0.000   0.000   0.000   0.000   0.000  -0.000   0.000  -1.209   0.000
  0.000   0.000   0.000   0.000  -0.000   0.000  -0.548   0.000  -0.000   0.000   0.000   0.000   0.000   0.000  -0.000   0.000
 -0.000   0.000   0.000   0.000   0.000   0.000  -0.000   0.000  -0.572   0.000  -0.000   0.000   0.000   0.000   0.000   0.000
 -0.000   0.000  -0.000   0.000   0.000   0.000  -0.000   0.000   0.000   0.000  -0.000   0.000  -0.000   0.000   0.000   0.000
 -0.000   0.000  -0.000   0.000   0.000   0.000  -0.000   0.000   0.000   0.000  -0.000   0.000  -0.000   0.000   0.000   0.000
 -0.000   0.000  -0.000   0.000   0.000   0.000  -0.000   0.000   0.000   0.000  -0.000   0.000  -0.000   0.000   0.000   0.000
 -0.000   0.000  -0.000   0.000  -0.000   0.000  -0.000   0.000  -0.000   0.000  -0.000   0.000  -0.000   0.000  -0.000   0.000
 -0.000   0.000  -0.000   0.000   0.000   0.000  -0.000   0.000  -0.000   0.000  -0.000   0.000  -0.000   0.000   0.000   0.000
 -0.000   0.000  -0.000   0.000   0.000   0.000  -0.000   0.000   0.000   0.000  -0.000   0.000  -0.000   0.000   0.000   0.000
 -0.000   0.000  -0.000   0.000  -0.000   0.000  -0.000   0.000  -0.000   0.000  -0.000   0.000  -0.000   0.000  -0.000   0.000
 -0.000   0.000  -0.000   0.000   0.000   0.000  -0.000   0.000  -0.000   0.000  -0.000   0.000  -0.000   0.000   0.000   0.000
 total augmentation occupancy for first ion, spin component:           1
  2.718   0.000   0.000  -0.000  -0.000  -1.251   0.000   0.000   0.000   0.000   0.000   0.000   0.000   0.000   0.000   0.000
 -0.000   2.718  -0.000   0.000  -0.000  -0.000  -1.251   0.000   0.000   0.000   0.000  -0.000   0.000   0.000   0.000   0.000
  0.000   0.000   3.468   0.000   0.000   0.000  -0.000  -1.575   0.000   0.000   0.000   0.000   0.000   0.000   0.000   0.000
  0.000  -0.000   0.000   2.718   0.000   0.000   0.000  -0.000  -1.251   0.000  -0.000  -0.000   0.000   0.000   0.000   0.000
 -0.000   0.000   0.000   0.000   3.468   0.000   0.000   0.000  -0.000  -1.575   0.000   0.000   0.000   0.000   0.000   0.000
 -1.251  -0.000   0.000   0.000   0.000   1.494  -0.000   0.000  -0.000  -0.000   0.000   0.000   0.000   0.000   0.000   0.000
  0.000  -1.251   0.000  -0.000  -0.000  -0.000   1.494   0.000   0.000  -0.000   0.000  -0.000   0.000   0.000   0.000   0.000
  0.000  -0.000  -1.575   0.000   0.000   0.000  -0.000   1.510   0.000   0.000   0.000  -0.000   0.000   0.000   0.000   0.000
 -0.000   0.000  -0.000  -1.251  -0.000   0.000   0.000   0.000   1.494  -0.000   0.000  -0.000   0.000   0.000   0.000   0.000
 -0.000   0.000   0.000  -0.000  -1.575  -0.000   0.000   0.000   0.000   1.510  -0.000   0.000   0.000   0.000   0.000   0.000
  0.000   0.000   0.000  -0.000   0.000  -0.000  -0.000   0.000   0.000  -0.000   2.315  -0.318   0.000   0.000   0.000   0.000
  0.000   0.000   0.000  -0.000   0.000   0.000  -0.000  -0.000   0.000   0.000  -0.318   0.052   0.000   0.000   0.000   0.000
  0.000   0.000   0.000   0.000   0.000   0.000   0.000   0.000   0.000   0.000   0.000   0.000   0.308   0.000   0.000  -0.032
  0.000   0.000   0.000   0.000   0.000   0.000   0.000   0.000   0.000   0.000   0.000   0.000   0.000   0.308   0.000   0.000
  0.000   0.000   0.000   0.000   0.000   0.000   0.000   0.000   0.000   0.000   0.000   0.000   0.000   0.000   0.308   0.000
  0.000   0.000   0.000   0.000   0.000   0.000   0.000   0.000   0.000   0.000   0.000   0.000  -0.032   0.000  -0.000   0.004
  0.000   0.000   0.000   0.000   0.000   0.000   0.000   0.000   0.000   0.000   0.000   0.000  -0.000  -0.032  -0.000   0.000
  0.000   0.000   0.000   0.000   0.000   0.000   0.000   0.000   0.000   0.000   0.000   0.000   0.000  -0.000  -0.032   0.000
 total augmentation occupancy for first ion, spin component:           2
  1.027   0.000  -0.000   0.000   0.000  -0.510   0.000   0.000   0.000   0.000   0.000   0.000   0.000   0.000   0.000   0.000
  0.000   1.027  -0.000   0.000  -0.000   0.000  -0.510   0.000  -0.000   0.000   0.000  -0.000   0.000   0.000   0.000   0.000
  0.000  -0.000   0.578  -0.000   0.000   0.000  -0.000  -0.284  -0.000  -0.000  -0.000   0.000   0.000   0.000   0.000   0.000
  0.000  -0.000   0.000   1.027  -0.000  -0.000  -0.000   0.000  -0.510  -0.000   0.000  -0.000   0.000   0.000   0.000   0.000
 -0.000   0.000   0.000  -0.000   0.578   0.000   0.000   0.000  -0.000  -0.284   0.000   0.000   0.000   0.000   0.000   0.000
 -0.510   0.000  -0.000  -0.000  -0.000   0.170  -0.000  -0.000   0.000   0.000   0.000   0.000   0.000   0.000   0.000   0.000
  0.000  -0.510  -0.000   0.000  -0.000   0.000   0.170   0.000   0.000   0.000   0.000   0.000   0.000   0.000   0.000   0.000
  0.000  -0.000  -0.284   0.000   0.000   0.000  -0.000   0.077   0.000   0.000   0.000  -0.000   0.000   0.000   0.000   0.000
  0.000  -0.000   0.000  -0.510   0.000   0.000  -0.000  -0.000   0.170  -0.000   0.000  -0.000   0.000   0.000   0.000   0.000
 -0.000  -0.000   0.000   0.000  -0.284  -0.000   0.000   0.000  -0.000   0.077  -0.000   0.000   0.000   0.000   0.000   0.000
  0.000   0.000  -0.000  -0.000   0.000   0.000   0.000   0.000  -0.000   0.000  -0.131   0.042   0.000   0.000   0.000   0.000
 -0.000  -0.000   0.000  -0.000   0.000   0.000   0.000  -0.000  -0.000   0.000   0.042  -0.008   0.000   0.000   0.000   0.000
  0.000   0.000   0.000   0.000   0.000   0.000   0.000   0.000   0.000   0.000   0.000   0.000  -0.018  -0.000   0.000   0.003
  0.000   0.000   0.000   0.000   0.000   0.000   0.000   0.000   0.000   0.000   0.000   0.000  -0.000  -0.018  -0.000   0.000
  0.000   0.000   0.000   0.000   0.000   0.000   0.000   0.000   0.000   0.000   0.000   0.000   0.000  -0.000  -0.018   0.000
  0.000   0.000   0.000   0.000   0.000   0.000   0.000   0.000   0.000   0.000   0.000   0.000   0.003  -0.000   0.000  -0.000
  0.000   0.000   0.000   0.000   0.000   0.000   0.000   0.000   0.000   0.000   0.000   0.000   0.000   0.003  -0.000   0.000
  0.000   0.000   0.000   0.000   0.000   0.000   0.000   0.000   0.000   0.000   0.000   0.000  -0.000   0.000   0.003   0.000


------------------------ aborting loop because EDIFF is reached ----------------------------------------


    CHARGE:  cpu time    0.0048: real time    0.0047
    FORLOC:  cpu time    0.0001: real time    0.0001
    FORNL :  cpu time    0.0118: real time    0.0119
    STRESS:  cpu time    0.0417: real time    0.0418
    FORCOR:  cpu time    0.0025: real time    0.0025
    FORHAR:  cpu time    0.0009: real time    0.0004
    MIXING:  cpu time    0.0000: real time    0.0004
    OFIELD:  cpu time    0.0000: real time    0.0000

  FORCE on cell =-STRESS in cart. coord.  units (eV):
  Direction    XX          YY          ZZ          XY          YZ          ZX
  --------------------------------------------------------------------------------------
  Alpha Z    47.57962    47.57962    47.57962
  Ewald    -314.38591  -314.38591  -314.38591     0.00000    -0.00000    -0.00000
  Hartree    73.99456    73.99456    73.99456     0.00000     0.00000     0.00000
  E(xc)     -55.09275   -55.09275   -55.09275    -0.00030    -0.00030    -0.00030
  Local       1.41425     1.41425     1.41425     0.00219     0.00219     0.00219
  n-local    -7.46585    -6.88457    -9.55018     1.72471    -1.84726     0.05530
  augment   175.99640   175.99640   175.99640    -0.00135    -0.00135    -0.00135
  Kinetic    77.51931    77.60157    79.91552    -0.76127     0.66971     0.01573
  Fock        0.00000     0.00000     0.00000     0.00000     0.00000     0.00000
  -------------------------------------------------------------------------------------
  Total      -0.11522    -0.11522    -0.11522     0.00000     0.00000     0.00000
  in kB     -17.22281   -17.22281   -17.22281     0.00000     0.00000     0.00000
  external pressure =      -17.22 kB  Pullay stress =        0.00 kB


 VOLUME and BASIS-vectors are now :
 -----------------------------------------------------------------------------
  energy-cutoff  :      270.00
  volume of cell :       10.72
      direct lattice vectors                 reciprocal lattice vectors
     0.000000000  1.750000000  1.750000000    -0.285714286  0.285714286  0.285714286
     1.750000000  0.000000000  1.750000000     0.285714286 -0.285714286  0.285714286
     1.750000000  1.750000000  0.000000000     0.285714286  0.285714286 -0.285714286

  length of vectors
     2.474873734  2.474873734  2.474873734     0.494871659  0.494871659  0.494871659


 FORCES acting on ions
    electron-ion (+dipol)            ewald-force                    non-local-force                 convergence-correction
 -----------------------------------------------------------------------------------------------
   0.413E-13 0.271E-13 0.495E-13   0.104E-14 0.319E-14 -.282E-15   0.186E-23 0.186E-23 -.331E-23   0.172E-13 0.575E-13 0.389E-13
 -----------------------------------------------------------------------------------------------
   0.413E-13 0.271E-13 0.495E-13   0.104E-14 0.319E-14 -.282E-15   0.186E-23 0.186E-23 -.331E-23   0.172E-13 0.575E-13 0.389E-13
 
 
 POSITION                                       TOTAL-FORCE (eV/Angst)
 -----------------------------------------------------------------------------------
      0.00000      0.00000      0.00000         0.000000     -0.000000     -0.000000
 -----------------------------------------------------------------------------------
    total drift:                                0.000000      0.000000      0.000000


--------------------------------------------------------------------------------------------------------



  FREE ENERGIE OF THE ION-ELECTRON SYSTEM (eV)
  ---------------------------------------------------
  free  energy   TOTEN  =        -5.46315056 eV

  energy  without entropy=       -5.46137464  energy(sigma->0) =       -5.46255859
 


--------------------------------------------------------------------------------------------------------


    POTLOK:  cpu time    0.0067: real time    0.0068


--------------------------------------------------------------------------------------------------------


 writing wavefunctions
     LOOP+:  cpu time    3.8084: real time    3.8912
    4ORBIT:  cpu time    0.0000: real time    0.0000

 total amount of memory used by VASP MPI-rank0    33768. kBytes
=======================================================================

   base      :      30000. kBytes
   nonl-proj :       1839. kBytes
   fftplans  :        142. kBytes
   grid      :        320. kBytes
   one-center:         31. kBytes
   wavefun   :       1436. kBytes
 
  
  
 General timing and accounting informations for this job:
 ========================================================
  
                  Total CPU time used (sec):        4.248
                            User time (sec):        3.742
                          System time (sec):        0.506
                         Elapsed time (sec):        4.364
  
                   Maximum memory used (kb):       58904.
                   Average memory used (kb):           0.
  
                          Minor page faults:        40338
                          Major page faults:            0
                 Voluntary context switches:         3959
