<?xml version="1.0" encoding="ISO-8859-1"?>
<modeling>
 <generator>
  <i name="program" type="string">vasp </i>
  <i name="version" type="string">5.4.4.18Apr17-6-g9f103f2a35  </i>
  <i name="subversion" type="string">(build Jul 01 2019 03:25:34) complex            parallel </i>
  <i name="platform" type="string">LinuxIFC </i>
  <i name="date" type="string">2020 07 09 </i>
  <i name="time" type="string">19:35:30 </i>
 </generator>
 <incar>
  <i type="string" name="SYSTEM"> fcc Ni</i>
  <i type="string" name="PREC">normal</i>
  <i type="int" name="ISPIN">     2</i>
  <i name="EDIFF">      0.00010000</i>
  <i name="ENCUT">    270.00000000</i>
  <v name="MAGMOM">      3.00000000</v>
  <v type="int" name="KPOINT_BSE">    -1     0     0     0</v>
 </incar>
 <structure name="primitive_cell" >
  <crystal>
   <varray name="basis" >
    <v>       0.00000000       1.75000000       1.75000000 </v>
    <v>       1.75000000       0.00000000       1.75000000 </v>
    <v>       1.75000000       1.75000000       0.00000000 </v>
   </varray>
   <i name="volume">     10.71875000 </i>
   <varray name="rec_basis" >
    <v>      -0.28571429       0.28571429       0.28571429 </v>
    <v>       0.28571429      -0.28571429       0.28571429 </v>
    <v>       0.28571429       0.28571429      -0.28571429 </v>
   </varray>
  </crystal>
  <varray name="positions" >
   <v>       0.00000000       0.00000000       0.00000000 </v>
  </varray>
 </structure>
 <varray name="primitive_index" >
  <v type="int" >        1 </v>
 </varray>
 <kpoints>
  <generation param="Monkhorst-Pack">
   <v type="int" name="divisions">      10       10       10 </v>
   <v name="usershift">      0.00000000       0.00000000       0.00000000 </v>
   <v name="genvec1">      0.10000000       0.00000000       0.00000000 </v>
   <v name="genvec2">      0.00000000       0.10000000       0.00000000 </v>
   <v name="genvec3">      0.00000000       0.00000000       0.10000000 </v>
   <v name="shift">      0.50000000       0.50000000       0.50000000 </v>
  </generation>
  <varray name="kpointlist" >
   <v>       0.05000000       0.05000000       0.05000000 </v>
   <v>       0.15000000       0.05000000       0.05000000 </v>
   <v>       0.25000000       0.05000000       0.05000000 </v>
   <v>       0.35000000       0.05000000       0.05000000 </v>
   <v>       0.45000000       0.05000000       0.05000000 </v>
   <v>      -0.45000000       0.05000000       0.05000000 </v>
   <v>      -0.35000000       0.05000000       0.05000000 </v>
   <v>      -0.25000000       0.05000000       0.05000000 </v>
   <v>      -0.15000000       0.05000000       0.05000000 </v>
   <v>      -0.05000000       0.05000000       0.05000000 </v>
   <v>       0.15000000       0.15000000       0.05000000 </v>
   <v>       0.25000000       0.15000000       0.05000000 </v>
   <v>       0.35000000       0.15000000       0.05000000 </v>
   <v>       0.45000000       0.15000000       0.05000000 </v>
   <v>      -0.45000000       0.15000000       0.05000000 </v>
   <v>      -0.35000000       0.15000000       0.05000000 </v>
   <v>      -0.25000000       0.15000000       0.05000000 </v>
   <v>      -0.15000000       0.15000000       0.05000000 </v>
   <v>      -0.05000000       0.15000000       0.05000000 </v>
   <v>       0.25000000       0.25000000       0.05000000 </v>
   <v>       0.35000000       0.25000000       0.05000000 </v>
   <v>       0.45000000       0.25000000       0.05000000 </v>
   <v>      -0.45000000       0.25000000       0.05000000 </v>
   <v>      -0.35000000       0.25000000       0.05000000 </v>
   <v>      -0.25000000       0.25000000       0.05000000 </v>
   <v>      -0.15000000       0.25000000       0.05000000 </v>
   <v>      -0.05000000       0.25000000       0.05000000 </v>
   <v>       0.35000000       0.35000000       0.05000000 </v>
   <v>       0.45000000       0.35000000       0.05000000 </v>
   <v>      -0.45000000       0.35000000       0.05000000 </v>
   <v>      -0.35000000       0.35000000       0.05000000 </v>
   <v>      -0.25000000       0.35000000       0.05000000 </v>
   <v>      -0.15000000       0.35000000       0.05000000 </v>
   <v>      -0.05000000       0.35000000       0.05000000 </v>
   <v>       0.45000000       0.45000000       0.05000000 </v>
   <v>      -0.45000000       0.45000000       0.05000000 </v>
   <v>      -0.35000000       0.45000000       0.05000000 </v>
   <v>      -0.25000000       0.45000000       0.05000000 </v>
   <v>      -0.15000000       0.45000000       0.05000000 </v>
   <v>      -0.05000000       0.45000000       0.05000000 </v>
   <v>      -0.45000000      -0.45000000       0.05000000 </v>
   <v>      -0.35000000      -0.45000000       0.05000000 </v>
   <v>      -0.25000000      -0.45000000       0.05000000 </v>
   <v>      -0.15000000      -0.45000000       0.05000000 </v>
   <v>      -0.35000000      -0.35000000       0.05000000 </v>
   <v>      -0.25000000      -0.35000000       0.05000000 </v>
   <v>      -0.15000000      -0.35000000       0.05000000 </v>
   <v>      -0.25000000      -0.25000000       0.05000000 </v>
   <v>      -0.15000000      -0.25000000       0.05000000 </v>
   <v>      -0.15000000      -0.15000000       0.05000000 </v>
   <v>       0.15000000       0.15000000       0.15000000 </v>
   <v>       0.25000000       0.15000000       0.15000000 </v>
   <v>       0.35000000       0.15000000       0.15000000 </v>
   <v>       0.45000000       0.15000000       0.15000000 </v>
   <v>      -0.45000000       0.15000000       0.15000000 </v>
   <v>      -0.35000000       0.15000000       0.15000000 </v>
   <v>      -0.25000000       0.15000000       0.15000000 </v>
   <v>      -0.15000000       0.15000000       0.15000000 </v>
   <v>       0.25000000       0.25000000       0.15000000 </v>
   <v>       0.35000000       0.25000000       0.15000000 </v>
   <v>       0.45000000       0.25000000       0.15000000 </v>
   <v>      -0.45000000       0.25000000       0.15000000 </v>
   <v>      -0.35000000       0.25000000       0.15000000 </v>
   <v>      -0.25000000       0.25000000       0.15000000 </v>
   <v>      -0.15000000       0.25000000       0.15000000 </v>
   <v>       0.35000000       0.35000000       0.15000000 </v>
   <v>       0.45000000       0.35000000       0.15000000 </v>
   <v>      -0.45000000       0.35000000       0.15000000 </v>
   <v>      -0.35000000       0.35000000       0.15000000 </v>
   <v>      -0.25000000       0.35000000       0.15000000 </v>
   <v>      -0.15000000       0.35000000       0.15000000 </v>
   <v>       0.45000000       0.45000000       0.15000000 </v>
   <v>      -0.45000000       0.45000000       0.15000000 </v>
   <v>      -0.35000000       0.45000000       0.15000000 </v>
   <v>      -0.25000000       0.45000000       0.15000000 </v>
   <v>      -0.15000000       0.45000000       0.15000000 </v>
   <v>      -0.45000000      -0.45000000       0.15000000 </v>
   <v>      -0.35000000      -0.45000000       0.15000000 </v>
   <v>      -0.25000000      -0.45000000       0.15000000 </v>
   <v>      -0.35000000      -0.35000000       0.15000000 </v>
   <v>      -0.25000000      -0.35000000       0.15000000 </v>
   <v>      -0.25000000      -0.25000000       0.15000000 </v>
   <v>       0.25000000       0.25000000       0.25000000 </v>
   <v>       0.35000000       0.25000000       0.25000000 </v>
   <v>       0.45000000       0.25000000       0.25000000 </v>
   <v>      -0.45000000       0.25000000       0.25000000 </v>
   <v>      -0.35000000       0.25000000       0.25000000 </v>
   <v>      -0.25000000       0.25000000       0.25000000 </v>
   <v>       0.35000000       0.35000000       0.25000000 </v>
   <v>       0.45000000       0.35000000       0.25000000 </v>
   <v>      -0.45000000       0.35000000       0.25000000 </v>
   <v>      -0.35000000       0.35000000       0.25000000 </v>
   <v>      -0.25000000       0.35000000       0.25000000 </v>
   <v>       0.45000000       0.45000000       0.25000000 </v>
   <v>      -0.45000000       0.45000000       0.25000000 </v>
   <v>      -0.35000000       0.45000000       0.25000000 </v>
   <v>      -0.25000000       0.45000000       0.25000000 </v>
   <v>      -0.45000000      -0.45000000       0.25000000 </v>
   <v>      -0.35000000      -0.45000000       0.25000000 </v>
   <v>      -0.35000000      -0.35000000       0.25000000 </v>
   <v>       0.35000000       0.35000000       0.35000000 </v>
   <v>       0.45000000       0.35000000       0.35000000 </v>
   <v>      -0.45000000       0.35000000       0.35000000 </v>
   <v>      -0.35000000       0.35000000       0.35000000 </v>
   <v>       0.45000000       0.45000000       0.35000000 </v>
   <v>      -0.45000000       0.45000000       0.35000000 </v>
   <v>      -0.35000000       0.45000000       0.35000000 </v>
   <v>      -0.45000000      -0.45000000       0.35000000 </v>
   <v>       0.45000000       0.45000000       0.45000000 </v>
   <v>      -0.45000000       0.45000000       0.45000000 </v>
  </varray>
  <varray name="weights" >
   <v>       0.00200000 </v>
   <v>       0.00600000 </v>
   <v>       0.00600000 </v>
   <v>       0.00600000 </v>
   <v>       0.00600000 </v>
   <v>       0.00600000 </v>
   <v>       0.00600000 </v>
   <v>       0.00600000 </v>
   <v>       0.00600000 </v>
   <v>       0.00600000 </v>
   <v>       0.00600000 </v>
   <v>       0.01200000 </v>
   <v>       0.01200000 </v>
   <v>       0.01200000 </v>
   <v>       0.01200000 </v>
   <v>       0.01200000 </v>
   <v>       0.01200000 </v>
   <v>       0.01200000 </v>
   <v>       0.01200000 </v>
   <v>       0.00600000 </v>
   <v>       0.01200000 </v>
   <v>       0.01200000 </v>
   <v>       0.01200000 </v>
   <v>       0.01200000 </v>
   <v>       0.01200000 </v>
   <v>       0.01200000 </v>
   <v>       0.01200000 </v>
   <v>       0.00600000 </v>
   <v>       0.01200000 </v>
   <v>       0.01200000 </v>
   <v>       0.01200000 </v>
   <v>       0.01200000 </v>
   <v>       0.01200000 </v>
   <v>       0.01200000 </v>
   <v>       0.00600000 </v>
   <v>       0.01200000 </v>
   <v>       0.01200000 </v>
   <v>       0.01200000 </v>
   <v>       0.01200000 </v>
   <v>       0.01200000 </v>
   <v>       0.00600000 </v>
   <v>       0.01200000 </v>
   <v>       0.01200000 </v>
   <v>       0.01200000 </v>
   <v>       0.00600000 </v>
   <v>       0.01200000 </v>
   <v>       0.01200000 </v>
   <v>       0.00600000 </v>
   <v>       0.01200000 </v>
   <v>       0.00600000 </v>
   <v>       0.00200000 </v>
   <v>       0.00600000 </v>
   <v>       0.00600000 </v>
   <v>       0.00600000 </v>
   <v>       0.00600000 </v>
   <v>       0.00600000 </v>
   <v>       0.00600000 </v>
   <v>       0.00600000 </v>
   <v>       0.00600000 </v>
   <v>       0.01200000 </v>
   <v>       0.01200000 </v>
   <v>       0.01200000 </v>
   <v>       0.01200000 </v>
   <v>       0.01200000 </v>
   <v>       0.01200000 </v>
   <v>       0.00600000 </v>
   <v>       0.01200000 </v>
   <v>       0.01200000 </v>
   <v>       0.01200000 </v>
   <v>       0.01200000 </v>
   <v>       0.01200000 </v>
   <v>       0.00600000 </v>
   <v>       0.01200000 </v>
   <v>       0.01200000 </v>
   <v>       0.01200000 </v>
   <v>       0.01200000 </v>
   <v>       0.00600000 </v>
   <v>       0.01200000 </v>
   <v>       0.01200000 </v>
   <v>       0.00600000 </v>
   <v>       0.01200000 </v>
   <v>       0.00600000 </v>
   <v>       0.00200000 </v>
   <v>       0.00600000 </v>
   <v>       0.00600000 </v>
   <v>       0.00600000 </v>
   <v>       0.00600000 </v>
   <v>       0.00600000 </v>
   <v>       0.00600000 </v>
   <v>       0.01200000 </v>
   <v>       0.01200000 </v>
   <v>       0.01200000 </v>
   <v>       0.01200000 </v>
   <v>       0.00600000 </v>
   <v>       0.01200000 </v>
   <v>       0.01200000 </v>
   <v>       0.01200000 </v>
   <v>       0.00600000 </v>
   <v>       0.01200000 </v>
   <v>       0.00600000 </v>
   <v>       0.00200000 </v>
   <v>       0.00600000 </v>
   <v>       0.00600000 </v>
   <v>       0.00600000 </v>
   <v>       0.00600000 </v>
   <v>       0.01200000 </v>
   <v>       0.01200000 </v>
   <v>       0.00600000 </v>
   <v>       0.00200000 </v>
   <v>       0.00600000 </v>
  </varray>
 </kpoints>
 <parameters>
  <separator name="general" >
   <i type="string" name="SYSTEM">fcc Ni</i>
   <i type="logical" name="LCOMPAT"> F  </i>
  </separator>
  <separator name="electronic" >
   <i type="string" name="PREC">normal</i>
   <i name="ENMAX">    270.00000000</i>
   <i name="ENAUG">    544.56500000</i>
   <i name="EDIFF">      0.00010000</i>
   <i type="int" name="IALGO">    38</i>
   <i type="int" name="IWAVPR">    10</i>
   <i type="int" name="NBANDS">    12</i>
   <i name="NELECT">     10.00000000</i>
   <i type="int" name="TURBO">     0</i>
   <i type="int" name="IRESTART">     0</i>
   <i type="int" name="NREBOOT">     0</i>
   <i type="int" name="NMIN">     0</i>
   <i name="EREF">      0.00000000</i>
   <separator name="electronic smearing" >
    <i type="int" name="ISMEAR">     1</i>
    <i name="SIGMA">      0.20000000</i>
    <i name="KSPACING">      0.50000000</i>
    <i type="logical" name="KGAMMA"> T  </i>
   </separator>
   <separator name="electronic projectors" >
    <i type="logical" name="LREAL"> F  </i>
    <v name="ROPT">      0.00000000</v>
    <i type="int" name="LMAXPAW">  -100</i>
    <i type="int" name="LMAXMIX">     2</i>
    <i type="logical" name="NLSPLINE"> F  </i>
   </separator>
   <separator name="electronic startup" >
    <i type="int" name="ISTART">     0</i>
    <i type="int" name="ICHARG">     2</i>
    <i type="int" name="INIWAV">     1</i>
   </separator>
   <separator name="electronic spin" >
    <i type="int" name="ISPIN">     2</i>
    <i type="logical" name="LNONCOLLINEAR"> F  </i>
    <v name="MAGMOM">      3.00000000</v>
    <i name="NUPDOWN">     -1.00000000</i>
    <i type="logical" name="LSORBIT"> F  </i>
    <v name="SAXIS">      0.00000000      0.00000000      1.00000000</v>
    <i type="logical" name="LSPIRAL"> F  </i>
    <v name="QSPIRAL">      0.00000000      0.00000000      0.00000000</v>
    <i type="logical" name="LZEROZ"> F  </i>
   </separator>
   <separator name="electronic exchange-correlation" >
    <i type="logical" name="LASPH"> F  </i>
    <i type="logical" name="LMETAGGA"> F  </i>
   </separator>
   <separator name="electronic convergence" >
    <i type="int" name="NELM">    60</i>
    <i type="int" name="NELMDL">    -5</i>
    <i type="int" name="NELMIN">     2</i>
    <i name="ENINI">    270.00000000</i>
    <separator name="electronic convergence detail" >
     <i type="logical" name="LDIAG"> T  </i>
     <i type="logical" name="LSUBROT"> F  </i>
     <i name="WEIMIN">      0.00000000</i>
     <i name="EBREAK">      0.00000208</i>
     <i name="DEPER">      0.30000000</i>
     <i type="int" name="NRMM">     4</i>
     <i name="TIME">      0.40000000</i>
    </separator>
   </separator>
   <separator name="electronic mixer" >
    <i name="AMIX">      0.40000000</i>
    <i name="BMIX">      1.00000000</i>
    <i name="AMIN">      0.10000000</i>
    <i name="AMIX_MAG">      1.60000000</i>
    <i name="BMIX_MAG">      1.00000000</i>
    <separator name="electronic mixer details" >
     <i type="int" name="IMIX">     4</i>
     <i type="logical" name="MIXFIRST"> F  </i>
     <i type="int" name="MAXMIX">   -45</i>
     <i name="WC">    100.00000000</i>
     <i type="int" name="INIMIX">     1</i>
     <i type="int" name="MIXPRE">     1</i>
     <i type="int" name="MREMOVE">     5</i>
    </separator>
   </separator>
   <separator name="electronic dipolcorrection" >
    <i type="logical" name="LDIPOL"> F  </i>
    <i type="logical" name="LMONO"> F  </i>
    <i type="int" name="IDIPOL">     0</i>
    <i name="EPSILON">      1.00000000</i>
    <v name="DIPOL">   -100.00000000   -100.00000000   -100.00000000</v>
    <i name="EFIELD">      0.00000000</i>
   </separator>
  </separator>
  <separator name="grids" >
   <i type="int" name="NGX">    10</i>
   <i type="int" name="NGY">    10</i>
   <i type="int" name="NGZ">    10</i>
   <i type="int" name="NGXF">    20</i>
   <i type="int" name="NGYF">    20</i>
   <i type="int" name="NGZF">    20</i>
   <i type="logical" name="ADDGRID"> F  </i>
  </separator>
  <separator name="ionic" >
   <i type="int" name="NSW">     0</i>
   <i type="int" name="IBRION">    -1</i>
   <i type="int" name="MDALGO">     0</i>
   <i type="int" name="ISIF">     2</i>
   <i name="PSTRESS">      0.00000000</i>
   <i name="EDIFFG">      0.00100000</i>
   <i type="int" name="NFREE">     0</i>
   <i name="POTIM">      0.50000000</i>
   <i name="SMASS">     -3.00000000</i>
   <i name="SCALEE">      1.00000000</i>
  </separator>
  <separator name="ionic md" >
   <i name="TEBEG">      0.00010000</i>
   <i name="TEEND">      0.00010000</i>
   <i type="int" name="NBLOCK">     1</i>
   <i type="int" name="KBLOCK">     1</i>
   <i type="int" name="NPACO">   256</i>
   <i name="APACO">     16.00000000</i>
  </separator>
  <separator name="symmetry" >
   <i type="int" name="ISYM">     2</i>
   <i name="SYMPREC">      0.00001000</i>
  </separator>
  <separator name="dos" >
   <i type="int" name="LORBIT">     0</i>
   <v name="RWIGS">     -1.00000000</v>
   <i type="int" name="NEDOS">   301</i>
   <i name="EMIN">     10.00000000</i>
   <i name="EMAX">    -10.00000000</i>
   <i name="EFERMI">      0.00000000</i>
  </separator>
  <separator name="writing" >
   <i type="int" name="NWRITE">     2</i>
   <i type="logical" name="LWAVE"> T  </i>
   <i type="logical" name="LDOWNSAMPLE"> F  </i>
   <i type="logical" name="LCHARG"> T  </i>
   <i type="logical" name="LPARD"> F  </i>
   <i type="logical" name="LVTOT"> F  </i>
   <i type="logical" name="LVHAR"> F  </i>
   <i type="logical" name="LELF"> F  </i>
   <i type="logical" name="LOPTICS"> F  </i>
   <v name="STM">      0.00000000      0.00000000      0.00000000      0.00000000      0.00000000      0.00000000      0.00000000</v>
  </separator>
  <separator name="performance" >
   <i type="int" name="NPAR">     4</i>
   <i type="int" name="NSIM">     4</i>
   <i type="int" name="NBLK">    -1</i>
   <i type="logical" name="LPLANE"> T  </i>
   <i type="logical" name="LSCALAPACK"> T  </i>
   <i type="logical" name="LSCAAWARE"> F  </i>
   <i type="logical" name="LSCALU"> F  </i>
   <i type="logical" name="LASYNC"> F  </i>
   <i type="logical" name="LORBITALREAL"> F  </i>
  </separator>
  <separator name="miscellaneous" >
   <i type="int" name="IDIOT">     3</i>
   <i type="int" name="ISPECIAL">     0</i>
   <i type="logical" name="LMUSIC"> F  </i>
   <v name="POMASS">     58.69000000</v>
   <v name="DARWINR">      0.00000000</v>
   <v name="DARWINV">      1.00000000</v>
   <i type="logical" name="LCORR"> T  </i>
  </separator>
  <i type="logical" name="GGA_COMPAT"> T  </i>
  <i type="logical" name="LBERRY"> F  </i>
  <i type="int" name="ICORELEVEL">     0</i>
  <i type="logical" name="LDAU"> F  </i>
  <i type="int" name="I_CONSTRAINED_M">     0</i>
  <separator name="electronic exchange-correlation" >
   <i type="string" name="GGA">--</i>
   <i type="int" name="VOSKOWN">     0</i>
   <i type="logical" name="LHFCALC"> F  </i>
   <i type="string" name="PRECFOCK"></i>
   <i type="logical" name="LSYMGRAD"> F  </i>
   <i type="logical" name="LHFONE"> F  </i>
   <i type="logical" name="LRHFCALC"> F  </i>
   <i type="logical" name="LTHOMAS"> F  </i>
   <i type="logical" name="LMODELHF"> F  </i>
   <i name="ENCUT4O">     -1.00000000</i>
   <i type="int" name="EXXOEP">     0</i>
   <i type="int" name="FOURORBIT">     0</i>
   <i name="AEXX">      0.00000000</i>
   <i name="HFALPHA">      0.00000000</i>
   <i name="MCALPHA">      0.00000000</i>
   <i name="ALDAX">      1.00000000</i>
   <i name="AGGAX">      1.00000000</i>
   <i name="ALDAC">      1.00000000</i>
   <i name="AGGAC">      1.00000000</i>
   <i type="int" name="NKREDX">     1</i>
   <i type="int" name="NKREDY">     1</i>
   <i type="int" name="NKREDZ">     1</i>
   <i type="logical" name="SHIFTRED"> F  </i>
   <i type="logical" name="ODDONLY"> F  </i>
   <i type="logical" name="EVENONLY"> F  </i>
   <i type="int" name="LMAXFOCK">     0</i>
   <i type="int" name="NMAXFOCKAE">     0</i>
   <i type="logical" name="LFOCKAEDFT"> F  </i>
   <i name="HFSCREEN">      0.00000000</i>
   <i name="HFSCREENC">      0.00000000</i>
   <i type="int" name="NBANDSGWLOW">     0</i>
  </separator>
  <separator name="vdW DFT" >
   <i type="logical" name="LUSE_VDW"> F  </i>
   <i name="Zab_VDW">     -0.84910000</i>
   <i name="PARAM1">      0.12340000</i>
   <i name="PARAM2">      1.00000000</i>
   <i name="PARAM3">      0.00000000</i>
  </separator>
  <separator name="model GW" >
   <i type="int" name="MODEL_GW">     0</i>
   <i name="MODEL_EPS0">      6.43125000</i>
   <i name="MODEL_ALPHA">      1.00000000</i>
  </separator>
  <separator name="linear response parameters" >
   <i type="logical" name="LEPSILON"> F  </i>
   <i type="logical" name="LRPA"> F  </i>
   <i type="logical" name="LNABLA"> F  </i>
   <i type="logical" name="LVEL"> F  </i>
   <i type="int" name="KINTER">     0</i>
   <i name="CSHIFT">      0.10000000</i>
   <i name="OMEGAMAX">     -1.00000000</i>
   <i name="DEG_THRESHOLD">      0.00200000</i>
   <i name="RTIME">     -0.10000000</i>
   <i name="WPLASMAI">      0.00000000</i>
   <v name="DFIELD">      0.00000000      0.00000000      0.00000000</v>
   <v name="WPLASMA">      0.00000000      0.00000000      0.00000000      0.00000000      0.00000000      0.00000000      0.00000000      0.00000000      0.00000000</v>
  </separator>
  <separator name="orbital magnetization" >
   <i type="logical" name="NUCIND"> F  </i>
   <v name="MAGPOS">      0.00000000      0.00000000      0.00000000</v>
   <i type="logical" name="LNICSALL"> T  </i>
   <i type="logical" name="ORBITALMAG"> F  </i>
   <i type="logical" name="LMAGBLOCH"> F  </i>
   <i type="logical" name="LCHIMAG"> F  </i>
   <i type="logical" name="LGAUGE"> T  </i>
   <i type="int" name="MAGATOM">     0</i>
   <v name="MAGDIPOL">      0.00000000      0.00000000      0.00000000</v>
   <v name="AVECCONST">      0.00000000      0.00000000      0.00000000</v>
  </separator>
  <separator name="response functions" >
   <i type="logical" name="LADDER"> F  </i>
   <i type="logical" name="LRPAFORCE"> F  </i>
   <i type="logical" name="LFXC"> F  </i>
   <i type="logical" name="LHARTREE"> T  </i>
   <i type="int" name="IBSE">     0</i>
   <v type="int" name="KPOINT">    -1     0     0     0</v>
   <i type="logical" name="LTCTE"> F  </i>
   <i type="logical" name="LTETE"> F  </i>
   <i type="logical" name="LTRIPLET"> F  </i>
   <i type="logical" name="LFXCEPS"> F  </i>
   <i type="logical" name="LFXHEG"> F  </i>
   <i type="int" name="NATURALO">     2</i>
   <i type="logical" name="L2ORDER"> F  </i>
   <i type="logical" name="LMP2LT"> F  </i>
   <i type="logical" name="LUSEW"> F  </i>
   <i name="ENCUTGW">     -2.00000000</i>
   <i name="ENCUTGWSOFT">     -2.00000000</i>
   <i name="ENCUTLF">     -1.00000000</i>
   <i type="int" name="LMAXMP2">    -1</i>
   <i name="SCISSOR">      0.00000000</i>
   <i type="int" name="NOMEGA">     0</i>
   <i type="int" name="NOMEGAR">     0</i>
   <i type="int" name="NBANDSGW">    -1</i>
   <i type="int" name="NBANDSO">    -1</i>
   <i type="int" name="NBANDSV">    -1</i>
   <i type="int" name="NELM">     1</i>
   <i type="int" name="NELMHF">     1</i>
   <i type="int" name="DIM">     3</i>
   <i type="int" name="ANTIRES">     0</i>
   <i name="OMEGAMAX">    -30.00000000</i>
   <i name="OMEGAMIN">    -30.00000000</i>
   <i name="OMEGATL">   -200.00000000</i>
   <i type="int" name="OMEGAGRID">   140</i>
   <i name="CSHIFT">     -0.10000000</i>
   <i type="logical" name="SELFENERGY"> F  </i>
   <i type="logical" name="LSPECTRAL"> F  </i>
   <i type="logical" name="LSPECTRALGW"> F  </i>
   <i type="logical" name="LSINGLES"> F  </i>
   <i type="logical" name="LFERMIGW"> F  </i>
   <i type="logical" name="ODDONLYGW"> F  </i>
   <i type="logical" name="EVENONLYGW"> F  </i>
   <i type="int" name="NKREDLFX">     1</i>
   <i type="int" name="NKREDLFY">     1</i>
   <i type="int" name="NKREDLFZ">     1</i>
   <i type="int" name="MAXMEM">  2800</i>
   <i type="int" name="TELESCOPE">     0</i>
   <i type="int" name="TAUPAR">     1</i>
   <i type="int" name="OMEGAPAR">    -1</i>
   <i name="LAMBDA">      1.00000000</i>
  </separator>
  <separator name="External order field" >
   <i name="OFIELD_KAPPA">      0.00000000</i>
   <v name="OFIELD_K">      0.00000000      0.00000000      0.00000000</v>
   <i name="OFIELD_Q6_NEAR">      0.00000000</i>
   <i name="OFIELD_Q6_FAR">      0.00000000</i>
   <i name="OFIELD_A">      0.00000000</i>
  </separator>
 </parameters>
 <atominfo>
  <atoms>       1 </atoms>
  <types>       1 </types>
  <array name="atoms" >
   <dimension dim="1">ion</dimension>
   <field type="string">element</field>
   <field type="int">atomtype</field>
   <set>
    <rc><c>Ni</c><c>   1</c></rc>
   </set>
  </array>
  <array name="atomtypes" >
   <dimension dim="1">type</dimension>
   <field type="int">atomspertype</field>
   <field type="string">element</field>
   <field>mass</field>
   <field>valence</field>
   <field type="string">pseudopotential</field>
   <set>
    <rc><c>   1</c><c>Ni</c><c>     58.69000000</c><c>     10.00000000</c><c>  PAW_PBE Ni 02Aug2007                  </c></rc>
   </set>
  </array>
 </atominfo>
 <structure name="initialpos" >
  <crystal>
   <varray name="basis" >
    <v>       0.00000000       1.75000000       1.75000000 </v>
    <v>       1.75000000       0.00000000       1.75000000 </v>
    <v>       1.75000000       1.75000000       0.00000000 </v>
   </varray>
   <i name="volume">     10.71875000 </i>
   <varray name="rec_basis" >
    <v>      -0.28571429       0.28571429       0.28571429 </v>
    <v>       0.28571429      -0.28571429       0.28571429 </v>
    <v>       0.28571429       0.28571429      -0.28571429 </v>
   </varray>
  </crystal>
  <varray name="positions" >
   <v>       0.00000000       0.00000000       0.00000000 </v>
  </varray>
 </structure>
 <calculation>
  <scstep>
   <time name="dav">    0.32    0.33</time>
   <time name="total">    0.33    0.34</time>
   <energy>
    <i name="alphaZ">     47.57961609 </i>
    <i name="ewald">   -943.15768639 </i>
    <i name="hartreedc">   -242.77483297 </i>
    <i name="XCdc">     32.77715544 </i>
    <i name="pawpsdc">    961.92645289 </i>
    <i name="pawaedc">  -1028.66799202 </i>
    <i name="eentropy">      0.00080999 </i>
    <i name="bandstr">    112.87033778 </i>
    <i name="atom">   1077.63607467 </i>
    <i name="e_fr_energy">     18.18993548 </i>
    <i name="e_wo_entrp">     18.18912550 </i>
    <i name="e_0_energy">     18.18966549 </i>
   </energy>
  </scstep>
  <scstep>
   <time name="dav">    0.32    0.32</time>
   <time name="total">    0.32    0.33</time>
   <energy>
    <i name="e_fr_energy">     -5.42498831 </i>
    <i name="e_wo_entrp">     -5.42537948 </i>
    <i name="e_0_energy">     -5.42511870 </i>
   </energy>
  </scstep>
  <scstep>
   <time name="dav">    0.34    0.34</time>
   <time name="total">    0.34    0.34</time>
   <energy>
    <i name="e_fr_energy">     -5.84417359 </i>
    <i name="e_wo_entrp">     -5.84355602 </i>
    <i name="e_0_energy">     -5.84396774 </i>
   </energy>
  </scstep>
  <scstep>
   <time name="dav">    0.33    0.33</time>
   <time name="total">    0.33    0.33</time>
   <energy>
    <i name="e_fr_energy">     -5.84619370 </i>
    <i name="e_wo_entrp">     -5.84557547 </i>
    <i name="e_0_energy">     -5.84598763 </i>
   </energy>
  </scstep>
  <scstep>
   <time name="dav">    0.32    0.33</time>
   <time name="total">    0.33    0.33</time>
   <energy>
    <i name="e_fr_energy">     -5.84622034 </i>
    <i name="e_wo_entrp">     -5.84560211 </i>
    <i name="e_0_energy">     -5.84601426 </i>
   </energy>
  </scstep>
  <scstep>
   <time name="dav">    0.35    0.35</time>
   <time name="total">    0.36    0.37</time>
   <energy>
    <i name="e_fr_energy">     -5.84054510 </i>
    <i name="e_wo_entrp">     -5.83581186 </i>
    <i name="e_0_energy">     -5.83896735 </i>
   </energy>
  </scstep>
  <scstep>
   <time name="dav">    0.35    0.36</time>
   <time name="total">    0.37    0.37</time>
   <energy>
    <i name="e_fr_energy">     -5.47696184 </i>
    <i name="e_wo_entrp">     -5.47551012 </i>
    <i name="e_0_energy">     -5.47647793 </i>
   </energy>
  </scstep>
  <scstep>
   <time name="dav">    0.34    0.35</time>
   <time name="total">    0.35    0.36</time>
   <energy>
    <i name="e_fr_energy">     -5.46725468 </i>
    <i name="e_wo_entrp">     -5.46554386 </i>
    <i name="e_0_energy">     -5.46668441 </i>
   </energy>
  </scstep>
  <scstep>
   <time name="dav">    0.34    0.35</time>
   <time name="total">    0.35    0.36</time>
   <energy>
    <i name="e_fr_energy">     -5.46417708 </i>
    <i name="e_wo_entrp">     -5.46243401 </i>
    <i name="e_0_energy">     -5.46359606 </i>
   </energy>
  </scstep>
  <scstep>
   <time name="dav">    0.32    0.33</time>
   <time name="total">    0.33    0.34</time>
   <energy>
    <i name="e_fr_energy">     -5.46313465 </i>
    <i name="e_wo_entrp">     -5.46134684 </i>
    <i name="e_0_energy">     -5.46253871 </i>
   </energy>
  </scstep>
  <scstep>
   <time name="dav">    0.22    0.23</time>
   <time name="total">    0.23    0.24</time>
   <energy>
    <i name="alphaZ">     47.57961609 </i>
    <i name="ewald">   -943.15768639 </i>
    <i name="hartreedc">   -221.98440840 </i>
    <i name="XCdc">     30.75143138 </i>
    <i name="pawpsdc">   1146.39336538 </i>
    <i name="pawaedc">  -1215.01652336 </i>
    <i name="eentropy">     -0.00177592 </i>
    <i name="bandstr">     72.33675598 </i>
    <i name="atom">   1077.63607467 </i>
    <i name="e_fr_energy">     -5.46315056 </i>
    <i name="e_wo_entrp">     -5.46137464 </i>
    <i name="e_0_energy">     -5.46255859 </i>
   </energy>
  </scstep>
  <structure>
   <crystal>
    <varray name="basis" >
     <v>       0.00000000       1.75000000       1.75000000 </v>
     <v>       1.75000000       0.00000000       1.75000000 </v>
     <v>       1.75000000       1.75000000       0.00000000 </v>
    </varray>
    <i name="volume">     10.71875000 </i>
    <varray name="rec_basis" >
     <v>      -0.28571429       0.28571429       0.28571429 </v>
     <v>       0.28571429      -0.28571429       0.28571429 </v>
     <v>       0.28571429       0.28571429      -0.28571429 </v>
    </varray>
   </crystal>
   <varray name="positions" >
    <v>       0.00000000       0.00000000       0.00000000 </v>
   </varray>
  </structure>
  <varray name="forces" >
   <v>       0.00000000      -0.00000000      -0.00000000 </v>
  </varray>
  <varray name="stress" >
   <v>     -17.22281481      -0.00000000       0.00000000 </v>
   <v>       0.00000000     -17.22281481      -0.00000000 </v>
   <v>      -0.00000000       0.00000000     -17.22281481 </v>
  </varray>
  <energy>
   <i name="e_fr_energy">     -5.46315056 </i>
   <i name="e_wo_entrp">     -5.46255859 </i>
   <i name="e_0_energy">     -0.00177592 </i>
  </energy>
  <time name="totalsc">    3.81    3.89</time>
  <eigenvalues>
   <array>
    <dimension dim="1">band</dimension>
    <dimension dim="2">kpoint</dimension>
    <dimension dim="3">spin</dimension>
    <field>eigene</field>
    <field>occ</field>
    <set>
     <set comment="spin 1">
      <set comment="kpoint 1">
       <r>    0.5731    1.0000 </r>
       <r>    7.0961    1.0000 </r>
       <r>    7.1443    1.0000 </r>
       <r>    7.1443    1.0000 </r>
       <r>    8.2937    1.0000 </r>
       <r>    8.2937    1.0000 </r>
       <r>   33.1934    0.0000 </r>
       <r>   36.0647    0.0000 </r>
       <r>   37.1997    0.0000 </r>
       <r>   37.1997    0.0000 </r>
       <r>   40.9185    0.0000 </r>
       <r>   40.9185    0.0000 </r>
      </set>
      <set comment="kpoint 2">
       <r>    1.0921    1.0000 </r>
       <r>    6.9620    1.0000 </r>
       <r>    7.2474    1.0000 </r>
       <r>    7.2637    1.0000 </r>
       <r>    8.1932    1.0000 </r>
       <r>    8.3237    1.0000 </r>
       <r>   31.0354    0.0000 </r>
       <r>   33.3963    0.0000 </r>
       <r>   36.0646    0.0000 </r>
       <r>   37.9039    0.0000 </r>
       <r>   40.5752    0.0000 </r>
       <r>   41.1203    0.0000 </r>
      </set>
      <set comment="kpoint 3">
       <r>    2.2997    1.0000 </r>
       <r>    6.7721    1.0000 </r>
       <r>    7.3575    1.0000 </r>
       <r>    7.3870    1.0000 </r>
       <r>    8.1813    1.0000 </r>
       <r>    8.4452    1.0000 </r>
       <r>   25.9619    0.0000 </r>
       <r>   32.2983    0.0000 </r>
       <r>   35.4680    0.0000 </r>
       <r>   37.3425    0.0000 </r>
       <r>   40.2003    0.0000 </r>
       <r>   40.5787    0.0000 </r>
      </set>
      <set comment="kpoint 4">
       <r>    3.7935    1.0000 </r>
       <r>    6.9304    1.0000 </r>
       <r>    7.2735    1.0000 </r>
       <r>    7.3252    1.0000 </r>
       <r>    8.4690    1.0000 </r>
       <r>    8.7855    1.0000 </r>
       <r>   21.0510    0.0000 </r>
       <r>   31.6497    0.0000 </r>
       <r>   34.3388    0.0000 </r>
       <r>   36.5482    0.0000 </r>
       <r>   38.3281    0.0000 </r>
       <r>   40.0769    0.0000 </r>
      </set>
      <set comment="kpoint 5">
       <r>    4.6102    1.0000 </r>
       <r>    7.1401    1.0000 </r>
       <r>    7.2028    1.0000 </r>
       <r>    7.9994    1.0000 </r>
       <r>    8.8228    1.0000 </r>
       <r>    9.3269    1.0350 </r>
       <r>   16.9844    0.0000 </r>
       <r>   31.3907    0.0000 </r>
       <r>   33.5949    0.0000 </r>
       <r>   34.9655    0.0000 </r>
       <r>   37.8458    0.0000 </r>
       <r>   39.2382    0.0000 </r>
      </set>
      <set comment="kpoint 6">
       <r>    4.7275    1.0000 </r>
       <r>    7.0917    1.0000 </r>
       <r>    7.1722    1.0000 </r>
       <r>    8.4267    1.0000 </r>
       <r>    8.9893    1.0001 </r>
       <r>    9.8522   -0.0335 </r>
       <r>   15.4564    0.0000 </r>
       <r>   31.4934    0.0000 </r>
       <r>   33.6942    0.0000 </r>
       <r>   33.7875    0.0000 </r>
       <r>   38.4734    0.0000 </r>
       <r>   38.5593    0.0000 </r>
      </set>
      <set comment="kpoint 7">
       <r>    4.4492    1.0000 </r>
       <r>    7.1673    1.0000 </r>
       <r>    7.2493    1.0000 </r>
       <r>    7.5605    1.0000 </r>
       <r>    8.8777    1.0000 </r>
       <r>    8.9691    1.0001 </r>
       <r>   18.1933    0.0000 </r>
       <r>   31.9710    0.0000 </r>
       <r>   33.1959    0.0000 </r>
       <r>   34.9752    0.0000 </r>
       <r>   38.3798    0.0000 </r>
       <r>   39.7536    0.0000 </r>
      </set>
      <set comment="kpoint 8">
       <r>    3.3162    1.0000 </r>
       <r>    6.7845    1.0000 </r>
       <r>    7.3167    1.0000 </r>
       <r>    7.3648    1.0000 </r>
       <r>    8.4191    1.0000 </r>
       <r>    8.5910    1.0000 </r>
       <r>   22.6243    0.0000 </r>
       <r>   32.7517    0.0000 </r>
       <r>   33.4128    0.0000 </r>
       <r>   36.8025    0.0000 </r>
       <r>   38.7362    0.0000 </r>
       <r>   41.6678    0.0000 </r>
      </set>
      <set comment="kpoint 9">
       <r>    1.8345    1.0000 </r>
       <r>    6.8138    1.0000 </r>
       <r>    7.3525    1.0000 </r>
       <r>    7.3623    1.0000 </r>
       <r>    8.1594    1.0000 </r>
       <r>    8.3744    1.0000 </r>
       <r>   27.6688    0.0000 </r>
       <r>   33.5674    0.0000 </r>
       <r>   34.2252    0.0000 </r>
       <r>   37.9672    0.0000 </r>
       <r>   39.4494    0.0000 </r>
       <r>   43.2990    0.0000 </r>
      </set>
      <set comment="kpoint 10">
       <r>    0.8348    1.0000 </r>
       <r>    7.0101    1.0000 </r>
       <r>    7.2114    1.0000 </r>
       <r>    7.2150    1.0000 </r>
       <r>    8.2104    1.0000 </r>
       <r>    8.3308    1.0000 </r>
       <r>   32.4032    0.0000 </r>
       <r>   34.7303    0.0000 </r>
       <r>   35.5484    0.0000 </r>
       <r>   37.1301    0.0000 </r>
       <r>   40.9845    0.0000 </r>
       <r>   42.4947    0.0000 </r>
      </set>
      <set comment="kpoint 11">
       <r>    1.3466    1.0000 </r>
       <r>    6.8375    1.0000 </r>
       <r>    7.3508    1.0000 </r>
       <r>    7.3549    1.0000 </r>
       <r>    8.0638    1.0000 </r>
       <r>    8.4017    1.0000 </r>
       <r>   31.2261    0.0000 </r>
       <r>   33.4171    0.0000 </r>
       <r>   33.6348    0.0000 </r>
       <r>   35.7915    0.0000 </r>
       <r>   41.4322    0.0000 </r>
       <r>   42.9242    0.0000 </r>
      </set>
      <set comment="kpoint 12">
       <r>    2.3129    1.0000 </r>
       <r>    6.6086    1.0000 </r>
       <r>    7.4347    1.0000 </r>
       <r>    7.5537    1.0000 </r>
       <r>    8.0053    1.0000 </r>
       <r>    8.5336    1.0000 </r>
       <r>   28.0350    0.0000 </r>
       <r>   30.2636    0.0000 </r>
       <r>   34.0566    0.0000 </r>
       <r>   35.4960    0.0000 </r>
       <r>   39.5473    0.0000 </r>
       <r>   42.9899    0.0000 </r>
      </set>
      <set comment="kpoint 13">
       <r>    3.7342    1.0000 </r>
       <r>    6.5051    1.0000 </r>
       <r>    7.2279    1.0000 </r>
       <r>    7.5849    1.0000 </r>
       <r>    8.4150    1.0000 </r>
       <r>    8.8923    1.0000 </r>
       <r>   22.9986    0.0000 </r>
       <r>   29.4487    0.0000 </r>
       <r>   32.5222    0.0000 </r>
       <r>   34.9197    0.0000 </r>
       <r>   41.1719    0.0000 </r>
       <r>   41.5693    0.0000 </r>
      </set>
      <set comment="kpoint 14">
       <r>    4.7975    1.0000 </r>
       <r>    6.8572    1.0000 </r>
       <r>    7.0876    1.0000 </r>
       <r>    7.4763    1.0000 </r>
       <r>    8.8613    1.0000 </r>
       <r>    9.8052   -0.0332 </r>
       <r>   18.5120    0.0000 </r>
       <r>   29.1991    0.0000 </r>
       <r>   30.8601    0.0000 </r>
       <r>   34.0217    0.0000 </r>
       <r>   40.4368    0.0000 </r>
       <r>   42.8211    0.0000 </r>
      </set>
      <set comment="kpoint 15">
       <r>    5.0438    1.0000 </r>
       <r>    6.8449    1.0000 </r>
       <r>    7.3875    1.0000 </r>
       <r>    7.5786    1.0000 </r>
       <r>    8.9589    1.0000 </r>
       <r>   11.2446   -0.0000 </r>
       <r>   15.5814    0.0000 </r>
       <r>   28.7980    0.0000 </r>
       <r>   30.4185    0.0000 </r>
       <r>   33.8515    0.0000 </r>
       <r>   39.7360    0.0000 </r>
       <r>   42.4472    0.0000 </r>
      </set>
      <set comment="kpoint 16">
       <r>    4.9522    1.0000 </r>
       <r>    6.9225    1.0000 </r>
       <r>    7.2860    1.0000 </r>
       <r>    7.4308    1.0000 </r>
       <r>    8.7670    1.0000 </r>
       <r>   10.3974   -0.0000 </r>
       <r>   17.2667    0.0000 </r>
       <r>   28.1264    0.0000 </r>
       <r>   31.5758    0.0000 </r>
       <r>   34.5985    0.0000 </r>
       <r>   39.3666    0.0000 </r>
       <r>   42.1563    0.0000 </r>
      </set>
      <set comment="kpoint 17">
       <r>    4.2013    1.0000 </r>
       <r>    6.6354    1.0000 </r>
       <r>    7.1387    1.0000 </r>
       <r>    7.5388    1.0000 </r>
       <r>    8.3449    1.0000 </r>
       <r>    9.2830    1.0277 </r>
       <r>   21.4283    0.0000 </r>
       <r>   28.0266    0.0000 </r>
       <r>   33.4146    0.0000 </r>
       <r>   36.2064    0.0000 </r>
       <r>   39.3416    0.0000 </r>
       <r>   41.4239    0.0000 </r>
      </set>
      <set comment="kpoint 18">
       <r>    2.7634    1.0000 </r>
       <r>    6.6030    1.0000 </r>
       <r>    7.3467    1.0000 </r>
       <r>    7.5833    1.0000 </r>
       <r>    8.0031    1.0000 </r>
       <r>    8.6945    1.0000 </r>
       <r>   26.3188    0.0000 </r>
       <r>   28.5988    0.0000 </r>
       <r>   35.6047    0.0000 </r>
       <r>   37.0773    0.0000 </r>
       <r>   40.1881    0.0000 </r>
       <r>   40.6777    0.0000 </r>
      </set>
      <set comment="kpoint 19">
       <r>    1.5946    1.0000 </r>
       <r>    6.8199    1.0000 </r>
       <r>    7.3535    1.0000 </r>
       <r>    7.3667    1.0000 </r>
       <r>    8.0864    1.0000 </r>
       <r>    8.4032    1.0000 </r>
       <r>   29.5065    0.0000 </r>
       <r>   31.8057    0.0000 </r>
       <r>   35.3790    0.0000 </r>
       <r>   37.4880    0.0000 </r>
       <r>   40.3066    0.0000 </r>
       <r>   42.3384    0.0000 </r>
      </set>
      <set comment="kpoint 20">
       <r>    2.9717    1.0000 </r>
       <r>    6.3329    1.0000 </r>
       <r>    7.5891    1.0000 </r>
       <r>    7.8109    1.0000 </r>
       <r>    7.9765    1.0000 </r>
       <r>    8.6176    1.0000 </r>
       <r>   28.4934    0.0000 </r>
       <r>   29.9701    0.0000 </r>
       <r>   31.0667    0.0000 </r>
       <r>   32.1435    0.0000 </r>
       <r>   36.6248    0.0000 </r>
       <r>   46.9678    0.0000 </r>
      </set>
      <set comment="kpoint 21">
       <r>    4.0720    1.0000 </r>
       <r>    6.1032    1.0000 </r>
       <r>    7.3614    1.0000 </r>
       <r>    8.0632    1.0000 </r>
       <r>    8.4502    1.0000 </r>
       <r>    8.9120    1.0000 </r>
       <r>   25.3938    0.0000 </r>
       <r>   27.4155    0.0000 </r>
       <r>   29.2524    0.0000 </r>
       <r>   32.7440    0.0000 </r>
       <r>   36.7413    0.0000 </r>
       <r>   46.4618    0.0000 </r>
      </set>
      <set comment="kpoint 22">
       <r>    5.0843    1.0000 </r>
       <r>    6.0994    1.0000 </r>
       <r>    7.0953    1.0000 </r>
       <r>    7.9969    1.0000 </r>
       <r>    8.9180    1.0000 </r>
       <r>   10.1534   -0.0002 </r>
       <r>   20.7169    0.0000 </r>
       <r>   26.5377    0.0000 </r>
       <r>   27.4429    0.0000 </r>
       <r>   32.8594    0.0000 </r>
       <r>   40.1326    0.0000 </r>
       <r>   44.9167    0.0000 </r>
      </set>
      <set comment="kpoint 23">
       <r>    5.5023    1.0000 </r>
       <r>    6.2869    1.0000 </r>
       <r>    7.0512    1.0000 </r>
       <r>    7.8691    1.0000 </r>
       <r>    8.9759    1.0001 </r>
       <r>   12.4285   -0.0000 </r>
       <r>   16.7853    0.0000 </r>
       <r>   24.8934    0.0000 </r>
       <r>   27.7887    0.0000 </r>
       <r>   32.9905    0.0000 </r>
       <r>   42.8456    0.0000 </r>
       <r>   45.5612    0.0000 </r>
      </set>
      <set comment="kpoint 24">
       <r>    5.6165    1.0000 </r>
       <r>    6.4387    1.0000 </r>
       <r>    6.9296    1.0000 </r>
       <r>    7.8084    1.0000 </r>
       <r>    8.7303    1.0000 </r>
       <r>   12.5675   -0.0000 </r>
       <r>   16.7990    0.0000 </r>
       <r>   23.7268    0.0000 </r>
       <r>   29.1267    0.0000 </r>
       <r>   33.7124    0.0000 </r>
       <r>   42.0271    0.0000 </r>
       <r>   45.8824    0.0000 </r>
      </set>
      <set comment="kpoint 25">
       <r>    5.2984    1.0000 </r>
       <r>    6.4726    1.0000 </r>
       <r>    6.7586    1.0000 </r>
       <r>    7.8707    1.0000 </r>
       <r>    8.2878    1.0000 </r>
       <r>   10.5925   -0.0000 </r>
       <r>   20.7173    0.0000 </r>
       <r>   23.3381    0.0000 </r>
       <r>   31.1097    0.0000 </r>
       <r>   35.2284    0.0000 </r>
       <r>   40.7054    0.0000 </r>
       <r>   44.7179    0.0000 </r>
      </set>
      <set comment="kpoint 26">
       <r>    4.1348    1.0000 </r>
       <r>    6.4599    1.0000 </r>
       <r>    7.1173    1.0000 </r>
       <r>    7.7758    1.0000 </r>
       <r>    8.0517    1.0000 </r>
       <r>    9.3647    1.0321 </r>
       <r>   23.3750    0.0000 </r>
       <r>   25.7361    0.0000 </r>
       <r>   33.4750    0.0000 </r>
       <r>   37.2031    0.0000 </r>
       <r>   38.8825    0.0000 </r>
       <r>   42.5426    0.0000 </r>
      </set>
      <set comment="kpoint 27">
       <r>    2.9558    1.0000 </r>
       <r>    6.6649    1.0000 </r>
       <r>    7.3396    1.0000 </r>
       <r>    7.4592    1.0000 </r>
       <r>    8.2051    1.0000 </r>
       <r>    8.6389    1.0000 </r>
       <r>   24.3972    0.0000 </r>
       <r>   30.8389    0.0000 </r>
       <r>   34.4278    0.0000 </r>
       <r>   37.3059    0.0000 </r>
       <r>   39.2977    0.0000 </r>
       <r>   41.1214    0.0000 </r>
      </set>
      <set comment="kpoint 28">
       <r>    4.5597    1.0000 </r>
       <r>    5.7994    1.0000 </r>
       <r>    7.9673    1.0000 </r>
       <r>    8.4045    1.0000 </r>
       <r>    8.7731    1.0000 </r>
       <r>    8.8562    1.0000 </r>
       <r>   25.6862    0.0000 </r>
       <r>   26.2273    0.0000 </r>
       <r>   26.9893    0.0000 </r>
       <r>   30.6361    0.0000 </r>
       <r>   34.3895    0.0000 </r>
       <r>   51.2959    0.0000 </r>
      </set>
      <set comment="kpoint 29">
       <r>    5.0005    1.0000 </r>
       <r>    5.6610    1.0000 </r>
       <r>    7.9194    1.0000 </r>
       <r>    8.6240    1.0000 </r>
       <r>    8.9298    1.0000 </r>
       <r>   10.3132   -0.0000 </r>
       <r>   23.1427    0.0000 </r>
       <r>   23.6710    0.0000 </r>
       <r>   25.4049    0.0000 </r>
       <r>   31.6416    0.0000 </r>
       <r>   35.4623    0.0000 </r>
       <r>   49.5919    0.0000 </r>
      </set>
      <set comment="kpoint 30">
       <r>    5.3808    1.0000 </r>
       <r>    5.7554    1.0000 </r>
       <r>    7.5492    1.0000 </r>
       <r>    8.4555    1.0000 </r>
       <r>    9.0212    1.0003 </r>
       <r>   12.9024   -0.0000 </r>
       <r>   19.2183    0.0000 </r>
       <r>   21.5071    0.0000 </r>
       <r>   25.6917    0.0000 </r>
       <r>   32.1656    0.0000 </r>
       <r>   39.4411    0.0000 </r>
       <r>   47.6818    0.0000 </r>
      </set>
      <set comment="kpoint 31">
       <r>    5.7693    1.0000 </r>
       <r>    5.9829    1.0000 </r>
       <r>    7.0708    1.0000 </r>
       <r>    8.2642    1.0000 </r>
       <r>    8.8136    1.0000 </r>
       <r>   15.3164    0.0000 </r>
       <r>   16.3438    0.0000 </r>
       <r>   20.3770    0.0000 </r>
       <r>   26.9460    0.0000 </r>
       <r>   32.7030    0.0000 </r>
       <r>   44.5520    0.0000 </r>
       <r>   45.7810    0.0000 </r>
      </set>
      <set comment="kpoint 32">
       <r>    5.8608    1.0000 </r>
       <r>    6.3328    1.0000 </r>
       <r>    6.6770    1.0000 </r>
       <r>    8.0107    1.0000 </r>
       <r>    8.5666    1.0000 </r>
       <r>   12.6391   -0.0000 </r>
       <r>   18.3540    0.0000 </r>
       <r>   21.5436    0.0000 </r>
       <r>   28.9053    0.0000 </r>
       <r>   33.7053    0.0000 </r>
       <r>   43.0274    0.0000 </r>
       <r>   47.0436    0.0000 </r>
      </set>
      <set comment="kpoint 33">
       <r>    5.1393    1.0000 </r>
       <r>    6.7578    1.0000 </r>
       <r>    6.8553    1.0000 </r>
       <r>    7.6374    1.0000 </r>
       <r>    8.5334    1.0000 </r>
       <r>   10.5353   -0.0000 </r>
       <r>   18.8748    0.0000 </r>
       <r>   25.6307    0.0000 </r>
       <r>   31.2605    0.0000 </r>
       <r>   35.0026    0.0000 </r>
       <r>   40.0927    0.0000 </r>
       <r>   43.5151    0.0000 </r>
      </set>
      <set comment="kpoint 34">
       <r>    4.3127    1.0000 </r>
       <r>    7.0091    1.0000 </r>
       <r>    7.1645    1.0000 </r>
       <r>    7.3609    1.0000 </r>
       <r>    8.6344    1.0000 </r>
       <r>    9.1278    1.0030 </r>
       <r>   19.6832    0.0000 </r>
       <r>   30.4079    0.0000 </r>
       <r>   33.1954    0.0000 </r>
       <r>   35.3333    0.0000 </r>
       <r>   39.0607    0.0000 </r>
       <r>   40.8458    0.0000 </r>
      </set>
      <set comment="kpoint 35">
       <r>    4.8952    1.0000 </r>
       <r>    5.4324    1.0000 </r>
       <r>    8.8033    1.0000 </r>
       <r>    8.8877    1.0000 </r>
       <r>    9.0450    1.0005 </r>
       <r>   10.9521   -0.0000 </r>
       <r>   20.8211    0.0000 </r>
       <r>   24.2848    0.0000 </r>
       <r>   25.1086    0.0000 </r>
       <r>   30.0877    0.0000 </r>
       <r>   33.6770    0.0000 </r>
       <r>   53.5594    0.0000 </r>
      </set>
      <set comment="kpoint 36">
       <r>    5.0156    1.0000 </r>
       <r>    5.4420    1.0000 </r>
       <r>    8.4841    1.0000 </r>
       <r>    8.8847    1.0000 </r>
       <r>    9.0986    1.0016 </r>
       <r>   12.7618   -0.0000 </r>
       <r>   19.2825    0.0000 </r>
       <r>   22.4613    0.0000 </r>
       <r>   24.3189    0.0000 </r>
       <r>   31.2380    0.0000 </r>
       <r>   35.0554    0.0000 </r>
       <r>   51.8179    0.0000 </r>
      </set>
      <set comment="kpoint 37">
       <r>    5.3592    1.0000 </r>
       <r>    5.6850    1.0000 </r>
       <r>    7.7137    1.0000 </r>
       <r>    8.5923    1.0000 </r>
       <r>    8.9986    1.0001 </r>
       <r>   14.2643   -0.0000 </r>
       <r>   18.7063    0.0000 </r>
       <r>   19.8482    0.0000 </r>
       <r>   25.3603    0.0000 </r>
       <r>   32.0417    0.0000 </r>
       <r>   39.3080    0.0000 </r>
       <r>   48.6596    0.0000 </r>
      </set>
      <set comment="kpoint 38">
       <r>    5.6936    1.0000 </r>
       <r>    6.0795    1.0000 </r>
       <r>    7.0581    1.0000 </r>
       <r>    8.0937    1.0000 </r>
       <r>    8.9066    1.0000 </r>
       <r>   14.0833   -0.0000 </r>
       <r>   16.2992    0.0000 </r>
       <r>   22.3599    0.0000 </r>
       <r>   27.2281    0.0000 </r>
       <r>   32.7936    0.0000 </r>
       <r>   43.9619    0.0000 </r>
       <r>   45.5384    0.0000 </r>
      </set>
      <set comment="kpoint 39">
       <r>    5.3208    1.0000 </r>
       <r>    6.6285    1.0000 </r>
       <r>    7.2464    1.0000 </r>
       <r>    7.5801    1.0000 </r>
       <r>    8.8810    1.0000 </r>
       <r>   12.1685   -0.0000 </r>
       <r>   15.7347    0.0000 </r>
       <r>   26.2732    0.0000 </r>
       <r>   29.5872    0.0000 </r>
       <r>   33.7461    0.0000 </r>
       <r>   40.8209    0.0000 </r>
       <r>   44.2961    0.0000 </r>
      </set>
      <set comment="kpoint 40">
       <r>    4.8058    1.0000 </r>
       <r>    7.0271    1.0000 </r>
       <r>    7.2567    1.0000 </r>
       <r>    7.8916    1.0000 </r>
       <r>    8.9333    1.0000 </r>
       <r>   10.1483   -0.0002 </r>
       <r>   16.0845    0.0000 </r>
       <r>   30.4271    0.0000 </r>
       <r>   32.2248    0.0000 </r>
       <r>   34.1222    0.0000 </r>
       <r>   38.8075    0.0000 </r>
       <r>   40.4218    0.0000 </r>
      </set>
      <set comment="kpoint 41">
       <r>    4.8820    1.0000 </r>
       <r>    5.3526    1.0000 </r>
       <r>    8.9621    1.0001 </r>
       <r>    8.9868    1.0001 </r>
       <r>    9.1074    1.0020 </r>
       <r>   12.0727   -0.0000 </r>
       <r>   19.2034    0.0000 </r>
       <r>   23.9057    0.0000 </r>
       <r>   24.7071    0.0000 </r>
       <r>   29.9808    0.0000 </r>
       <r>   33.5705    0.0000 </r>
       <r>   53.9527    0.0000 </r>
      </set>
      <set comment="kpoint 42">
       <r>    5.0358    1.0000 </r>
       <r>    5.5176    1.0000 </r>
       <r>    8.2772    1.0000 </r>
       <r>    8.8167    1.0000 </r>
       <r>    9.0297    1.0003 </r>
       <r>   11.6158   -0.0000 </r>
       <r>   20.9440    0.0000 </r>
       <r>   22.8164    0.0000 </r>
       <r>   24.6868    0.0000 </r>
       <r>   31.3782    0.0000 </r>
       <r>   35.1818    0.0000 </r>
       <r>   50.9418    0.0000 </r>
      </set>
      <set comment="kpoint 43">
       <r>    5.3412    1.0000 </r>
       <r>    5.8999    1.0000 </r>
       <r>    7.2924    1.0000 </r>
       <r>    8.2394    1.0000 </r>
       <r>    9.0060    1.0002 </r>
       <r>   11.3929   -0.0000 </r>
       <r>   19.8627    0.0000 </r>
       <r>   23.9634    0.0000 </r>
       <r>   26.3436    0.0000 </r>
       <r>   32.4174    0.0000 </r>
       <r>   39.7101    0.0000 </r>
       <r>   46.3413    0.0000 </r>
      </set>
      <set comment="kpoint 44">
       <r>    5.2003    1.0000 </r>
       <r>    6.5665    1.0000 </r>
       <r>    7.0631    1.0000 </r>
       <r>    7.6525    1.0000 </r>
       <r>    8.9704    1.0001 </r>
       <r>   10.9447   -0.0000 </r>
       <r>   17.5410    0.0000 </r>
       <r>   27.4930    0.0000 </r>
       <r>   28.7472    0.0000 </r>
       <r>   33.3587    0.0000 </r>
       <r>   41.6329    0.0000 </r>
       <r>   45.0044    0.0000 </r>
      </set>
      <set comment="kpoint 45">
       <r>    4.8469    1.0000 </r>
       <r>    5.5850    1.0000 </r>
       <r>    8.4714    1.0000 </r>
       <r>    8.6800    1.0000 </r>
       <r>    8.9594    1.0000 </r>
       <r>    9.6498    0.2331 </r>
       <r>   23.1972    0.0000 </r>
       <r>   25.0143    0.0000 </r>
       <r>   25.8849    0.0000 </r>
       <r>   30.2938    0.0000 </r>
       <r>   33.9264    0.0000 </r>
       <r>   52.7006    0.0000 </r>
      </set>
      <set comment="kpoint 46">
       <r>    4.7296    1.0000 </r>
       <r>    5.8628    1.0000 </r>
       <r>    7.5356    1.0000 </r>
       <r>    8.3526    1.0000 </r>
       <r>    8.7645    1.0000 </r>
       <r>    9.3690    1.0308 </r>
       <r>   24.2735    0.0000 </r>
       <r>   25.9272    0.0000 </r>
       <r>   26.6528    0.0000 </r>
       <r>   32.0894    0.0000 </r>
       <r>   35.9519    0.0000 </r>
       <r>   48.0595    0.0000 </r>
      </set>
      <set comment="kpoint 47">
       <r>    4.5078    1.0000 </r>
       <r>    6.3107    1.0000 </r>
       <r>    7.0945    1.0000 </r>
       <r>    7.7684    1.0000 </r>
       <r>    8.7221    1.0000 </r>
       <r>    9.3208    1.0345 </r>
       <r>   21.7674    0.0000 </r>
       <r>   28.1366    0.0000 </r>
       <r>   29.8625    0.0000 </r>
       <r>   33.5913    0.0000 </r>
       <r>   40.6910    0.0000 </r>
       <r>   43.4170    0.0000 </r>
      </set>
      <set comment="kpoint 48">
       <r>    3.8829    1.0000 </r>
       <r>    6.0558    1.0000 </r>
       <r>    7.6279    1.0000 </r>
       <r>    8.1041    1.0000 </r>
       <r>    8.2943    1.0000 </r>
       <r>    8.7391    1.0000 </r>
       <r>   27.1364    0.0000 </r>
       <r>   28.3713    0.0000 </r>
       <r>   28.7615    0.0000 </r>
       <r>   31.1531    0.0000 </r>
       <r>   35.2153    0.0000 </r>
       <r>   49.2173    0.0000 </r>
      </set>
      <set comment="kpoint 49">
       <r>    3.1842    1.0000 </r>
       <r>    6.3608    1.0000 </r>
       <r>    7.3996    1.0000 </r>
       <r>    7.7887    1.0000 </r>
       <r>    8.1324    1.0000 </r>
       <r>    8.6964    1.0000 </r>
       <r>   26.6563    0.0000 </r>
       <r>   28.7937    0.0000 </r>
       <r>   32.0259    0.0000 </r>
       <r>   33.7331    0.0000 </r>
       <r>   37.9233    0.0000 </r>
       <r>   44.7448    0.0000 </r>
      </set>
      <set comment="kpoint 50">
       <r>    2.0797    1.0000 </r>
       <r>    6.6031    1.0000 </r>
       <r>    7.5286    1.0000 </r>
       <r>    7.5543    1.0000 </r>
       <r>    7.9103    1.0000 </r>
       <r>    8.4995    1.0000 </r>
       <r>   29.8838    0.0000 </r>
       <r>   31.7380    0.0000 </r>
       <r>   32.2858    0.0000 </r>
       <r>   34.0087    0.0000 </r>
       <r>   38.8363    0.0000 </r>
       <r>   44.7262    0.0000 </r>
      </set>
      <set comment="kpoint 51">
       <r>    1.3438    1.0000 </r>
       <r>    6.9241    1.0000 </r>
       <r>    7.2836    1.0000 </r>
       <r>    7.2836    1.0000 </r>
       <r>    8.2561    1.0000 </r>
       <r>    8.2561    1.0000 </r>
       <r>   29.3330    0.0000 </r>
       <r>   34.3563    0.0000 </r>
       <r>   36.1754    0.0000 </r>
       <r>   36.1754    0.0000 </r>
       <r>   41.5433    0.0000 </r>
       <r>   42.3251    0.0000 </r>
      </set>
      <set comment="kpoint 52">
       <r>    2.0774    1.0000 </r>
       <r>    6.7470    1.0000 </r>
       <r>    7.3635    1.0000 </r>
       <r>    7.4362    1.0000 </r>
       <r>    8.0460    1.0000 </r>
       <r>    8.4993    1.0000 </r>
       <r>   27.8440    0.0000 </r>
       <r>   30.1367    0.0000 </r>
       <r>   36.6965    0.0000 </r>
       <r>   38.7424    0.0000 </r>
       <r>   39.0780    0.0000 </r>
       <r>   40.7593    0.0000 </r>
      </set>
      <set comment="kpoint 53">
       <r>    3.3942    1.0000 </r>
       <r>    6.5564    1.0000 </r>
       <r>    7.2661    1.0000 </r>
       <r>    7.6577    1.0000 </r>
       <r>    7.9580    1.0000 </r>
       <r>    8.9805    1.0001 </r>
       <r>   24.7695    0.0000 </r>
       <r>   27.0760    0.0000 </r>
       <r>   35.9922    0.0000 </r>
       <r>   37.4022    0.0000 </r>
       <r>   38.8378    0.0000 </r>
       <r>   41.0347    0.0000 </r>
      </set>
      <set comment="kpoint 54">
       <r>    4.6952    1.0000 </r>
       <r>    6.7558    1.0000 </r>
       <r>    7.0276    1.0000 </r>
       <r>    7.5356    1.0000 </r>
       <r>    8.3732    1.0000 </r>
       <r>    9.7968   -0.0310 </r>
       <r>   20.0595    0.0000 </r>
       <r>   26.7507    0.0000 </r>
       <r>   33.9917    0.0000 </r>
       <r>   34.4899    0.0000 </r>
       <r>   40.7143    0.0000 </r>
       <r>   40.7607    0.0000 </r>
      </set>
      <set comment="kpoint 55">
       <r>    5.1222    1.0000 </r>
       <r>    6.8207    1.0000 </r>
       <r>    7.3798    1.0000 </r>
       <r>    7.4484    1.0000 </r>
       <r>    8.7950    1.0000 </r>
       <r>   11.2037   -0.0000 </r>
       <r>   16.3066    0.0000 </r>
       <r>   27.1175    0.0000 </r>
       <r>   32.1635    0.0000 </r>
       <r>   32.8004    0.0000 </r>
       <r>   41.1206    0.0000 </r>
       <r>   41.7254    0.0000 </r>
      </set>
      <set comment="kpoint 56">
       <r>    5.0999    1.0000 </r>
       <r>    6.7570    1.0000 </r>
       <r>    7.3369    1.0000 </r>
       <r>    7.4785    1.0000 </r>
       <r>    9.0088    1.0002 </r>
       <r>   11.1101   -0.0000 </r>
       <r>   16.2872    0.0000 </r>
       <r>   28.1781    0.0000 </r>
       <r>   30.7076    0.0000 </r>
       <r>   32.4219    0.0000 </r>
       <r>   42.1369    0.0000 </r>
       <r>   42.2217    0.0000 </r>
      </set>
      <set comment="kpoint 57">
       <r>    4.6459    1.0000 </r>
       <r>    6.5506    1.0000 </r>
       <r>    7.0793    1.0000 </r>
       <r>    7.5830    1.0000 </r>
       <r>    8.9323    1.0000 </r>
       <r>    9.4066    1.0079 </r>
       <r>   20.0183    0.0000 </r>
       <r>   29.7199    0.0000 </r>
       <r>   30.1799    0.0000 </r>
       <r>   32.8074    0.0000 </r>
       <r>   42.7449    0.0000 </r>
       <r>   43.2399    0.0000 </r>
      </set>
      <set comment="kpoint 58">
       <r>    3.3763    1.0000 </r>
       <r>    6.4092    1.0000 </r>
       <r>    7.3291    1.0000 </r>
       <r>    7.6585    1.0000 </r>
       <r>    8.3706    1.0000 </r>
       <r>    8.6870    1.0000 </r>
       <r>   24.7496    0.0000 </r>
       <r>   30.5633    0.0000 </r>
       <r>   31.2611    0.0000 </r>
       <r>   33.9030    0.0000 </r>
       <r>   39.4766    0.0000 </r>
       <r>   43.6859    0.0000 </r>
      </set>
      <set comment="kpoint 59">
       <r>    2.5334    1.0000 </r>
       <r>    6.6326    1.0000 </r>
       <r>    7.4017    1.0000 </r>
       <r>    7.4852    1.0000 </r>
       <r>    8.1443    1.0000 </r>
       <r>    8.5243    1.0000 </r>
       <r>   26.1414    0.0000 </r>
       <r>   32.3209    0.0000 </r>
       <r>   32.5301    0.0000 </r>
       <r>   36.5152    0.0000 </r>
       <r>   39.7808    0.0000 </r>
       <r>   42.4646    0.0000 </r>
      </set>
      <set comment="kpoint 60">
       <r>    3.5881    1.0000 </r>
       <r>    6.4094    1.0000 </r>
       <r>    7.2349    1.0000 </r>
       <r>    7.7847    1.0000 </r>
       <r>    8.1198    1.0000 </r>
       <r>    8.9633    1.0001 </r>
       <r>   24.9326    0.0000 </r>
       <r>   27.2095    0.0000 </r>
       <r>   32.7932    0.0000 </r>
       <r>   35.9158    0.0000 </r>
       <r>   39.4773    0.0000 </r>
       <r>   42.1778    0.0000 </r>
      </set>
      <set comment="kpoint 61">
       <r>    4.8647    1.0000 </r>
       <r>    6.3268    1.0000 </r>
       <r>    6.9044    1.0000 </r>
       <r>    7.9633    1.0000 </r>
       <r>    8.2849    1.0000 </r>
       <r>    9.9135   -0.0206 </r>
       <r>   22.1371    0.0000 </r>
       <r>   24.5694    0.0000 </r>
       <r>   30.3380    0.0000 </r>
       <r>   37.1754    0.0000 </r>
       <r>   38.7677    0.0000 </r>
       <r>   43.2026    0.0000 </r>
      </set>
      <set comment="kpoint 62">
       <r>    5.5034    1.0000 </r>
       <r>    6.4994    1.0000 </r>
       <r>    6.8129    1.0000 </r>
       <r>    7.8184    1.0000 </r>
       <r>    8.7207    1.0000 </r>
       <r>   11.6218   -0.0000 </r>
       <r>   17.8822    0.0000 </r>
       <r>   24.7143    0.0000 </r>
       <r>   28.2613    0.0000 </r>
       <r>   35.8406    0.0000 </r>
       <r>   39.7691    0.0000 </r>
       <r>   46.3058    0.0000 </r>
      </set>
      <set comment="kpoint 63">
       <r>    5.5501    1.0000 </r>
       <r>    6.4026    1.0000 </r>
       <r>    7.0289    1.0000 </r>
       <r>    7.7797    1.0000 </r>
       <r>    8.9084    1.0000 </r>
       <r>   12.9025   -0.0000 </r>
       <r>   15.9093    0.0000 </r>
       <r>   25.5657    0.0000 </r>
       <r>   26.8979    0.0000 </r>
       <r>   35.0896    0.0000 </r>
       <r>   40.3590    0.0000 </r>
       <r>   47.1900    0.0000 </r>
      </set>
      <set comment="kpoint 64">
       <r>    5.3197    1.0000 </r>
       <r>    6.3350    1.0000 </r>
       <r>    6.8716    1.0000 </r>
       <r>    7.9017    1.0000 </r>
       <r>    8.8033    1.0000 </r>
       <r>   10.8271   -0.0000 </r>
       <r>   19.1948    0.0000 </r>
       <r>   25.8307    0.0000 </r>
       <r>   27.5560    0.0000 </r>
       <r>   34.9938    0.0000 </r>
       <r>   40.6607    0.0000 </r>
       <r>   44.1032    0.0000 </r>
      </set>
      <set comment="kpoint 65">
       <r>    4.4213    1.0000 </r>
       <r>    6.1971    1.0000 </r>
       <r>    7.0999    1.0000 </r>
       <r>    8.0307    1.0000 </r>
       <r>    8.3793    1.0000 </r>
       <r>    9.3557    1.0341 </r>
       <r>   23.7032    0.0000 </r>
       <r>   25.9699    0.0000 </r>
       <r>   29.7319    0.0000 </r>
       <r>   35.0148    0.0000 </r>
       <r>   38.6895    0.0000 </r>
       <r>   43.5162    0.0000 </r>
      </set>
      <set comment="kpoint 66">
       <r>    4.2296    1.0000 </r>
       <r>    6.1712    1.0000 </r>
       <r>    7.2520    1.0000 </r>
       <r>    7.8763    1.0000 </r>
       <r>    8.8403    1.0000 </r>
       <r>    8.8494    1.0000 </r>
       <r>   23.5166    0.0000 </r>
       <r>   28.9958    0.0000 </r>
       <r>   29.1018    0.0000 </r>
       <r>   32.3370    0.0000 </r>
       <r>   38.5541    0.0000 </r>
       <r>   45.8973    0.0000 </r>
      </set>
      <set comment="kpoint 67">
       <r>    5.0377    1.0000 </r>
       <r>    5.9903    1.0000 </r>
       <r>    7.1106    1.0000 </r>
       <r>    8.3011    1.0000 </r>
       <r>    8.6439    1.0000 </r>
       <r>   10.0339   -0.0032 </r>
       <r>   22.6315    0.0000 </r>
       <r>   24.8705    0.0000 </r>
       <r>   26.7698    0.0000 </r>
       <r>   34.3104    0.0000 </r>
       <r>   38.0847    0.0000 </r>
       <r>   44.8313    0.0000 </r>
      </set>
      <set comment="kpoint 68">
       <r>    5.6196    1.0000 </r>
       <r>    6.0361    1.0000 </r>
       <r>    6.8548    1.0000 </r>
       <r>    8.3663    1.0000 </r>
       <r>    8.7821    1.0000 </r>
       <r>   12.0220   -0.0000 </r>
       <r>   20.2222    0.0000 </r>
       <r>   22.7936    0.0000 </r>
       <r>   24.4961    0.0000 </r>
       <r>   36.3106    0.0000 </r>
       <r>   39.5491    0.0000 </r>
       <r>   43.7327    0.0000 </r>
      </set>
      <set comment="kpoint 69">
       <r>    5.9265    1.0000 </r>
       <r>    6.0903    1.0000 </r>
       <r>    6.7342    1.0000 </r>
       <r>    8.1560    1.0000 </r>
       <r>    8.9313    1.0000 </r>
       <r>   14.7078   -0.0000 </r>
       <r>   16.6025    0.0000 </r>
       <r>   22.5881    0.0000 </r>
       <r>   23.7557    0.0000 </r>
       <r>   36.8397    0.0000 </r>
       <r>   40.8326    0.0000 </r>
       <r>   45.5635    0.0000 </r>
      </set>
      <set comment="kpoint 70">
       <r>    5.9222    1.0000 </r>
       <r>    6.2533    1.0000 </r>
       <r>    6.5063    1.0000 </r>
       <r>    8.1903    1.0000 </r>
       <r>    8.7643    1.0000 </r>
       <r>   13.0068   -0.0000 </r>
       <r>   18.7768    0.0000 </r>
       <r>   21.7814    0.0000 </r>
       <r>   25.1797    0.0000 </r>
       <r>   37.6882    0.0000 </r>
       <r>   39.6245    0.0000 </r>
       <r>   44.8462    0.0000 </r>
      </set>
      <set comment="kpoint 71">
       <r>    5.4101    1.0000 </r>
       <r>    6.1782    1.0000 </r>
       <r>    6.7667    1.0000 </r>
       <r>    8.1900    1.0000 </r>
       <r>    8.5470    1.0000 </r>
       <r>   10.7716   -0.0000 </r>
       <r>   21.0778    0.0000 </r>
       <r>   23.5890    0.0000 </r>
       <r>   27.3016    0.0000 </r>
       <r>   36.7521    0.0000 </r>
       <r>   39.1242    0.0000 </r>
       <r>   43.3259    0.0000 </r>
      </set>
      <set comment="kpoint 72">
       <r>    5.1263    1.0000 </r>
       <r>    5.7403    1.0000 </r>
       <r>    7.6811    1.0000 </r>
       <r>    8.3760    1.0000 </r>
       <r>    9.0451    1.0005 </r>
       <r>   10.7285   -0.0000 </r>
       <r>   21.5484    0.0000 </r>
       <r>   23.6376    0.0000 </r>
       <r>   26.6054    0.0000 </r>
       <r>   31.2485    0.0000 </r>
       <r>   37.3134    0.0000 </r>
       <r>   49.3873    0.0000 </r>
      </set>
      <set comment="kpoint 73">
       <r>    5.2884    1.0000 </r>
       <r>    5.6858    1.0000 </r>
       <r>    7.6557    1.0000 </r>
       <r>    8.6625    1.0000 </r>
       <r>    8.9933    1.0001 </r>
       <r>   12.5370   -0.0000 </r>
       <r>   20.9612    0.0000 </r>
       <r>   21.4706    0.0000 </r>
       <r>   23.6101    0.0000 </r>
       <r>   33.4795    0.0000 </r>
       <r>   37.4474    0.0000 </r>
       <r>   47.5139    0.0000 </r>
      </set>
      <set comment="kpoint 74">
       <r>    5.5352    1.0000 </r>
       <r>    5.8866    1.0000 </r>
       <r>    7.2408    1.0000 </r>
       <r>    8.4457    1.0000 </r>
       <r>    9.0938    1.0015 </r>
       <r>   15.0206   -0.0000 </r>
       <r>   19.1519    0.0000 </r>
       <r>   19.9238    0.0000 </r>
       <r>   22.2043    0.0000 </r>
       <r>   35.8349    0.0000 </r>
       <r>   39.9594    0.0000 </r>
       <r>   45.1274    0.0000 </r>
      </set>
      <set comment="kpoint 75">
       <r>    5.8576    1.0000 </r>
       <r>    6.1621    1.0000 </r>
       <r>    6.7083    1.0000 </r>
       <r>    8.2305    1.0000 </r>
       <r>    8.9695    1.0001 </r>
       <r>   15.8188    0.0000 </r>
       <r>   16.8365    0.0000 </r>
       <r>   20.5716    0.0000 </r>
       <r>   23.4383    0.0000 </r>
       <r>   36.9207    0.0000 </r>
       <r>   41.9454    0.0000 </r>
       <r>   44.6466    0.0000 </r>
      </set>
      <set comment="kpoint 76">
       <r>    5.7869    1.0000 </r>
       <r>    6.2291    1.0000 </r>
       <r>    6.7728    1.0000 </r>
       <r>    8.0086    1.0000 </r>
       <r>    8.8539    1.0000 </r>
       <r>   13.0601   -0.0000 </r>
       <r>   17.1026    0.0000 </r>
       <r>   23.9684    0.0000 </r>
       <r>   25.4579    0.0000 </r>
       <r>   36.5151    0.0000 </r>
       <r>   39.9743    0.0000 </r>
       <r>   46.2806    0.0000 </r>
      </set>
      <set comment="kpoint 77">
       <r>    5.1382    1.0000 </r>
       <r>    5.5238    1.0000 </r>
       <r>    8.2002    1.0000 </r>
       <r>    8.7647    1.0000 </r>
       <r>    9.0425    1.0005 </r>
       <r>   13.3315   -0.0000 </r>
       <r>   19.3064    0.0000 </r>
       <r>   20.7320    0.0000 </r>
       <r>   25.4927    0.0000 </r>
       <r>   30.9324    0.0000 </r>
       <r>   36.8595    0.0000 </r>
       <r>   51.3623    0.0000 </r>
      </set>
      <set comment="kpoint 78">
       <r>    5.2542    1.0000 </r>
       <r>    5.6197    1.0000 </r>
       <r>    7.8540    1.0000 </r>
       <r>    8.6868    1.0000 </r>
       <r>    9.0947    1.0015 </r>
       <r>   13.8026   -0.0000 </r>
       <r>   19.4281    0.0000 </r>
       <r>   20.9083    0.0000 </r>
       <r>   23.2791    0.0000 </r>
       <r>   33.3183    0.0000 </r>
       <r>   37.3402    0.0000 </r>
       <r>   48.4888    0.0000 </r>
      </set>
      <set comment="kpoint 79">
       <r>    5.5921    1.0000 </r>
       <r>    5.9355    1.0000 </r>
       <r>    7.0775    1.0000 </r>
       <r>    8.4396    1.0000 </r>
       <r>    8.9772    1.0001 </r>
       <r>   13.5698   -0.0000 </r>
       <r>   19.5944    0.0000 </r>
       <r>   21.6210    0.0000 </r>
       <r>   22.5924    0.0000 </r>
       <r>   35.9925    0.0000 </r>
       <r>   39.8324    0.0000 </r>
       <r>   44.4404    0.0000 </r>
      </set>
      <set comment="kpoint 80">
       <r>    5.1595    1.0000 </r>
       <r>    5.5969    1.0000 </r>
       <r>    8.0116    1.0000 </r>
       <r>    8.6031    1.0000 </r>
       <r>    9.0675    1.0008 </r>
       <r>   12.1150   -0.0000 </r>
       <r>   20.7251    0.0000 </r>
       <r>   21.3755    0.0000 </r>
       <r>   25.8701    0.0000 </r>
       <r>   31.0290    0.0000 </r>
       <r>   37.0031    0.0000 </r>
       <r>   50.5659    0.0000 </r>
      </set>
      <set comment="kpoint 81">
       <r>    5.2791    1.0000 </r>
       <r>    5.8138    1.0000 </r>
       <r>    7.3511    1.0000 </r>
       <r>    8.5368    1.0000 </r>
       <r>    8.8395    1.0000 </r>
       <r>   11.1287   -0.0000 </r>
       <r>   21.7636    0.0000 </r>
       <r>   23.5857    0.0000 </r>
       <r>   24.4159    0.0000 </r>
       <r>   33.8136    0.0000 </r>
       <r>   37.6857    0.0000 </r>
       <r>   46.1965    0.0000 </r>
      </set>
      <set comment="kpoint 82">
       <r>    4.8622    1.0000 </r>
       <r>    5.9391    1.0000 </r>
       <r>    7.3600    1.0000 </r>
       <r>    8.1217    1.0000 </r>
       <r>    8.9654    1.0001 </r>
       <r>    9.6137    0.3705 </r>
       <r>   22.4368    0.0000 </r>
       <r>   26.3549    0.0000 </r>
       <r>   27.6600    0.0000 </r>
       <r>   31.6277    0.0000 </r>
       <r>   37.8164    0.0000 </r>
       <r>   48.0834    0.0000 </r>
      </set>
      <set comment="kpoint 83">
       <r>    2.7264    1.0000 </r>
       <r>    6.7969    1.0000 </r>
       <r>    7.3513    1.0000 </r>
       <r>    7.3513    1.0000 </r>
       <r>    8.3797    1.0000 </r>
       <r>    8.3797    1.0000 </r>
       <r>   24.1997    0.0000 </r>
       <r>   33.5880    0.0000 </r>
       <r>   35.3243    0.0000 </r>
       <r>   35.3243    0.0000 </r>
       <r>   40.9866    0.0000 </r>
       <r>   40.9866    0.0000 </r>
      </set>
      <set comment="kpoint 84">
       <r>    3.5372    1.0000 </r>
       <r>    6.6753    1.0000 </r>
       <r>    7.2738    1.0000 </r>
       <r>    7.4682    1.0000 </r>
       <r>    8.2086    1.0000 </r>
       <r>    8.9082    1.0000 </r>
       <r>   22.8213    0.0000 </r>
       <r>   29.3598    0.0000 </r>
       <r>   35.1720    0.0000 </r>
       <r>   37.5107    0.0000 </r>
       <r>   38.9435    0.0000 </r>
       <r>   39.5859    0.0000 </r>
      </set>
      <set comment="kpoint 85">
       <r>    4.7406    1.0000 </r>
       <r>    6.4850    1.0000 </r>
       <r>    6.9817    1.0000 </r>
       <r>    7.7687    1.0000 </r>
       <r>    8.1068    1.0000 </r>
       <r>    9.8807   -0.0281 </r>
       <r>   21.9621    0.0000 </r>
       <r>   24.4372    0.0000 </r>
       <r>   34.2269    0.0000 </r>
       <r>   34.3187    0.0000 </r>
       <r>   40.8437    0.0000 </r>
       <r>   42.5938    0.0000 </r>
      </set>
      <set comment="kpoint 86">
       <r>    5.6318    1.0000 </r>
       <r>    6.5737    1.0000 </r>
       <r>    6.6084    1.0000 </r>
       <r>    7.8806    1.0000 </r>
       <r>    8.3931    1.0000 </r>
       <r>   11.4729   -0.0000 </r>
       <r>   19.4546    0.0000 </r>
       <r>   22.3330    0.0000 </r>
       <r>   31.4706    0.0000 </r>
       <r>   32.8643    0.0000 </r>
       <r>   43.3832    0.0000 </r>
       <r>   44.2559    0.0000 </r>
      </set>
      <set comment="kpoint 87">
       <r>    5.6746    1.0000 </r>
       <r>    6.2762    1.0000 </r>
       <r>    7.0085    1.0000 </r>
       <r>    7.9159    1.0000 </r>
       <r>    8.8127    1.0000 </r>
       <r>   13.5932   -0.0000 </r>
       <r>   16.0578    0.0000 </r>
       <r>   22.9410    0.0000 </r>
       <r>   29.2858    0.0000 </r>
       <r>   31.9977    0.0000 </r>
       <r>   45.0435    0.0000 </r>
       <r>   45.1574    0.0000 </r>
      </set>
      <set comment="kpoint 88">
       <r>    5.4262    1.0000 </r>
       <r>    6.0775    1.0000 </r>
       <r>    7.1717    1.0000 </r>
       <r>    8.0114    1.0000 </r>
       <r>    9.0354    1.0004 </r>
       <r>   11.8619   -0.0000 </r>
       <r>   18.1635    0.0000 </r>
       <r>   24.3417    0.0000 </r>
       <r>   27.9642    0.0000 </r>
       <r>   31.6531    0.0000 </r>
       <r>   42.2184    0.0000 </r>
       <r>   46.3093    0.0000 </r>
      </set>
      <set comment="kpoint 89">
       <r>    3.9939    1.0000 </r>
       <r>    6.7078    1.0000 </r>
       <r>    7.2034    1.0000 </r>
       <r>    7.4420    1.0000 </r>
       <r>    8.7316    1.0000 </r>
       <r>    8.7832    1.0000 </r>
       <r>   21.2286    0.0000 </r>
       <r>   31.6088    0.0000 </r>
       <r>   31.6863    0.0000 </r>
       <r>   34.6443    0.0000 </r>
       <r>   40.5169    0.0000 </r>
       <r>   42.5733    0.0000 </r>
      </set>
      <set comment="kpoint 90">
       <r>    4.8355    1.0000 </r>
       <r>    6.5295    1.0000 </r>
       <r>    6.9573    1.0000 </r>
       <r>    7.6933    1.0000 </r>
       <r>    8.5940    1.0000 </r>
       <r>    9.8678   -0.0308 </r>
       <r>   20.2197    0.0000 </r>
       <r>   26.8574    0.0000 </r>
       <r>   30.4931    0.0000 </r>
       <r>   35.5095    0.0000 </r>
       <r>   39.9098    0.0000 </r>
       <r>   43.6277    0.0000 </r>
      </set>
      <set comment="kpoint 91">
       <r>    5.7233    1.0000 </r>
       <r>    6.3954    1.0000 </r>
       <r>    6.5402    1.0000 </r>
       <r>    8.0481    1.0000 </r>
       <r>    8.5240    1.0000 </r>
       <r>   11.6186   -0.0000 </r>
       <r>   19.6483    0.0000 </r>
       <r>   22.4563    0.0000 </r>
       <r>   28.0501    0.0000 </r>
       <r>   36.3992    0.0000 </r>
       <r>   40.0562    0.0000 </r>
       <r>   45.3863    0.0000 </r>
      </set>
      <set comment="kpoint 92">
       <r>    6.0289    1.0000 </r>
       <r>    6.0706    1.0000 </r>
       <r>    6.7076    1.0000 </r>
       <r>    8.1472    1.0000 </r>
       <r>    8.7734    1.0000 </r>
       <r>   14.1193   -0.0000 </r>
       <r>   17.4483    0.0000 </r>
       <r>   20.9669    0.0000 </r>
       <r>   26.0705    0.0000 </r>
       <r>   35.2057    0.0000 </r>
       <r>   42.4200    0.0000 </r>
       <r>   46.8990    0.0000 </r>
      </set>
      <set comment="kpoint 93">
       <r>    5.6535    1.0000 </r>
       <r>    5.9604    1.0000 </r>
       <r>    7.0772    1.0000 </r>
       <r>    8.2933    1.0000 </r>
       <r>    8.9621    1.0001 </r>
       <r>   13.8205   -0.0000 </r>
       <r>   17.7538    0.0000 </r>
       <r>   21.9684    0.0000 </r>
       <r>   24.7291    0.0000 </r>
       <r>   34.3841    0.0000 </r>
       <r>   41.8309    0.0000 </r>
       <r>   44.7096    0.0000 </r>
      </set>
      <set comment="kpoint 94">
       <r>    5.1453    1.0000 </r>
       <r>    6.3180    1.0000 </r>
       <r>    7.0630    1.0000 </r>
       <r>    7.7796    1.0000 </r>
       <r>    9.0207    1.0003 </r>
       <r>   10.4596   -0.0000 </r>
       <r>   18.9936    0.0000 </r>
       <r>   27.0681    0.0000 </r>
       <r>   28.9335    0.0000 </r>
       <r>   32.0203    0.0000 </r>
       <r>   42.5810    0.0000 </r>
       <r>   44.9441    0.0000 </r>
      </set>
      <set comment="kpoint 95">
       <r>    5.5844    1.0000 </r>
       <r>    6.1131    1.0000 </r>
       <r>    6.9350    1.0000 </r>
       <r>    8.1206    1.0000 </r>
       <r>    8.9173    1.0000 </r>
       <r>   12.1857   -0.0000 </r>
       <r>   18.3683    0.0000 </r>
       <r>   24.3851    0.0000 </r>
       <r>   25.4045    0.0000 </r>
       <r>   34.6236    0.0000 </r>
       <r>   41.3819    0.0000 </r>
       <r>   44.2195    0.0000 </r>
      </set>
      <set comment="kpoint 96">
       <r>    5.8359    1.0000 </r>
       <r>    6.2443    1.0000 </r>
       <r>    6.6010    1.0000 </r>
       <r>    8.2523    1.0000 </r>
       <r>    8.9706    1.0001 </r>
       <r>   14.6813   -0.0000 </r>
       <r>   18.1441    0.0000 </r>
       <r>   21.2561    0.0000 </r>
       <r>   22.6367    0.0000 </r>
       <r>   38.5343    0.0000 </r>
       <r>   39.9942    0.0000 </r>
       <r>   44.0825    0.0000 </r>
      </set>
      <set comment="kpoint 97">
       <r>    5.7427    1.0000 </r>
       <r>    6.2410    1.0000 </r>
       <r>    6.6984    1.0000 </r>
       <r>    8.2611    1.0000 </r>
       <r>    9.0931    1.0015 </r>
       <r>   16.3359    0.0000 </r>
       <r>   17.7767    0.0000 </r>
       <r>   20.1808    0.0000 </r>
       <r>   21.3948    0.0000 </r>
       <r>   38.5812    0.0000 </r>
       <r>   41.3984    0.0000 </r>
       <r>   42.9521    0.0000 </r>
      </set>
      <set comment="kpoint 98">
       <r>    5.5289    1.0000 </r>
       <r>    5.8996    1.0000 </r>
       <r>    7.3276    1.0000 </r>
       <r>    8.2514    1.0000 </r>
       <r>    8.9797    1.0001 </r>
       <r>   13.5044   -0.0000 </r>
       <r>   17.5394    0.0000 </r>
       <r>   21.8316    0.0000 </r>
       <r>   27.3035    0.0000 </r>
       <r>   31.4673    0.0000 </r>
       <r>   41.9717    0.0000 </r>
       <r>   47.6527    0.0000 </r>
      </set>
      <set comment="kpoint 99">
       <r>    5.6325    1.0000 </r>
       <r>    5.9053    1.0000 </r>
       <r>    7.1871    1.0000 </r>
       <r>    8.3840    1.0000 </r>
       <r>    8.9771    1.0001 </r>
       <r>   15.3879    0.0000 </r>
       <r>   17.3221    0.0000 </r>
       <r>   20.0765    0.0000 </r>
       <r>   24.4407    0.0000 </r>
       <r>   34.2685    0.0000 </r>
       <r>   41.9915    0.0000 </r>
       <r>   45.3361    0.0000 </r>
      </set>
      <set comment="kpoint 100">
       <r>    5.5425    1.0000 </r>
       <r>    5.8175    1.0000 </r>
       <r>    7.4339    1.0000 </r>
       <r>    8.4389    1.0000 </r>
       <r>    8.8909    1.0000 </r>
       <r>   15.0501    0.0000 </r>
       <r>   17.0784    0.0000 </r>
       <r>   19.9942    0.0000 </r>
       <r>   26.9660    0.0000 </r>
       <r>   31.3948    0.0000 </r>
       <r>   41.8542    0.0000 </r>
       <r>   48.6304    0.0000 </r>
      </set>
      <set comment="kpoint 101">
       <r>    4.1129    1.0000 </r>
       <r>    7.2467    1.0000 </r>
       <r>    7.2467    1.0000 </r>
       <r>    7.3056    1.0000 </r>
       <r>    8.6987    1.0000 </r>
       <r>    8.6987    1.0000 </r>
       <r>   19.5045    0.0000 </r>
       <r>   32.6405    0.0000 </r>
       <r>   34.7865    0.0000 </r>
       <r>   34.7865    0.0000 </r>
       <r>   38.8697    0.0000 </r>
       <r>   38.8697    0.0000 </r>
      </set>
      <set comment="kpoint 102">
       <r>    4.6390    1.0000 </r>
       <r>    7.0898    1.0000 </r>
       <r>    7.2707    1.0000 </r>
       <r>    7.3371    1.0000 </r>
       <r>    8.6225    1.0000 </r>
       <r>    9.6164    0.3595 </r>
       <r>   18.3612    0.0000 </r>
       <r>   29.1977    0.0000 </r>
       <r>   33.6550    0.0000 </r>
[...]
       <r>    39.1925     0.1644    10.3317 </r>
       <r>    39.3883     0.2479    10.3802 </r>
       <r>    39.5842     0.3472    10.4482 </r>
       <r>    39.7800     0.3462    10.5160 </r>
       <r>    39.9759     0.2960    10.5740 </r>
       <r>    40.1717     0.2973    10.6322 </r>
       <r>    40.3676     0.2585    10.6828 </r>
       <r>    40.5634     0.2308    10.7280 </r>
       <r>    40.7593     0.3272    10.7921 </r>
       <r>    40.9551     0.3125    10.8533 </r>
       <r>    41.1510     0.1720    10.8870 </r>
       <r>    41.3469     0.1589    10.9181 </r>
       <r>    41.5427     0.2272    10.9626 </r>
       <r>    41.7386     0.1534    10.9927 </r>
       <r>    41.9344     0.1570    11.0234 </r>
       <r>    42.1303     0.2199    11.0665 </r>
       <r>    42.3261     0.1991    11.1055 </r>
       <r>    42.5220     0.2240    11.1493 </r>
       <r>    42.7178     0.1896    11.1865 </r>
       <r>    42.9137     0.2009    11.2258 </r>
       <r>    43.1095     0.1783    11.2607 </r>
       <r>    43.3054     0.1354    11.2873 </r>
       <r>    43.5013     0.1997    11.3264 </r>
       <r>    43.6971     0.1932    11.3642 </r>
       <r>    43.8930     0.1017    11.3841 </r>
       <r>    44.0888     0.1084    11.4054 </r>
       <r>    44.2847     0.1587    11.4364 </r>
       <r>    44.4805     0.1076    11.4575 </r>
       <r>    44.6764     0.1767    11.4921 </r>
       <r>    44.8722     0.3229    11.5553 </r>
       <r>    45.0681     0.2146    11.5974 </r>
       <r>    45.2639     0.1068    11.6183 </r>
       <r>    45.4598     0.1210    11.6420 </r>
       <r>    45.6556     0.1545    11.6723 </r>
       <r>    45.8515     0.1023    11.6923 </r>
       <r>    46.0474     0.0634    11.7047 </r>
       <r>    46.2432     0.1243    11.7291 </r>
       <r>    46.4391     0.2318    11.7745 </r>
       <r>    46.6349     0.0516    11.7846 </r>
       <r>    46.8308     0.0107    11.7867 </r>
       <r>    47.0266     0.0929    11.8049 </r>
       <r>    47.2225     0.0865    11.8218 </r>
       <r>    47.4183     0.0293    11.8276 </r>
       <r>    47.6142     0.0688    11.8410 </r>
       <r>    47.8100     0.1024    11.8611 </r>
       <r>    48.0059     0.0620    11.8732 </r>
       <r>    48.2018     0.0588    11.8847 </r>
       <r>    48.3976     0.0146    11.8876 </r>
       <r>    48.5935     0.0710    11.9015 </r>
       <r>    48.7893     0.0715    11.9155 </r>
       <r>    48.9852     0.0030    11.9161 </r>
       <r>    49.1810     0.0089    11.9179 </r>
       <r>    49.3769     0.0329    11.9243 </r>
       <r>    49.5727     0.0456    11.9332 </r>
       <r>    49.7686     0.0355    11.9402 </r>
       <r>    49.9644    -0.0001    11.9401 </r>
       <r>    50.1603    -0.0010    11.9400 </r>
       <r>    50.3561    -0.0007    11.9398 </r>
       <r>    50.5520     0.0139    11.9425 </r>
       <r>    50.7479     0.0167    11.9458 </r>
       <r>    50.9437     0.0317    11.9520 </r>
       <r>    51.1396     0.0314    11.9582 </r>
       <r>    51.3354     0.0317    11.9644 </r>
       <r>    51.5313     0.0279    11.9699 </r>
       <r>    51.7271     0.0109    11.9720 </r>
       <r>    51.9230     0.0440    11.9806 </r>
       <r>    52.1188     0.0088    11.9823 </r>
       <r>    52.3147    -0.0019    11.9820 </r>
       <r>    52.5105    -0.0004    11.9819 </r>
       <r>    52.7064     0.0167    11.9851 </r>
       <r>    52.9023     0.0154    11.9882 </r>
       <r>    53.0981    -0.0006    11.9880 </r>
       <r>    53.2940    -0.0012    11.9878 </r>
       <r>    53.4898     0.0078    11.9893 </r>
       <r>    53.6857     0.0208    11.9934 </r>
       <r>    53.8815     0.0105    11.9954 </r>
       <r>    54.0774     0.0211    11.9996 </r>
       <r>    54.2732     0.0028    12.0001 </r>
       <r>    54.4691    -0.0007    12.0000 </r>
       <r>    54.6649    -0.0000    12.0000 </r>
       <r>    54.8608    -0.0000    12.0000 </r>
       <r>    55.0566    -0.0000    12.0000 </r>
       <r>    55.2525    -0.0000    12.0000 </r>
       <r>    55.4484     0.0000    12.0000 </r>
       <r>    55.6442     0.0000    12.0000 </r>
       <r>    55.8401     0.0000    12.0000 </r>
       <r>    56.0359     0.0000    12.0000 </r>
       <r>    56.2318     0.0000    12.0000 </r>
       <r>    56.4276     0.0000    12.0000 </r>
       <r>    56.6235     0.0000    12.0000 </r>
      </set>
      <set comment="spin 2">
       <r>    -2.1328     0.0000     0.0000 </r>
       <r>    -1.9369     0.0000     0.0000 </r>
       <r>    -1.7411     0.0000     0.0000 </r>
       <r>    -1.5452     0.0000     0.0000 </r>
       <r>    -1.3494     0.0000     0.0000 </r>
       <r>    -1.1535    -0.0000    -0.0000 </r>
       <r>    -0.9576    -0.0000    -0.0000 </r>
       <r>    -0.7618    -0.0000    -0.0000 </r>
       <r>    -0.5659    -0.0000    -0.0000 </r>
       <r>    -0.3701    -0.0000    -0.0000 </r>
       <r>    -0.1742    -0.0000    -0.0000 </r>
       <r>     0.0216    -0.0000    -0.0000 </r>
       <r>     0.2175    -0.0002    -0.0000 </r>
       <r>     0.4133     0.0006     0.0001 </r>
       <r>     0.6092     0.0069     0.0014 </r>
       <r>     0.8050     0.0181     0.0050 </r>
       <r>     1.0009     0.0234     0.0096 </r>
       <r>     1.1967     0.0244     0.0143 </r>
       <r>     1.3926     0.0316     0.0205 </r>
       <r>     1.5885     0.0449     0.0293 </r>
       <r>     1.7843     0.0363     0.0364 </r>
       <r>     1.9802     0.0298     0.0423 </r>
       <r>     2.1760     0.0550     0.0530 </r>
       <r>     2.3719     0.0727     0.0673 </r>
       <r>     2.5677     0.0373     0.0746 </r>
       <r>     2.7636     0.0479     0.0840 </r>
       <r>     2.9594     0.0784     0.0993 </r>
       <r>     3.1553     0.0689     0.1128 </r>
       <r>     3.3511     0.0718     0.1269 </r>
       <r>     3.5470     0.0855     0.1436 </r>
       <r>     3.7429     0.0873     0.1607 </r>
       <r>     3.9387     0.0771     0.1758 </r>
       <r>     4.1346     0.1015     0.1957 </r>
       <r>     4.3304     0.1441     0.2239 </r>
       <r>     4.5263     0.1252     0.2484 </r>
       <r>     4.7221     0.1220     0.2723 </r>
       <r>     4.9180     0.1908     0.3097 </r>
       <r>     5.1138     0.2939     0.3673 </r>
       <r>     5.3097     0.3740     0.4405 </r>
       <r>     5.5055     0.4771     0.5339 </r>
       <r>     5.7014     0.5295     0.6377 </r>
       <r>     5.8972     0.4715     0.7300 </r>
       <r>     6.0931     0.7007     0.8672 </r>
       <r>     6.2890     0.8364     1.0310 </r>
       <r>     6.4848     0.8680     1.2010 </r>
       <r>     6.6807     0.8087     1.3594 </r>
       <r>     6.8765     0.7866     1.5135 </r>
       <r>     7.0724     0.7858     1.6674 </r>
       <r>     7.2682     0.9937     1.8620 </r>
       <r>     7.4641     1.1491     2.0871 </r>
       <r>     7.6599     1.2096     2.3240 </r>
       <r>     7.8558     1.3929     2.5968 </r>
       <r>     8.0516     1.4352     2.8779 </r>
       <r>     8.2475     1.3076     3.1340 </r>
       <r>     8.4434     1.0206     3.3339 </r>
       <r>     8.6392     1.0192     3.5335 </r>
       <r>     8.8351     1.2614     3.7805 </r>
       <r>     9.0309     1.2620     4.0277 </r>
       <r>     9.2268     1.1069     4.2445 </r>
       <r>     9.4226     1.0929     4.4585 </r>
       <r>     9.6185     1.5053     4.7533 </r>
       <r>     9.8143     1.7604     5.0981 </r>
       <r>    10.0102     0.9177     5.2779 </r>
       <r>    10.2060     0.2301     5.3229 </r>
       <r>    10.4019     0.1208     5.3466 </r>
       <r>    10.5977     0.2374     5.3931 </r>
       <r>    10.7936     0.1773     5.4278 </r>
       <r>    10.9895     0.1140     5.4501 </r>
       <r>    11.1853     0.1710     5.4836 </r>
       <r>    11.3812     0.1749     5.5179 </r>
       <r>    11.5770     0.1578     5.5488 </r>
       <r>    11.7729     0.1133     5.5710 </r>
       <r>    11.9687     0.1854     5.6073 </r>
       <r>    12.1646     0.1546     5.6376 </r>
       <r>    12.3604     0.0832     5.6539 </r>
       <r>    12.5563     0.1296     5.6793 </r>
       <r>    12.7521     0.1069     5.7002 </r>
       <r>    12.9480     0.1875     5.7369 </r>
       <r>    13.1439     0.1309     5.7626 </r>
       <r>    13.3397     0.1316     5.7883 </r>
       <r>    13.5356     0.0888     5.8057 </r>
       <r>    13.7314     0.0285     5.8113 </r>
       <r>    13.9273     0.1014     5.8312 </r>
       <r>    14.1231     0.1314     5.8569 </r>
       <r>    14.3190     0.1317     5.8827 </r>
       <r>    14.5148     0.1194     5.9061 </r>
       <r>    14.7107     0.0202     5.9100 </r>
       <r>    14.9065     0.0433     5.9185 </r>
       <r>    15.1024     0.0845     5.9351 </r>
       <r>    15.2983     0.0630     5.9474 </r>
       <r>    15.4941     0.0547     5.9581 </r>
       <r>    15.6900     0.0779     5.9734 </r>
       <r>    15.8858     0.0625     5.9856 </r>
       <r>    16.0817     0.1549     6.0159 </r>
       <r>    16.2775     0.1225     6.0399 </r>
       <r>    16.4734     0.1644     6.0721 </r>
       <r>    16.6692     0.2456     6.1202 </r>
       <r>    16.8651     0.1106     6.1419 </r>
       <r>    17.0609     0.1220     6.1658 </r>
       <r>    17.2568     0.1229     6.1899 </r>
       <r>    17.4526     0.1436     6.2180 </r>
       <r>    17.6485     0.1520     6.2477 </r>
       <r>    17.8444     0.1244     6.2721 </r>
       <r>    18.0402     0.1418     6.2999 </r>
       <r>    18.2361     0.0810     6.3157 </r>
       <r>    18.4319     0.0908     6.3335 </r>
       <r>    18.6278     0.1410     6.3611 </r>
       <r>    18.8236     0.1122     6.3831 </r>
       <r>    19.0195     0.1016     6.4030 </r>
       <r>    19.2153     0.0908     6.4208 </r>
       <r>    19.4112     0.1569     6.4515 </r>
       <r>    19.6070     0.1752     6.4858 </r>
       <r>    19.8029     0.1547     6.5161 </r>
       <r>    19.9988     0.1544     6.5464 </r>
       <r>    20.1946     0.1824     6.5821 </r>
       <r>    20.3905     0.2132     6.6238 </r>
       <r>    20.5863     0.1249     6.6483 </r>
       <r>    20.7822     0.0872     6.6654 </r>
       <r>    20.9780     0.2039     6.7053 </r>
       <r>    21.1739     0.2535     6.7550 </r>
       <r>    21.3697     0.1506     6.7845 </r>
       <r>    21.5656     0.1743     6.8186 </r>
       <r>    21.7614     0.2633     6.8702 </r>
       <r>    21.9573     0.2001     6.9094 </r>
       <r>    22.1531     0.1328     6.9354 </r>
       <r>    22.3490     0.1129     6.9575 </r>
       <r>    22.5449     0.1696     6.9907 </r>
       <r>    22.7407     0.2525     7.0402 </r>
       <r>    22.9366     0.2266     7.0846 </r>
       <r>    23.1324     0.1316     7.1103 </r>
       <r>    23.3283     0.1670     7.1430 </r>
       <r>    23.5241     0.1725     7.1768 </r>
       <r>    23.7200     0.2571     7.2272 </r>
       <r>    23.9158     0.2877     7.2835 </r>
       <r>    24.1117     0.1348     7.3099 </r>
       <r>    24.3075     0.0876     7.3271 </r>
       <r>    24.5034     0.2595     7.3779 </r>
       <r>    24.6993     0.3210     7.4408 </r>
       <r>    24.8951     0.2547     7.4907 </r>
       <r>    25.0910     0.2007     7.5300 </r>
       <r>    25.2868     0.0939     7.5484 </r>
       <r>    25.4827     0.1876     7.5851 </r>
       <r>    25.6785     0.2791     7.6398 </r>
       <r>    25.8744     0.2292     7.6847 </r>
       <r>    26.0702     0.2047     7.7248 </r>
       <r>    26.2661     0.1510     7.7543 </r>
       <r>    26.4619     0.2206     7.7975 </r>
       <r>    26.6578     0.1573     7.8284 </r>
       <r>    26.8536     0.1788     7.8634 </r>
       <r>    27.0495     0.2303     7.9085 </r>
       <r>    27.2454     0.2380     7.9551 </r>
       <r>    27.4412     0.2352     8.0012 </r>
       <r>    27.6371     0.1914     8.0386 </r>
       <r>    27.8329     0.1150     8.0612 </r>
       <r>    28.0288     0.1242     8.0855 </r>
       <r>    28.2246     0.2527     8.1350 </r>
       <r>    28.4205     0.1367     8.1618 </r>
       <r>    28.6163     0.0567     8.1729 </r>
       <r>    28.8122     0.1622     8.2046 </r>
       <r>    29.0080     0.2369     8.2510 </r>
       <r>    29.2039     0.1874     8.2877 </r>
       <r>    29.3998     0.1849     8.3240 </r>
       <r>    29.5956     0.1501     8.3534 </r>
       <r>    29.7915     0.1532     8.3834 </r>
       <r>    29.9873     0.1352     8.4098 </r>
       <r>    30.1832     0.1087     8.4311 </r>
       <r>    30.3790     0.2031     8.4709 </r>
       <r>    30.5749     0.2531     8.5205 </r>
       <r>    30.7707     0.1167     8.5433 </r>
       <r>    30.9666     0.1238     8.5676 </r>
       <r>    31.1624     0.1703     8.6009 </r>
       <r>    31.3583     0.2515     8.6502 </r>
       <r>    31.5541     0.2328     8.6958 </r>
       <r>    31.7500     0.2475     8.7443 </r>
       <r>    31.9459     0.2248     8.7883 </r>
       <r>    32.1417     0.2460     8.8365 </r>
       <r>    32.3376     0.3003     8.8953 </r>
       <r>    32.5334     0.2253     8.9394 </r>
       <r>    32.7293     0.1689     8.9725 </r>
       <r>    32.9251     0.3243     9.0360 </r>
       <r>    33.1210     0.1685     9.0690 </r>
       <r>    33.3168     0.1397     9.0964 </r>
       <r>    33.5127     0.3098     9.1570 </r>
       <r>    33.7085     0.3465     9.2249 </r>
       <r>    33.9044     0.3779     9.2989 </r>
       <r>    34.1003     0.2410     9.3461 </r>
       <r>    34.2961     0.2148     9.3882 </r>
       <r>    34.4920     0.2498     9.4371 </r>
       <r>    34.6878     0.1855     9.4735 </r>
       <r>    34.8837     0.1529     9.5034 </r>
       <r>    35.0795     0.3163     9.5654 </r>
       <r>    35.2754     0.3601     9.6359 </r>
       <r>    35.4712     0.3040     9.6954 </r>
       <r>    35.6671     0.2275     9.7400 </r>
       <r>    35.8629     0.1444     9.7683 </r>
       <r>    36.0588     0.2109     9.8096 </r>
       <r>    36.2546     0.1367     9.8363 </r>
       <r>    36.4505     0.1356     9.8629 </r>
       <r>    36.6464     0.1252     9.8874 </r>
       <r>    36.8422     0.1722     9.9211 </r>
       <r>    37.0381     0.2282     9.9658 </r>
       <r>    37.2339     0.1799    10.0011 </r>
       <r>    37.4298     0.2107    10.0423 </r>
       <r>    37.6256     0.2077    10.0830 </r>
       <r>    37.8215     0.1409    10.1106 </r>
       <r>    38.0173     0.1322    10.1365 </r>
       <r>    38.2132     0.0960    10.1553 </r>
       <r>    38.4090     0.0705    10.1691 </r>
       <r>    38.6049     0.1567    10.1998 </r>
       <r>    38.8008     0.2576    10.2503 </r>
       <r>    38.9966     0.2211    10.2936 </r>
       <r>    39.1925     0.1786    10.3285 </r>
       <r>    39.3883     0.2011    10.3679 </r>
       <r>    39.5842     0.2956    10.4258 </r>
       <r>    39.7800     0.3751    10.4993 </r>
       <r>    39.9759     0.3412    10.5661 </r>
       <r>    40.1717     0.3063    10.6261 </r>
       <r>    40.3676     0.2707    10.6791 </r>
       <r>    40.5634     0.2469    10.7275 </r>
       <r>    40.7593     0.2972    10.7857 </r>
       <r>    40.9551     0.3184    10.8480 </r>
       <r>    41.1510     0.1630    10.8800 </r>
       <r>    41.3469     0.1789    10.9150 </r>
       <r>    41.5427     0.2362    10.9613 </r>
       <r>    41.7386     0.1532    10.9913 </r>
       <r>    41.9344     0.1322    11.0171 </r>
       <r>    42.1303     0.2369    11.0635 </r>
       <r>    42.3261     0.2187    11.1064 </r>
       <r>    42.5220     0.2043    11.1464 </r>
       <r>    42.7178     0.2020    11.1860 </r>
       <r>    42.9137     0.2056    11.2262 </r>
       <r>    43.1095     0.1663    11.2588 </r>
       <r>    43.3054     0.1186    11.2820 </r>
       <r>    43.5013     0.2280    11.3267 </r>
       <r>    43.6971     0.1894    11.3638 </r>
       <r>    43.8930     0.0993    11.3832 </r>
       <r>    44.0888     0.0742    11.3978 </r>
       <r>    44.2847     0.1782    11.4327 </r>
       <r>    44.4805     0.1173    11.4556 </r>
       <r>    44.6764     0.1804    11.4910 </r>
       <r>    44.8722     0.3197    11.5536 </r>
       <r>    45.0681     0.2371    11.6000 </r>
       <r>    45.2639     0.1040    11.6204 </r>
       <r>    45.4598     0.0658    11.6333 </r>
       <r>    45.6556     0.1680    11.6662 </r>
       <r>    45.8515     0.1568    11.6969 </r>
       <r>    46.0474     0.0461    11.7059 </r>
       <r>    46.2432     0.1173    11.7289 </r>
       <r>    46.4391     0.2354    11.7750 </r>
       <r>    46.6349     0.0509    11.7850 </r>
       <r>    46.8308     0.0049    11.7859 </r>
       <r>    47.0266     0.1078    11.8070 </r>
       <r>    47.2225     0.0862    11.8239 </r>
       <r>    47.4183     0.0228    11.8284 </r>
       <r>    47.6142     0.0729    11.8427 </r>
       <r>    47.8100     0.0831    11.8589 </r>
       <r>    48.0059     0.0805    11.8747 </r>
       <r>    48.2018     0.0558    11.8856 </r>
       <r>    48.3976     0.0190    11.8894 </r>
       <r>    48.5935     0.0808    11.9052 </r>
       <r>    48.7893     0.0565    11.9163 </r>
       <r>    48.9852    -0.0006    11.9161 </r>
       <r>    49.1810     0.0165    11.9194 </r>
       <r>    49.3769     0.0288    11.9250 </r>
       <r>    49.5727     0.0476    11.9343 </r>
       <r>    49.7686     0.0307    11.9403 </r>
       <r>    49.9644    -0.0012    11.9401 </r>
       <r>    50.1603    -0.0008    11.9399 </r>
       <r>    50.3561    -0.0003    11.9399 </r>
       <r>    50.5520     0.0157    11.9430 </r>
       <r>    50.7479     0.0164    11.9462 </r>
       <r>    50.9437     0.0364    11.9533 </r>
       <r>    51.1396     0.0272    11.9586 </r>
       <r>    51.3354     0.0359    11.9656 </r>
       <r>    51.5313     0.0219    11.9699 </r>
       <r>    51.7271     0.0183    11.9735 </r>
       <r>    51.9230     0.0412    11.9816 </r>
       <r>    52.1188     0.0032    11.9822 </r>
       <r>    52.3147    -0.0015    11.9819 </r>
       <r>    52.5105     0.0003    11.9820 </r>
       <r>    52.7064     0.0187    11.9857 </r>
       <r>    52.9023     0.0130    11.9882 </r>
       <r>    53.0981    -0.0009    11.9880 </r>
       <r>    53.2940    -0.0012    11.9878 </r>
       <r>    53.4898     0.0096    11.9897 </r>
       <r>    53.6857     0.0199    11.9936 </r>
       <r>    53.8815     0.0117    11.9959 </r>
       <r>    54.0774     0.0201    11.9998 </r>
       <r>    54.2732     0.0015    12.0001 </r>
       <r>    54.4691    -0.0005    12.0000 </r>
       <r>    54.6649    -0.0000    12.0000 </r>
       <r>    54.8608    -0.0000    12.0000 </r>
       <r>    55.0566    -0.0000    12.0000 </r>
       <r>    55.2525    -0.0000    12.0000 </r>
       <r>    55.4484     0.0000    12.0000 </r>
       <r>    55.6442     0.0000    12.0000 </r>
       <r>    55.8401     0.0000    12.0000 </r>
       <r>    56.0359     0.0000    12.0000 </r>
       <r>    56.2318     0.0000    12.0000 </r>
       <r>    56.4276     0.0000    12.0000 </r>
       <r>    56.6235     0.0000    12.0000 </r>
      </set>
     </set>
    </array>
   </total>
  </dos>
 </calculation>
 <structure name="finalpos" >
  <crystal>
   <varray name="basis" >
    <v>       0.00000000       1.75000000       1.75000000 </v>
    <v>       1.75000000       0.00000000       1.75000000 </v>
    <v>       1.75000000       1.75000000       0.00000000 </v>
   </varray>
   <i name="volume">     10.71875000 </i>
   <varray name="rec_basis" >
    <v>      -0.28571429       0.28571429       0.28571429 </v>
    <v>       0.28571429      -0.28571429       0.28571429 </v>
    <v>       0.28571429       0.28571429      -0.28571429 </v>
   </varray>
  </crystal>
  <varray name="positions" >
   <v>       0.00000000       0.00000000       0.00000000 </v>
  </varray>
 </structure>
</modeling>
