FCC Au                                  
   4.00000000000000     
     0.000000    0.500000    0.500000
     0.500000    0.000000    0.500000
     0.500000    0.500000    0.000000
   Au
     1
Direct
  0.000000  0.000000  0.000000
 
   20   20   20
  76.739      72.980      63.532      52.003      40.643      29.796      19.799      12.002      7.4837      5.5936    
  5.0935      5.5936      7.4837      12.002      19.799      29.796      40.643      52.003      63.532      72.980    
  72.980      66.481      56.192      45.046      34.199      23.893      15.068      9.0989      6.1859      5.1106    
  5.1215      6.2011      9.0956      15.059      23.907      34.224      45.018      56.070      66.322      72.906    
  63.532      56.192      46.653      36.561      26.581      17.531      10.731      6.8850      5.2093      4.7578    
  5.2162      6.8852      10.725      17.540      26.611      36.572      46.594      56.069      63.428      66.322    
  52.003      45.046      36.561      27.518      18.885      11.928      7.5432      5.3830      4.5266      4.5250    
  5.3782      7.5367      11.925      18.891      27.533      36.578      45.055      52.005      56.069      56.070    
  40.643      34.199      26.581      18.885      12.373      7.9583      5.5513      4.3982      4.0830      4.4001    
  5.5508      7.9496      12.355      18.867      26.581      34.228      40.691      45.055      46.594      45.018    
  29.796      23.893      17.531      11.928      7.9583      5.6276      4.3519      3.8286      3.8292      4.3562    
  5.6362      7.9600      11.908      17.490      23.854      29.779      34.228      36.578      36.572      34.224    
  19.799      15.068      10.731      7.5432      5.5513      4.3519      3.7488      3.5679      3.7452      4.3591    
  5.5751      7.5657      10.725      15.026      19.738      23.854      26.581      27.533      26.611      23.907    
  12.002      9.0989      6.8850      5.3830      4.3982      3.8286      3.5679      3.5649      3.8227      4.3986    
  5.4013      6.9226      9.1371      12.011      15.026      17.490      18.867      18.891      17.540      15.059    
  7.4837      6.1859      5.2093      4.5266      4.0830      3.8292      3.7452      3.8227      4.0639      4.5034    
  5.2097      6.2275      7.5465      9.1371      10.725      11.908      12.355      11.925      10.725      9.0956    
  5.5936      5.1106      4.7578      4.5250      4.4001      4.3562      4.3591      4.3986      4.5034      4.7189    
  5.0784      5.5904      6.2275      6.9226      7.5657      7.9600      7.9496      7.5367      6.8852      6.2011    
  5.0935      5.1215      5.2162      5.3782      5.5508      5.6362      5.5751      5.4013      5.2097      5.0784    
  5.0343      5.0784      5.2097      5.4013      5.5751      5.6362      5.5508      5.3782      5.2162      5.1215    
  5.5936      6.2011      6.8852      7.5367      7.9496      7.9600      7.5657      6.9226      6.2275      5.5904    
  5.0784      4.7189      4.5034      4.3986      4.3591      4.3562      4.4001      4.5250      4.7578      5.1106    
  7.4837      9.0956      10.725      11.925      12.355      11.908      10.725      9.1371      7.5465      6.2275    
  5.2097      4.5034      4.0639      3.8227      3.7452      3.8292      4.0830      4.5266      5.2093      6.1859    
  12.002      15.059      17.540      18.891      18.867      17.490      15.026      12.011      9.1371      6.9226    
  5.4013      4.3986      3.8227      3.5649      3.5679      3.8286      4.3982      5.3830      6.8850      9.0989    
  19.799      23.907      26.611      27.533      26.581      23.854      19.738      15.026      10.725      7.5657    
  5.5751      4.3591      3.7452      3.5679      3.7488      4.3519      5.5513      7.5432      10.731      15.068    
  29.796      34.224      36.572      36.578      34.228      29.779      23.854      17.490      11.908      7.9600    
  5.6362      4.3562      3.8292      3.8286      4.3519      5.6276      7.9583      11.928      17.531      23.893    
  40.643      45.018      46.594      45.055      40.691      34.228      26.581      18.867      12.355      7.9496    
  5.5508      4.4001      4.0830      4.3982      5.5513      7.9583      12.373      18.885      26.581      34.199    
  52.003      56.070      56.069      52.005      45.055      36.578      27.533      18.891      11.925      7.5367    
  5.3782      4.5250      4.5266      5.3830      7.5432      11.928      18.885      27.518      36.561      45.046    
  63.532      66.322      63.428      56.069      46.594      36.572      26.611      17.540      10.725      6.8852    
  5.2162      4.7578      5.2093      6.8850      10.731      17.531      26.581      36.561      46.653      56.192    
  72.980      72.906      66.322      56.070      45.018      34.224      23.907      15.059      9.0956      6.2011    
  5.1215      5.1106      6.1859      9.0989      15.068      23.893      34.199      45.046      56.192      66.481    
  72.980      66.481      56.192      45.046      34.199      23.893      15.068      9.0989      6.1859      5.1106    
  5.1215      6.2011      9.0956      15.059      23.907      34.224      45.018      56.070      66.322      72.906    
  66.481      58.455      48.238      37.723      27.499      18.204      11.127      7.0789      5.3328      4.8670    
  5.3432      7.0784      11.118      18.223      27.551      37.738      48.127      58.233      66.294      69.535    
  56.192      48.238      38.962      29.404      20.310      12.833      8.0029      5.6360      4.7136      4.7143    
  5.6325      7.9939      12.838      20.348      29.452      38.961      48.155      56.073      60.912      60.968    
  45.046      37.723      29.404      21.054      13.814      8.7261      5.9377      4.6408      4.2927      4.6470    
  5.9367      8.7119      13.802      21.066      29.442      37.769      45.079      50.281      52.194      50.266    
  34.199      27.499      20.310      13.814      9.0115      6.1500      4.6331      4.0224      4.0281      4.6422    
  6.1469      8.9896      13.785      20.298      27.520      34.249      39.438      42.266      42.243      39.385    
  23.893      18.204      12.833      8.7261      6.1500      4.6489      3.9027      3.6876      3.9002      4.6537    
  6.1627      8.7293      12.810      18.162      23.858      28.779      32.045      33.178      32.042      28.789    
  15.068      11.127      8.0029      5.9377      4.6331      3.9027      3.5848      3.5796      3.8986      4.6488    
  5.9718      8.0296      11.121      15.028      18.998      22.158      23.885      23.899      22.197      19.050    
  9.0989      7.0789      5.6360      4.6408      4.0224      3.6876      3.5796      3.6832      4.0159      4.6423    
  5.6589      7.1225      9.1398      11.568      13.909      15.593      16.214      15.620      13.932      11.557    
  6.1859      5.3328      4.7136      4.2927      4.0281      3.9002      3.8986      4.0159      4.2638      4.6857    
  5.3369      6.2304      7.3223      8.5428      9.6441      10.308      10.312      9.6415      8.5105      7.2660    
  5.1106      4.8670      4.7143      4.6470      4.6422      4.6537      4.6488      4.6423      4.6857      4.8251    
  5.0801      5.4491      5.9056      6.3787      6.7556      6.8972      6.7386      6.3525      5.8857      5.4522    
  5.1215      5.3432      5.6325      5.9367      6.1469      6.1627      5.9718      5.6589      5.3369      5.0801    
  4.9133      4.8418      4.8623      4.9386      4.9995      4.9897      4.9225      4.8665      4.8785      4.9675    
  6.2011      7.0784      7.9939      8.7119      8.9896      8.7293      8.0296      7.1225      6.2304      5.4491    
  4.8418      4.4266      4.1759      4.0466      4.0049      4.0452      4.1870      4.4551      4.8704      5.4522    
  9.0956      11.118      12.838      13.802      13.785      12.810      11.121      9.1398      7.3223      5.9056    
  4.8623      4.1759      3.7721      3.5838      3.5869      3.7829      4.1902      4.8623      5.8734      7.2660    
  15.059      18.223      20.348      21.066      20.298      18.162      15.028      11.568      8.5428      6.3787    
  4.9386      4.0466      3.5838      3.4435      3.5875      4.0479      4.9284      6.3527      8.5120      11.557    
  23.907      27.551      29.452      29.442      27.520      23.858      18.998      13.909      9.6441      6.7556    
  4.9995      4.0049      3.5869      3.5875      4.0015      4.9868      6.7422      9.6491      13.942      19.050    
  34.224      37.738      38.961      37.769      34.249      28.779      22.158      15.593      10.308      6.8972    
  4.9897      4.0452      3.7829      4.0479      4.9868      6.8909      10.315      15.625      22.195      28.789    
  45.018      48.127      48.155      45.079      39.438      32.045      23.885      16.214      10.312      6.7386    
  4.9225      4.1870      4.1902      4.9284      6.7422      10.315      16.222      23.888      32.024      39.385    
  56.070      58.233      56.073      50.281      42.266      33.178      23.899      15.620      9.6415      6.3525    
  4.8665      4.4551      4.8623      6.3527      9.6491      15.625      23.888      33.152      42.240      50.266    
  66.322      66.294      60.912      52.194      42.243      32.042      22.197      13.932      8.5105      5.8857    
  4.8785      4.8704      5.8734      8.5120      13.942      22.195      32.024      42.240      52.229      60.968    
  72.906      69.535      60.968      50.266      39.385      28.789      19.050      11.557      7.2660      5.4522    
  4.9675      5.4522      7.2660      11.557      19.050      28.789      39.385      50.266      60.968      69.535    
  63.532      56.192      46.653      36.561      26.581      17.531      10.731      6.8850      5.2093      4.7578    
  5.2162      6.8852      10.725      17.540      26.611      36.572      46.594      56.069      63.428      66.322    
  56.192      48.238      38.962      29.404      20.310      12.833      8.0029      5.6360      4.7136      4.7143    
  5.6325      7.9939      12.838      20.348      29.452      38.961      48.155      56.073      60.912      60.968    
  46.653      38.962      30.367      21.795      14.318      9.0032      6.0771      4.7287      4.3671      4.7354    
  6.0751      8.9907      14.320      21.832      30.425      39.000      46.652      52.212      54.296      52.229    
  36.561      29.404      21.795      14.852      9.6060      6.4392      4.7921      4.1327      4.1396      4.8025    
  6.4348      9.5838      14.832      21.808      29.463      36.652      42.322      45.482      45.449      42.240    
  26.581      20.310      14.318      9.6060      6.5865      4.8632      4.0128      3.7757      4.0142      4.8662    
  6.5840      9.5869      14.286      20.293      26.609      32.092      35.783      37.059      35.724      32.024    
  17.531      12.833      9.0032      6.4392      4.8632      3.9825      3.6111      3.6059      3.9771      4.8729    
  6.4581      9.0065      12.807      17.490      22.167      25.867      27.882      27.881      25.874      22.195    
  10.731      8.0029      6.0771      4.7921      4.0128      3.6111      3.4841      3.6044      4.0135      4.8121    
  6.1108      8.0290      10.729      13.911      16.903      19.010      19.775      19.041      16.946      13.942    
  6.8850      5.6360      4.7287      4.1327      3.7757      3.6059      3.6044      3.7694      4.1231      4.7286    
  5.6598      6.9282      8.5489      10.349      11.922      12.845      12.854      11.936      10.341      8.5120    
  5.2093      4.7136      4.3671      4.1396      4.0142      3.9771      4.0135      4.1231      4.3323      4.6849    
  5.2146      5.9120      6.7095      7.5174      8.1495      8.3922      8.1453      7.4947      6.6665      5.8734    
  4.7578      4.7143      4.7354      4.8025      4.8662      4.8729      4.8121      4.7286      4.6849      4.7200    
  4.8451      5.0571      5.3326      5.6060      5.7780      5.7717      5.5909      5.3197      5.0601      4.8704    
  5.2162      5.6325      6.0751      6.4348      6.5840      6.4581      6.1108      5.6598      5.2146      4.8451    
  4.5797      4.4248      4.3656      4.3598      4.3587      4.3491      4.3653      4.4515      4.6240      4.8785    
  6.8852      7.9939      8.9907      9.5838      9.5869      9.0065      8.0290      6.9282      5.9120      5.0571    
  4.4248      4.0092      3.7650      3.6505      3.6490      3.7674      4.0244      4.4448      5.0601      5.8857    
  10.725      12.838      14.320      14.832      14.286      12.807      10.729      8.5489      6.7095      5.3326    
  4.3656      3.7650      3.4417      3.3407      3.4476      3.7729      4.3645      5.3097      6.6665      8.5105    
  17.540      20.348      21.832      21.808      20.293      17.490      13.911      10.349      7.5174      5.6060    
  4.3598      3.6505      3.3407      3.3424      3.6525      4.3554      5.5909      7.4973      10.341      13.932    
  26.611      29.452      30.425      29.463      26.609      22.167      16.903      11.922      8.1495      5.7780    
  4.3587      3.6490      3.4476      3.6525      4.3550      5.7669      8.1492      11.949      16.946      22.197    
  36.572      38.961      39.000      36.652      32.092      25.867      19.010      12.845      8.3922      5.7717    
  4.3491      3.7674      3.7729      4.3554      5.7669      8.3874      12.862      19.043      25.874      32.042    
  46.594      48.155      46.652      42.322      35.783      27.882      19.775      12.854      8.1453      5.5909    
  4.3653      4.0244      4.3645      5.5909      8.1492      12.862      19.777      27.860      35.724      42.243    
  56.069      56.073      52.212      45.482      37.059      27.881      19.041      11.936      7.4947      5.3197    
  4.4515      4.4448      5.3097      7.4973      11.949      19.043      27.860      37.021      45.449      52.194    
  63.428      60.912      54.296      45.449      35.724      25.874      16.946      10.341      6.6665      5.0601    
  4.6240      5.0601      6.6665      10.341      16.946      25.874      35.724      45.449      54.296      60.912    
  66.322      60.968      52.229      42.240      32.024      22.195      13.942      8.5120      5.8734      4.8704    
  4.8785      5.8857      8.5105      13.932      22.197      32.042      42.243      52.194      60.912      66.294    
  52.003      45.046      36.561      27.518      18.885      11.928      7.5432      5.3830      4.5266      4.5250    
  5.3782      7.5367      11.925      18.891      27.533      36.578      45.055      52.005      56.069      56.070    
  45.046      37.723      29.404      21.054      13.814      8.7261      5.9377      4.6408      4.2927      4.6470    
  5.9367      8.7119      13.802      21.066      29.442      37.769      45.079      50.281      52.194      50.266    
  36.561      29.404      21.795      14.852      9.6060      6.4392      4.7921      4.1327      4.1396      4.8025    
  6.4348      9.5838      14.832      21.808      29.463      36.652      42.322      45.482      45.449      42.240    
  27.518      21.054      14.852      9.9237      6.7404      4.9395      4.0549      3.8093      4.0555      4.9435    
  6.7399      9.9023      14.813      21.040      27.572      33.264      37.116      38.441      37.021      33.152    
  18.885      13.814      9.6060      6.7404      4.9977      4.0303      3.6318      3.6270      4.0263      5.0061    
  6.7462      9.5813      13.762      18.851      23.912      27.920      30.097      30.065      27.860      23.888    
  11.928      8.7261      6.4392      4.9395      4.0303      3.5743      3.4347      3.5673      4.0307      4.9546    
  6.4550      8.7213      11.898      15.586      19.015      21.414      22.273      21.426      19.043      15.625    
  7.5432      5.9377      4.7921      4.0549      3.6318      3.4347      3.4301      3.6242      4.0570      4.8113    
  5.9674      7.5651      9.6466      11.921      13.865      14.986      15.001      13.899      11.949      9.6491    
  5.3830      4.6408      4.1327      3.8093      3.6270      3.5673      3.6242      3.8000      4.1207      4.6399    
  5.4035      6.3861      7.5224      8.6657      9.5337      9.8624      9.5391      8.6606      7.4973      6.3527    
  4.5266      4.2927      4.1396      4.0555      4.0263      4.0307      4.0570      4.1207      4.2572      4.5010    
  4.8671      5.3377      5.8511      6.3070      6.5861      6.5835      6.2939      5.8236      5.3097      4.8623    
  4.5250      4.6470      4.8025      4.9435      5.0061      4.9546      4.8113      4.6399      4.5010      4.4263    
  4.4260      4.4986      4.6210      4.7374      4.7827      4.7297      4.6132      4.5015      4.4448      4.4551    
  5.3782      5.9367      6.4348      6.7399      6.7462      6.4550      5.9674      5.4035      4.8671      4.4260    
  4.1081      3.9109      3.8086      3.7652      3.7601      3.8041      3.9245      4.1389      4.4515      4.8665    
  7.5367      8.7119      9.5838      9.9023      9.5813      8.7213      7.5651      6.3861      5.3377      4.4986    
  3.9109      3.5408      3.3369      3.2696      3.3354      3.5453      3.9214      4.5015      5.3197      6.3525    
  11.925      13.802      14.832      14.813      13.762      11.898      9.6466      7.5224      5.8511      4.6210    
  3.8086      3.3369      3.1212      3.1230      3.3405      3.8079      4.6076      5.8236      7.4947      9.6415    
  18.891      21.066      21.808      21.040      18.851      15.586      11.921      8.6657      6.3070      4.7374    
  3.7652      3.2696      3.1230      3.2739      3.7659      4.7286      6.2932      8.6606      11.936      15.620    
  27.533      29.442      29.463      27.572      23.912      19.015      13.865      9.5337      6.5861      4.7827    
  3.7601      3.3354      3.3405      3.7659      4.7776      6.5790      9.5466      13.899      19.041      23.899    
  36.578      37.769      36.652      33.264      27.920      21.414      14.986      9.8624      6.5835      4.7297    
  3.8041      3.5453      3.8079      4.7286      6.5790      9.8702      15.010      21.426      27.881      33.178    
  45.055      45.079      42.322      37.116      30.097      22.273      15.001      9.5391      6.2939      4.6132    
  3.9245      3.9214      4.6076      6.2932      9.5466      15.010      22.268      30.065      37.059      42.266    
  52.005      50.281      45.482      38.441      30.065      21.426      13.899      8.6606      5.8236      4.5015    
  4.1389      4.5015      5.8236      8.6606      13.899      21.426      30.065      38.441      45.482      50.281    
  56.069      52.194      45.449      37.021      27.860      19.043      11.949      7.4973      5.3097      4.4448    
  4.4515      5.3197      7.4947      11.936      19.041      27.881      37.059      45.482      52.212      56.073    
  56.070      50.266      42.240      33.152      23.888      15.625      9.6491      6.3527      4.8623      4.4551    
  4.8665      6.3525      9.6415      15.620      23.899      33.178      42.266      50.281      56.073      58.233    
  40.643      34.199      26.581      18.885      12.373      7.9583      5.5513      4.3982      4.0830      4.4001    
  5.5508      7.9496      12.355      18.867      26.581      34.228      40.691      45.055      46.594      45.018    
  34.199      27.499      20.310      13.814      9.0115      6.1500      4.6331      4.0224      4.0281      4.6422    
  6.1469      8.9896      13.785      20.298      27.520      34.249      39.438      42.266      42.243      39.385    
  26.581      20.310      14.318      9.6060      6.5865      4.8632      4.0128      3.7757      4.0142      4.8662    
  6.5840      9.5869      14.286      20.293      26.609      32.092      35.783      37.059      35.724      32.024    
  18.885      13.814      9.6060      6.7404      4.9977      4.0303      3.6318      3.6270      4.0263      5.0061    
  6.7462      9.5813      13.762      18.851      23.912      27.920      30.097      30.065      27.860      23.888    
  12.373      9.0115      6.5865      4.9977      4.0359      3.5624      3.4214      3.5580      4.0396      5.0102    
  6.5867      8.9812      12.325      16.190      19.778      22.283      23.169      22.268      19.777      16.222    
  7.9583      6.1500      4.8632      4.0303      3.5624      3.3530      3.3502      3.5589      4.0343      4.8749    
  6.1592      7.9535      10.294      12.831      14.983      16.216      16.226      15.010      12.862      10.315    
  5.5513      4.6331      4.0128      3.6318      3.4214      3.3502      3.4153      3.6259      4.0152      4.6476    
  5.5726      6.7571      8.1467      9.5287      10.560      10.948      10.577      9.5466      8.1492      6.7422    
  4.3982      4.0224      3.7757      3.6270      3.5580      3.5589      3.6259      3.7675      4.0112      4.3955    
  4.9406      5.6110      6.3080      6.9144      7.2776      7.2775      6.9097      6.2932      5.5909      4.9284    
  4.0830      4.0281      4.0142      4.0263      4.0396      4.0343      4.0152      4.0112      4.0560      4.1720    
  4.3657      4.6219      4.8949      5.1096      5.1898      5.1021      4.8804      4.6076      4.3645      4.1902    
  4.4001      4.6422      4.8662      5.0061      5.0102      4.8749      4.6476      4.3955      4.1720      4.0059    
  3.9088      3.8785      3.8927      3.9131      3.9102      3.8882      3.8806      3.9214      4.0244      4.1870    
  5.5508      6.1469      6.5840      6.7462      6.5867      6.1592      5.5726      4.9406      4.3657      3.9088    
  3.5861      3.3827      3.2720      3.2345      3.2689      3.3870      3.6019      3.9245      4.3653      4.9225    
  7.9496      8.9896      9.5869      9.5813      8.9812      7.9535      6.7571      5.6110      4.6219      3.8785    
  3.3827      3.0853      2.9434      2.9421      3.0846      3.3861      3.8806      4.6132      5.5909      6.7386    
  12.355      13.785      14.286      13.762      12.325      10.294      8.1467      6.3080      4.8949      3.8927    
  3.2720      2.9434      2.8417      2.9455      3.2720      3.8856      4.8804      6.2939      8.1453      10.312    
  18.867      20.298      20.293      18.851      16.190      12.831      9.5287      6.9144      5.1096      3.9131    
  3.2345      2.9421      2.9455      3.2393      3.9104      5.1000      6.9097      9.5391      12.854      16.214    
  26.581      27.520      26.609      23.912      19.778      14.983      10.560      7.2776      5.1898      3.9102    
  3.2689      3.0846      3.2720      3.9104      5.1869      7.2815      10.577      15.001      19.775      23.885    
  34.228      34.249      32.092      27.920      22.283      16.216      10.948      7.2775      5.1021      3.8882    
  3.3870      3.3861      3.8856      5.1000      7.2815      10.961      16.226      22.273      27.882      32.045    
  40.691      39.438      35.783      30.097      23.169      16.226      10.577      6.9097      4.8804      3.8806    
  3.6019      3.8806      4.8804      6.9097      10.577      16.226      23.169      30.097      35.783      39.438    
  45.055      42.266      37.059      30.065      22.268      15.010      9.5466      6.2932      4.6076      3.9214    
  3.9245      4.6132      6.2939      9.5391      15.001      22.273      30.097      37.116      42.322      45.079    
  46.594      42.243      35.724      27.860      19.777      12.862      8.1492      5.5909      4.3645      4.0244    
  4.3653      5.5909      8.1453      12.854      19.775      27.882      35.783      42.322      46.652      48.155    
  45.018      39.385      32.024      23.888      16.222      10.315      6.7422      4.9284      4.1902      4.1870    
  4.9225      6.7386      10.312      16.214      23.885      32.045      39.438      45.079      48.155      48.127    
  29.796      23.893      17.531      11.928      7.9583      5.6276      4.3519      3.8286      3.8292      4.3562    
  5.6362      7.9600      11.908      17.490      23.854      29.779      34.228      36.578      36.572      34.224    
  23.893      18.204      12.833      8.7261      6.1500      4.6489      3.9027      3.6876      3.9002      4.6537    
  6.1627      8.7293      12.810      18.162      23.858      28.779      32.045      33.178      32.042      28.789    
  17.531      12.833      9.0032      6.4392      4.8632      3.9825      3.6111      3.6059      3.9771      4.8729    
  6.4581      9.0065      12.807      17.490      22.167      25.867      27.882      27.881      25.874      22.195    
  11.928      8.7261      6.4392      4.9395      4.0303      3.5743      3.4347      3.5673      4.0307      4.9546    
  6.4550      8.7213      11.898      15.586      19.015      21.414      22.273      21.426      19.043      15.625    
  7.9583      6.1500      4.8632      4.0303      3.5624      3.3530      3.3502      3.5589      4.0343      4.8749    
  6.1592      7.9535      10.294      12.831      14.983      16.216      16.226      15.010      12.862      10.315    
  5.6276      4.6489      3.9825      3.5743      3.3530      3.2812      3.3509      3.5719      3.9836      4.6574    
  5.6415      6.9000      8.3806      9.8487      10.941      11.353      10.961      9.8702      8.3874      6.8909    
  4.3519      3.9027      3.6111      3.4347      3.3502      3.3509      3.4345      3.6081      3.9011      4.3595    
  5.0037      5.7816      6.5804      7.2722      7.6852      7.6910      7.2815      6.5790      5.7669      4.9868    
  3.8286      3.6876      3.6059      3.5673      3.5589      3.5719      3.6081      3.6826      3.8204      4.0448    
  4.3608      4.7383      5.1076      5.3798      5.4795      5.3765      5.1000      4.7286      4.3554      4.0479    
  3.8292      3.9002      3.9771      4.0307      4.0343      3.9836      3.9011      3.8204      3.7684      3.7611    
  3.8047      3.8907      3.9882      4.0518      4.0483      3.9806      3.8856      3.8079      3.7729      3.7829    
  4.3562      4.6537      4.8729      4.9546      4.8749      4.6574      4.3595      4.0448      3.7611      3.5359    
  3.3793      3.2872      3.2435      3.2302      3.2417      3.2883      3.3861      3.5453      3.7674      4.0452    
  5.6362      6.1627      6.4581      6.4550      6.1592      5.6415      5.0037      4.3608      3.8047      3.3793    
  3.0846      2.9005      2.8102      2.8092      2.9011      3.0908      3.3870      3.8041      4.3491      4.9897    
  7.9600      8.7293      9.0065      8.7213      7.9535      6.9000      5.7816      4.7383      3.8907      3.2872    
  2.9005      2.6850      2.6145      2.6840      2.9007      3.2883      3.8882      4.7297      5.7717      6.8972    
  11.908      12.810      12.807      11.898      10.294      8.3806      6.5804      5.1076      3.9882      3.2435    
  2.8102      2.6145      2.6164      2.8125      3.2408      3.9806      5.1021      6.5835      8.3922      10.308    
  17.490      18.162      17.490      15.586      12.831      9.8487      7.2722      5.3798      4.0518      3.2302    
  2.8092      2.6840      2.8125      3.2312      4.0478      5.3765      7.2775      9.8624      12.845      15.593    
  23.854      23.858      22.167      19.015      14.983      10.941      7.6852      5.4795      4.0483      3.2417    
  2.9011      2.9007      3.2408      4.0478      5.4816      7.6910      10.948      14.986      19.010      22.158    
  29.779      28.779      25.867      21.414      16.216      11.353      7.6910      5.3765      3.9806      3.2883    
  3.0908      3.2883      3.9806      5.3765      7.6910      11.353      16.216      21.414      25.867      28.779    
  34.228      32.045      27.882      22.273      16.226      10.961      7.2815      5.1000      3.8856      3.3861    
  3.3870      3.8882      5.1021      7.2775      10.948      16.216      22.283      27.920      32.092      34.249    
  36.578      33.178      27.881      21.426      15.010      9.8702      6.5790      4.7286      3.8079      3.5453    
  3.8041      4.7297      6.5835      9.8624      14.986      21.414      27.920      33.264      36.652      37.769    
  36.572      32.042      25.874      19.043      12.862      8.3874      5.7669      4.3554      3.7729      3.7674    
  4.3491      5.7717      8.3922      12.845      19.010      25.867      32.092      36.652      39.000      38.961    
  34.224      28.789      22.195      15.625      10.315      6.8909      4.9868      4.0479      3.7829      4.0452    
  4.9897      6.8972      10.308      15.593      22.158      28.779      34.249      37.769      38.961      37.738    
  19.799      15.068      10.731      7.5432      5.5513      4.3519      3.7488      3.5679      3.7452      4.3591    
  5.5751      7.5657      10.725      15.026      19.738      23.854      26.581      27.533      26.611      23.907    
  15.068      11.127      8.0029      5.9377      4.6331      3.9027      3.5848      3.5796      3.8986      4.6488    
  5.9718      8.0296      11.121      15.028      18.998      22.158      23.885      23.899      22.197      19.050    
  10.731      8.0029      6.0771      4.7921      4.0128      3.6111      3.4841      3.6044      4.0135      4.8121    