FCC Au                                  
   4.00000000000000     
     0.000000    0.500000    0.500000
     0.500000    0.000000    0.500000
     0.500000    0.500000    0.000000
   Au
     1
Direct
  0.000000  0.000000  0.000000
 
   20   20   20
 0.76738772961E+02 0.72979776090E+02 0.63531830218E+02 0.52002962935E+02 0.40642809186E+02
 0.29795885870E+02 0.19799123058E+02 0.12001925652E+02 0.74836660483E+01 0.55936108808E+01
 0.50935290463E+01 0.55936108808E+01 0.74836660483E+01 0.12001925652E+02 0.19799123058E+02
 0.29795885870E+02 0.40642809186E+02 0.52002962935E+02 0.63531830218E+02 0.72979776090E+02
 0.72979776090E+02 0.66480594440E+02 0.56191763820E+02 0.45045567795E+02 0.34198505908E+02
 0.23892831962E+02 0.15067855932E+02 0.90988845108E+01 0.61859377367E+01 0.51106195172E+01
 0.51214653930E+01 0.62011292655E+01 0.90955886663E+01 0.15058546173E+02 0.23907364128E+02
 0.34224293447E+02 0.45017762112E+02 0.56069680007E+02 0.66322078924E+02 0.72905951591E+02
 0.63531830218E+02 0.56191763820E+02 0.46653234969E+02 0.36561364952E+02 0.26581169405E+02
 0.17530692087E+02 0.10730604152E+02 0.68849760101E+01 0.52093404970E+01 0.47578054568E+01
 0.52161534250E+01 0.68851530347E+01 0.10724729603E+02 0.17539783041E+02 0.26610899959E+02
 0.36572473293E+02 0.46594179003E+02 0.56068988805E+02 0.63427769296E+02 0.66322078924E+02
 0.52002962935E+02 0.45045567795E+02 0.36561364952E+02 0.27518384032E+02 0.18885007995E+02
 0.11928355169E+02 0.75431775935E+01 0.53830009044E+01 0.45266171164E+01 0.45250449830E+01
 0.53782403071E+01 0.75367198543E+01 0.11925093913E+02 0.18890561495E+02 0.27532945600E+02
 0.36577623556E+02 0.45055110793E+02 0.52004572213E+02 0.56068988805E+02 0.56069680007E+02
 0.40642809186E+02 0.34198505908E+02 0.26581169405E+02 0.18885007995E+02 0.12373057408E+02
 0.79583026725E+01 0.55513066303E+01 0.43982303428E+01 0.40829598251E+01 0.44000584420E+01
 0.55508495226E+01 0.79496197444E+01 0.12354751090E+02 0.18866845371E+02 0.26581303824E+02
 0.34228200642E+02 0.40691285665E+02 0.45055110793E+02 0.46594179003E+02 0.45017762112E+02
 0.29795885870E+02 0.23892831962E+02 0.17530692087E+02 0.11928355169E+02 0.79583026725E+01
 0.56275824577E+01 0.43518850062E+01 0.38286481636E+01 0.38291597760E+01 0.43561906554E+01
 0.56362325579E+01 0.79600283807E+01 0.11908334935E+02 0.17490225306E+02 0.23853570515E+02
 0.29778958256E+02 0.34228200642E+02 0.36577623556E+02 0.36572473293E+02 0.34224293447E+02
 0.19799123058E+02 0.15067855932E+02 0.10730604152E+02 0.75431775935E+01 0.55513066303E+01
 0.43518850062E+01 0.37488494822E+01 0.35679144602E+01 0.37451836053E+01 0.43591044818E+01
 0.55750789288E+01 0.75656858652E+01 0.10725363849E+02 0.15026319847E+02 0.19738326459E+02
 0.23853570515E+02 0.26581303824E+02 0.27532945600E+02 0.26610899959E+02 0.23907364128E+02
 0.12001925652E+02 0.90988845108E+01 0.68849760101E+01 0.53830009044E+01 0.43982303428E+01
 0.38286481636E+01 0.35679144602E+01 0.35649325492E+01 0.38227239397E+01 0.43986392740E+01
 0.54012831344E+01 0.69226298156E+01 0.91371028312E+01 0.12011036437E+02 0.15026319847E+02
 0.17490225306E+02 0.18866845371E+02 0.18890561495E+02 0.17539783041E+02 0.15058546173E+02
 0.74836660483E+01 0.61859377367E+01 0.52093404970E+01 0.45266171164E+01 0.40829598251E+01
 0.38291597760E+01 0.37451836053E+01 0.38227239397E+01 0.40638950257E+01 0.45034365934E+01
 0.52096557921E+01 0.62274629029E+01 0.75464626807E+01 0.91371028312E+01 0.10725363849E+02
 0.11908334935E+02 0.12354751090E+02 0.11925093913E+02 0.10724729603E+02 0.90955886663E+01
 0.55936108808E+01 0.51106195172E+01 0.47578054568E+01 0.45250449830E+01 0.44000584420E+01
 0.43561906554E+01 0.43591044818E+01 0.43986392740E+01 0.45034365934E+01 0.47189224588E+01
 0.50784271966E+01 0.55904403939E+01 0.62274629029E+01 0.69226298156E+01 0.75656858652E+01
 0.79600283807E+01 0.79496197444E+01 0.75367198543E+01 0.68851530347E+01 0.62011292655E+01
 0.50935290463E+01 0.51214653930E+01 0.52161534250E+01 0.53782403071E+01 0.55508495226E+01
 0.56362325579E+01 0.55750789288E+01 0.54012831344E+01 0.52096557921E+01 0.50784271966E+01
 0.50342927946E+01 0.50784271966E+01 0.52096557921E+01 0.54012831344E+01 0.55750789288E+01
 0.56362325579E+01 0.55508495226E+01 0.53782403071E+01 0.52161534250E+01 0.51214653930E+01
 0.55936108808E+01 0.62011292655E+01 0.68851530347E+01 0.75367198543E+01 0.79496197444E+01
 0.79600283807E+01 0.75656858652E+01 0.69226298156E+01 0.62274629029E+01 0.55904403939E+01
 0.50784271966E+01 0.47189224588E+01 0.45034365934E+01 0.43986392740E+01 0.43591044818E+01
 0.43561906554E+01 0.44000584420E+01 0.45250449830E+01 0.47578054568E+01 0.51106195172E+01
 0.74836660483E+01 0.90955886663E+01 0.10724729603E+02 0.11925093913E+02 0.12354751090E+02
 0.11908334935E+02 0.10725363849E+02 0.91371028312E+01 0.75464626807E+01 0.62274629029E+01
 0.52096557921E+01 0.45034365934E+01 0.40638950257E+01 0.38227239397E+01 0.37451836053E+01
 0.38291597760E+01 0.40829598251E+01 0.45266171164E+01 0.52093404970E+01 0.61859377367E+01
 0.12001925652E+02 0.15058546173E+02 0.17539783041E+02 0.18890561495E+02 0.18866845371E+02
 0.17490225306E+02 0.15026319847E+02 0.12011036437E+02 0.91371028312E+01 0.69226298156E+01
 0.54012831344E+01 0.43986392740E+01 0.38227239397E+01 0.35649325492E+01 0.35679144602E+01
 0.38286481636E+01 0.43982303428E+01 0.53830009044E+01 0.68849760101E+01 0.90988845108E+01
 0.19799123058E+02 0.23907364128E+02 0.26610899959E+02 0.27532945600E+02 0.26581303824E+02
 0.23853570515E+02 0.19738326459E+02 0.15026319847E+02 0.10725363849E+02 0.75656858652E+01
 0.55750789288E+01 0.43591044818E+01 0.37451836053E+01 0.35679144602E+01 0.37488494822E+01
 0.43518850062E+01 0.55513066303E+01 0.75431775935E+01 0.10730604152E+02 0.15067855932E+02
 0.29795885870E+02 0.34224293447E+02 0.36572473293E+02 0.36577623556E+02 0.34228200642E+02
 0.29778958256E+02 0.23853570515E+02 0.17490225306E+02 0.11908334935E+02 0.79600283807E+01
 0.56362325579E+01 0.43561906554E+01 0.38291597760E+01 0.38286481636E+01 0.43518850062E+01
 0.56275824577E+01 0.79583026725E+01 0.11928355169E+02 0.17530692087E+02 0.23892831962E+02
 0.40642809186E+02 0.45017762112E+02 0.46594179003E+02 0.45055110793E+02 0.40691285665E+02
 0.34228200642E+02 0.26581303824E+02 0.18866845371E+02 0.12354751090E+02 0.79496197444E+01
 0.55508495226E+01 0.44000584420E+01 0.40829598251E+01 0.43982303428E+01 0.55513066303E+01
 0.79583026725E+01 0.12373057408E+02 0.18885007995E+02 0.26581169405E+02 0.34198505908E+02
 0.52002962935E+02 0.56069680007E+02 0.56068988805E+02 0.52004572213E+02 0.45055110793E+02
 0.36577623556E+02 0.27532945600E+02 0.18890561495E+02 0.11925093913E+02 0.75367198543E+01
 0.53782403071E+01 0.45250449830E+01 0.45266171164E+01 0.53830009044E+01 0.75431775935E+01
 0.11928355169E+02 0.18885007995E+02 0.27518384032E+02 0.36561364952E+02 0.45045567795E+02
 0.63531830218E+02 0.66322078924E+02 0.63427769296E+02 0.56068988805E+02 0.46594179003E+02
 0.36572473293E+02 0.26610899959E+02 0.17539783041E+02 0.10724729603E+02 0.68851530347E+01
 0.52161534250E+01 0.47578054568E+01 0.52093404970E+01 0.68849760101E+01 0.10730604152E+02
 0.17530692087E+02 0.26581169405E+02 0.36561364952E+02 0.46653234969E+02 0.56191763820E+02
 0.72979776090E+02 0.72905951591E+02 0.66322078924E+02 0.56069680007E+02 0.45017762112E+02
 0.34224293447E+02 0.23907364128E+02 0.15058546173E+02 0.90955886663E+01 0.62011292655E+01
 0.51214653930E+01 0.51106195172E+01 0.61859377367E+01 0.90988845108E+01 0.15067855932E+02
 0.23892831962E+02 0.34198505908E+02 0.45045567795E+02 0.56191763820E+02 0.66480594440E+02
 0.72979776090E+02 0.66480594440E+02 0.56191763820E+02 0.45045567795E+02 0.34198505908E+02
 0.23892831962E+02 0.15067855932E+02 0.90988845108E+01 0.61859377367E+01 0.51106195172E+01
 0.51214653930E+01 0.62011292655E+01 0.90955886663E+01 0.15058546173E+02 0.23907364128E+02
 0.34224293447E+02 0.45017762112E+02 0.56069680007E+02 0.66322078924E+02 0.72905951591E+02
 0.66480594440E+02 0.58455304194E+02 0.48237987967E+02 0.37722973586E+02 0.27498645456E+02
 0.18203754738E+02 0.11126880539E+02 0.70789498144E+01 0.53328071219E+01 0.48669886803E+01
 0.53432067175E+01 0.70784456370E+01 0.11118306957E+02 0.18222707443E+02 0.27551457384E+02
 0.37738478000E+02 0.48127235646E+02 0.58233217993E+02 0.66294347172E+02 0.69534584743E+02
 0.56191763820E+02 0.48237987967E+02 0.38961529352E+02 0.29403616895E+02 0.20310130405E+02
 0.12833193191E+02 0.80029128657E+01 0.56359913057E+01 0.47136214791E+01 0.47142551615E+01
 0.56324782661E+01 0.79938757698E+01 0.12837911687E+02 0.20347551609E+02 0.29451869654E+02
 0.38960789919E+02 0.48154573885E+02 0.56073364218E+02 0.60912140604E+02 0.60968305982E+02
 0.45045567795E+02 0.37722973586E+02 0.29403616895E+02 0.21054429563E+02 0.13814381279E+02
 0.87261028915E+01 0.59377218175E+01 0.46407907217E+01 0.42926883186E+01 0.46470470224E+01
 0.59366571224E+01 0.87119351377E+01 0.13802164420E+02 0.21065644960E+02 0.29441670256E+02
 0.37769147748E+02 0.45078891289E+02 0.50280581292E+02 0.52194249883E+02 0.50266048786E+02
 0.34198505908E+02 0.27498645456E+02 0.20310130405E+02 0.13814381279E+02 0.90114721695E+01
 0.61499943291E+01 0.46330670399E+01 0.40224297386E+01 0.40280989302E+01 0.46421715013E+01
 0.61469390897E+01 0.89895544532E+01 0.13785308058E+02 0.20297548164E+02 0.27520105520E+02
 0.34249476224E+02 0.39438191713E+02 0.42265835782E+02 0.42243267940E+02 0.39385049847E+02
 0.23892831962E+02 0.18203754738E+02 0.12833193191E+02 0.87261028915E+01 0.61499943291E+01
 0.46488861540E+01 0.39027062748E+01 0.36876190773E+01 0.39002100694E+01 0.46537463014E+01
 0.61627204903E+01 0.87293034900E+01 0.12810170494E+02 0.18161690674E+02 0.23858193065E+02
 0.28778827252E+02 0.32045490731E+02 0.33177578886E+02 0.32041502189E+02 0.28789349268E+02
 0.15067855932E+02 0.11126880539E+02 0.80029128657E+01 0.59377218175E+01 0.46330670399E+01
 0.39027062748E+01 0.35848043569E+01 0.35796141619E+01 0.38986359082E+01 0.46487829860E+01
 0.59717747085E+01 0.80296419061E+01 0.11120841262E+02 0.15027963979E+02 0.18997563564E+02
 0.22157632551E+02 0.23884753706E+02 0.23899024770E+02 0.22197320664E+02 0.19049561024E+02
 0.90988845108E+01 0.70789498144E+01 0.56359913057E+01 0.46407907217E+01 0.40224297386E+01
 0.36876190773E+01 0.35796141619E+01 0.36831983315E+01 0.40159387860E+01 0.46423123381E+01
 0.56588569788E+01 0.71225305701E+01 0.91398210923E+01 0.11567684113E+02 0.13908699765E+02
 0.15592720942E+02 0.16214222795E+02 0.15620136377E+02 0.13931864107E+02 0.11557455951E+02
 0.61859377367E+01 0.53328071219E+01 0.47136214791E+01 0.42926883186E+01 0.40280989302E+01
 0.39002100694E+01 0.38986359082E+01 0.40159387860E+01 0.42638036117E+01 0.46856795414E+01
 0.53368560281E+01 0.62303865422E+01 0.73223103988E+01 0.85428485693E+01 0.96441198605E+01
 0.10307569229E+02 0.10311708307E+02 0.96415126368E+01 0.85105149892E+01 0.72659664354E+01
 0.51106195172E+01 0.48669886803E+01 0.47142551615E+01 0.46470470224E+01 0.46421715013E+01
 0.46537463014E+01 0.46487829860E+01 0.46423123381E+01 0.46856795414E+01 0.48250879500E+01
 0.50801193037E+01 0.54490649438E+01 0.59055921030E+01 0.63786848391E+01 0.67555702103E+01
 0.68971994893E+01 0.67386188098E+01 0.63524750935E+01 0.58856537060E+01 0.54521975690E+01
 0.51214653930E+01 0.53432067175E+01 0.56324782661E+01 0.59366571224E+01 0.61469390897E+01
 0.61627204903E+01 0.59717747085E+01 0.56588569788E+01 0.53368560281E+01 0.50801193037E+01
 0.49132712217E+01 0.48418474917E+01 0.48622962325E+01 0.49385811267E+01 0.49995354272E+01
 0.49897131486E+01 0.49225413340E+01 0.48664521881E+01 0.48785265190E+01 0.49675296518E+01
 0.62011292655E+01 0.70784456370E+01 0.79938757698E+01 0.87119351377E+01 0.89895544532E+01
 0.87293034900E+01 0.80296419061E+01 0.71225305701E+01 0.62303865422E+01 0.54490649438E+01
 0.48418474917E+01 0.44265587197E+01 0.41758866607E+01 0.40465632664E+01 0.40049439105E+01
 0.40452463550E+01 0.41869532904E+01 0.44550921530E+01 0.48703636340E+01 0.54521975690E+01
 0.90955886663E+01 0.11118306957E+02 0.12837911687E+02 0.13802164420E+02 0.13785308058E+02
 0.12810170494E+02 0.11120841262E+02 0.91398210923E+01 0.73223103988E+01 0.59055921030E+01
 0.48622962325E+01 0.41758866607E+01 0.37721398044E+01 0.35838144584E+01 0.35869393224E+01
 0.37828625521E+01 0.41901785677E+01 0.48623076342E+01 0.58733788085E+01 0.72659664354E+01
 0.15058546173E+02 0.18222707443E+02 0.20347551609E+02 0.21065644960E+02 0.20297548164E+02
 0.18161690674E+02 0.15027963979E+02 0.11567684113E+02 0.85428485693E+01 0.63786848391E+01
 0.49385811267E+01 0.40465632664E+01 0.35838144584E+01 0.34435100048E+01 0.35874809218E+01
 0.40478965551E+01 0.49283809644E+01 0.63527023561E+01 0.85119843197E+01 0.11557455951E+02
 0.23907364128E+02 0.27551457384E+02 0.29451869654E+02 0.29441670256E+02 0.27520105520E+02
 0.23858193065E+02 0.18997563564E+02 0.13908699765E+02 0.96441198605E+01 0.67555702103E+01
 0.49995354272E+01 0.40049439105E+01 0.35869393224E+01 0.35874809218E+01 0.40015395005E+01
 0.49868017131E+01 0.67421599112E+01 0.96491426040E+01 0.13942323966E+02 0.19049561024E+02
 0.34224293447E+02 0.37738478000E+02 0.38960789919E+02 0.37769147748E+02 0.34249476224E+02
 0.28778827252E+02 0.22157632551E+02 0.15592720942E+02 0.10307569229E+02 0.68971994893E+01
 0.49897131486E+01 0.40452463550E+01 0.37828625521E+01 0.40478965551E+01 0.49868017131E+01
 0.68908818418E+01 0.10315444439E+02 0.15624940723E+02 0.22195470749E+02 0.28789349268E+02
 0.45017762112E+02 0.48127235646E+02 0.48154573885E+02 0.45078891289E+02 0.39438191713E+02
 0.32045490731E+02 0.23884753706E+02 0.16214222795E+02 0.10311708307E+02 0.67386188098E+01
 0.49225413340E+01 0.41869532904E+01 0.41901785677E+01 0.49283809644E+01 0.67421599112E+01
 0.10315444439E+02 0.16222157812E+02 0.23888220239E+02 0.32024480703E+02 0.39385049847E+02
 0.56069680007E+02 0.58233217993E+02 0.56073364218E+02 0.50280581292E+02 0.42265835782E+02
 0.33177578886E+02 0.23899024770E+02 0.15620136377E+02 0.96415126368E+01 0.63524750935E+01
 0.48664521881E+01 0.44550921530E+01 0.48623076342E+01 0.63527023561E+01 0.96491426040E+01
 0.15624940723E+02 0.23888220239E+02 0.33151834335E+02 0.42239541215E+02 0.50266048786E+02
 0.66322078924E+02 0.66294347172E+02 0.60912140604E+02 0.52194249883E+02 0.42243267940E+02
 0.32041502189E+02 0.22197320664E+02 0.13931864107E+02 0.85105149892E+01 0.58856537060E+01
 0.48785265190E+01 0.48703636340E+01 0.58733788085E+01 0.85119843197E+01 0.13942323966E+02
 0.22195470749E+02 0.32024480703E+02 0.42239541215E+02 0.52229249838E+02 0.60968305982E+02
 0.72905951591E+02 0.69534584743E+02 0.60968305982E+02 0.50266048786E+02 0.39385049847E+02
 0.28789349268E+02 0.19049561024E+02 0.11557455951E+02 0.72659664354E+01 0.54521975690E+01
 0.49675296518E+01 0.54521975690E+01 0.72659664354E+01 0.11557455951E+02 0.19049561024E+02
 0.28789349268E+02 0.39385049847E+02 0.50266048786E+02 0.60968305982E+02 0.69534584743E+02
 0.63531830218E+02 0.56191763820E+02 0.46653234969E+02 0.36561364952E+02 0.26581169405E+02
 0.17530692087E+02 0.10730604152E+02 0.68849760101E+01 0.52093404970E+01 0.47578054568E+01
 0.52161534250E+01 0.68851530347E+01 0.10724729603E+02 0.17539783041E+02 0.26610899959E+02
 0.36572473293E+02 0.46594179003E+02 0.56068988805E+02 0.63427769296E+02 0.66322078924E+02
 0.56191763820E+02 0.48237987967E+02 0.38961529352E+02 0.29403616895E+02 0.20310130405E+02
 0.12833193191E+02 0.80029128657E+01 0.56359913057E+01 0.47136214791E+01 0.47142551615E+01
 0.56324782661E+01 0.79938757698E+01 0.12837911687E+02 0.20347551609E+02 0.29451869654E+02
 0.38960789919E+02 0.48154573885E+02 0.56073364218E+02 0.60912140604E+02 0.60968305982E+02
 0.46653234969E+02 0.38961529352E+02 0.30367386027E+02 0.21795281169E+02 0.14318321399E+02
 0.90031685204E+01 0.60770770363E+01 0.47286574199E+01 0.43670953653E+01 0.47353982343E+01
 0.60751068291E+01 0.89907226774E+01 0.14319646164E+02 0.21831971814E+02 0.30424925826E+02
 0.38999715558E+02 0.46652051401E+02 0.52211554117E+02 0.54296075934E+02 0.52229249838E+02
 0.36561364952E+02 0.29403616895E+02 0.21795281169E+02 0.14851676923E+02 0.96060301730E+01
 0.64391878391E+01 0.47920684269E+01 0.41327142646E+01 0.41396203260E+01 0.48025164824E+01
 0.64348445234E+01 0.95837698477E+01 0.14832136552E+02 0.21808091199E+02 0.29463096039E+02
 0.36652147213E+02 0.42322166218E+02 0.45481993414E+02 0.45448646914E+02 0.42239541215E+02
 0.26581169405E+02 0.20310130405E+02 0.14318321399E+02 0.96060301730E+01 0.65865076010E+01
 0.48632366059E+01 0.40127924889E+01 0.37756616290E+01 0.40142232062E+01 0.48662324603E+01
 0.65840047606E+01 0.95869030105E+01 0.14285992370E+02 0.20292722918E+02 0.26609152442E+02
 0.32092205699E+02 0.35782740659E+02 0.37059085362E+02 0.35724183500E+02 0.32024480703E+02
 0.17530692087E+02 0.12833193191E+02 0.90031685204E+01 0.64391878391E+01 0.48632366059E+01
 0.39824846496E+01 0.36111218707E+01 0.36058554747E+01 0.39770987945E+01 0.48728795042E+01
 0.64580954601E+01 0.90065065528E+01 0.12806669466E+02 0.17489500386E+02 0.22166986349E+02
 0.25866951667E+02 0.27882261738E+02 0.27881230342E+02 0.25873929464E+02 0.22195470749E+02
 0.10730604152E+02 0.80029128657E+01 0.60770770363E+01 0.47920684269E+01 0.40127924889E+01
 0.36111218707E+01 0.34840815806E+01 0.36044032208E+01 0.40134828800E+01 0.48120625398E+01
 0.61107666763E+01 0.80290015830E+01 0.10729200851E+02 0.13911182374E+02 0.16902506145E+02
 0.19009992269E+02 0.19775092995E+02 0.19040512128E+02 0.16945972785E+02 0.13942323966E+02
 0.68849760101E+01 0.56359913057E+01 0.47286574199E+01 0.41327142646E+01 0.37756616290E+01
 0.36058554747E+01 0.36044032208E+01 0.37694007307E+01 0.41230999209E+01 0.47285854953E+01
 0.56598180973E+01 0.69282039675E+01 0.85488931439E+01 0.10349442999E+02 0.11922371300E+02
 0.12844616586E+02 0.12854292000E+02 0.11936348548E+02 0.10340970949E+02 0.85119843197E+01
 0.52093404970E+01 0.47136214791E+01 0.43670953653E+01 0.41396203260E+01 0.40142232062E+01
 0.39770987945E+01 0.40134828800E+01 0.41230999209E+01 0.43323146634E+01 0.46848687599E+01
 0.52146297076E+01 0.59120200903E+01 0.67095127268E+01 0.75174078311E+01 0.81494776213E+01
 0.83921729481E+01 0.81453116227E+01 0.74947457978E+01 0.66664914825E+01 0.58733788085E+01
 0.47578054568E+01 0.47142551615E+01 0.47353982343E+01 0.48025164824E+01 0.48662324603E+01
 0.48728795042E+01 0.48120625398E+01 0.47285854953E+01 0.46848687599E+01 0.47199975493E+01
 0.48450674479E+01 0.50570922716E+01 0.53326134419E+01 0.56060451895E+01 0.57780383987E+01
 0.57716895723E+01 0.55908749062E+01 0.53196643164E+01 0.50601275307E+01 0.48703636340E+01
 0.52161534250E+01 0.56324782661E+01 0.60751068291E+01 0.64348445234E+01 0.65840047606E+01
 0.64580954601E+01 0.61107666763E+01 0.56598180973E+01 0.52146297076E+01 0.48450674479E+01
 0.45796665689E+01 0.44247787614E+01 0.43656342495E+01 0.43598461053E+01 0.43586627113E+01
 0.43490596375E+01 0.43653195980E+01 0.44515442530E+01 0.46240092782E+01 0.48785265190E+01
 0.68851530347E+01 0.79938757698E+01 0.89907226774E+01 0.95837698477E+01 0.95869030105E+01
 0.90065065528E+01 0.80290015830E+01 0.69282039675E+01 0.59120200903E+01 0.50570922716E+01
 0.44247787614E+01 0.40092468316E+01 0.37650266692E+01 0.36505060937E+01 0.36490155546E+01
 0.37674227482E+01 0.40243516977E+01 0.44448228205E+01 0.50601275307E+01 0.58856537060E+01
 0.10724729603E+02 0.12837911687E+02 0.14319646164E+02 0.14832136552E+02 0.14285992370E+02
 0.12806669466E+02 0.10729200851E+02 0.85488931439E+01 0.67095127268E+01 0.53326134419E+01
 0.43656342495E+01 0.37650266692E+01 0.34417336520E+01 0.33406611551E+01 0.34475729861E+01
 0.37728787436E+01 0.43644899632E+01 0.53096500166E+01 0.66664914825E+01 0.85105149892E+01
 0.17539783041E+02 0.20347551609E+02 0.21831971814E+02 0.21808091199E+02 0.20292722918E+02
 0.17489500386E+02 0.13911182374E+02 0.10349442999E+02 0.75174078311E+01 0.56060451895E+01
 0.43598461053E+01 0.36505060937E+01 0.33406611551E+01 0.33423649752E+01 0.36525326567E+01
 0.43553766930E+01 0.55909383435E+01 0.74972739375E+01 0.10340970949E+02 0.13931864107E+02
 0.26610899959E+02 0.29451869654E+02 0.30424925826E+02 0.29463096039E+02 0.26609152442E+02
 0.22166986349E+02 0.16902506145E+02 0.11922371300E+02 0.81494776213E+01 0.57780383987E+01
 0.43586627113E+01 0.36490155546E+01 0.34475729861E+01 0.36525326567E+01 0.43550381677E+01
 0.57668734479E+01 0.81492327008E+01 0.11949248267E+02 0.16945972785E+02 0.22197320664E+02
 0.36572473293E+02 0.38960789919E+02 0.38999715558E+02 0.36652147213E+02 0.32092205699E+02
 0.25866951667E+02 0.19009992269E+02 0.12844616586E+02 0.83921729481E+01 0.57716895723E+01
 0.43490596375E+01 0.37674227482E+01 0.37728787436E+01 0.43553766930E+01 0.57668734479E+01
 0.83874071196E+01 0.12862043416E+02 0.19043440770E+02 0.25873929464E+02 0.32041502189E+02
 0.46594179003E+02 0.48154573885E+02 0.46652051401E+02 0.42322166218E+02 0.35782740659E+02
 0.27882261738E+02 0.19775092995E+02 0.12854292000E+02 0.81453116227E+01 0.55908749062E+01
 0.43653195980E+01 0.40243516977E+01 0.43644899632E+01 0.55909383435E+01 0.81492327008E+01
 0.12862043416E+02 0.19776955125E+02 0.27859641218E+02 0.35724183500E+02 0.42243267940E+02
 0.56068988805E+02 0.56073364218E+02 0.52211554117E+02 0.45481993414E+02 0.37059085362E+02
 0.27881230342E+02 0.19040512128E+02 0.11936348548E+02 0.74947457978E+01 0.53196643164E+01
 0.44515442530E+01 0.44448228205E+01 0.53096500166E+01 0.74972739375E+01 0.11949248267E+02
 0.19043440770E+02 0.27859641218E+02 0.37021228629E+02 0.45448646914E+02 0.52194249883E+02
 0.63427769296E+02 0.60912140604E+02 0.54296075934E+02 0.45448646914E+02 0.35724183500E+02
 0.25873929464E+02 0.16945972785E+02 0.10340970949E+02 0.66664914825E+01 0.50601275307E+01
 0.46240092782E+01 0.50601275307E+01 0.66664914825E+01 0.10340970949E+02 0.16945972785E+02
 0.25873929464E+02 0.35724183500E+02 0.45448646914E+02 0.54296075934E+02 0.60912140604E+02
 0.66322078924E+02 0.60968305982E+02 0.52229249838E+02 0.42239541215E+02 0.32024480703E+02
 0.22195470749E+02 0.13942323966E+02 0.85119843197E+01 0.58733788085E+01 0.48703636340E+01
 0.48785265190E+01 0.58856537060E+01 0.85105149892E+01 0.13931864107E+02 0.22197320664E+02
 0.32041502189E+02 0.42243267940E+02 0.52194249883E+02 0.60912140604E+02 0.66294347172E+02
 0.52002962935E+02 0.45045567795E+02 0.36561364952E+02 0.27518384032E+02 0.18885007995E+02
 0.11928355169E+02 0.75431775935E+01 0.53830009044E+01 0.45266171164E+01 0.45250449830E+01
 0.53782403071E+01 0.75367198543E+01 0.11925093913E+02 0.18890561495E+02 0.27532945600E+02
 0.36577623556E+02 0.45055110793E+02 0.52004572213E+02 0.56068988805E+02 0.56069680007E+02
 0.45045567795E+02 0.37722973586E+02 0.29403616895E+02 0.21054429563E+02 0.13814381279E+02
 0.87261028915E+01 0.59377218175E+01 0.46407907217E+01 0.42926883186E+01 0.46470470224E+01
 0.59366571224E+01 0.87119351377E+01 0.13802164420E+02 0.21065644960E+02 0.29441670256E+02
 0.37769147748E+02 0.45078891289E+02 0.50280581292E+02 0.52194249883E+02 0.50266048786E+02
 0.36561364952E+02 0.29403616895E+02 0.21795281169E+02 0.14851676923E+02 0.96060301730E+01
 0.64391878391E+01 0.47920684269E+01 0.41327142646E+01 0.41396203260E+01 0.48025164824E+01
 0.64348445234E+01 0.95837698477E+01 0.14832136552E+02 0.21808091199E+02 0.29463096039E+02
 0.36652147213E+02 0.42322166218E+02 0.45481993414E+02 0.45448646914E+02 0.42239541215E+02
 0.27518384032E+02 0.21054429563E+02 0.14851676923E+02 0.99236773754E+01 0.67404063210E+01
 0.49395255714E+01 0.40549393134E+01 0.38093183244E+01 0.40554668608E+01 0.49435266584E+01
 0.67398977775E+01 0.99022753220E+01 0.14813195136E+02 0.21039835858E+02 0.27572424193E+02
 0.33264193337E+02 0.37115629656E+02 0.38440885073E+02 0.37021228629E+02 0.33151834335E+02
 0.18885007995E+02 0.13814381279E+02 0.96060301730E+01 0.67404063210E+01 0.49977183182E+01
 0.40302577745E+01 0.36318423471E+01 0.36270281594E+01 0.40262961622E+01 0.50061338323E+01
 0.67462004835E+01 0.95812606459E+01 0.13762313304E+02 0.18851465023E+02 0.23912274640E+02
 0.27920320990E+02 0.30097420306E+02 0.30065270683E+02 0.27859641218E+02 0.23888220239E+02
 0.11928355169E+02 0.87261028915E+01 0.64391878391E+01 0.49395255714E+01 0.40302577745E+01
 0.35743422827E+01 0.34346992231E+01 0.35673110621E+01 0.40306575892E+01 0.49545651813E+01
 0.64550166757E+01 0.87213305413E+01 0.11898256372E+02 0.15586200030E+02 0.19015439440E+02
 0.21413982403E+02 0.22272838248E+02 0.21425876917E+02 0.19043440770E+02 0.15624940723E+02
 0.75431775935E+01 0.59377218175E+01 0.47920684269E+01 0.40549393134E+01 0.36318423471E+01
 0.34346992231E+01 0.34300807887E+01 0.36241541165E+01 0.40570303032E+01 0.48112911624E+01
 0.59673907439E+01 0.75650913114E+01 0.96465769654E+01 0.11921437396E+02 0.13865129043E+02
 0.14985899789E+02 0.15001243381E+02 0.13899411126E+02 0.11949248267E+02 0.96491426040E+01
 0.53830009044E+01 0.46407907217E+01 0.41327142646E+01 0.38093183244E+01 0.36270281594E+01
 0.35673110621E+01 0.36241541165E+01 0.38000354054E+01 0.41206805722E+01 0.46399200387E+01
 0.54034987317E+01 0.63861395448E+01 0.75223581415E+01 0.86656896640E+01 0.95337167733E+01
 0.98623986070E+01 0.95390697567E+01 0.86605901869E+01 0.74972739375E+01 0.63527023561E+01
 0.45266171164E+01 0.42926883186E+01 0.41396203260E+01 0.40554668608E+01 0.40262961622E+01
 0.40306575892E+01 0.40570303032E+01 0.41206805722E+01 0.42571624482E+01 0.45009578676E+01
 0.48670916663E+01 0.53377321722E+01 0.58510502551E+01 0.63069645357E+01 0.65861128711E+01
 0.65834951993E+01 0.62938727857E+01 0.58235532009E+01 0.53096500166E+01 0.48623076342E+01
 0.45250449830E+01 0.46470470224E+01 0.48025164824E+01 0.49435266584E+01 0.50061338323E+01
 0.49545651813E+01 0.48112911624E+01 0.46399200387E+01 0.45009578676E+01 0.44262768871E+01
 0.44260038527E+01 0.44986419093E+01 0.46209734190E+01 0.47374452150E+01 0.47827310150E+01
 0.47296515297E+01 0.46131925038E+01 0.45015013436E+01 0.44448228205E+01 0.44550921530E+01
 0.53782403071E+01 0.59366571224E+01 0.64348445234E+01 0.67398977775E+01 0.67462004835E+01
 0.64550166757E+01 0.59673907439E+01 0.54034987317E+01 0.48670916663E+01 0.44260038527E+01
 0.41080685309E+01 0.39108831627E+01 0.38085954972E+01 0.37651999168E+01 0.37601160472E+01
 0.38040948210E+01 0.39244815930E+01 0.41388693968E+01 0.44515442530E+01 0.48664521881E+01
 0.75367198543E+01 0.87119351377E+01 0.95837698477E+01 0.99022753220E+01 0.95812606459E+01
 0.87213305413E+01 0.75650913114E+01 0.63861395448E+01 0.53377321722E+01 0.44986419093E+01
 0.39108831627E+01 0.35408264442E+01 0.33368644052E+01 0.32695535205E+01 0.33354477070E+01
 0.35453036937E+01 0.39213837010E+01 0.45015013436E+01 0.53196643164E+01 0.63524750935E+01
 0.11925093913E+02 0.13802164420E+02 0.14832136552E+02 0.14813195136E+02 0.13762313304E+02
 0.11898256372E+02 0.96465769654E+01 0.75223581415E+01 0.58510502551E+01 0.46209734190E+01
 0.38085954972E+01 0.33368644052E+01 0.31212236199E+01 0.31230259700E+01 0.33404720420E+01
 0.38078879893E+01 0.46075837444E+01 0.58235532009E+01 0.74947457978E+01 0.96415126368E+01
 0.18890561495E+02 0.21065644960E+02 0.21808091199E+02 0.21039835858E+02 0.18851465023E+02
 0.15586200030E+02 0.11921437396E+02 0.86656896640E+01 0.63069645357E+01 0.47374452150E+01
 0.37651999168E+01 0.32695535205E+01 0.31230259700E+01 0.32738903178E+01 0.37659376608E+01
 0.47285534479E+01 0.62931717650E+01 0.86605901869E+01 0.11936348548E+02 0.15620136377E+02
 0.27532945600E+02 0.29441670256E+02 0.29463096039E+02 0.27572424193E+02 0.23912274640E+02
 0.19015439440E+02 0.13865129043E+02 0.95337167733E+01 0.65861128711E+01 0.47827310150E+01
 0.37601160472E+01 0.33354477070E+01 0.33404720420E+01 0.37659376608E+01 0.47775810759E+01
 0.65789913162E+01 0.95465547712E+01 0.13899411126E+02 0.19040512128E+02 0.23899024770E+02
 0.36577623556E+02 0.37769147748E+02 0.36652147213E+02 0.33264193337E+02 0.27920320990E+02
 0.21413982403E+02 0.14985899789E+02 0.98623986070E+01 0.65834951993E+01 0.47296515297E+01
 0.38040948210E+01 0.35453036937E+01 0.38078879893E+01 0.47285534479E+01 0.65789913162E+01
 0.98702041147E+01 0.15010205129E+02 0.21425876917E+02 0.27881230342E+02 0.33177578886E+02
 0.45055110793E+02 0.45078891289E+02 0.42322166218E+02 0.37115629656E+02 0.30097420306E+02
 0.22272838248E+02 0.15001243381E+02 0.95390697567E+01 0.62938727857E+01 0.46131925038E+01
 0.39244815930E+01 0.39213837010E+01 0.46075837444E+01 0.62931717650E+01 0.95465547712E+01
 0.15010205129E+02 0.22267969559E+02 0.30065270683E+02 0.37059085362E+02 0.42265835782E+02
 0.52004572213E+02 0.50280581292E+02 0.45481993414E+02 0.38440885073E+02 0.30065270683E+02
 0.21425876917E+02 0.13899411126E+02 0.86605901869E+01 0.58235532009E+01 0.45015013436E+01
 0.41388693968E+01 0.45015013436E+01 0.58235532009E+01 0.86605901869E+01 0.13899411126E+02
 0.21425876917E+02 0.30065270683E+02 0.38440885073E+02 0.45481993414E+02 0.50280581292E+02
 0.56068988805E+02 0.52194249883E+02 0.45448646914E+02 0.37021228629E+02 0.27859641218E+02
 0.19043440770E+02 0.11949248267E+02 0.74972739375E+01 0.53096500166E+01 0.44448228205E+01
 0.44515442530E+01 0.53196643164E+01 0.74947457978E+01 0.11936348548E+02 0.19040512128E+02
 0.27881230342E+02 0.37059085362E+02 0.45481993414E+02 0.52211554117E+02 0.56073364218E+02
 0.56069680007E+02 0.50266048786E+02 0.42239541215E+02 0.33151834335E+02 0.23888220239E+02
 0.15624940723E+02 0.96491426040E+01 0.63527023561E+01 0.48623076342E+01 0.44550921530E+01
 0.48664521881E+01 0.63524750935E+01 0.96415126368E+01 0.15620136377E+02 0.23899024770E+02
 0.33177578886E+02 0.42265835782E+02 0.50280581292E+02 0.56073364218E+02 0.58233217993E+02
 0.40642809186E+02 0.34198505908E+02 0.26581169405E+02 0.18885007995E+02 0.12373057408E+02
 0.79583026725E+01 0.55513066303E+01 0.43982303428E+01 0.40829598251E+01 0.44000584420E+01
 0.55508495226E+01 0.79496197444E+01 0.12354751090E+02 0.18866845371E+02 0.26581303824E+02
 0.34228200642E+02 0.40691285665E+02 0.45055110793E+02 0.46594179003E+02 0.45017762112E+02
 0.34198505908E+02 0.27498645456E+02 0.20310130405E+02 0.13814381279E+02 0.90114721695E+01
 0.61499943291E+01 0.46330670399E+01 0.40224297386E+01 0.40280989302E+01 0.46421715013E+01