   1   1   0   0
  0.1600000E+02  0.2828427E-09  0.2828427E-09  0.2828427E-09  0.5000000E-15
  1.000000000000000E-004
  CAR 
 FCC Au                                  
     38.86218133     -6.16006415  301      6.43143437      1.00000000
     -6.160  0.0000E+00  0.0000E+00
     -6.010  0.0000E+00  0.0000E+00
     -5.860 -0.5086E-34 -0.7633E-35
     -5.710 -0.1299E-28 -0.1950E-29
     -5.560 -0.1067E-23 -0.1601E-24
     -5.410 -0.2811E-19 -0.4219E-20
     -5.260 -0.2295E-15 -0.3445E-16
     -5.110 -0.6111E-12 -0.9175E-13
     -4.959 -0.5119E-09 -0.7691E-10
     -4.809 -0.1329E-06 -0.2002E-07
     -4.659 -0.1035E-04 -0.1573E-05
     -4.509 -0.2203E-03 -0.3463E-04
     -4.359 -0.8294E-03 -0.1591E-03
     -4.209  0.3363E-02  0.3456E-03
     -4.059  0.1499E-01  0.2595E-02
     -3.909  0.3415E-01  0.7720E-02
     -3.759  0.5114E-01  0.1539E-01
     -3.609  0.5107E-01  0.2306E-01
     -3.459  0.5627E-01  0.3150E-01
     -3.309  0.7482E-01  0.4273E-01
     -3.159  0.1019E+00  0.5803E-01
     -3.009  0.9079E-01  0.7166E-01
     -2.858  0.6062E-01  0.8075E-01
     -2.708  0.1056E+00  0.9660E-01
     -2.558  0.1658E+00  0.1215E+00
     -2.408  0.1411E+00  0.1427E+00
     -2.258  0.9838E-01  0.1574E+00
     -2.108  0.1671E+00  0.1825E+00
     -1.958  0.1946E+00  0.2117E+00
     -1.808  0.1810E+00  0.2389E+00
     -1.658  0.2725E+00  0.2798E+00
     -1.508  0.4470E+00  0.3469E+00
     -1.358  0.5880E+00  0.4351E+00
     -1.208  0.6429E+00  0.5316E+00
     -1.058  0.9648E+00  0.6764E+00
     -0.907  0.1207E+01  0.8576E+00
     -0.757  0.1507E+01  0.1084E+01
     -0.607  0.1682E+01  0.1336E+01
     -0.457  0.1682E+01  0.1589E+01
     -0.307  0.1655E+01  0.1837E+01
     -0.157  0.1395E+01  0.2046E+01
     -0.007  0.1472E+01  0.2267E+01
      0.143  0.1250E+01  0.2455E+01
      0.293  0.1001E+01  0.2605E+01
      0.443  0.1422E+01  0.2818E+01
      0.593  0.1643E+01  0.3065E+01
      0.743  0.1727E+01  0.3324E+01
      0.893  0.1629E+01  0.3568E+01
      1.043  0.1713E+01  0.3825E+01
      1.194  0.2028E+01  0.4130E+01
      1.344  0.1963E+01  0.4424E+01
      1.494  0.2078E+01  0.4736E+01
      1.644  0.2665E+01  0.5136E+01
      1.794  0.2967E+01  0.5581E+01
      1.944  0.2128E+01  0.5901E+01
      2.094  0.1522E+01  0.6129E+01
      2.244  0.1302E+01  0.6325E+01
      2.394  0.1471E+01  0.6545E+01
      2.544  0.1461E+01  0.6765E+01
      2.694  0.1731E+01  0.7024E+01
      2.844  0.2001E+01  0.7325E+01
      2.994  0.1771E+01  0.7590E+01
      3.145  0.1492E+01  0.7814E+01
      3.295  0.1848E+01  0.8092E+01
      3.445  0.1587E+01  0.8330E+01
      3.595  0.1083E+01  0.8492E+01
      3.745  0.1552E+01  0.8725E+01
      3.895  0.1540E+01  0.8956E+01
      4.045  0.1450E+01  0.9174E+01
      4.195  0.2095E+01  0.9488E+01
      4.345  0.2359E+01  0.9842E+01
      4.495  0.2148E+01  0.1016E+02
      4.645  0.1539E+01  0.1040E+02
      4.795  0.1077E+01  0.1056E+02
      4.945  0.4858E+00  0.1063E+02
      5.095  0.3698E-01  0.1064E+02
      5.246  0.4435E-01  0.1064E+02
      5.396  0.2877E+00  0.1069E+02
      5.546  0.4839E+00  0.1076E+02
      5.696  0.3783E+00  0.1081E+02
      5.846  0.1776E+00  0.1084E+02
      5.996  0.1557E+00  0.1086E+02
      6.146  0.3315E+00  0.1091E+02
      6.296  0.3571E+00  0.1097E+02
      6.446  0.2330E+00  0.1100E+02
      6.596  0.2354E+00  0.1104E+02
      6.746  0.2012E+00  0.1107E+02
      6.896  0.1789E+00  0.1110E+02
      7.046  0.3918E+00  0.1115E+02
      7.197  0.3894E+00  0.1121E+02
      7.347  0.3232E+00  0.1126E+02
      7.497  0.2422E+00  0.1130E+02
      7.647  0.1784E+00  0.1132E+02
      7.797  0.1446E+00  0.1135E+02
      7.947  0.2128E+00  0.1138E+02
      8.097  0.3254E+00  0.1143E+02
      8.247  0.3855E+00  0.1148E+02
      8.397  0.2742E+00  0.1153E+02
      8.547  0.2014E+00  0.1156E+02
      8.697  0.1596E+00  0.1158E+02
      8.847  0.1682E+00  0.1161E+02
      8.997  0.3384E+00  0.1166E+02
      9.147  0.2482E+00  0.1169E+02
      9.298  0.2151E+00  0.1173E+02
      9.448  0.2452E+00  0.1176E+02
      9.598  0.9193E-01  0.1178E+02
      9.748  0.2215E+00  0.1181E+02
      9.898  0.5699E+00  0.1189E+02
     10.048  0.5755E+00  0.1198E+02
     10.198  0.2152E+00  0.1201E+02
     10.348  0.1835E+00  0.1204E+02
     10.498  0.2775E+00  0.1208E+02
     10.648  0.3761E+00  0.1214E+02
     10.798  0.3847E+00  0.1220E+02
     10.948  0.3118E+00  0.1224E+02
     11.098  0.2572E+00  0.1228E+02
     11.249  0.1605E+00  0.1231E+02
     11.399  0.1474E+00  0.1233E+02
     11.549  0.3769E+00  0.1239E+02
     11.699  0.4302E+00  0.1245E+02
     11.849  0.3284E+00  0.1250E+02
     11.999  0.2615E+00  0.1254E+02
     12.149  0.2413E+00  0.1257E+02
     12.299  0.3772E+00  0.1263E+02
     12.449  0.4688E+00  0.1270E+02
     12.599  0.3267E+00  0.1275E+02
     12.749  0.3045E+00  0.1280E+02
     12.899  0.3506E+00  0.1285E+02
     13.049  0.2488E+00  0.1289E+02
     13.200  0.1719E+00  0.1291E+02
     13.350  0.3606E+00  0.1297E+02
     13.500  0.5054E+00  0.1304E+02
     13.650  0.2046E+00  0.1307E+02
     13.800  0.4889E-01  0.1308E+02
     13.950  0.1472E+00  0.1310E+02
     14.100  0.3616E+00  0.1316E+02
     14.250  0.3386E+00  0.1321E+02
     14.400  0.2555E+00  0.1325E+02
     14.550  0.4784E+00  0.1332E+02
     14.700  0.5405E+00  0.1340E+02
     14.850  0.5305E+00  0.1348E+02
     15.000  0.4777E+00  0.1355E+02
     15.150  0.1337E+00  0.1357E+02
     15.301 -0.6329E-02  0.1357E+02
     15.451  0.2332E+00  0.1360E+02
     15.601  0.4840E+00  0.1368E+02
     15.751  0.3526E+00  0.1373E+02
     15.901  0.2592E+00  0.1377E+02
     16.051  0.3676E+00  0.1382E+02
     16.201  0.5078E+00  0.1390E+02
     16.351  0.4289E+00  0.1396E+02
     16.501  0.3450E+00  0.1402E+02
     16.651  0.4919E+00  0.1409E+02
     16.801  0.4593E+00  0.1416E+02
     16.951  0.4182E+00  0.1422E+02
     17.101  0.5249E+00  0.1430E+02
     17.252  0.3722E+00  0.1436E+02
     17.402  0.3783E+00  0.1441E+02
     17.552  0.6778E+00  0.1451E+02
     17.702  0.6486E+00  0.1461E+02
     17.852  0.2432E+00  0.1465E+02
     18.002  0.2230E+00  0.1468E+02
     18.152  0.3431E+00  0.1473E+02
     18.302  0.5873E+00  0.1482E+02
     18.452  0.6962E+00  0.1493E+02
     18.602  0.6681E+00  0.1503E+02
     18.752  0.6899E+00  0.1513E+02
     18.902  0.4710E+00  0.1520E+02
     19.052  0.1798E+00  0.1523E+02
     19.202  0.2203E+00  0.1526E+02
     19.353  0.4627E+00  0.1533E+02
     19.503  0.6285E+00  0.1542E+02
     19.653  0.4522E+00  0.1549E+02
     19.803  0.3924E+00  0.1555E+02
     19.953  0.4899E+00  0.1562E+02
     20.103  0.4771E+00  0.1570E+02
     20.253  0.4801E+00  0.1577E+02
     20.403  0.6344E+00  0.1586E+02
     20.553  0.4654E+00  0.1593E+02
     20.703  0.4106E+00  0.1599E+02
     20.853  0.5632E+00  0.1608E+02
     21.003  0.6095E+00  0.1617E+02
     21.153  0.5704E+00  0.1626E+02
     21.304  0.7448E+00  0.1637E+02
     21.454  0.7055E+00  0.1647E+02
     21.604  0.3390E+00  0.1652E+02
     21.754  0.2370E+00  0.1656E+02
     21.904  0.5045E+00  0.1664E+02
     22.054  0.7361E+00  0.1675E+02
     22.204  0.5332E+00  0.1683E+02
     22.354  0.5710E+00  0.1691E+02
     22.504  0.7726E+00  0.1703E+02
     22.654  0.7274E+00  0.1714E+02
     22.804  0.6748E+00  0.1724E+02
     22.954  0.4441E+00  0.1731E+02
     23.104  0.3092E+00  0.1735E+02
     23.254  0.4622E+00  0.1742E+02
     23.405  0.4180E+00  0.1748E+02
     23.555  0.2655E+00  0.1752E+02
     23.705  0.3277E+00  0.1757E+02
     23.855  0.3713E+00  0.1763E+02
     24.005  0.5535E+00  0.1771E+02
     24.155  0.9565E+00  0.1786E+02
     24.305  0.8812E+00  0.1799E+02
     24.455  0.6254E+00  0.1808E+02
     24.605  0.5968E+00  0.1817E+02
     24.755  0.6150E+00  0.1826E+02
     24.905  0.7576E+00  0.1838E+02
     25.055  0.8510E+00  0.1850E+02
     25.205  0.8279E+00  0.1863E+02
     25.356  0.8969E+00  0.1876E+02
     25.506  0.8766E+00  0.1889E+02
     25.656  0.5604E+00  0.1898E+02
     25.806  0.3370E+00  0.1903E+02
     25.956  0.3984E+00  0.1909E+02
     26.106  0.8045E+00  0.1921E+02
     26.256  0.1010E+01  0.1936E+02
     26.406  0.7169E+00  0.1947E+02
     26.556  0.4286E+00  0.1953E+02
     26.706  0.3920E+00  0.1959E+02
     26.856  0.3767E+00  0.1965E+02
     27.006  0.5467E+00  0.1973E+02
     27.156  0.6507E+00  0.1983E+02
     27.306  0.5261E+00  0.1991E+02
     27.457  0.4673E+00  0.1998E+02
     27.607  0.4564E+00  0.2005E+02
     27.757  0.3441E+00  0.2010E+02
     27.907  0.1817E+00  0.2013E+02
     28.057  0.2595E+00  0.2016E+02
     28.207  0.4349E+00  0.2023E+02
     28.357  0.5591E+00  0.2031E+02
     28.507  0.5512E+00  0.2040E+02
     28.657  0.3294E+00  0.2045E+02
     28.807  0.1604E+00  0.2047E+02
     28.957  0.1949E+00  0.2050E+02
     29.107  0.2773E+00  0.2054E+02
     29.257  0.5740E+00  0.2063E+02
     29.408  0.5323E+00  0.2071E+02
     29.558  0.2992E+00  0.2075E+02
     29.708  0.3187E+00  0.2080E+02
     29.858  0.6659E+00  0.2090E+02
     30.008  0.8047E+00  0.2102E+02
     30.158  0.5144E+00  0.2110E+02
     30.308  0.1965E+00  0.2113E+02
     30.458  0.5404E-01  0.2113E+02
     30.608  0.2867E+00  0.2118E+02
     30.758  0.5365E+00  0.2126E+02
     30.908  0.5473E+00  0.2134E+02
     31.058  0.5513E+00  0.2142E+02
     31.208  0.5915E+00  0.2151E+02
     31.358  0.5413E+00  0.2159E+02
     31.509  0.4737E+00  0.2166E+02
     31.659  0.8626E+00  0.2179E+02
     31.809  0.8126E+00  0.2192E+02
     31.959  0.5699E+00  0.2200E+02
     32.109  0.5416E+00  0.2208E+02
     32.259  0.5668E+00  0.2217E+02
     32.409  0.6311E+00  0.2226E+02
     32.559  0.6562E+00  0.2236E+02
     32.709  0.7221E+00  0.2247E+02
     32.859  0.7638E+00  0.2258E+02
     33.009  0.6866E+00  0.2269E+02
     33.159  0.4920E+00  0.2276E+02
     33.309  0.7381E+00  0.2287E+02
     33.460  0.9397E+00  0.2301E+02
     33.610  0.7110E+00  0.2312E+02
     33.760  0.5890E+00  0.2321E+02
     33.910  0.6771E+00  0.2331E+02
     34.060  0.6380E+00  0.2340E+02
     34.210  0.3480E+00  0.2346E+02
     34.360  0.4996E+00  0.2353E+02
     34.510  0.6934E+00  0.2364E+02
     34.660  0.4159E+00  0.2370E+02
     34.810  0.2424E+00  0.2373E+02
     34.960  0.2149E+00  0.2377E+02
     35.110  0.5466E-01  0.2378E+02
     35.260  0.1091E+00  0.2379E+02
     35.410  0.2723E+00  0.2383E+02
     35.561  0.3333E+00  0.2388E+02
     35.711  0.2369E+00  0.2392E+02
     35.861  0.2300E+00  0.2395E+02
     36.011  0.9020E-01  0.2397E+02
     36.161 -0.1038E-01  0.2396E+02
     36.311 -0.3605E-02  0.2396E+02
     36.461  0.2993E-01  0.2397E+02
     36.611  0.5592E-01  0.2398E+02
     36.761  0.7812E-01  0.2399E+02
     36.911  0.6782E-01  0.2400E+02
     37.061  0.1276E-01  0.2400E+02
     37.211 -0.3274E-02  0.2400E+02
     37.361 -0.7304E-03  0.2400E+02
     37.512 -0.3234E-04  0.2400E+02
     37.662 -0.4057E-06  0.2400E+02
     37.812 -0.1547E-08  0.2400E+02
     37.962 -0.1839E-11  0.2400E+02
     38.112 -0.6924E-15  0.2400E+02
     38.262  0.0000E+00  0.2400E+02
     38.412  0.0000E+00  0.2400E+02
     38.562  0.0000E+00  0.2400E+02
     38.712  0.0000E+00  0.2400E+02
     38.862  0.0000E+00  0.2400E+02
