    1    1    1    1
  0.1600000E+02  0.2828427E-09  0.2828427E-09  0.2828427E-09  0.5000000E-15
  1.000000000000000E-004
  CAR 
 FCC Au                                  
     11    110     12
 
  0.5000000E-01  0.5000000E-01  0.5000000E-01  0.2000000E-02
    1       -4.113598   1.000000
    2        1.310657   1.000000
    3        1.375979   1.000000
    4        1.375979   1.000000
    5        3.046774   1.000000
    6        3.046774   1.000000
    7       21.847010   0.000000
    8       25.273831   0.000000
    9       26.065149   0.000000
   10       26.065149   0.000000
   11       31.030554   0.000000
   12       34.539805   0.000000
 
  0.1500000E+00  0.5000000E-01  0.5000000E-01  0.6000000E-02
    1       -3.633005   1.000000
    2        1.138845   1.000000
    3        1.529192   1.000000
    4        1.565297   1.000000
    5        2.881728   1.000000
    6        3.102043   1.000000
    7       22.292632   0.000000
    8       23.273598   0.000000
    9       25.775639   0.000000
   10       27.053709   0.000000
   11       30.702061   0.000000
   12       33.421041   0.000000
 
  0.2500000E+00  0.5000000E-01  0.5000000E-01  0.6000000E-02
    1       -2.599682   1.000000
    2        1.003133   1.000000
    3        1.697068   1.000000
    4        1.722092   1.000000
    5        2.888649   1.000000
    6        3.338422   1.000000
    7       19.491848   0.000000
    8       22.935965   0.000000
    9       26.102282   0.000000
   10       28.476685   0.000000
   11       28.535229   0.000000
   12       31.161752   0.000000
 
  0.3500000E+00  0.5000000E-01  0.5000000E-01  0.6000000E-02
    1       -1.695516   1.000000
    2        1.495398   1.000000
    3        1.593307   1.000000
    4        1.718828   1.000000
    5        3.430222   1.000000
    6        3.968592   1.000000
    7       15.428486   0.000000
    8       22.198002   0.000000
    9       25.167773   0.000000
   10       27.478911   0.000000
   11       29.681049   0.000000
   12       30.911394   0.000000
 
  0.4500000E+00  0.5000000E-01  0.5000000E-01  0.6000000E-02
    1       -1.484891   1.000000
    2        1.328614   1.000000
    3        1.407284   1.000000
    4        3.328734   1.000000
    5        4.099246   1.000000
    6        4.868916   1.000000
    7       11.569786  -0.000000
    8       21.353981   0.000000
    9       24.146665   0.000000
   10       25.292542   0.000000
   11       31.681952   0.000000
   12       32.051269   0.000000
 
 -0.4500000E+00  0.5000000E-01  0.5000000E-01  0.6000000E-02
    1       -1.484808   1.000000
    2        1.254379   1.000000
    3        1.362387   1.000000
    4        3.819874   1.000000
    5        4.421527   1.000000
    6        5.666791   1.000000
    7        9.899474  -0.000000
    8       21.122710   0.000000
    9       24.184943   0.000000
   10       24.297848   0.000000
   11       32.265929   0.000000
   12       32.353245   0.000000
 
 -0.3500000E+00  0.5000000E-01  0.5000000E-01  0.6000000E-02
    1       -1.507427   1.000000
    2        1.362139   1.000000
    3        1.485407   1.000000
    4        2.718547   1.000000
    5        4.192871   1.000000
    6        4.289723   1.000000
    7       12.770400   0.000000
    8       21.603269   0.000000
    9       24.655482   0.000000
   10       25.527628   0.000000
   11       31.632520   0.000000
   12       31.734096   0.000000
 
 -0.2500000E+00  0.5000000E-01  0.5000000E-01  0.6000000E-02
    1       -1.920353   1.000000
    2        1.270885   1.000000
    3        1.607680   1.000000
    4        1.677755   1.000000
    5        3.326608   1.000000
    6        3.629688   1.000000
    7       16.799838   0.000000
    8       22.588514   0.000000
    9       25.712347   0.000000
   10       27.602980   0.000000
   11       29.383840   0.000000
   12       31.182358   0.000000
 
 -0.1500000E+00  0.5000000E-01  0.5000000E-01  0.6000000E-02
    1       -2.978023   1.000000
    2        0.993397   1.000000
    3        1.688637   1.000000
    4        1.703106   1.000000
    5        2.841666   1.000000
    6        3.203339   1.000000
    7       20.769245   0.000000
    8       22.992528   0.000000
    9       26.096817   0.000000
   10       27.554051   0.000000
   11       29.367967   0.000000
   12       31.944664   0.000000
 
 -0.5000000E-01  0.5000000E-01  0.5000000E-01  0.6000000E-02
    1       -3.868986   1.000000
    2        1.189648   1.000000
    3        1.482047   1.000000
    4        1.488156   1.000000
    5        2.908382   1.000000
    6        3.111042   1.000000
    7       22.129611   0.000000
    8       24.346934   0.000000
    9       25.862113   0.000000
   10       26.218023   0.000000
   11       31.811193   0.000000
   12       33.696138   0.000000
 
  0.1500000E+00  0.1500000E+00  0.5000000E-01  0.6000000E-02
    1       -3.394649   1.000000
    2        0.950353   1.000000
    3        1.703532   1.000000
    4        1.707660   1.000000
    5        2.663749   1.000000
    6        3.234084   1.000000
    7       22.618263   0.000000
    8       23.461667   0.000000
    9       25.281423   0.000000
   10       25.857096   0.000000
   11       31.235654   0.000000
   12       32.777572   0.000000
 
  0.2500000E+00  0.1500000E+00  0.5000000E-01  0.1200000E-01
    1       -2.534501   1.000000
    2        0.674729   1.000000
    3        1.806583   1.000000
    4        2.012739   1.000000
    5        2.600061   1.000000
    6        3.478264   1.000000
    7       21.035690   0.000000
    8       22.821889   0.000000
    9       24.804873   0.000000
   10       26.088259   0.000000
   11       29.194635   0.000000
   12       31.911522   0.000000
 
  0.3500000E+00  0.1500000E+00  0.5000000E-01  0.1200000E-01
    1       -1.490846   1.000000
    2        0.764662   1.000000
    3        1.470160   1.000000
    4        2.022117   1.000000
    5        3.328626   1.000000
    6        4.113906   1.000000
    7       17.035107   0.000000
    8       22.294466   0.000000
    9       23.741510   0.000000
   10       26.110615   0.000000
   11       29.833054   0.000000
   12       31.549337   0.000000
 
  0.4500000E+00  0.1500000E+00  0.5000000E-01  0.1200000E-01
    1       -1.107946   1.000000
    2        1.135516   1.000000
    3        1.718566   1.000000
    4        1.894673   1.000000
    5        4.167853   1.000000
    6        5.353325   1.000000
    7       12.945062   0.000000
    8       21.661656   0.000000
    9       22.542961   0.000000
   10       24.780132   0.000000
   11       31.600843   0.000000
   12       32.836713   0.000000
 
 -0.4500000E+00  0.1500000E+00  0.5000000E-01  0.1200000E-01
    1       -1.092177   1.000000
    2        0.993691   1.000000
    3        1.691034   1.000000
    4        2.676024   1.000000
    5        4.366240   1.000000
    6        7.227164  -0.000000
    7        9.861171  -0.000000
    8       21.166800   0.000000
    9       22.216720   0.000000
   10       23.896911   0.000000
   11       32.215362   0.000000
   12       33.221440   0.000000
 
 -0.3500000E+00  0.1500000E+00  0.5000000E-01  0.1200000E-01
    1       -1.070046   1.000000
    2        1.083747   1.000000
    3        1.718504   1.000000
    4        2.314201   1.000000
    5        4.006648   1.000000
    6        6.093411   1.018980
    7       11.780926  -0.000000
    8       20.977732   0.000000
    9       22.495184   0.000000
   10       24.942112   0.000000
   11       31.259757   0.000000
   12       32.911299   0.000000
 
 -0.2500000E+00  0.1500000E+00  0.5000000E-01  0.1200000E-01
    1       -1.243465   1.000000
    2        1.072196   1.000000
    3        1.409418   1.000000
    4        1.927133   1.000000
    5        3.233529   1.000000
    6        4.701566   1.000000
    7       15.670396   0.000000
    8       21.308898   0.000000
    9       23.590613   0.000000
   10       27.018706   0.000000
   11       29.298681   0.000000
   12       31.981810   0.000000
 
 -0.1500000E+00  0.1500000E+00  0.5000000E-01  0.1200000E-01
    1       -2.162765   1.000000
    2        0.721122   1.000000
    3        1.687938   1.000000
    4        2.037860   1.000000
    5        2.595034   1.000000
    6        3.764001   1.000000
    7       19.629792   0.000000
    8       21.968524   0.000000
    9       25.337985   0.000000
   10       26.374634   0.000000
   11       30.109501   0.000000
   12       30.951038   0.000000
 
 -0.5000000E-01  0.1500000E+00  0.5000000E-01  0.1200000E-01
    1       -3.175761   1.000000
    2        0.953276   1.000000
    3        1.704693   1.000000
    4        1.716449   1.000000
    5        2.707401   1.000000
    6        3.243730   1.000000
    7       21.985234   0.000000
    8       22.803614   0.000000
    9       25.354056   0.000000
   10       27.190600   0.000000
   11       29.741504   0.000000
   12       32.857765   0.000000
 
  0.2500000E+00  0.2500000E+00  0.5000000E-01  0.6000000E-02
    1       -1.965375   1.000000
    2        0.282737   1.000000
    3        1.970838   1.000000
    4        2.433965   1.000000
    5        2.642359   1.000000
    6        3.613220   1.000000
    7       21.551563   0.000000
    8       22.741863   0.000000
    9       23.657048   0.000000
   10       24.582641   0.000000
   11       26.275300   0.000000
   12       33.254923   0.000000
 
  0.3500000E+00  0.2500000E+00  0.5000000E-01  0.1200000E-01
    1       -1.143182   1.000000
    2        0.035321   1.000000
    3        1.683946   1.000000
    4        2.817642   1.000000
    5        3.366218   1.000000
    6        4.139663   1.000000
    7       18.793193   0.000000
    8       20.791254   0.000000
    9       22.418249   0.000000
   10       25.198899   0.000000
   11       26.624262   0.000000
   12       33.358007   0.000000
 
  0.4500000E+00  0.2500000E+00  0.5000000E-01  0.1200000E-01
    1       -0.671710   1.000000
    2        0.313582   1.000000
    3        1.413915   1.000000
    4        2.668184   1.000000
    5        4.266412   1.000000
    6        5.652038   1.000000
    7       14.593679   0.000000
    8       20.106527   0.000000
    9       20.641625   0.000000
   10       24.757805   0.000000
   11       29.897959   0.000000
   12       33.409166   0.000000
 
 -0.4500000E+00  0.2500000E+00  0.5000000E-01  0.1200000E-01
    1       -0.547455   1.000000
    2        0.596222   1.000000
    3        1.627252   1.000000
    4        2.446691   1.000000
    5        4.405254   1.000000
    6        8.218224  -0.000000
    7       10.892432  -0.000000
    8       18.794908   0.000000
    9       20.712059   0.000000
   10       24.252557   0.000000
   11       32.488970   0.000000
   12       34.238901   0.000000
 
 -0.3500000E+00  0.2500000E+00  0.5000000E-01  0.1200000E-01
    1       -0.357910   1.000000
    2        0.669363   1.000000
    3        1.642565   1.000000
    4        2.331592   1.000000
    5        3.955619   1.000000
    6        8.051974  -0.000000
    7       11.474701  -0.000000
    8       17.667789   0.000000
    9       21.936426   0.000000
   10       24.434282   0.000000
   11       31.566084   0.000000
   12       34.010145   0.000000
 
 -0.2500000E+00  0.2500000E+00  0.5000000E-01  0.1200000E-01
    1       -0.259441   1.000000
    2        0.760806   1.000000
    3        1.031306   1.000000
    4        2.419718   1.000000
    5        3.190462   1.000000
    6        6.213033   1.032229
    7       14.952794   0.000000
    8       17.604449   0.000000
    9       23.097959   0.000000
   10       26.081288   0.000000
   11       29.208867   0.000000
   12       33.881955   0.000000
 
 -0.1500000E+00  0.2500000E+00  0.5000000E-01  0.1200000E-01
    1       -1.070126   1.000000
    2        0.633689   1.000000
    3        1.381179   1.000000
    4        2.288294   1.000000
    5        2.747409   1.000000
    6        4.802902   1.000000
    7       17.140194   0.000000
    8       19.909284   0.000000
    9       24.068068   0.000000
   10       27.215918   0.000000
   11       28.575243   0.000000
   12       32.561960   0.000000
 
 -0.5000000E-01  0.2500000E+00  0.5000000E-01  0.1200000E-01
    1       -2.079676   1.000000
    2        0.917507   1.000000
    3        1.660427   1.000000
    4        1.826920   1.000000
    5        2.954432   1.000000
    6        3.685173   1.000000
    7       18.254585   0.000000
    8       22.736822   0.000000
    9       25.082375   0.000000
   10       27.464308   0.000000
   11       29.485294   0.000000
   12       30.764852   0.000000
 
  0.3500000E+00  0.3500000E+00  0.5000000E-01  0.6000000E-02
    1       -1.017884   1.000000
    2       -0.380354   1.000000
    3        2.631303   1.000000
    4        3.404439   1.000000
    5        3.855058   1.000000
    6        4.073254   1.000000
    7       18.739169   0.000000
    8       19.690490   0.000000
    9       20.068069   0.000000
   10       24.042020   0.000000
   11       25.985071   0.000000
   12       35.789319   0.000000
 
  0.4500000E+00  0.3500000E+00  0.5000000E-01  0.1200000E-01
    1       -0.876315   1.000000
    2       -0.498707   1.000000
    3        2.692304   1.000000
    4        3.735184   1.000000
    5        4.282458   1.000000
    6        5.680370   1.000001
    7       15.846507   0.000000
    8       17.981870   0.000000
    9       18.603060   0.000000
   10       25.108284   0.000000
   11       27.053608   0.000000
   12       35.402255   0.000000
 
 -0.4500000E+00  0.3500000E+00  0.5000000E-01  0.1200000E-01
    1       -0.698652   1.000000
    2       -0.160014   1.000000
    3        2.301950   1.000000
    4        3.397026   1.000000
    5        4.515491   1.000000
    6        8.450202  -0.000000
    7       12.468216   0.000000
    8       16.267233   0.000000
    9       18.695323   0.000000
   10       25.297171   0.000000
   11       29.875090   0.000000
   12       34.385295   0.000000
 
 -0.3500000E+00  0.3500000E+00  0.5000000E-01  0.1200000E-01
    1       -0.377616   1.000000
    2        0.391689   1.000000
    3        1.705226   1.000000
    4        3.030349   1.000000
    5        4.149266   1.000000
    6        9.721942  -0.000000
    7       11.902917   0.000000
    8       14.556888   0.000000
    9       20.119971   0.000000
   10       24.985891   0.000000
   11       32.934692   0.000000
   12       33.531368   0.000000
 
 -0.2500000E+00  0.3500000E+00  0.5000000E-01  0.1200000E-01
    1       -0.059615   1.000000
    2        0.712265   1.000000
    3        1.161582   1.000000
    4        2.632785   1.000000
    5        3.689374   1.000000
    6        7.886289  -0.000000
    7       13.388127   0.000000
    8       15.556430   0.000000
    9       21.969709   0.000000
   10       24.837029   0.000000
   11       31.151423   0.000000
   12       34.240590   0.000000
 
 -0.1500000E+00  0.3500000E+00  0.5000000E-01  0.1200000E-01
    1       -0.681641   1.000000
    2        0.971462   1.000000
    3        1.499613   1.000000
    4        2.082239   1.000000
    5        3.591628   1.000000
    6        6.180232   1.035314
    7       13.329858   0.000000
    8       19.359804   0.000000
    9       22.772921   0.000000
   10       25.534403   0.000000
   11       30.130325   0.000000
   12       33.360632   0.000000
 
 -0.5000000E-01  0.3500000E+00  0.5000000E-01  0.1200000E-01
    1       -1.418296   1.000000
    2        1.363855   1.000000
    3        1.638227   1.000000
    4        1.877908   1.000000
    5        3.735066   1.000000
    6        4.505874   1.000000
    7       14.144332   0.000000
    8       21.915820   0.000000
    9       23.880029   0.000000
   10       26.269560   0.000000
   11       30.578254   0.000000
   12       31.722246   0.000000
 
  0.4500000E+00  0.4500000E+00  0.5000000E-01  0.6000000E-02
    1       -1.166130   1.000000
    2       -0.815244   1.000000
    3        4.148005   1.000000
    4        4.173507   1.000000
    5        4.553373   1.000000
    6        6.105762   1.021760
    7       14.529836   0.000000
    8       17.142982   0.000000
    9       17.466506   0.000000
   10       24.427340   0.000000
   11       26.927808   0.000000
   12       36.703604   0.000000
 
 -0.4500000E+00  0.4500000E+00  0.5000000E-01  0.1200000E-01
    1       -1.089626   1.000000
    2       -0.759620   1.000000
    3        3.715521   1.000000
    4        4.116678   1.000000
    5        4.716458   1.000000
    6        8.212472  -0.000000
    7       12.604474   0.000000
    8       16.094684   0.000000
    9       17.063944   0.000000
   10       25.420871   0.000000
   11       27.483845   0.000000
   12       35.804806   0.000000
 
 -0.3500000E+00  0.4500000E+00  0.5000000E-01  0.1200000E-01
    1       -0.759505   1.000000
    2       -0.258204   1.000000
    3        2.619044   1.000000
    4        3.587273   1.000000
    5        4.509742   1.000000
    6        9.910914  -0.000000
    7       11.595305  -0.000000
    8       14.888326   0.000000
    9       18.329021   0.000000
   10       25.525919   0.000000
   11       29.898997   0.000000
   12       34.516301   0.000000
 
 -0.2500000E+00  0.4500000E+00  0.5000000E-01  0.1200000E-01
    1       -0.410972   1.000000
    2        0.441734   1.000000
    3        1.658883   1.000000
    4        2.784602   1.000000
    5        4.287788   1.000000
    6        9.877084  -0.000000
    7       10.304085  -0.000000
    8       16.610113   0.000000
    9       20.317385   0.000000
   10       24.671837   0.000000
   11       32.685957   0.000000
   12       33.917377   0.000000
 
 -0.1500000E+00  0.4500000E+00  0.5000000E-01  0.1200000E-01
    1       -0.747557   1.000000
    2        0.799283   1.000000
    3        1.982544   1.000000
    4        2.168779   1.000000
    5        4.221477   1.000000
    6        8.124648  -0.000000
    7        9.994193  -0.000000
    8       19.723065   0.000000
    9       21.897943   0.000000
   10       23.985420   0.000000
   11       32.028696   0.000000
   12       33.659174   0.000000
 
 -0.5000000E-01  0.4500000E+00  0.5000000E-01  0.1200000E-01
    1       -1.344270   1.000000
    2        1.185323   1.000000
    3        1.492177   1.000000
    4        3.129850   1.000000
    5        4.314083   1.000000
    6        5.909151   1.000694
    7       10.572199  -0.000000
    8       21.304732   0.000000
    9       23.313566   0.000000
   10       24.484205   0.000000
   11       32.067772   0.000000
   12       32.596262   0.000000
 
 -0.4500000E+00 -0.4500000E+00  0.5000000E-01  0.6000000E-02
    1       -1.250551   1.000000
    2       -0.907723   1.000000
    3        4.306010   1.000000
    4        4.479489   1.000000
    5        4.730956   1.000000
    6        7.315471  -0.000000
    7       12.884051   0.000000
    8       16.591339   0.000000
    9       16.955584   0.000000
   10       24.592960   0.000000
   11       27.123063   0.000000
   12       36.480670   0.000000
 
 -0.3500000E+00 -0.4500000E+00  0.5000000E-01  0.1200000E-01
    1       -1.002697   1.000000
    2       -0.670869   1.000000
    3        3.310484   1.000000
    4        4.039981   1.000000
    5        4.542959   1.000000
    6        6.983142  -0.000338
    7       14.101836   0.000000
    8       16.743692   0.000000
    9       17.566817   0.000000
   10       25.276355   0.000000
   11       27.333916   0.000000
   12       35.767172   0.000000
 
 -0.2500000E+00 -0.4500000E+00  0.5000000E-01  0.1200000E-01
    1       -0.631138   1.000000
    2        0.039320   1.000000
    3        1.830939   1.000000
    4        3.057516   1.000000
    5        4.460713   1.000000
    6        6.947812  -0.000797
    7       13.457858   0.000000
    8       18.230951   0.000000
    9       19.422819   0.000000
   10       24.969997   0.000000
   11       29.868383   0.000000
   12       34.031117   0.000000
 
 -0.1500000E+00 -0.4500000E+00  0.5000000E-01  0.1200000E-01
    1       -0.798986   1.000000
    2        0.852469   1.000000
    3        1.658341   1.000000
    4        2.122786   1.000000
    5        4.386324   1.000000
    6        6.636158  -0.027408
    7       11.843098  -0.000000
    8       20.832028   0.000000
    9       21.267148   0.000000
   10       24.099143   0.000000
   11       32.193228   0.000000
   12       33.938881   0.000000
 
 -0.3500000E+00 -0.3500000E+00  0.5000000E-01  0.6000000E-02
    1       -1.044896   1.000000
    2       -0.635752   1.000000
    3        3.489428   1.000000
    4        3.859937   1.000000
    5        4.307113   1.000000
    6        4.801163   1.000000
    7       16.735276   0.000000
    8       18.231357   0.000000
    9       18.413294   0.000000
   10       24.197024   0.000000
   11       26.539665   0.000000
   12       36.815716   0.000000
 
 -0.2500000E+00 -0.3500000E+00  0.5000000E-01  0.1200000E-01
    1       -0.845578   1.000000
    2       -0.256799   1.000000
    3        2.041998   1.000000
    4        3.287838   1.000000
    5        3.908352   1.000000
    6        4.704120   1.000000
    7       17.407859   0.000000
    8       19.390561   0.000000
    9       20.358065   0.000000
   10       25.062232   0.000000
   11       26.708690   0.000000
   12       34.503064   0.000000
 
 -0.1500000E+00 -0.3500000E+00  0.5000000E-01  0.1200000E-01
    1       -0.964289   1.000000
    2        0.574047   1.000000
    3        1.289927   1.000000
    4        2.308688   1.000000
    5        3.868692   1.000000
    6        4.701431   1.000000
    7       15.808019   0.000000
    8       21.373469   0.000000
    9       22.350465   0.000000
   10       25.018099   0.000000
   11       29.922179   0.000000
   12       32.547748   0.000000
 
 -0.2500000E+00 -0.2500000E+00  0.5000000E-01  0.6000000E-02
    1       -1.309174   1.000000
    2       -0.066193   1.000000
    3        2.056166   1.000000
    4        2.905118   1.000000
    5        3.173461   1.000000
    6        3.841732   1.000000
    7       20.286122   0.000000
    8       21.179497   0.000000
    9       22.408706   0.000000
   10       24.271525   0.000000
   11       25.353745   0.000000
   12       34.407784   0.000000
 
 -0.1500000E+00 -0.2500000E+00  0.5000000E-01  0.1200000E-01
    1       -1.793748   1.000000
    2        0.355662   1.000000
    3        1.712197   1.000000
    4        2.384350   1.000000
    5        2.852476   1.000000
    6        3.774362   1.000000
    7       19.997946   0.000000
    8       22.081998   0.000000
    9       24.096407   0.000000
   10       25.231553   0.000000
   11       27.641828   0.000000
   12       32.308558   0.000000
 
 -0.1500000E+00 -0.1500000E+00  0.5000000E-01  0.6000000E-02
    1       -2.729409   1.000000
    2        0.633659   1.000000
    3        1.965737   1.000000
    4        2.026025   1.000000
    5        2.433325   1.000000
    6        3.405824   1.000000
    7       22.471993   0.000000
    8       23.421352   0.000000
    9       24.191725   0.000000
   10       25.063433   0.000000
   11       28.975550   0.000000
   12       32.645622   0.000000
 
  0.1500000E+00  0.1500000E+00  0.1500000E+00  0.2000000E-02
    1       -3.409551   1.000000
    2        1.118739   1.000000
    3        1.584533   1.000000
    4        1.584533   1.000000
    5        2.994665   1.000000
    6        2.994665   1.000000
    7       21.822268   0.000000
    8       22.842095   0.000000
    9       26.810430   0.000000
   10       26.810430   0.000000
   11       30.212370   0.000000
   12       32.796099   0.000000
 
  0.2500000E+00  0.1500000E+00  0.1500000E+00  0.6000000E-02
    1       -2.753232   1.000000
    2        0.890029   1.000000
    3        1.723294   1.000000
    4        1.814012   1.000000
    5        2.645261   1.000000
    6        3.419190   1.000000
    7       20.787282   0.000000
    8       22.538505   0.000000
    9       25.401724   0.000000
   10       27.764728   0.000000
   11       28.879452   0.000000
   12       32.423613   0.000000
 
  0.3500000E+00  0.1500000E+00  0.1500000E+00  0.6000000E-02
    1       -1.653186   1.000000
    2        0.715401   1.000000
    3        1.597886   1.000000
    4        2.124934   1.000000
    5        2.542546   1.000000
    6        4.232409   1.000000
    7       18.338619   0.000000
    8       20.997427   0.000000
    9       25.012486   0.000000
   10       26.752363   0.000000
   11       29.591429   0.000000
   12       31.581073   0.000000
 
  0.4500000E+00  0.1500000E+00  0.1500000E+00  0.6000000E-02
    1       -0.970042   1.000000
    2        1.138336   1.000000
    3        1.522095   1.000000
    4        1.895878   1.000000
    5        3.291239   1.000000
    6        5.376551   1.000000
    7       14.437660   0.000000
    8       20.318855   0.000000
    9       23.341104   0.000000
   10       26.601813   0.000000
   11       29.300748   0.000000
   12       32.696664   0.000000
 
 -0.4500000E+00  0.1500000E+00  0.1500000E+00  0.6000000E-02
    1       -0.950837   1.000000
    2        0.977667   1.000000
    3        1.773124   1.000000
    4        2.428562   1.000000
    5        4.059027   1.000000
    6        6.991650  -0.000272
    7       10.792312  -0.000000
    8       20.284885   0.000000
    9       22.694610   0.000000
   10       24.126814   0.000000
   11       31.787297   0.000000
   12       32.932120   0.000000
 
 -0.3500000E+00  0.1500000E+00  0.1500000E+00  0.6000000E-02
    1       -0.993847   1.000000
    2        0.947230   1.000000
    3        1.828960   1.000000
    4        2.249278   1.000000
    5        4.457396   1.000000
    6        6.944876  -0.000853
    7       10.610825  -0.000000
    8       20.959438   0.000000
    9       22.777795   0.000000
   10       23.069965   0.000000
   11       32.844997   0.000000
   12       33.141247   0.000000
 
 -0.2500000E+00  0.1500000E+00  0.1500000E+00  0.6000000E-02
    1       -1.068241   1.000000
    2        1.047066   1.000000
    3        1.312878   1.000000
    4        2.008074   1.000000
    5        4.287941   1.000000
    6        4.769307   1.000000
    7       14.297027   0.000000
    8       22.047856   0.000000
    9       22.634799   0.000000
   10       24.267246   0.000000
   11       31.766714   0.000000
   12       32.628279   0.000000
 
 -0.1500000E+00  0.1500000E+00  0.1500000E+00  0.6000000E-02
    1       -1.685291   1.000000
    2        0.497316   1.000000
    3        1.606671   1.000000
    4        2.158769   1.000000
    5        3.238514   1.000000
    6        3.781824   1.000000
    7       18.520461   0.000000
    8       23.249853   0.000000
    9       23.284643   0.000000
   10       25.442306   0.000000
   11       28.662983   0.000000
   12       32.533291   0.000000
 
  0.2500000E+00  0.2500000E+00  0.1500000E+00  0.6000000E-02
    1       -2.376261   1.000000
    2        0.767749   1.000000
    3        1.743065   1.000000
    4        1.893356   1.000000
    5        2.846773   1.000000
    6        3.476163   1.000000
    7       19.663886   0.000000
    8       23.216090   0.000000
    9       24.829513   0.000000
   10       26.891001   0.000000
   11       29.056119   0.000000
   12       31.933959   0.000000
 
  0.3500000E+00  0.2500000E+00  0.1500000E+00  0.1200000E-01
    1       -1.477077   1.000000
    2        0.485725   1.000000
    3        1.495495   1.000000
    4        2.350851   1.000000
    5        2.824946   1.000000
    6        4.209735   1.000000
    7       18.488452   0.000000
    8       21.030335   0.000000
    9       24.170117   0.000000
   10       26.167963   0.000000
   11       29.237567   0.000000
   12       31.359399   0.000000
 
  0.4500000E+00  0.2500000E+00  0.1500000E+00  0.1200000E-01
    1       -0.512380   1.000000
    2        0.510380   1.000000
    3        1.058527   1.000000
    4        2.598953   1.000000
    5        3.169761   1.000000
    6        5.482504   1.000000
    7       16.016070   0.000000
    8       18.753088   0.000000
    9       22.690183   0.000000
   10       27.058985   0.000000
   11       28.509452   0.000000
   12       33.188273   0.000000
 
 -0.4500000E+00  0.2500000E+00  0.1500000E+00  0.1200000E-01
    1       -0.383481   1.000000
    2        0.695348   1.000000
    3        1.388314   1.000000
    4        2.379428   1.000000
    5        3.944027   1.000000
    6        7.222259  -0.000000
    7       12.350584   0.000000
    8       18.475278   0.000000
    9       21.317368   0.000000
   10       25.468258   0.000000
   11       30.666917   0.000000
   12       34.413787   0.000000
 
 -0.3500000E+00  0.2500000E+00  0.1500000E+00  0.1200000E-01
    1       -0.461321   1.000000
    2        0.594730   1.000000
    3        1.752864   1.000000
    4        2.305553   1.000000
    5        4.277016   1.000000
    6        8.914643  -0.000000
    7        9.981523  -0.000000
    8       19.128186   0.000000
    9       20.261478   0.000000
   10       24.904469   0.000000
   11       31.656040   0.000000
   12       34.868184   0.000000
 
 -0.2500000E+00  0.2500000E+00  0.1500000E+00  0.1200000E-01
    1       -0.512749   1.000000
    2        0.692486   1.000000
    3        1.141293   1.000000
    4        2.521701   1.000000
    5        4.083186   1.000000
    6        6.439282   0.466824
    7       13.373895   0.000000
    8       19.369017   0.000000
    9       20.874377   0.000000
   10       25.458582   0.000000
   11       30.630870   0.000000
   12       33.620095   0.000000
 
 -0.1500000E+00  0.2500000E+00  0.1500000E+00  0.1200000E-01
    1       -0.848296   1.000000
    2        0.233062   1.000000
    3        1.304676   1.000000
    4        2.739385   1.000000
    5        3.277195   1.000000
    6        4.768943   1.000000
    7       17.307303   0.000000
    8       19.855012   0.000000
    9       22.487146   0.000000
   10       26.263435   0.000000
   11       28.197501   0.000000