 running on    4 total cores
 distrk:  each k-point on    4 cores,    1 groups
 distr:  one band on    1 cores,    4 groups
 using from now: INCAR     
 vasp.5.4.4.18Apr17-6-g9f103f2a35 (build Jul 01 2019 03:25:34) complex          
  
 POSCAR found type information on POSCAR  Au
 POSCAR found :  1 types and       1 ions
 scaLAPACK will be used
 LDA part: xc-table for Ceperly-Alder, standard interpolation
 found WAVECAR, reading the header
 WAVECAR: different cutoff or change in lattice found
 POSCAR, INCAR and KPOINTS ok, starting setup
 FFT: planning ...
 reading WAVECAR
 the WAVECAR file was read successfully
 initial charge from wavefunction
 entering main loop
       N       E                     dE             d eps       ncg     rms          rms(c)
DAV:   1    -0.480871925261E+01   -0.48087E+01   -0.62388E+00  3080   0.289E+01    0.382E+00
DAV:   2    -0.438871655457E+01    0.42000E+00   -0.11602E+00  3008   0.114E+01    0.754E-01
DAV:   3    -0.437307109420E+01    0.15645E-01   -0.70890E-02  3132   0.263E+00    0.679E-02
DAV:   4    -0.437333200466E+01   -0.26091E-03   -0.47464E-04  2884   0.182E-01    0.144E-02
DAV:   5    -0.437333303761E+01   -0.10330E-05   -0.71401E-06  1476   0.248E-02
   1 F= -.43733330E+01 E0= -.43735304E+01  d E =0.592180E-03
 writing wavefunctions
