 vasp.5.4.4.18Apr17-6-g9f103f2a35 (build Jul 01 2019 03:25:34) complex          
  
 executed on             LinuxIFC date 2020.07.08  00:55:37
 running on    4 total cores
 distrk:  each k-point on    4 cores,    1 groups
 distr:  one band on NCORES_PER_BAND=   1 cores,    4 groups


--------------------------------------------------------------------------------------------------------


 INCAR:
 POTCAR:   PAW Au 04Feb1998                       
 POTCAR:   PAW Au 04Feb1998                       
   VRHFIN =Au: s1d10                                                            
   LEXCH  = CA                                                                  
   EATOM  =   929.4667 eV,   68.3139 Ry                                         
                                                                                
   TITEL  = PAW Au 04Feb1998                                                    
   LULTRA =        F    use ultrasoft PP ?                                      
   IUNSCR =        1    unscreen: 0-lin 1-nonlin 2-no                           
   RPACOR =    2.330    partial core radius                                     
   POMASS =  196.966; ZVAL   =   11.000    mass and valenz                      
   RCORE  =    2.500    outmost cutoff radius                                   
   RWIGS  =    2.840; RWIGS  =    1.503    wigner-seitz radius (au A)           
   ENMAX  =  229.869; ENMIN  =  172.402 eV                                      
   RCLOC  =    1.964    cutoff for local pot                                    
   LCOR   =        T    correct aug charges                                     
   LPAW   =        T    paw PP                                                  
   EAUG   =  356.670                                                            
   DEXC   =    -.020                                                            
   RMAX   =    3.041    core radius for proj-oper                               
   RDEP   =    2.598    core radius for depl-charge                             
   QCUT   =   -4.110; QGAM   =    8.221    optimization parameters              
                                                                                
   Description                                                                  
     l     E      TYP  RCUT    TYP  RCUT                                        
     2   .000     23  2.500                                                     
     2   .000     23  2.500                                                     
     0   .000     23  2.500                                                     
     0   .000     23  2.500                                                     
     1  -.200     23  2.500                                                     
     1   .000     23  2.500                                                     
     3   .000      7   .000                                                     
  local pseudopotential read in
  partial core-charges read in
  atomic valenz-charges read in
  non local Contribution for L=           2  read in
    real space projection operators read in
  non local Contribution for L=           2  read in
    real space projection operators read in
  non local Contribution for L=           0  read in
    real space projection operators read in
  non local Contribution for L=           0  read in
    real space projection operators read in
  non local Contribution for L=           1  read in
    real space projection operators read in
  non local Contribution for L=           1  read in
    real space projection operators read in
    PAW grid and wavefunctions read in
 
   number of l-projection  operators is LMAX  =           6
   number of lm-projection operators is LMMAX =          18
 
 PAW Au 04Feb1998                       :
 energy of atom  1       EATOM= -929.4667
 kinetic energy error for atom=    0.0704 (will be added to EATOM!!)
 
 
 POSCAR: FCC Au Bulk                             
  positions in direct lattice
  No initial velocities read in
 exchange correlation table for  LEXCH =        2
   RHO(1)=    0.500       N(1)  =     2000
   RHO(2)=  100.500       N(2)  =     4000
 


--------------------------------------------------------------------------------------------------------


 ion  position               nearest neighbor table
   1  0.000  0.000  0.000-
 
  LATTYP: Found a face centered cubic cell.
 ALAT       =     4.0000000000
  
  Lattice vectors:
  
 A1 = (   0.0000000000,   2.0000000000,   2.0000000000)
 A2 = (   2.0000000000,   0.0000000000,   2.0000000000)
 A3 = (   2.0000000000,   2.0000000000,   0.0000000000)


Analysis of symmetry for initial positions (statically):
=====================================================================
 Subroutine PRICEL returns:
 Original cell was already a primitive cell.
 

 Routine SETGRP: Setting up the symmetry group for a 
 face centered cubic supercell.


 Subroutine GETGRP returns: Found 48 space group operations
 (whereof 48 operations were pure point group operations)
 out of a pool of 48 trial point group operations.


The static configuration has the point symmetry O_h .


Analysis of symmetry for dynamics (positions and initial velocities):
=====================================================================
 Subroutine PRICEL returns:
 Original cell was already a primitive cell.
 

 Routine SETGRP: Setting up the symmetry group for a 
 face centered cubic supercell.


 Subroutine GETGRP returns: Found 48 space group operations
 (whereof 48 operations were pure point group operations)
 out of a pool of 48 trial point group operations.


The dynamic configuration has the point symmetry O_h .


 Subroutine INISYM returns: Found 48 space group operations
 (whereof 48 operations are pure point group operations),
 and found     1 'primitive' translations

 
 
 KPOINTS: 10x10x10                                

Automatic generation of k-mesh.
Space group operators:
 irot       det(A)        alpha          n_x          n_y          n_z        tau_x        tau_y        tau_z
    1     1.000000     0.000000     1.000000     0.000000     0.000000     0.000000     0.000000     0.000000
    2    -1.000000     0.000000     1.000000     0.000000     0.000000     0.000000     0.000000     0.000000
    3     1.000000   120.000000    -0.577350    -0.577350    -0.577350     0.000000     0.000000     0.000000
    4    -1.000000   120.000000    -0.577350    -0.577350    -0.577350     0.000000     0.000000     0.000000
    5     1.000000   120.000000     0.577350     0.577350     0.577350     0.000000     0.000000     0.000000
    6    -1.000000   120.000000     0.577350     0.577350     0.577350     0.000000     0.000000     0.000000
    7     1.000000    90.000000     0.000000     0.000000    -1.000000     0.000000     0.000000     0.000000
    8    -1.000000    90.000000     0.000000     0.000000    -1.000000     0.000000     0.000000     0.000000
    9     1.000000   180.000000     0.000000     0.707107     0.707107     0.000000     0.000000     0.000000
   10    -1.000000   180.000000     0.000000     0.707107     0.707107     0.000000     0.000000     0.000000
   11     1.000000    90.000000     0.000000     1.000000     0.000000     0.000000     0.000000     0.000000
   12    -1.000000    90.000000     0.000000     1.000000     0.000000     0.000000     0.000000     0.000000
   13     1.000000   180.000000     0.000000     0.000000     1.000000     0.000000     0.000000     0.000000
   14    -1.000000   180.000000     0.000000     0.000000     1.000000     0.000000     0.000000     0.000000
   15     1.000000   120.000000    -0.577350     0.577350     0.577350     0.000000     0.000000     0.000000
   16    -1.000000   120.000000    -0.577350     0.577350     0.577350     0.000000     0.000000     0.000000
   17     1.000000   120.000000    -0.577350     0.577350    -0.577350     0.000000     0.000000     0.000000
   18    -1.000000   120.000000    -0.577350     0.577350    -0.577350     0.000000     0.000000     0.000000
   19     1.000000    90.000000     0.000000     0.000000     1.000000     0.000000     0.000000     0.000000
   20    -1.000000    90.000000     0.000000     0.000000     1.000000     0.000000     0.000000     0.000000
   21     1.000000    90.000000    -1.000000     0.000000     0.000000     0.000000     0.000000     0.000000
   22    -1.000000    90.000000    -1.000000     0.000000     0.000000     0.000000     0.000000     0.000000
   23     1.000000   180.000000     0.707107     0.000000     0.707107     0.000000     0.000000     0.000000
   24    -1.000000   180.000000     0.707107     0.000000     0.707107     0.000000     0.000000     0.000000
   25     1.000000   120.000000     0.577350    -0.577350     0.577350     0.000000     0.000000     0.000000
   26    -1.000000   120.000000     0.577350    -0.577350     0.577350     0.000000     0.000000     0.000000
   27     1.000000   120.000000    -0.577350    -0.577350     0.577350     0.000000     0.000000     0.000000
   28    -1.000000   120.000000    -0.577350    -0.577350     0.577350     0.000000     0.000000     0.000000
   29     1.000000   180.000000     1.000000     0.000000     0.000000     0.000000     0.000000     0.000000
   30    -1.000000   180.000000     1.000000     0.000000     0.000000     0.000000     0.000000     0.000000
   31     1.000000    90.000000     0.000000    -1.000000     0.000000     0.000000     0.000000     0.000000
   32    -1.000000    90.000000     0.000000    -1.000000     0.000000     0.000000     0.000000     0.000000
   33     1.000000   180.000000     0.707107     0.707107     0.000000     0.000000     0.000000     0.000000
   34    -1.000000   180.000000     0.707107     0.707107     0.000000     0.000000     0.000000     0.000000
   35     1.000000    90.000000     1.000000     0.000000     0.000000     0.000000     0.000000     0.000000
   36    -1.000000    90.000000     1.000000     0.000000     0.000000     0.000000     0.000000     0.000000
   37     1.000000   120.000000     0.577350    -0.577350    -0.577350     0.000000     0.000000     0.000000
   38    -1.000000   120.000000     0.577350    -0.577350    -0.577350     0.000000     0.000000     0.000000
   39     1.000000   180.000000     0.000000     1.000000     0.000000     0.000000     0.000000     0.000000
   40    -1.000000   180.000000     0.000000     1.000000     0.000000     0.000000     0.000000     0.000000
   41     1.000000   120.000000     0.577350     0.577350    -0.577350     0.000000     0.000000     0.000000
   42    -1.000000   120.000000     0.577350     0.577350    -0.577350     0.000000     0.000000     0.000000
   43     1.000000   180.000000     0.000000    -0.707107     0.707107     0.000000     0.000000     0.000000
   44    -1.000000   180.000000     0.000000    -0.707107     0.707107     0.000000     0.000000     0.000000
   45     1.000000   180.000000     0.707107    -0.707107     0.000000     0.000000     0.000000     0.000000
   46    -1.000000   180.000000     0.707107    -0.707107     0.000000     0.000000     0.000000     0.000000
   47     1.000000   180.000000     0.707107     0.000000    -0.707107     0.000000     0.000000     0.000000
   48    -1.000000   180.000000     0.707107     0.000000    -0.707107     0.000000     0.000000     0.000000
 
 Subroutine IBZKPT returns following result:
 ===========================================
 
 Found    110 irreducible k-points:
 
 Following reciprocal coordinates:
            Coordinates               Weight
  0.050000  0.050000  0.050000     96.000000
  0.150000  0.050000  0.050000    288.000000
  0.250000  0.050000  0.050000    288.000000
  0.350000  0.050000  0.050000    288.000000
  0.450000  0.050000  0.050000    288.000000
 -0.450000  0.050000  0.050000    288.000000
 -0.350000  0.050000  0.050000    288.000000
 -0.250000  0.050000  0.050000    288.000000
 -0.150000  0.050000  0.050000    288.000000
 -0.050000  0.050000  0.050000    288.000000
  0.150000  0.150000  0.050000    288.000000
  0.250000  0.150000  0.050000    576.000000
  0.350000  0.150000  0.050000    576.000000
  0.450000  0.150000  0.050000    576.000000
 -0.450000  0.150000  0.050000    576.000000
 -0.350000  0.150000  0.050000    576.000000
 -0.250000  0.150000  0.050000    576.000000
 -0.150000  0.150000  0.050000    576.000000
 -0.050000  0.150000  0.050000    576.000000
  0.250000  0.250000  0.050000    288.000000
  0.350000  0.250000  0.050000    576.000000
  0.450000  0.250000  0.050000    576.000000
 -0.450000  0.250000  0.050000    576.000000
 -0.350000  0.250000  0.050000    576.000000
 -0.250000  0.250000  0.050000    576.000000
 -0.150000  0.250000  0.050000    576.000000
 -0.050000  0.250000  0.050000    576.000000
  0.350000  0.350000  0.050000    288.000000
  0.450000  0.350000  0.050000    576.000000
 -0.450000  0.350000  0.050000    576.000000
 -0.350000  0.350000  0.050000    576.000000
 -0.250000  0.350000  0.050000    576.000000
 -0.150000  0.350000  0.050000    576.000000
 -0.050000  0.350000  0.050000    576.000000
  0.450000  0.450000  0.050000    288.000000
 -0.450000  0.450000  0.050000    576.000000
 -0.350000  0.450000  0.050000    576.000000
 -0.250000  0.450000  0.050000    576.000000
 -0.150000  0.450000  0.050000    576.000000
 -0.050000  0.450000  0.050000    576.000000
 -0.450000 -0.450000  0.050000    288.000000
 -0.350000 -0.450000  0.050000    576.000000
 -0.250000 -0.450000  0.050000    576.000000
 -0.150000 -0.450000  0.050000    576.000000
 -0.350000 -0.350000  0.050000    288.000000
 -0.250000 -0.350000  0.050000    576.000000
 -0.150000 -0.350000  0.050000    576.000000
 -0.250000 -0.250000  0.050000    288.000000
 -0.150000 -0.250000  0.050000    576.000000
 -0.150000 -0.150000  0.050000    288.000000
  0.150000  0.150000  0.150000     96.000000
  0.250000  0.150000  0.150000    288.000000
  0.350000  0.150000  0.150000    288.000000
  0.450000  0.150000  0.150000    288.000000
 -0.450000  0.150000  0.150000    288.000000
 -0.350000  0.150000  0.150000    288.000000
 -0.250000  0.150000  0.150000    288.000000
 -0.150000  0.150000  0.150000    288.000000
  0.250000  0.250000  0.150000    288.000000
  0.350000  0.250000  0.150000    576.000000
  0.450000  0.250000  0.150000    576.000000
 -0.450000  0.250000  0.150000    576.000000
 -0.350000  0.250000  0.150000    576.000000
 -0.250000  0.250000  0.150000    576.000000
 -0.150000  0.250000  0.150000    576.000000
  0.350000  0.350000  0.150000    288.000000
  0.450000  0.350000  0.150000    576.000000
 -0.450000  0.350000  0.150000    576.000000
 -0.350000  0.350000  0.150000    576.000000
 -0.250000  0.350000  0.150000    576.000000
 -0.150000  0.350000  0.150000    576.000000
  0.450000  0.450000  0.150000    288.000000
 -0.450000  0.450000  0.150000    576.000000
 -0.350000  0.450000  0.150000    576.000000
 -0.250000  0.450000  0.150000    576.000000
 -0.150000  0.450000  0.150000    576.000000
 -0.450000 -0.450000  0.150000    288.000000
 -0.350000 -0.450000  0.150000    576.000000
 -0.250000 -0.450000  0.150000    576.000000
 -0.350000 -0.350000  0.150000    288.000000
 -0.250000 -0.350000  0.150000    576.000000
 -0.250000 -0.250000  0.150000    288.000000
  0.250000  0.250000  0.250000     96.000000
  0.350000  0.250000  0.250000    288.000000
  0.450000  0.250000  0.250000    288.000000
 -0.450000  0.250000  0.250000    288.000000
 -0.350000  0.250000  0.250000    288.000000
 -0.250000  0.250000  0.250000    288.000000
  0.350000  0.350000  0.250000    288.000000
  0.450000  0.350000  0.250000    576.000000
 -0.450000  0.350000  0.250000    576.000000
 -0.350000  0.350000  0.250000    576.000000
 -0.250000  0.350000  0.250000    576.000000
  0.450000  0.450000  0.250000    288.000000
 -0.450000  0.450000  0.250000    576.000000
 -0.350000  0.450000  0.250000    576.000000
 -0.250000  0.450000  0.250000    576.000000
 -0.450000 -0.450000  0.250000    288.000000
 -0.350000 -0.450000  0.250000    576.000000
 -0.350000 -0.350000  0.250000    288.000000
  0.350000  0.350000  0.350000     96.000000
  0.450000  0.350000  0.350000    288.000000
 -0.450000  0.350000  0.350000    288.000000
 -0.350000  0.350000  0.350000    288.000000
  0.450000  0.450000  0.350000    288.000000
 -0.450000  0.450000  0.350000    576.000000
 -0.350000  0.450000  0.350000    576.000000
 -0.450000 -0.450000  0.350000    288.000000
  0.450000  0.450000  0.450000     96.000000
 -0.450000  0.450000  0.450000    288.000000
 
 Following cartesian coordinates:
            Coordinates               Weight
  0.050000  0.050000  0.050000     96.000000
 -0.050000  0.150000  0.150000    288.000000
 -0.150000  0.250000  0.250000    288.000000
 -0.250000  0.350000  0.350000    288.000000
 -0.350000  0.450000  0.450000    288.000000
  0.550000 -0.450000 -0.450000    288.000000
  0.450000 -0.350000 -0.350000    288.000000
  0.350000 -0.250000 -0.250000    288.000000
  0.250000 -0.150000 -0.150000    288.000000
  0.150000 -0.050000 -0.050000    288.000000
  0.050000  0.050000  0.250000    288.000000
 -0.050000  0.150000  0.350000    576.000000
 -0.150000  0.250000  0.450000    576.000000
 -0.250000  0.350000  0.550000    576.000000
  0.650000 -0.550000 -0.350000    576.000000
  0.550000 -0.450000 -0.250000    576.000000
  0.450000 -0.350000 -0.150000    576.000000
  0.350000 -0.250000 -0.050000    576.000000
  0.250000 -0.150000  0.050000    576.000000
  0.050000  0.050000  0.450000    288.000000
 -0.050000  0.150000  0.550000    576.000000
 -0.150000  0.250000  0.650000    576.000000
  0.750000 -0.650000 -0.250000    576.000000
  0.650000 -0.550000 -0.150000    576.000000
  0.550000 -0.450000 -0.050000    576.000000
  0.450000 -0.350000  0.050000    576.000000
  0.350000 -0.250000  0.150000    576.000000
  0.050000  0.050000  0.650000    288.000000
 -0.050000  0.150000  0.750000    576.000000
  0.850000 -0.750000 -0.150000    576.000000
  0.750000 -0.650000 -0.050000    576.000000
  0.650000 -0.550000  0.050000    576.000000
  0.550000 -0.450000  0.150000    576.000000
  0.450000 -0.350000  0.250000    576.000000
  0.050000  0.050000  0.850000    288.000000
  0.950000 -0.850000 -0.050000    576.000000
  0.850000 -0.750000  0.050000    576.000000
  0.750000 -0.650000  0.150000    576.000000
  0.650000 -0.550000  0.250000    576.000000
  0.550000 -0.450000  0.350000    576.000000
  0.050000  0.050000 -0.950000    288.000000
 -0.050000  0.150000 -0.850000    576.000000
 -0.150000  0.250000 -0.750000    576.000000
 -0.250000  0.350000 -0.650000    576.000000
  0.050000  0.050000 -0.750000    288.000000
 -0.050000  0.150000 -0.650000    576.000000
 -0.150000  0.250000 -0.550000    576.000000
  0.050000  0.050000 -0.550000    288.000000
 -0.050000  0.150000 -0.450000    576.000000
  0.050000  0.050000 -0.350000    288.000000
  0.150000  0.150000  0.150000     96.000000
  0.050000  0.250000  0.250000    288.000000
 -0.050000  0.350000  0.350000    288.000000
 -0.150000  0.450000  0.450000    288.000000
  0.750000 -0.450000 -0.450000    288.000000
  0.650000 -0.350000 -0.350000    288.000000
  0.550000 -0.250000 -0.250000    288.000000
  0.450000 -0.150000 -0.150000    288.000000
  0.150000  0.150000  0.350000    288.000000
  0.050000  0.250000  0.450000    576.000000
 -0.050000  0.350000  0.550000    576.000000
  0.850000 -0.550000 -0.350000    576.000000
  0.750000 -0.450000 -0.250000    576.000000
  0.650000 -0.350000 -0.150000    576.000000
  0.550000 -0.250000 -0.050000    576.000000
  0.150000  0.150000  0.550000    288.000000
  0.050000  0.250000  0.650000    576.000000
  0.950000 -0.650000 -0.250000    576.000000
  0.850000 -0.550000 -0.150000    576.000000
  0.750000 -0.450000 -0.050000    576.000000
  0.650000 -0.350000  0.050000    576.000000
  0.150000  0.150000  0.750000    288.000000
  1.050000 -0.750000 -0.150000    576.000000
  0.950000 -0.650000 -0.050000    576.000000
  0.850000 -0.550000  0.050000    576.000000
  0.750000 -0.450000  0.150000    576.000000
  0.150000  0.150000 -1.050000    288.000000
  0.050000  0.250000 -0.950000    576.000000
 -0.050000  0.350000 -0.850000    576.000000
  0.150000  0.150000 -0.850000    288.000000
  0.050000  0.250000 -0.750000    576.000000
  0.150000  0.150000 -0.650000    288.000000
  0.250000  0.250000  0.250000     96.000000
  0.150000  0.350000  0.350000    288.000000
  0.050000  0.450000  0.450000    288.000000
  0.950000 -0.450000 -0.450000    288.000000
  0.850000 -0.350000 -0.350000    288.000000
  0.750000 -0.250000 -0.250000    288.000000
  0.250000  0.250000  0.450000    288.000000
  0.150000  0.350000  0.550000    576.000000
  1.050000 -0.550000 -0.350000    576.000000
  0.950000 -0.450000 -0.250000    576.000000
  0.850000 -0.350000 -0.150000    576.000000
  0.250000  0.250000  0.650000    288.000000
  1.150000 -0.650000 -0.250000    576.000000
  1.050000 -0.550000 -0.150000    576.000000
  0.950000 -0.450000 -0.050000    576.000000
  0.250000  0.250000 -1.150000    288.000000
  0.150000  0.350000 -1.050000    576.000000
  0.250000  0.250000 -0.950000    288.000000
  0.350000  0.350000  0.350000     96.000000
  0.250000  0.450000  0.450000    288.000000
  1.150000 -0.450000 -0.450000    288.000000
  1.050000 -0.350000 -0.350000    288.000000
  0.350000  0.350000  0.550000    288.000000
  1.250000 -0.550000 -0.350000    576.000000
  1.150000 -0.450000 -0.250000    576.000000
  0.350000  0.350000 -1.250000    288.000000
  0.450000  0.450000  0.450000     96.000000
  1.350000 -0.450000 -0.450000    288.000000
 


--------------------------------------------------------------------------------------------------------




 Dimension of arrays:
   k-points           NKPTS =    110   k-points in BZ     NKDIM =    110   number of bands    NBANDS=     12
   number of dos      NEDOS =    301   number of ions     NIONS =      1
   non local maximal  LDIM  =      6   non local SUM 2l+1 LMDIM =     18
   total plane-waves  NPLWV =   1000
   max r-space proj   IRMAX =      1   max aug-charges    IRDMAX=   4021
   dimension x,y,z NGX =    10 NGY =   10 NGZ =   10
   dimension x,y,z NGXF=    20 NGYF=   20 NGZF=   20
   support grid    NGXF=    20 NGYF=   20 NGZF=   20
   ions per type =               1
   NGX,Y,Z   is equivalent  to a cutoff of   5.88,  5.88,  5.88 a.u.
   NGXF,Y,Z  is equivalent  to a cutoff of  11.76, 11.76, 11.76 a.u.

 SYSTEM =  FCC Au                                  
 POSCAR =  FCC Au Bulk                             

 Startparameter for this run:
   NWRITE =      2    write-flag & timer
   PREC   = normal    normal or accurate (medium, high low for compatibility)
   ISTART =      1    job   : 0-new  1-cont  2-samecut
   ICHARG =      0    charge: 1-file 2-atom 10-const
   ISPIN  =      1    spin polarized calculation?
   LNONCOLLINEAR =      F non collinear calculations
   LSORBIT =      F    spin-orbit coupling
   INIWAV =      1    electr: 0-lowe 1-rand  2-diag
   LASPH  =      F    aspherical Exc in radial PAW
   METAGGA=      F    non-selfconsistent MetaGGA calc.

 Electronic Relaxation 1
   ENCUT  =  230.0 eV  16.90 Ry    4.11 a.u.   3.50  3.50  3.50*2*pi/ulx,y,z
   ENINI  =  230.0     initial cutoff
   ENAUG  =  356.7 eV  augmentation charge cutoff
   NELM   =     60;   NELMIN=  2; NELMDL=  0     # of ELM steps 
   EDIFF  = 0.1E-03   stopping-criterion for ELM
   LREAL  =      F    real-space projection
   NLSPLINE    = F    spline interpolate recip. space projectors
   LCOMPAT=      F    compatible to vasp.4.4
   GGA_COMPAT  = T    GGA compatible to vasp.4.4-vasp.4.6
   LMAXPAW     = -100 max onsite density
   LMAXMIX     =    2 max onsite mixed and CHGCAR
   VOSKOWN=      0    Vosko Wilk Nusair interpolation
   ROPT   =    0.00000
 Ionic relaxation
   EDIFFG = 0.1E-02   stopping-criterion for IOM
   NSW    =      0    number of steps for IOM
   NBLOCK =      1;   KBLOCK =      1    inner block; outer block 
   IBRION =     -1    ionic relax: 0-MD 1-quasi-New 2-CG
   NFREE  =      0    steps in history (QN), initial steepest desc. (CG)
   ISIF   =      2    stress and relaxation
   IWAVPR =     10    prediction:  0-non 1-charg 2-wave 3-comb
   ISYM   =      2    0-nonsym 1-usesym 2-fastsym
   LCORR  =      T    Harris-Foulkes like correction to forces

   POTIM  = 0.5000    time-step for ionic-motion
   TEIN   =    0.0    initial temperature
   TEBEG  =    0.0;   TEEND  =   0.0 temperature during run
   SMASS  =  -3.00    Nose mass-parameter (am)
   estimated Nose-frequenzy (Omega)   =  0.10E-29 period in steps =****** mass=  -0.183E-27a.u.
   SCALEE = 1.0000    scale energy and forces
   NPACO  =    256;   APACO  = 16.0  distance and # of slots for P.C.
   PSTRESS=    0.0 pullay stress

  Mass of Ions in am
   POMASS = 196.97
  Ionic Valenz
   ZVAL   =  11.00
  Atomic Wigner-Seitz radii
   RWIGS  =  -1.00
  virtual crystal weights 
   VCA    =   1.00
   NELECT =      11.0000    total number of electrons
   NUPDOWN=      -1.0000    fix difference up-down

 DOS related values:
   EMIN   =  10.00;   EMAX   =-10.00  energy-range for DOS
   EFERMI =   0.00
   ISMEAR =     1;   SIGMA  =   0.20  broadening in eV -4-tet -1-fermi 0-gaus

 Electronic relaxation 2 (details)
   IALGO  =     38    algorithm
   LDIAG  =      T    sub-space diagonalisation (order eigenvalues)
   LSUBROT=      F    optimize rotation matrix (better conditioning)
   TURBO    =      0    0=normal 1=particle mesh
   IRESTART =      0    0=no restart 2=restart with 2 vectors
   NREBOOT  =      0    no. of reboots
   NMIN     =      0    reboot dimension
   EREF     =   0.00    reference energy to select bands
   IMIX   =      4    mixing-type and parameters
     AMIX     =   0.40;   BMIX     =  1.00
     AMIX_MAG =   1.60;   BMIX_MAG =  1.00
     AMIN     =   0.10
     WC   =   100.;   INIMIX=   1;  MIXPRE=   1;  MAXMIX= -45

 Intra band minimization:
   WEIMIN = 0.0000     energy-eigenvalue tresh-hold
   EBREAK =  0.21E-05  absolut break condition
   DEPER  =   0.30     relativ break condition  

   TIME   =   0.40     timestep for ELM

  volume/ion in A,a.u.               =      16.00       107.97
  Fermi-wavevector in a.u.,A,eV,Ry     =   1.444882  2.730431 28.404667  2.087684
  Thomas-Fermi vector in A             =   2.563127
 
 Write flags
   LWAVE        =      T    write WAVECAR
   LDOWNSAMPLE  =      F    k-point downsampling of WAVECAR
   LCHARG       =      T    write CHGCAR
   LVTOT        =      F    write LOCPOT, total local potential
   LVHAR        =      F    write LOCPOT, Hartree potential only
   LELF         =      F    write electronic localiz. function (ELF)
   LORBIT       =      0    0 simple, 1 ext, 2 COOP (PROOUT), +10 PAW based schemes


 Dipole corrections
   LMONO  =      F    monopole corrections only (constant potential shift)
   LDIPOL =      F    correct potential (dipole corrections)
   IDIPOL =      0    1-x, 2-y, 3-z, 4-all directions 
   EPSILON=  1.0000000 bulk dielectric constant

 Exchange correlation treatment:
   GGA     =    --    GGA type
   LEXCH   =     2    internal setting for exchange type
   VOSKOWN=      0    Vosko Wilk Nusair interpolation
   LHFCALC =     F    Hartree Fock is set to
   LHFONE  =     F    Hartree Fock one center treatment
   AEXX    =    0.0000 exact exchange contribution

 Linear response parameters
   LEPSILON=     F    determine dielectric tensor
   LRPA    =     F    only Hartree local field effects (RPA)
   LNABLA  =     F    use nabla operator in PAW spheres
   LVEL    =     F    velocity operator in full k-point grid
   LINTERFAST=   F  fast interpolation
   KINTER  =     0    interpolate to denser k-point grid
   CSHIFT  =0.1000    complex shift for real part using Kramers Kronig
   OMEGAMAX=  -1.0    maximum frequency
   DEG_THRESHOLD= 0.2000000E-02 threshold for treating states as degnerate
   RTIME   =   -0.100 relaxation time in fs
  (WPLASMAI=    0.000 imaginary part of plasma frequency in eV, 0.658/RTIME)
   DFIELD  = 0.0000000 0.0000000 0.0000000 field for delta impulse in time
 
 Orbital magnetization related:
   ORBITALMAG=     F  switch on orbital magnetization
   LCHIMAG   =     F  perturbation theory with respect to B field
   DQ        =  0.001000  dq finite difference perturbation B field
   LLRAUG    =     F  two centre corrections for induced B field



--------------------------------------------------------------------------------------------------------


 Static calculation
 charge density and potential will be updated during run
 non-spin polarized calculation
 Variant of blocked Davidson
 Davidson routine will perform the subspace rotation
 perform sub-space diagonalisation
    after iterative eigenvector-optimisation
 modified Broyden-mixing scheme, WC =      100.0
 initial mixing is a Kerker type mixing with AMIX =  0.4000 and BMIX =      1.0000
 Hartree-type preconditioning will be used
 using additional bands            6
 reciprocal scheme for non local part
 use partial core corrections
 calculate Harris-corrections to forces 
   (improved forces if not selfconsistent)
 use of overlap-Matrix (Vanderbilt PP)
 Methfessel and Paxton  Order N= 1 SIGMA  =   0.20


--------------------------------------------------------------------------------------------------------


  energy-cutoff  :      230.00
  volume of cell :       16.00
      direct lattice vectors                 reciprocal lattice vectors
     0.000000000  2.000000000  2.000000000    -0.250000000  0.250000000  0.250000000
     2.000000000  0.000000000  2.000000000     0.250000000 -0.250000000  0.250000000
     2.000000000  2.000000000  0.000000000     0.250000000  0.250000000 -0.250000000

  length of vectors
     2.828427125  2.828427125  2.828427125     0.433012702  0.433012702  0.433012702


 
 old parameters found on file WAVECAR:
  energy-cutoff  :      287.34
  volume of cell :       16.00
      direct lattice vectors                 reciprocal lattice vectors
     0.000000000  2.000000000  2.000000000    -0.250000000  0.250000000  0.250000000
     2.000000000  0.000000000  2.000000000     0.250000000 -0.250000000  0.250000000
     2.000000000  2.000000000  0.000000000     0.250000000  0.250000000 -0.250000000

  length of vectors

 
 k-points in units of 2pi/SCALE and weight: 10x10x10                                
   0.05000000  0.05000000  0.05000000       0.002
  -0.05000000  0.15000000  0.15000000       0.006
  -0.15000000  0.25000000  0.25000000       0.006
  -0.25000000  0.35000000  0.35000000       0.006
  -0.35000000  0.45000000  0.45000000       0.006
   0.55000000 -0.45000000 -0.45000000       0.006
   0.45000000 -0.35000000 -0.35000000       0.006
   0.35000000 -0.25000000 -0.25000000       0.006
   0.25000000 -0.15000000 -0.15000000       0.006
   0.15000000 -0.05000000 -0.05000000       0.006
   0.05000000  0.05000000  0.25000000       0.006
  -0.05000000  0.15000000  0.35000000       0.012
  -0.15000000  0.25000000  0.45000000       0.012
  -0.25000000  0.35000000  0.55000000       0.012
   0.65000000 -0.55000000 -0.35000000       0.012
   0.55000000 -0.45000000 -0.25000000       0.012
   0.45000000 -0.35000000 -0.15000000       0.012
   0.35000000 -0.25000000 -0.05000000       0.012
   0.25000000 -0.15000000  0.05000000       0.012
   0.05000000  0.05000000  0.45000000       0.006
  -0.05000000  0.15000000  0.55000000       0.012
  -0.15000000  0.25000000  0.65000000       0.012
   0.75000000 -0.65000000 -0.25000000       0.012
   0.65000000 -0.55000000 -0.15000000       0.012
   0.55000000 -0.45000000 -0.05000000       0.012
   0.45000000 -0.35000000  0.05000000       0.012
   0.35000000 -0.25000000  0.15000000       0.012
   0.05000000  0.05000000  0.65000000       0.006
  -0.05000000  0.15000000  0.75000000       0.012
   0.85000000 -0.75000000 -0.15000000       0.012
   0.75000000 -0.65000000 -0.05000000       0.012
   0.65000000 -0.55000000  0.05000000       0.012
   0.55000000 -0.45000000  0.15000000       0.012
   0.45000000 -0.35000000  0.25000000       0.012
   0.05000000  0.05000000  0.85000000       0.006
   0.95000000 -0.85000000 -0.05000000       0.012
   0.85000000 -0.75000000  0.05000000       0.012
   0.75000000 -0.65000000  0.15000000       0.012
   0.65000000 -0.55000000  0.25000000       0.012
   0.55000000 -0.45000000  0.35000000       0.012
   0.05000000  0.05000000 -0.95000000       0.006
  -0.05000000  0.15000000 -0.85000000       0.012
  -0.15000000  0.25000000 -0.75000000       0.012
  -0.25000000  0.35000000 -0.65000000       0.012
   0.05000000  0.05000000 -0.75000000       0.006
  -0.05000000  0.15000000 -0.65000000       0.012
  -0.15000000  0.25000000 -0.55000000       0.012
   0.05000000  0.05000000 -0.55000000       0.006
  -0.05000000  0.15000000 -0.45000000       0.012
   0.05000000  0.05000000 -0.35000000       0.006
   0.15000000  0.15000000  0.15000000       0.002
   0.05000000  0.25000000  0.25000000       0.006
  -0.05000000  0.35000000  0.35000000       0.006
  -0.15000000  0.45000000  0.45000000       0.006
   0.75000000 -0.45000000 -0.45000000       0.006
   0.65000000 -0.35000000 -0.35000000       0.006
   0.55000000 -0.25000000 -0.25000000       0.006
   0.45000000 -0.15000000 -0.15000000       0.006
   0.15000000  0.15000000  0.35000000       0.006
   0.05000000  0.25000000  0.45000000       0.012
  -0.05000000  0.35000000  0.55000000       0.012
   0.85000000 -0.55000000 -0.35000000       0.012
   0.75000000 -0.45000000 -0.25000000       0.012
   0.65000000 -0.35000000 -0.15000000       0.012
   0.55000000 -0.25000000 -0.05000000       0.012
   0.15000000  0.15000000  0.55000000       0.006
   0.05000000  0.25000000  0.65000000       0.012
   0.95000000 -0.65000000 -0.25000000       0.012
   0.85000000 -0.55000000 -0.15000000       0.012
   0.75000000 -0.45000000 -0.05000000       0.012
   0.65000000 -0.35000000  0.05000000       0.012
   0.15000000  0.15000000  0.75000000       0.006
   1.05000000 -0.75000000 -0.15000000       0.012
   0.95000000 -0.65000000 -0.05000000       0.012
   0.85000000 -0.55000000  0.05000000       0.012
   0.75000000 -0.45000000  0.15000000       0.012
   0.15000000  0.15000000 -1.05000000       0.006
   0.05000000  0.25000000 -0.95000000       0.012
  -0.05000000  0.35000000 -0.85000000       0.012
   0.15000000  0.15000000 -0.85000000       0.006
   0.05000000  0.25000000 -0.75000000       0.012
   0.15000000  0.15000000 -0.65000000       0.006
   0.25000000  0.25000000  0.25000000       0.002
   0.15000000  0.35000000  0.35000000       0.006
   0.05000000  0.45000000  0.45000000       0.006
   0.95000000 -0.45000000 -0.45000000       0.006
   0.85000000 -0.35000000 -0.35000000       0.006
   0.75000000 -0.25000000 -0.25000000       0.006
   0.25000000  0.25000000  0.45000000       0.006
   0.15000000  0.35000000  0.55000000       0.012
   1.05000000 -0.55000000 -0.35000000       0.012
   0.95000000 -0.45000000 -0.25000000       0.012
   0.85000000 -0.35000000 -0.15000000       0.012
   0.25000000  0.25000000  0.65000000       0.006
   1.15000000 -0.65000000 -0.25000000       0.012
   1.05000000 -0.55000000 -0.15000000       0.012
   0.95000000 -0.45000000 -0.05000000       0.012
   0.25000000  0.25000000 -1.15000000       0.006
   0.15000000  0.35000000 -1.05000000       0.012
   0.25000000  0.25000000 -0.95000000       0.006
   0.35000000  0.35000000  0.35000000       0.002
   0.25000000  0.45000000  0.45000000       0.006
   1.15000000 -0.45000000 -0.45000000       0.006
   1.05000000 -0.35000000 -0.35000000       0.006
   0.35000000  0.35000000  0.55000000       0.006
   1.25000000 -0.55000000 -0.35000000       0.012
   1.15000000 -0.45000000 -0.25000000       0.012
   0.35000000  0.35000000 -1.25000000       0.006
   0.45000000  0.45000000  0.45000000       0.002
   1.35000000 -0.45000000 -0.45000000       0.006
 
 k-points in reciprocal lattice and weights: 10x10x10                                
   0.05000000  0.05000000  0.05000000       0.002
   0.15000000  0.05000000  0.05000000       0.006
   0.25000000  0.05000000  0.05000000       0.006
   0.35000000  0.05000000  0.05000000       0.006
   0.45000000  0.05000000  0.05000000       0.006
  -0.45000000  0.05000000  0.05000000       0.006
  -0.35000000  0.05000000  0.05000000       0.006
  -0.25000000  0.05000000  0.05000000       0.006
  -0.15000000  0.05000000  0.05000000       0.006
  -0.05000000  0.05000000  0.05000000       0.006
   0.15000000  0.15000000  0.05000000       0.006
   0.25000000  0.15000000  0.05000000       0.012
   0.35000000  0.15000000  0.05000000       0.012
   0.45000000  0.15000000  0.05000000       0.012
  -0.45000000  0.15000000  0.05000000       0.012
  -0.35000000  0.15000000  0.05000000       0.012
  -0.25000000  0.15000000  0.05000000       0.012
  -0.15000000  0.15000000  0.05000000       0.012
  -0.05000000  0.15000000  0.05000000       0.012
   0.25000000  0.25000000  0.05000000       0.006
   0.35000000  0.25000000  0.05000000       0.012
   0.45000000  0.25000000  0.05000000       0.012
  -0.45000000  0.25000000  0.05000000       0.012
  -0.35000000  0.25000000  0.05000000       0.012
  -0.25000000  0.25000000  0.05000000       0.012
  -0.15000000  0.25000000  0.05000000       0.012
  -0.05000000  0.25000000  0.05000000       0.012
   0.35000000  0.35000000  0.05000000       0.006
   0.45000000  0.35000000  0.05000000       0.012
  -0.45000000  0.35000000  0.05000000       0.012
  -0.35000000  0.35000000  0.05000000       0.012
  -0.25000000  0.35000000  0.05000000       0.012
  -0.15000000  0.35000000  0.05000000       0.012
  -0.05000000  0.35000000  0.05000000       0.012
   0.45000000  0.45000000  0.05000000       0.006
  -0.45000000  0.45000000  0.05000000       0.012
  -0.35000000  0.45000000  0.05000000       0.012
  -0.25000000  0.45000000  0.05000000       0.012
  -0.15000000  0.45000000  0.05000000       0.012
  -0.05000000  0.45000000  0.05000000       0.012
  -0.45000000 -0.45000000  0.05000000       0.006
  -0.35000000 -0.45000000  0.05000000       0.012
  -0.25000000 -0.45000000  0.05000000       0.012
  -0.15000000 -0.45000000  0.05000000       0.012
  -0.35000000 -0.35000000  0.05000000       0.006
  -0.25000000 -0.35000000  0.05000000       0.012
  -0.15000000 -0.35000000  0.05000000       0.012
  -0.25000000 -0.25000000  0.05000000       0.006
  -0.15000000 -0.25000000  0.05000000       0.012
  -0.15000000 -0.15000000  0.05000000       0.006
   0.15000000  0.15000000  0.15000000       0.002
   0.25000000  0.15000000  0.15000000       0.006
   0.35000000  0.15000000  0.15000000       0.006
   0.45000000  0.15000000  0.15000000       0.006
  -0.45000000  0.15000000  0.15000000       0.006
  -0.35000000  0.15000000  0.15000000       0.006
  -0.25000000  0.15000000  0.15000000       0.006
  -0.15000000  0.15000000  0.15000000       0.006
   0.25000000  0.25000000  0.15000000       0.006
   0.35000000  0.25000000  0.15000000       0.012
   0.45000000  0.25000000  0.15000000       0.012
  -0.45000000  0.25000000  0.15000000       0.012
  -0.35000000  0.25000000  0.15000000       0.012
  -0.25000000  0.25000000  0.15000000       0.012
  -0.15000000  0.25000000  0.15000000       0.012
   0.35000000  0.35000000  0.15000000       0.006
   0.45000000  0.35000000  0.15000000       0.012
  -0.45000000  0.35000000  0.15000000       0.012
  -0.35000000  0.35000000  0.15000000       0.012
  -0.25000000  0.35000000  0.15000000       0.012
  -0.15000000  0.35000000  0.15000000       0.012
   0.45000000  0.45000000  0.15000000       0.006
  -0.45000000  0.45000000  0.15000000       0.012
  -0.35000000  0.45000000  0.15000000       0.012
  -0.25000000  0.45000000  0.15000000       0.012
  -0.15000000  0.45000000  0.15000000       0.012
  -0.45000000 -0.45000000  0.15000000       0.006
  -0.35000000 -0.45000000  0.15000000       0.012
  -0.25000000 -0.45000000  0.15000000       0.012
  -0.35000000 -0.35000000  0.15000000       0.006
  -0.25000000 -0.35000000  0.15000000       0.012
  -0.25000000 -0.25000000  0.15000000       0.006
   0.25000000  0.25000000  0.25000000       0.002
   0.35000000  0.25000000  0.25000000       0.006
   0.45000000  0.25000000  0.25000000       0.006
  -0.45000000  0.25000000  0.25000000       0.006
  -0.35000000  0.25000000  0.25000000       0.006
  -0.25000000  0.25000000  0.25000000       0.006
   0.35000000  0.35000000  0.25000000       0.006
   0.45000000  0.35000000  0.25000000       0.012
  -0.45000000  0.35000000  0.25000000       0.012
  -0.35000000  0.35000000  0.25000000       0.012
  -0.25000000  0.35000000  0.25000000       0.012
   0.45000000  0.45000000  0.25000000       0.006
  -0.45000000  0.45000000  0.25000000       0.012
  -0.35000000  0.45000000  0.25000000       0.012
  -0.25000000  0.45000000  0.25000000       0.012
  -0.45000000 -0.45000000  0.25000000       0.006
  -0.35000000 -0.45000000  0.25000000       0.012
  -0.35000000 -0.35000000  0.25000000       0.006
   0.35000000  0.35000000  0.35000000       0.002
   0.45000000  0.35000000  0.35000000       0.006
  -0.45000000  0.35000000  0.35000000       0.006
  -0.35000000  0.35000000  0.35000000       0.006
   0.45000000  0.45000000  0.35000000       0.006
  -0.45000000  0.45000000  0.35000000       0.012
  -0.35000000  0.45000000  0.35000000       0.012
  -0.45000000 -0.45000000  0.35000000       0.006
   0.45000000  0.45000000  0.45000000       0.002
  -0.45000000  0.45000000  0.45000000       0.006
 
 position of ions in fractional coordinates (direct lattice) 
   0.00000000  0.00000000  0.00000000
 
 position of ions in cartesian coordinates  (Angst):
   0.00000000  0.00000000  0.00000000
 


--------------------------------------------------------------------------------------------------------


 k-point  1 :   0.0500 0.0500 0.0500  plane waves:     134
 k-point  2 :   0.1500 0.0500 0.0500  plane waves:     129
 k-point  3 :   0.2500 0.0500 0.0500  plane waves:     130
 k-point  4 :   0.3500 0.0500 0.0500  plane waves:     131
 k-point  5 :   0.4500 0.0500 0.0500  plane waves:     127
 k-point  6 :  -0.4500 0.0500 0.0500  plane waves:     127
 k-point  7 :  -0.3500 0.0500 0.0500  plane waves:     127
 k-point  8 :  -0.2500 0.0500 0.0500  plane waves:     131
 k-point  9 :  -0.1500 0.0500 0.0500  plane waves:     127
 k-point 10 :  -0.0500 0.0500 0.0500  plane waves:     129
 k-point 11 :   0.1500 0.1500 0.0500  plane waves:     126
 k-point 12 :   0.2500 0.1500 0.0500  plane waves:     132
 k-point 13 :   0.3500 0.1500 0.0500  plane waves:     132
 k-point 14 :   0.4500 0.1500 0.0500  plane waves:     128
 k-point 15 :  -0.4500 0.1500 0.0500  plane waves:     126
 k-point 16 :  -0.3500 0.1500 0.0500  plane waves:     126
 k-point 17 :  -0.2500 0.1500 0.0500  plane waves:     132
 k-point 18 :  -0.1500 0.1500 0.0500  plane waves:     134
 k-point 19 :  -0.0500 0.1500 0.0500  plane waves:     130
 k-point 20 :   0.2500 0.2500 0.0500  plane waves:     130
 k-point 21 :   0.3500 0.2500 0.0500  plane waves:     128
 k-point 22 :   0.4500 0.2500 0.0500  plane waves:     126
 k-point 23 :  -0.4500 0.2500 0.0500  plane waves:     125
 k-point 24 :  -0.3500 0.2500 0.0500  plane waves:     126
 k-point 25 :  -0.2500 0.2500 0.0500  plane waves:     128
 k-point 26 :  -0.1500 0.2500 0.0500  plane waves:     132
 k-point 27 :  -0.0500 0.2500 0.0500  plane waves:     132
 k-point 28 :   0.3500 0.3500 0.0500  plane waves:     129
 k-point 29 :   0.4500 0.3500 0.0500  plane waves:     125
 k-point 30 :  -0.4500 0.3500 0.0500  plane waves:     125
 k-point 31 :  -0.3500 0.3500 0.0500  plane waves:     123
 k-point 32 :  -0.2500 0.3500 0.0500  plane waves:     125
 k-point 33 :  -0.1500 0.3500 0.0500  plane waves:     129
 k-point 34 :  -0.0500 0.3500 0.0500  plane waves:     132
 k-point 35 :   0.4500 0.4500 0.0500  plane waves:     121
 k-point 36 :  -0.4500 0.4500 0.0500  plane waves:     120
 k-point 37 :  -0.3500 0.4500 0.0500  plane waves:     124
 k-point 38 :  -0.2500 0.4500 0.0500  plane waves:     124
 k-point 39 :  -0.1500 0.4500 0.0500  plane waves:     126
 k-point 40 :  -0.0500 0.4500 0.0500  plane waves:     126
 k-point 41 :  -0.4500-0.4500 0.0500  plane waves:     118
 k-point 42 :  -0.3500-0.4500 0.0500  plane waves:     123
 k-point 43 :  -0.2500-0.4500 0.0500  plane waves:     125
 k-point 44 :  -0.1500-0.4500 0.0500  plane waves:     126
 k-point 45 :  -0.3500-0.3500 0.0500  plane waves:     127
 k-point 46 :  -0.2500-0.3500 0.0500  plane waves:     128
 k-point 47 :  -0.1500-0.3500 0.0500  plane waves:     131
 k-point 48 :  -0.2500-0.2500 0.0500  plane waves:     128
 k-point 49 :  -0.1500-0.2500 0.0500  plane waves:     131
 k-point 50 :  -0.1500-0.1500 0.0500  plane waves:     130
 k-point 51 :   0.1500 0.1500 0.1500  plane waves:     129
 k-point 52 :   0.2500 0.1500 0.1500  plane waves:     131
 k-point 53 :   0.3500 0.1500 0.1500  plane waves:     133
 k-point 54 :   0.4500 0.1500 0.1500  plane waves:     130
 k-point 55 :  -0.4500 0.1500 0.1500  plane waves:     127
 k-point 56 :  -0.3500 0.1500 0.1500  plane waves:     123
 k-point 57 :  -0.2500 0.1500 0.1500  plane waves:     130
 k-point 58 :  -0.1500 0.1500 0.1500  plane waves:     132
 k-point 59 :   0.2500 0.2500 0.1500  plane waves:     130
 k-point 60 :   0.3500 0.2500 0.1500  plane waves:     133
 k-point 61 :   0.4500 0.2500 0.1500  plane waves:     127
 k-point 62 :  -0.4500 0.2500 0.1500  plane waves:     127
 k-point 63 :  -0.3500 0.2500 0.1500  plane waves:     123
 k-point 64 :  -0.2500 0.2500 0.1500  plane waves:     126
 k-point 65 :  -0.1500 0.2500 0.1500  plane waves:     130
 k-point 66 :   0.3500 0.3500 0.1500  plane waves:     132
 k-point 67 :   0.4500 0.3500 0.1500  plane waves:     126
 k-point 68 :  -0.4500 0.3500 0.1500  plane waves:     124
 k-point 69 :  -0.3500 0.3500 0.1500  plane waves:     121
 k-point 70 :  -0.2500 0.3500 0.1500  plane waves:     124
 k-point 71 :  -0.1500 0.3500 0.1500  plane waves:     126
 k-point 72 :   0.4500 0.4500 0.1500  plane waves:     124
 k-point 73 :  -0.4500 0.4500 0.1500  plane waves:     124
 k-point 74 :  -0.3500 0.4500 0.1500  plane waves:     123
 k-point 75 :  -0.2500 0.4500 0.1500  plane waves:     124
 k-point 76 :  -0.1500 0.4500 0.1500  plane waves:     122
 k-point 77 :  -0.4500-0.4500 0.1500  plane waves:     124
 k-point 78 :  -0.3500-0.4500 0.1500  plane waves:     123
 k-point 79 :  -0.2500-0.4500 0.1500  plane waves:     123
 k-point 80 :  -0.3500-0.3500 0.1500  plane waves:     124
 k-point 81 :  -0.2500-0.3500 0.1500  plane waves:     126
 k-point 82 :  -0.2500-0.2500 0.1500  plane waves:     128
 k-point 83 :   0.2500 0.2500 0.2500  plane waves:     132
 k-point 84 :   0.3500 0.2500 0.2500  plane waves:     132
 k-point 85 :   0.4500 0.2500 0.2500  plane waves:     131
 k-point 86 :  -0.4500 0.2500 0.2500  plane waves:     128
 k-point 87 :  -0.3500 0.2500 0.2500  plane waves:     125
 k-point 88 :  -0.2500 0.2500 0.2500  plane waves:     124
 k-point 89 :   0.3500 0.3500 0.2500  plane waves:     132
 k-point 90 :   0.4500 0.3500 0.2500  plane waves:     130
 k-point 91 :  -0.4500 0.3500 0.2500  plane waves:     128
 k-point 92 :  -0.3500 0.3500 0.2500  plane waves:     123
 k-point 93 :  -0.2500 0.3500 0.2500  plane waves:     123
 k-point 94 :   0.4500 0.4500 0.2500  plane waves:     128
 k-point 95 :  -0.4500 0.4500 0.2500  plane waves:     127
 k-point 96 :  -0.3500 0.4500 0.2500  plane waves:     120
 k-point 97 :  -0.2500 0.4500 0.2500  plane waves:     117
 k-point 98 :  -0.4500-0.4500 0.2500  plane waves:     127
 k-point 99 :  -0.3500-0.4500 0.2500  plane waves:     124
 k-point ** :  -0.3500-0.3500 0.2500  plane waves:     124
 k-point ** :   0.3500 0.3500 0.3500  plane waves:     132
 k-point ** :   0.4500 0.3500 0.3500  plane waves:     129
 k-point ** :  -0.4500 0.3500 0.3500  plane waves:     129
 k-point ** :  -0.3500 0.3500 0.3500  plane waves:     124
 k-point ** :   0.4500 0.4500 0.3500  plane waves:     129
 k-point ** :  -0.4500 0.4500 0.3500  plane waves:     124
 k-point ** :  -0.3500 0.4500 0.3500  plane waves:     123
 k-point ** :  -0.4500-0.4500 0.3500  plane waves:     125
 k-point ** :   0.4500 0.4500 0.4500  plane waves:     123
 k-point ** :  -0.4500 0.4500 0.4500  plane waves:     129

 maximum and minimum number of plane-waves per node :       134      117

 maximum number of plane-waves:       134
 maximum index in each direction: 
   IXMAX=    3   IYMAX=    3   IZMAX=    3
   IXMIN=   -3   IYMIN=   -3   IZMIN=   -3


 serial   3D FFT for wavefunctions
 parallel 3D FFT for charge:
    minimum data exchange during FFTs selected (reduces bandwidth)


 total amount of memory used by VASP MPI-rank0    33328. kBytes
=======================================================================

   base      :      30000. kBytes
   nonl-proj :       2156. kBytes
   fftplans  :        142. kBytes
   grid      :        192. kBytes
   one-center:         15. kBytes
   wavefun   :        823. kBytes
 
     INWAV:  cpu time    0.0239: real time    0.0545
 Broyden mixing: mesh for mixing (old mesh)
   NGX =  7   NGY =  7   NGZ =  7
  (NGX  = 20   NGY  = 20   NGZ  = 20)
  gives a total of    343 points

 charge density for first step will be calculated from the start-wavefunctions


--------------------------------------------------------------------------------------------------------


 Maximum index for augmentation-charges          943 (set IRDMAX)


--------------------------------------------------------------------------------------------------------


 initial charge from wavefunction
 First call to EWALD:  gamma=   0.703
 Maximum number of real-space cells 3x 3x 3
 Maximum number of reciprocal cells 3x 3x 3

    FEWALD:  cpu time    0.0013: real time    0.0013


--------------------------------------- Iteration      1(   1)  ---------------------------------------


    POTLOK:  cpu time    0.0027: real time    0.1166
    SETDIJ:  cpu time    0.0013: real time    0.0013
     EDDAV:  cpu time    0.3057: real time    0.9105
       DOS:  cpu time    0.0015: real time    0.0015
    CHARGE:  cpu time    0.0027: real time    0.0049
    MIXING:  cpu time    0.0002: real time    0.0002
    --------------------------------------------
      LOOP:  cpu time    0.3143: real time    1.0351

 eigenvalue-minimisations  :  3080
 total energy-change (2. order) :-0.4808719E+01  (-0.6238784E+00)
 number of electron      11.0000052 magnetization 
 augmentation part        3.7746523 magnetization 

 Broyden mixing:
  rms(total) = 0.38174E+00    rms(broyden)= 0.38169E+00
  rms(prec ) = 0.14065E+01
  weight for this iteration     100.00

 Free energy of the ion-electron system (eV)
  ---------------------------------------------------
  alpha Z        PSCENC =       114.86745875
  Ewald energy   TEWEN  =      -998.56820046
  -Hartree energ DENC   =      -113.40372989
  -exchange      EXHF   =         0.00000000
  -V(xc)+E(xc)   XCENC  =        16.40218177
  PAW double counting   =       773.36948546     -755.98436149
  entropy T*S    EENTRO =        -0.00073134
  eigenvalues    EBANDS =        29.11284587
  atomic energy  EATOM  =       929.39633208
  Solvation  Ediel_sol  =         0.00000000
  ---------------------------------------------------
  free energy    TOTEN  =        -4.80871925 eV

  energy without entropy =       -4.80798792  energy(sigma->0) =       -4.80847547


--------------------------------------------------------------------------------------------------------




--------------------------------------- Iteration      1(   2)  ---------------------------------------


    POTLOK:  cpu time    0.0012: real time    0.0018
    SETDIJ:  cpu time    0.0005: real time    0.0068
     EDDAV:  cpu time    0.2889: real time    0.8857
       DOS:  cpu time    0.0015: real time    0.0014
    CHARGE:  cpu time    0.0031: real time    0.0092
    MIXING:  cpu time    0.0004: real time    0.0004
    --------------------------------------------
      LOOP:  cpu time    0.2955: real time    0.9053

 eigenvalue-minimisations  :  3008
 total energy-change (2. order) : 0.4200027E+00  (-0.1160231E+00)
 number of electron      11.0000054 magnetization 
 augmentation part        3.9448498 magnetization 

 Broyden mixing:
  rms(total) = 0.75447E-01    rms(broyden)= 0.75434E-01
  rms(prec ) = 0.26201E+00
  weight for this iteration     100.00

 eigenvalues of (default mixing * dielectric matrix)
  average eigenvalue GAMMA=   1.2450
  1.2450

 Free energy of the ion-electron system (eV)
  ---------------------------------------------------
  alpha Z        PSCENC =       114.86745875
  Ewald energy   TEWEN  =      -998.56820046
  -Hartree energ DENC   =      -105.39983126
  -exchange      EXHF   =         0.00000000
  -V(xc)+E(xc)   XCENC  =        16.01098791
  PAW double counting   =       760.92447083     -743.61620058
  entropy T*S    EENTRO =         0.00019361
  eigenvalues    EBANDS =        21.99607256
  atomic energy  EATOM  =       929.39633208
  Solvation  Ediel_sol  =         0.00000000
  ---------------------------------------------------
  free energy    TOTEN  =        -4.38871655 eV

  energy without entropy =       -4.38891017  energy(sigma->0) =       -4.38878109


--------------------------------------------------------------------------------------------------------




--------------------------------------- Iteration      1(   3)  ---------------------------------------


    POTLOK:  cpu time    0.0011: real time    0.0011
    SETDIJ:  cpu time    0.0009: real time    0.0024
     EDDAV:  cpu time    0.2968: real time    0.8988
       DOS:  cpu time    0.0018: real time    0.0061
    CHARGE:  cpu time    0.0027: real time    0.0087
    MIXING:  cpu time    0.0004: real time    0.0003
    --------------------------------------------
      LOOP:  cpu time    0.3036: real time    0.9174

 eigenvalue-minimisations  :  3132
 total energy-change (2. order) : 0.1564546E-01  (-0.7089025E-02)
 number of electron      11.0000054 magnetization 
 augmentation part        3.9858411 magnetization 

 Broyden mixing:
  rms(total) = 0.67915E-02    rms(broyden)= 0.67338E-02
  rms(prec ) = 0.16625E-01
  weight for this iteration     100.00

 eigenvalues of (default mixing * dielectric matrix)
  average eigenvalue GAMMA=   1.9479
  1.2452  2.6506

 Free energy of the ion-electron system (eV)
  ---------------------------------------------------
  alpha Z        PSCENC =       114.86745875
  Ewald energy   TEWEN  =      -998.56820046
  -Hartree energ DENC   =      -103.63950911
  -exchange      EXHF   =         0.00000000
  -V(xc)+E(xc)   XCENC  =        15.92677465
  PAW double counting   =       759.95086057     -742.56936325
  entropy T*S    EENTRO =         0.00059120
  eigenvalues    EBANDS =        20.26198448
  atomic energy  EATOM  =       929.39633208
  Solvation  Ediel_sol  =         0.00000000
  ---------------------------------------------------
  free energy    TOTEN  =        -4.37307109 eV

  energy without entropy =       -4.37366229  energy(sigma->0) =       -4.37326816


--------------------------------------------------------------------------------------------------------




--------------------------------------- Iteration      1(   4)  ---------------------------------------


    POTLOK:  cpu time    0.0012: real time    0.0012
    SETDIJ:  cpu time    0.0003: real time    0.0017
     EDDAV:  cpu time    0.2987: real time    0.9030
       DOS:  cpu time    0.0013: real time    0.0015
    CHARGE:  cpu time    0.0027: real time    0.0032
    MIXING:  cpu time    0.0007: real time    0.0050
    --------------------------------------------
      LOOP:  cpu time    0.3050: real time    0.9156

 eigenvalue-minimisations  :  2884
 total energy-change (2. order) :-0.2609105E-03  (-0.4746436E-04)
 number of electron      11.0000054 magnetization 
 augmentation part        3.9857267 magnetization 

 Broyden mixing:
  rms(total) = 0.14447E-02    rms(broyden)= 0.14336E-02
  rms(prec ) = 0.25458E-02
  weight for this iteration     100.00

 eigenvalues of (default mixing * dielectric matrix)
  average eigenvalue GAMMA=   1.6682
  1.1917  1.1917  2.6212

 Free energy of the ion-electron system (eV)
  ---------------------------------------------------
  alpha Z        PSCENC =       114.86745875
  Ewald energy   TEWEN  =      -998.56820046
  -Hartree energ DENC   =      -103.80183564
  -exchange      EXHF   =         0.00000000
  -V(xc)+E(xc)   XCENC  =        15.93601323
  PAW double counting   =       762.84399184     -745.34479198
  entropy T*S    EENTRO =         0.00058872
  eigenvalues    EBANDS =        20.29711146
  atomic energy  EATOM  =       929.39633208
  Solvation  Ediel_sol  =         0.00000000
  ---------------------------------------------------
  free energy    TOTEN  =        -4.37333200 eV

  energy without entropy =       -4.37392073  energy(sigma->0) =       -4.37352825


--------------------------------------------------------------------------------------------------------




--------------------------------------- Iteration      1(   5)  ---------------------------------------


    POTLOK:  cpu time    0.0013: real time    0.0015
    SETDIJ:  cpu time    0.0008: real time    0.0011
     EDDAV:  cpu time    0.2397: real time    0.6190
       DOS:  cpu time    0.0014: real time    0.0014
    --------------------------------------------
      LOOP:  cpu time    0.2432: real time    0.6231

 eigenvalue-minimisations  :  1476
 total energy-change (2. order) :-0.1032954E-05  (-0.7140087E-06)
 number of electron      11.0000054 magnetization 
 augmentation part        3.9857267 magnetization 

 Free energy of the ion-electron system (eV)
  ---------------------------------------------------
  alpha Z        PSCENC =       114.86745875
  Ewald energy   TEWEN  =      -998.56820046
  -Hartree energ DENC   =      -103.81042118
  -exchange      EXHF   =         0.00000000
  -V(xc)+E(xc)   XCENC  =        15.93669087
  PAW double counting   =       763.32179175     -745.80090633
  entropy T*S    EENTRO =         0.00059218
  eigenvalues    EBANDS =        20.28332931
  atomic energy  EATOM  =       929.39633208
  Solvation  Ediel_sol  =         0.00000000
  ---------------------------------------------------
  free energy    TOTEN  =        -4.37333304 eV

  energy without entropy =       -4.37392522  energy(sigma->0) =       -4.37353043


--------------------------------------------------------------------------------------------------------




 average (electrostatic) potential at core
  the test charge radii are     1.2098
  (the norm of the test charge is              1.0000)
       1 -45.1897
 
 
 
 E-fermi :   6.4314     XC(G=0): -13.3506     alpha+bet :-10.9613


 k-point     1 :       0.0500    0.0500    0.0500
  band No.  band energies     occupation 
      1      -4.1136      2.00000
      2       1.3107      2.00000
      3       1.3760      2.00000
      4       1.3760      2.00000
      5       3.0468      2.00000
      6       3.0468      2.00000
      7      21.8470      0.00000
      8      25.2738      0.00000
      9      26.0651      0.00000
     10      26.0651      0.00000
     11      31.0306      0.00000
     12      34.5398      0.00000

 k-point     2 :       0.1500    0.0500    0.0500
  band No.  band energies     occupation 
      1      -3.6330      2.00000
      2       1.1388      2.00000
      3       1.5292      2.00000
      4       1.5653      2.00000
      5       2.8817      2.00000
      6       3.1020      2.00000
      7      22.2926      0.00000
      8      23.2736      0.00000
      9      25.7756      0.00000
     10      27.0537      0.00000
     11      30.7021      0.00000
     12      33.4210      0.00000

 k-point     3 :       0.2500    0.0500    0.0500
  band No.  band energies     occupation 
      1      -2.5997      2.00000
      2       1.0031      2.00000
      3       1.6971      2.00000
      4       1.7221      2.00000
      5       2.8886      2.00000
      6       3.3384      2.00000
      7      19.4918      0.00000
      8      22.9360      0.00000
      9      26.1023      0.00000
     10      28.4767      0.00000
     11      28.5352      0.00000
     12      31.1618      0.00000

 k-point     4 :       0.3500    0.0500    0.0500
  band No.  band energies     occupation 
      1      -1.6955      2.00000
      2       1.4954      2.00000
      3       1.5933      2.00000
      4       1.7188      2.00000
      5       3.4302      2.00000
      6       3.9686      2.00000
      7      15.4285      0.00000
      8      22.1980      0.00000
      9      25.1678      0.00000
     10      27.4789      0.00000
     11      29.6810      0.00000
     12      30.9114      0.00000

 k-point     5 :       0.4500    0.0500    0.0500
  band No.  band energies     occupation 
      1      -1.4849      2.00000
      2       1.3286      2.00000
      3       1.4073      2.00000
      4       3.3287      2.00000
      5       4.0992      2.00000
      6       4.8689      2.00000
      7      11.5698     -0.00000
      8      21.3540      0.00000
      9      24.1467      0.00000
     10      25.2925      0.00000
     11      31.6820      0.00000
     12      32.0513      0.00000

 k-point     6 :      -0.4500    0.0500    0.0500
  band No.  band energies     occupation 
      1      -1.4848      2.00000
      2       1.2544      2.00000
      3       1.3624      2.00000
      4       3.8199      2.00000
      5       4.4215      2.00000
      6       5.6668      2.00000
      7       9.8995     -0.00000
      8      21.1227      0.00000
      9      24.1849      0.00000
     10      24.2978      0.00000
     11      32.2659      0.00000
     12      32.3532      0.00000

 k-point     7 :      -0.3500    0.0500    0.0500
  band No.  band energies     occupation 
      1      -1.5074      2.00000
      2       1.3621      2.00000
      3       1.4854      2.00000
      4       2.7185      2.00000
      5       4.1929      2.00000
      6       4.2897      2.00000
      7      12.7704      0.00000
      8      21.6033      0.00000
      9      24.6555      0.00000
     10      25.5276      0.00000
     11      31.6325      0.00000
     12      31.7341      0.00000

 k-point     8 :      -0.2500    0.0500    0.0500
  band No.  band energies     occupation 
      1      -1.9204      2.00000
      2       1.2709      2.00000
      3       1.6077      2.00000
      4       1.6778      2.00000
      5       3.3266      2.00000
      6       3.6297      2.00000
      7      16.7998      0.00000
      8      22.5885      0.00000
      9      25.7123      0.00000
     10      27.6030      0.00000
     11      29.3838      0.00000
     12      31.1824      0.00000

 k-point     9 :      -0.1500    0.0500    0.0500
  band No.  band energies     occupation 
      1      -2.9780      2.00000
      2       0.9934      2.00000
      3       1.6886      2.00000
      4       1.7031      2.00000
      5       2.8417      2.00000
      6       3.2033      2.00000
      7      20.7692      0.00000
      8      22.9925      0.00000
      9      26.0968      0.00000
     10      27.5541      0.00000
     11      29.3680      0.00000
     12      31.9447      0.00000

 k-point    10 :      -0.0500    0.0500    0.0500
  band No.  band energies     occupation 
      1      -3.8690      2.00000
      2       1.1896      2.00000
      3       1.4820      2.00000
      4       1.4882      2.00000
      5       2.9084      2.00000
      6       3.1110      2.00000
      7      22.1296      0.00000
      8      24.3469      0.00000
      9      25.8621      0.00000
     10      26.2180      0.00000
     11      31.8112      0.00000
     12      33.6961      0.00000

 k-point    11 :       0.1500    0.1500    0.0500
  band No.  band energies     occupation 
      1      -3.3946      2.00000
      2       0.9504      2.00000
      3       1.7035      2.00000
      4       1.7077      2.00000
      5       2.6637      2.00000
      6       3.2341      2.00000
      7      22.6183      0.00000
      8      23.4617      0.00000
      9      25.2814      0.00000
     10      25.8571      0.00000
     11      31.2357      0.00000
     12      32.7776      0.00000

 k-point    12 :       0.2500    0.1500    0.0500
  band No.  band energies     occupation 
      1      -2.5345      2.00000
      2       0.6747      2.00000
      3       1.8066      2.00000
      4       2.0127      2.00000
      5       2.6001      2.00000
      6       3.4783      2.00000
      7      21.0357      0.00000
      8      22.8219      0.00000
      9      24.8049      0.00000
     10      26.0883      0.00000
     11      29.1946      0.00000
     12      31.9115      0.00000

 k-point    13 :       0.3500    0.1500    0.0500
  band No.  band energies     occupation 
      1      -1.4908      2.00000
      2       0.7647      2.00000
      3       1.4702      2.00000
      4       2.0221      2.00000
      5       3.3286      2.00000
      6       4.1139      2.00000
      7      17.0351      0.00000
      8      22.2945      0.00000
      9      23.7415      0.00000
     10      26.1106      0.00000
     11      29.8331      0.00000
     12      31.5493      0.00000

 k-point    14 :       0.4500    0.1500    0.0500
  band No.  band energies     occupation 
      1      -1.1079      2.00000
      2       1.1355      2.00000
      3       1.7186      2.00000
      4       1.8947      2.00000
      5       4.1679      2.00000
      6       5.3533      2.00000
      7      12.9451      0.00000
      8      21.6617      0.00000
      9      22.5430      0.00000
     10      24.7801      0.00000
     11      31.6008      0.00000
     12      32.8367      0.00000

 k-point    15 :      -0.4500    0.1500    0.0500
  band No.  band energies     occupation 
      1      -1.0922      2.00000
      2       0.9937      2.00000
      3       1.6910      2.00000
      4       2.6760      2.00000
      5       4.3662      2.00000
      6       7.2272     -0.00000
      7       9.8612     -0.00000
      8      21.1668      0.00000
      9      22.2167      0.00000
     10      23.8969      0.00000
     11      32.2154      0.00000
     12      33.2214      0.00000

 k-point    16 :      -0.3500    0.1500    0.0500
  band No.  band energies     occupation 
      1      -1.0700      2.00000
      2       1.0837      2.00000
      3       1.7185      2.00000
      4       2.3142      2.00000
      5       4.0066      2.00000
      6       6.0934      2.03796
      7      11.7809     -0.00000
      8      20.9777      0.00000
      9      22.4952      0.00000
     10      24.9421      0.00000
     11      31.2598      0.00000
     12      32.9113      0.00000

 k-point    17 :      -0.2500    0.1500    0.0500
  band No.  band energies     occupation 
      1      -1.2435      2.00000
      2       1.0722      2.00000
      3       1.4094      2.00000
      4       1.9271      2.00000
      5       3.2335      2.00000
      6       4.7016      2.00000
      7      15.6704      0.00000
      8      21.3089      0.00000
      9      23.5906      0.00000
     10      27.0187      0.00000
     11      29.2987      0.00000
     12      31.9818      0.00000

 k-point    18 :      -0.1500    0.1500    0.0500
  band No.  band energies     occupation 
      1      -2.1628      2.00000
      2       0.7211      2.00000
      3       1.6879      2.00000
      4       2.0379      2.00000
      5       2.5950      2.00000
      6       3.7640      2.00000
      7      19.6298      0.00000
      8      21.9685      0.00000
      9      25.3380      0.00000
     10      26.3746      0.00000
     11      30.1095      0.00000
     12      30.9510      0.00000

 k-point    19 :      -0.0500    0.1500    0.0500
  band No.  band energies     occupation 
      1      -3.1758      2.00000
      2       0.9533      2.00000
      3       1.7047      2.00000
      4       1.7164      2.00000
      5       2.7074      2.00000
      6       3.2437      2.00000
      7      21.9852      0.00000
      8      22.8036      0.00000
      9      25.3541      0.00000
     10      27.1906      0.00000
     11      29.7415      0.00000
     12      32.8578      0.00000

 k-point    20 :       0.2500    0.2500    0.0500
  band No.  band energies     occupation 
      1      -1.9654      2.00000
      2       0.2827      2.00000
      3       1.9708      2.00000
      4       2.4340      2.00000
      5       2.6424      2.00000
      6       3.6132      2.00000
      7      21.5516      0.00000
      8      22.7419      0.00000
      9      23.6570      0.00000
     10      24.5826      0.00000
     11      26.2753      0.00000
     12      33.2549      0.00000

 k-point    21 :       0.3500    0.2500    0.0500
  band No.  band energies     occupation 
      1      -1.1432      2.00000
      2       0.0353      2.00000
      3       1.6839      2.00000
      4       2.8176      2.00000
      5       3.3662      2.00000
      6       4.1397      2.00000
      7      18.7932      0.00000
      8      20.7913      0.00000
      9      22.4182      0.00000
     10      25.1989      0.00000
     11      26.6243      0.00000
     12      33.3580      0.00000

 k-point    22 :       0.4500    0.2500    0.0500
  band No.  band energies     occupation 
      1      -0.6717      2.00000
      2       0.3136      2.00000
      3       1.4139      2.00000
      4       2.6682      2.00000
      5       4.2664      2.00000
      6       5.6520      2.00000
      7      14.5937      0.00000
      8      20.1065      0.00000
      9      20.6416      0.00000
     10      24.7578      0.00000
     11      29.8980      0.00000
     12      33.4092      0.00000

 k-point    23 :      -0.4500    0.2500    0.0500
  band No.  band energies     occupation 
      1      -0.5475      2.00000
      2       0.5962      2.00000
      3       1.6273      2.00000
      4       2.4467      2.00000
      5       4.4053      2.00000
      6       8.2182     -0.00000
      7      10.8924     -0.00000
      8      18.7949      0.00000
      9      20.7121      0.00000
     10      24.2526      0.00000
     11      32.4890      0.00000
     12      34.2389      0.00000

 k-point    24 :      -0.3500    0.2500    0.0500
  band No.  band energies     occupation 
      1      -0.3579      2.00000
      2       0.6694      2.00000
      3       1.6426      2.00000
      4       2.3316      2.00000
      5       3.9556      2.00000
      6       8.0520     -0.00000
      7      11.4747     -0.00000
      8      17.6678      0.00000
      9      21.9364      0.00000
     10      24.4343      0.00000
     11      31.5661      0.00000
     12      34.0101      0.00000

 k-point    25 :      -0.2500    0.2500    0.0500
  band No.  band energies     occupation 
      1      -0.2594      2.00000
      2       0.7608      2.00000
      3       1.0313      2.00000
      4       2.4197      2.00000
      5       3.1905      2.00000
      6       6.2130      2.06446
      7      14.9528      0.00000
      8      17.6044      0.00000
      9      23.0980      0.00000
     10      26.0813      0.00000
     11      29.2089      0.00000
     12      33.8820      0.00000

 k-point    26 :      -0.1500    0.2500    0.0500
  band No.  band energies     occupation 
      1      -1.0701      2.00000
      2       0.6337      2.00000
      3       1.3812      2.00000
      4       2.2883      2.00000
      5       2.7474      2.00000
      6       4.8029      2.00000
      7      17.1402      0.00000
      8      19.9093      0.00000
      9      24.0681      0.00000
     10      27.2159      0.00000
     11      28.5752      0.00000
     12      32.5620      0.00000

 k-point    27 :      -0.0500    0.2500    0.0500
  band No.  band energies     occupation 
      1      -2.0797      2.00000
      2       0.9175      2.00000
      3       1.6604      2.00000
      4       1.8269      2.00000
      5       2.9544      2.00000
      6       3.6852      2.00000
      7      18.2546      0.00000
      8      22.7368      0.00000
      9      25.0824      0.00000
     10      27.4643      0.00000
     11      29.4853      0.00000
     12      30.7649      0.00000

 k-point    28 :       0.3500    0.3500    0.0500
  band No.  band energies     occupation 
      1      -1.0179      2.00000
      2      -0.3804      2.00000
      3       2.6313      2.00000
      4       3.4044      2.00000
      5       3.8551      2.00000
      6       4.0733      2.00000
      7      18.7392      0.00000
      8      19.6905      0.00000
      9      20.0681      0.00000
     10      24.0420      0.00000
     11      25.9851      0.00000
     12      35.7893      0.00000

 k-point    29 :       0.4500    0.3500    0.0500
  band No.  band energies     occupation 
      1      -0.8763      2.00000
      2      -0.4987      2.00000
      3       2.6923      2.00000
      4       3.7352      2.00000
      5       4.2825      2.00000
      6       5.6804      2.00000
      7      15.8465      0.00000
      8      17.9819      0.00000
      9      18.6031      0.00000
     10      25.1083      0.00000
     11      27.0536      0.00000
     12      35.4023      0.00000

 k-point    30 :      -0.4500    0.3500    0.0500
  band No.  band energies     occupation 
      1      -0.6987      2.00000
      2      -0.1600      2.00000
      3       2.3020      2.00000
      4       3.3970      2.00000
      5       4.5155      2.00000
      6       8.4502     -0.00000
      7      12.4682      0.00000
      8      16.2672      0.00000
      9      18.6953      0.00000
     10      25.2972      0.00000
     11      29.8751      0.00000
     12      34.3853      0.00000

 k-point    31 :      -0.3500    0.3500    0.0500
  band No.  band energies     occupation 
      1      -0.3776      2.00000
      2       0.3917      2.00000
      3       1.7052      2.00000
      4       3.0303      2.00000
      5       4.1493      2.00000
      6       9.7219     -0.00000
      7      11.9029      0.00000
      8      14.5569      0.00000
      9      20.1200      0.00000
     10      24.9859      0.00000
     11      32.9347      0.00000
     12      33.5314      0.00000

 k-point    32 :      -0.2500    0.3500    0.0500
  band No.  band energies     occupation 
      1      -0.0596      2.00000
      2       0.7123      2.00000
      3       1.1616      2.00000
      4       2.6328      2.00000
      5       3.6894      2.00000
      6       7.8863     -0.00000
      7      13.3881      0.00000
      8      15.5564      0.00000
      9      21.9697      0.00000
     10      24.8370      0.00000
     11      31.1514      0.00000
     12      34.2406      0.00000

 k-point    33 :      -0.1500    0.3500    0.0500
  band No.  band energies     occupation 
      1      -0.6816      2.00000
      2       0.9715      2.00000
      3       1.4996      2.00000
      4       2.0822      2.00000
      5       3.5916      2.00000
      6       6.1802      2.07063
      7      13.3299      0.00000
      8      19.3598      0.00000
      9      22.7729      0.00000
     10      25.5344      0.00000
     11      30.1303      0.00000
     12      33.3606      0.00000

 k-point    34 :      -0.0500    0.3500    0.0500
  band No.  band energies     occupation 
      1      -1.4183      2.00000
      2       1.3639      2.00000
      3       1.6382      2.00000
      4       1.8779      2.00000
      5       3.7351      2.00000
      6       4.5059      2.00000
      7      14.1443      0.00000
      8      21.9158      0.00000
      9      23.8800      0.00000
     10      26.2696      0.00000
     11      30.5783      0.00000
     12      31.7222      0.00000

 k-point    35 :       0.4500    0.4500    0.0500
  band No.  band energies     occupation 
      1      -1.1661      2.00000
      2      -0.8152      2.00000
      3       4.1480      2.00000
      4       4.1735      2.00000
      5       4.5534      2.00000
      6       6.1058      2.04352
      7      14.5298      0.00000
      8      17.1430      0.00000
      9      17.4665      0.00000
     10      24.4273      0.00000
     11      26.9278      0.00000
     12      36.7036      0.00000

 k-point    36 :      -0.4500    0.4500    0.0500
  band No.  band energies     occupation 
      1      -1.0896      2.00000
      2      -0.7596      2.00000
      3       3.7155      2.00000
      4       4.1167      2.00000
      5       4.7165      2.00000
      6       8.2125     -0.00000
      7      12.6045      0.00000
      8      16.0947      0.00000
      9      17.0639      0.00000
     10      25.4209      0.00000
     11      27.4838      0.00000
     12      35.8048      0.00000

 k-point    37 :      -0.3500    0.4500    0.0500
  band No.  band energies     occupation 
      1      -0.7595      2.00000
      2      -0.2582      2.00000
      3       2.6190      2.00000
      4       3.5873      2.00000
      5       4.5097      2.00000
      6       9.9109     -0.00000
      7      11.5953     -0.00000
      8      14.8883      0.00000
      9      18.3290      0.00000
     10      25.5259      0.00000
     11      29.8990      0.00000
     12      34.5163      0.00000

 k-point    38 :      -0.2500    0.4500    0.0500
  band No.  band energies     occupation 
      1      -0.4110      2.00000
      2       0.4417      2.00000
      3       1.6589      2.00000
      4       2.7846      2.00000
      5       4.2878      2.00000
      6       9.8771     -0.00000
      7      10.3041     -0.00000
      8      16.6101      0.00000
      9      20.3174      0.00000
     10      24.6718      0.00000
     11      32.6860      0.00000
     12      33.9174      0.00000

 k-point    39 :      -0.1500    0.4500    0.0500
  band No.  band energies     occupation 
      1      -0.7476      2.00000
      2       0.7993      2.00000
      3       1.9825      2.00000
      4       2.1688      2.00000
      5       4.2215      2.00000
      6       8.1246     -0.00000
      7       9.9942     -0.00000
      8      19.7231      0.00000
      9      21.8979      0.00000
     10      23.9854      0.00000
     11      32.0287      0.00000
     12      33.6592      0.00000

 k-point    40 :      -0.0500    0.4500    0.0500
  band No.  band energies     occupation 
      1      -1.3443      2.00000
      2       1.1853      2.00000
      3       1.4922      2.00000
      4       3.1298      2.00000
      5       4.3141      2.00000
      6       5.9092      2.00139
      7      10.5722     -0.00000
      8      21.3047      0.00000
      9      23.3136      0.00000
     10      24.4842      0.00000
     11      32.0678      0.00000
     12      32.5963      0.00000

 k-point    41 :      -0.4500   -0.4500    0.0500
  band No.  band energies     occupation 
      1      -1.2506      2.00000
      2      -0.9077      2.00000
      3       4.3060      2.00000
      4       4.4795      2.00000
      5       4.7310      2.00000
      6       7.3155     -0.00000
      7      12.8841      0.00000
      8      16.5913      0.00000
      9      16.9556      0.00000
     10      24.5930      0.00000
     11      27.1231      0.00000
     12      36.4807      0.00000

 k-point    42 :      -0.3500   -0.4500    0.0500
  band No.  band energies     occupation 
      1      -1.0027      2.00000
      2      -0.6709      2.00000
      3       3.3105      2.00000
      4       4.0400      2.00000
      5       4.5430      2.00000
      6       6.9831     -0.00068
      7      14.1018      0.00000
      8      16.7437      0.00000
      9      17.5668      0.00000
     10      25.2764      0.00000
     11      27.3339      0.00000
     12      35.7672      0.00000

 k-point    43 :      -0.2500   -0.4500    0.0500
  band No.  band energies     occupation 
      1      -0.6311      2.00000
      2       0.0393      2.00000
      3       1.8309      2.00000
      4       3.0575      2.00000
      5       4.4607      2.00000
      6       6.9478     -0.00159
[...]
      6       7.1222     -0.00001
      7      14.0939      0.00000
      8      16.5317      0.00000
      9      21.3751      0.00000
     10      26.3575      0.00000
     11      29.7103      0.00000
     12      34.8110      0.00000

 k-point    92 :      -0.3500    0.3500    0.2500
  band No.  band energies     occupation 
      1      -0.0137      2.00000
      2       0.5187      2.00000
      3       1.1754      2.00000
      4       2.8405      2.00000
      5       4.0806      2.00000
      6       8.9993     -0.00000
      7      12.7400      0.00000
      8      14.8607      0.00000
      9      19.8629      0.00000
     10      26.0997      0.00000
     11      31.2720      0.00000
     12      35.4501      0.00000

 k-point    93 :      -0.2500    0.3500    0.2500
  band No.  band energies     occupation 
      1      -0.3781      2.00000
      2       0.2010      2.00000
      3       1.6319      2.00000
      4       3.1154      2.00000
      5       4.4147      2.00000
      6       9.3069     -0.00000
      7      11.6779     -0.00000
      8      16.2153      0.00000
      9      18.5717      0.00000
     10      26.1192      0.00000
     11      31.2765      0.00000
     12      33.3078      0.00000

 k-point    94 :       0.4500    0.4500    0.2500
  band No.  band energies     occupation 
      1      -0.7653      2.00000
      2       0.6854      2.00000
      3       1.4359      2.00000
      4       2.3092      2.00000
      5       4.4687      2.00000
      6       6.0237      2.01408
      7      13.1183      0.00000
      8      20.6224      0.00000
      9      21.4328      0.00000
     10      23.7907      0.00000
     11      31.9471      0.00000
     12      33.4008      0.00000

 k-point    95 :      -0.4500    0.4500    0.2500
  band No.  band energies     occupation 
      1      -0.3717      2.00000
      2       0.3876      2.00000
      3       1.3431      2.00000
      4       2.8671      2.00000
      5       4.3055      2.00000
      6       7.7678     -0.00000
      7      12.4049      0.00000
      8      18.0635      0.00000
      9      19.3547      0.00000
     10      25.6958      0.00000
     11      30.9580      0.00000
     12      33.5936      0.00000

 k-point    96 :      -0.3500    0.4500    0.2500
  band No.  band energies     occupation 
      1       0.0244      2.00000
      2       0.4678      2.00000
      3       0.9675      2.00000
      4       2.9928      2.00000
      5       4.4636      2.00000
      6       9.6841     -0.00000
      7      12.7909      0.00000
      8      14.7384      0.00000
      9      17.6509      0.00000
     10      28.4060      0.00000
     11      30.1116      0.00000
     12      33.7504      0.00000

 k-point    97 :      -0.2500    0.4500    0.2500
  band No.  band energies     occupation 
      1      -0.1103      2.00000
      2       0.4748      2.00000
      3       1.1391      2.00000
      4       2.9458      2.00000
      5       4.7136      2.00000
      6      11.0287     -0.00000
      7      12.4217      0.00000
      8      13.8290      0.00000
      9      16.6465      0.00000
     10      29.2287      0.00000
     11      30.7428      0.00000
     12      32.3185      0.00000

 k-point    98 :      -0.4500   -0.4500    0.2500
  band No.  band energies     occupation 
      1      -0.6053      2.00000
      2       0.1618      2.00000
      3       2.0198      2.00000
      4       3.0412      2.00000
      5       4.4280      2.00000
      6       9.1574     -0.00000
      7      11.2716     -0.00000
      8      16.3726      0.00000
      9      19.9078      0.00000
     10      24.4890      0.00000
     11      31.6359      0.00000
     12      34.4319      0.00000

 k-point    99 :      -0.3500   -0.4500    0.2500
  band No.  band energies     occupation 
      1      -0.4237      2.00000
      2       0.1234      2.00000
      3       1.8546      2.00000
      4       3.2063      2.00000
      5       4.4720      2.00000
      6      10.5933     -0.00000
      7      11.4380     -0.00000
      8      14.5221      0.00000
      9      18.2471      0.00000
     10      26.4230      0.00000
     11      31.6162      0.00000
     12      32.9182      0.00000

 k-point   100 :      -0.3500   -0.3500    0.2500
  band No.  band energies     occupation 
      1      -0.6267      2.00000
      2       0.0635      2.00000
      3       2.2345      2.00000
      4       3.3263      2.00000
      5       4.2948      2.00000
      6      10.4072     -0.00000
      7      11.0822     -0.00000
      8      14.5986      0.00000
      9      19.6054      0.00000
     10      24.7661      0.00000
     11      31.5974      0.00000
     12      34.6165      0.00000

 k-point   101 :       0.3500    0.3500    0.3500
  band No.  band energies     occupation 
      1      -1.6438      2.00000
      2       1.4812      2.00000
      3       1.4812      2.00000
      4       2.3816      2.00000
      5       3.8527      2.00000
      6       3.8527      2.00000
      7      14.0353      0.00000
      8      21.8316      0.00000
      9      25.9819      0.00000
     10      25.9819      0.00000
     11      31.1799      0.00000
     12      31.2501      0.00000

 k-point   102 :       0.4500    0.3500    0.3500
  band No.  band energies     occupation 
      1      -1.2821      2.00000
      2       1.2755      2.00000
      3       1.6026      2.00000
      4       2.3092      2.00000
      5       3.7293      2.00000
      6       5.1827      2.00000
      7      12.8991      0.00000
      8      21.4537      0.00000
      9      23.2058      0.00000
     10      25.9857      0.00000
     11      30.5795      0.00000
     12      32.2132      0.00000

 k-point   103 :      -0.4500    0.3500    0.3500
  band No.  band energies     occupation 
      1      -0.5309      2.00000
      2       0.8536      2.00000
      3       1.7242      2.00000
      4       2.1033      2.00000
      5       3.7027      2.00000
      6       7.0169     -0.00028
      7      12.3363      0.00000
      8      18.4359      0.00000
      9      23.1950      0.00000
     10      24.2169      0.00000
     11      30.9848      0.00000
     12      33.3463      0.00000

 k-point   104 :      -0.3500    0.3500    0.3500
  band No.  band energies     occupation 
      1      -0.2545      2.00000
      2       0.6499      2.00000
      3       1.4576      2.00000
      4       2.7914      2.00000
      5       3.8679      2.00000
      6       8.7295     -0.00000
      7      12.6789      0.00000
      8      14.8681      0.00000
      9      21.7994      0.00000
     10      24.0597      0.00000
     11      32.6960      0.00000
     12      33.9504      0.00000

 k-point   105 :       0.4500    0.4500    0.3500
  band No.  band energies     occupation 
      1      -1.2859      2.00000
      2       1.1748      2.00000
      3       1.6039      2.00000
      4       2.5402      2.00000
      5       4.4009      2.00000
      6       5.4490      2.00000
      7      11.6194     -0.00000
      8      21.5244      0.00000
      9      23.5758      0.00000
     10      24.1276      0.00000
     11      32.2795      0.00000
     12      32.6672      0.00000

 k-point   106 :      -0.4500    0.4500    0.3500
  band No.  band energies     occupation 
      1      -0.7886      2.00000
      2       0.8348      2.00000
      3       1.9152      2.00000
      4       2.1267      2.00000
      5       4.2339      2.00000
      6       7.3491     -0.00000
      7      10.7989     -0.00000
      8      20.4470      0.00000
      9      21.2531      0.00000
     10      24.5189      0.00000
     11      31.6447      0.00000
     12      33.9160      0.00000

 k-point   107 :      -0.3500    0.4500    0.3500
  band No.  band energies     occupation 
      1      -0.1546      2.00000
      2       0.4543      2.00000
      3       1.4500      2.00000
      4       2.6187      2.00000
      5       4.1863      2.00000
      6       9.3305     -0.00000
      7      10.7602     -0.00000
      8      17.0249      0.00000
      9      19.9792      0.00000
     10      25.5754      0.00000
     11      31.4772      0.00000
     12      35.5045      0.00000

 k-point   108 :      -0.4500   -0.4500    0.3500
  band No.  band energies     occupation 
      1      -0.6709      2.00000
      2       0.7362      2.00000
      3       1.9511      2.00000
      4       2.1393      2.00000
      5       4.3416      2.00000
      6       8.5973     -0.00000
      7       9.8315     -0.00000
      8      19.1920      0.00000
      9      22.2439      0.00000
     10      23.2156      0.00000
     11      33.1164      0.00000
     12      33.3471      0.00000

 k-point   109 :       0.4500    0.4500    0.4500
  band No.  band energies     occupation 
      1      -1.5541      2.00000
      2       1.3277      2.00000
      3       1.3277      2.00000
      4       4.3414      2.00000
      5       4.3414      2.00000
      6       4.5516      2.00000
      7      10.5392     -0.00000
      8      21.1254      0.00000
      9      24.6961      0.00000
     10      24.6961      0.00000
     11      32.1050      0.00000
     12      32.1050      0.00000

 k-point   110 :      -0.4500    0.4500    0.4500
  band No.  band energies     occupation 
      1      -1.2795      2.00000
      2       1.1274      2.00000
      3       1.5169      2.00000
      4       3.1453      2.00000
      5       4.3145      2.00000
      6       6.6061     -0.01308
      7       9.8925     -0.00000
      8      21.1938      0.00000
      9      23.0436      0.00000
     10      24.1235      0.00000
     11      32.3433      0.00000
     12      32.5569      0.00000


--------------------------------------------------------------------------------------------------------


 soft charge-density along one line, spin component           1
         0         1         2         3         4         5         6         7         8         9
 total charge-density along one line
 
 pseudopotential strength for first ion, spin component:           1
 -9.529   0.000   0.000   0.000   0.000   0.000   0.000   0.000   0.000   0.000  -0.135   0.000  -0.000   0.000  -0.000   0.000
  0.000   0.000  -9.529   0.000  -0.000   0.000   0.000   0.000   0.000   0.000  -0.000   0.000  -0.135   0.000   0.000   0.000
  0.000   0.000  -0.000   0.000  -9.510   0.000  -0.000   0.000  -0.000   0.000  -0.000   0.000   0.000   0.000  -0.137   0.000
  0.000   0.000   0.000   0.000  -0.000   0.000  -9.529   0.000  -0.000   0.000  -0.000   0.000  -0.000   0.000   0.000   0.000
  0.000   0.000   0.000   0.000  -0.000   0.000  -0.000   0.000  -9.510   0.000  -0.000   0.000  -0.000   0.000   0.000   0.000
 -0.135   0.000  -0.000   0.000  -0.000   0.000  -0.000   0.000  -0.000   0.000   0.289   0.000   0.000   0.000   0.000   0.000
 -0.000   0.000  -0.135   0.000   0.000   0.000  -0.000   0.000  -0.000   0.000   0.000   0.000   0.289   0.000  -0.000   0.000
 -0.000   0.000   0.000   0.000  -0.137   0.000   0.000   0.000   0.000   0.000   0.000   0.000  -0.000   0.000   0.289   0.000
 -0.000   0.000  -0.000   0.000   0.000   0.000  -0.135   0.000   0.000   0.000   0.000   0.000   0.000   0.000  -0.000   0.000
 -0.000   0.000  -0.000   0.000   0.000   0.000   0.000   0.000  -0.137   0.000   0.000   0.000   0.000   0.000  -0.000   0.000
  0.000   0.000   0.000   0.000  -0.000   0.000   0.000   0.000  -0.000   0.000   0.000   0.000   0.000   0.000  -0.000   0.000
 -0.000   0.000  -0.000   0.000   0.000   0.000  -0.000   0.000   0.000   0.000   0.000   0.000   0.000   0.000   0.000   0.000
 -0.000   0.000  -0.000   0.000   0.000   0.000  -0.000   0.000   0.000   0.000   0.000   0.000   0.000   0.000  -0.000   0.000
 -0.000   0.000  -0.000   0.000  -0.000   0.000  -0.000   0.000   0.000   0.000   0.000   0.000   0.000   0.000   0.000   0.000
 -0.000   0.000  -0.000   0.000   0.000   0.000  -0.000   0.000  -0.000   0.000   0.000   0.000   0.000   0.000  -0.000   0.000
  0.000   0.000   0.000   0.000  -0.000   0.000   0.000   0.000  -0.000   0.000  -0.000   0.000  -0.000   0.000   0.000   0.000
  0.000   0.000   0.000   0.000   0.000   0.000   0.000   0.000  -0.000   0.000  -0.000   0.000  -0.000   0.000  -0.000   0.000
  0.000   0.000   0.000   0.000  -0.000   0.000   0.000   0.000   0.000   0.000  -0.000   0.000  -0.000   0.000   0.000   0.000
 total augmentation occupancy for first ion, spin component:           1
  1.904   0.000   0.000  -0.000   0.000  -0.015   0.000   0.000  -0.000  -0.000   0.000  -0.000   0.000   0.000   0.000   0.000
 -0.000   1.904  -0.000   0.000  -0.000  -0.000  -0.015  -0.000   0.000   0.000   0.000   0.000   0.000   0.000   0.000   0.000
 -0.000  -0.000   1.954  -0.000   0.000   0.000   0.000  -0.067  -0.000   0.000  -0.000   0.000   0.000   0.000   0.000   0.000
  0.000  -0.000  -0.000   1.904  -0.000   0.000   0.000  -0.000  -0.015   0.000   0.000   0.000   0.000   0.000   0.000   0.000
  0.000   0.000   0.000   0.000   1.954  -0.000  -0.000   0.000   0.000  -0.067   0.000   0.000   0.000   0.000   0.000   0.000
 -0.015   0.000   0.000   0.000  -0.000   0.256  -0.000   0.000   0.000  -0.000   0.000  -0.000   0.000   0.000   0.000   0.000
  0.000  -0.015   0.000  -0.000   0.000   0.000   0.256  -0.000   0.000   0.000   0.000  -0.000   0.000   0.000   0.000   0.000
 -0.000  -0.000  -0.067  -0.000  -0.000   0.000  -0.000   0.204   0.000   0.000  -0.000  -0.000   0.000   0.000   0.000   0.000
  0.000  -0.000  -0.000  -0.015   0.000   0.000   0.000   0.000   0.256   0.000  -0.000   0.000   0.000   0.000   0.000   0.000
 -0.000   0.000   0.000  -0.000  -0.067  -0.000   0.000   0.000   0.000   0.204   0.000   0.000   0.000   0.000   0.000   0.000
  0.000  -0.000  -0.000  -0.000   0.000  -0.000   0.000   0.000   0.000   0.000   1.114  -0.433   0.000   0.000   0.000   0.000
  0.000  -0.000   0.000   0.000  -0.000  -0.000  -0.000   0.000   0.000   0.000  -0.433   0.304   0.000   0.000   0.000   0.000
  0.000   0.000   0.000   0.000   0.000   0.000   0.000   0.000   0.000   0.000   0.000   0.000   0.191   0.000   0.000  -0.015
  0.000   0.000   0.000   0.000   0.000   0.000   0.000   0.000   0.000   0.000   0.000   0.000  -0.000   0.191   0.000   0.000
  0.000   0.000   0.000   0.000   0.000   0.000   0.000   0.000   0.000   0.000   0.000   0.000   0.000   0.000   0.191  -0.000
  0.000   0.000   0.000   0.000   0.000   0.000   0.000   0.000   0.000   0.000   0.000   0.000  -0.015  -0.000   0.000   0.001
  0.000   0.000   0.000   0.000   0.000   0.000   0.000   0.000   0.000   0.000   0.000   0.000  -0.000  -0.015  -0.000   0.000
  0.000   0.000   0.000   0.000   0.000   0.000   0.000   0.000   0.000   0.000   0.000   0.000   0.000  -0.000  -0.015  -0.000


------------------------ aborting loop because EDIFF is reached ----------------------------------------


    CHARGE:  cpu time    0.0033: real time    0.0066
    FORLOC:  cpu time    0.0001: real time    0.0001
    FORNL :  cpu time    0.0075: real time    0.0146
    STRESS:  cpu time    0.0465: real time    0.0913
    FORCOR:  cpu time    0.0011: real time    0.0042
    FORHAR:  cpu time    0.0005: real time    0.0009
    MIXING:  cpu time    0.0004: real time    0.0003
    OFIELD:  cpu time    0.0000: real time    0.0000

  FORCE on cell =-STRESS in cart. coord.  units (eV):
  Direction    XX          YY          ZZ          XY          YZ          ZX
  --------------------------------------------------------------------------------------
  Alpha Z   114.86746   114.86746   114.86746
  Ewald    -332.85608  -332.85608  -332.85608    -0.00000     0.00000     0.00000
  Hartree    34.60376    34.60376    34.60376     0.00002     0.00002     0.00002
  E(xc)     -49.34081   -49.34081   -49.34081    -0.00004    -0.00004    -0.00004
  Local      84.40886    84.40886    84.40886    -0.00089    -0.00089    -0.00089
  n-local   -48.06870   -45.06033   -48.89736     0.60258    -0.64967     0.01950
  augment    42.34327    42.34327    42.34327    -0.00053    -0.00053    -0.00053
  Kinetic   153.95753   152.85480   155.04326    -0.34903     0.15481     0.01864
  Fock        0.00000     0.00000     0.00000     0.00000     0.00000     0.00000
  -------------------------------------------------------------------------------------
  Total       0.63619     0.63619     0.63619     0.00000     0.00000     0.00000
  in kB      63.70510    63.70510    63.70510     0.00000     0.00000     0.00000
  external pressure =       63.71 kB  Pullay stress =        0.00 kB


 VOLUME and BASIS-vectors are now :
 -----------------------------------------------------------------------------
  energy-cutoff  :      230.00
  volume of cell :       16.00
      direct lattice vectors                 reciprocal lattice vectors
     0.000000000  2.000000000  2.000000000    -0.250000000  0.250000000  0.250000000
     2.000000000  0.000000000  2.000000000     0.250000000 -0.250000000  0.250000000
     2.000000000  2.000000000  0.000000000     0.250000000  0.250000000 -0.250000000

  length of vectors
     2.828427125  2.828427125  2.828427125     0.433012702  0.433012702  0.433012702


 FORCES acting on ions
    electron-ion (+dipol)            ewald-force                    non-local-force                 convergence-correction
 -----------------------------------------------------------------------------------------------
   0.580E-14 0.665E-14 0.806E-14   0.436E-15 0.732E-15 -.199E-14   0.000E+00 0.000E+00 0.000E+00   0.271E-13 0.151E-13 0.123E-13
 -----------------------------------------------------------------------------------------------
   0.580E-14 0.665E-14 0.806E-14   0.436E-15 0.732E-15 -.199E-14   0.000E+00 0.000E+00 0.000E+00   0.271E-13 0.151E-13 0.123E-13
 
 
 POSITION                                       TOTAL-FORCE (eV/Angst)
 -----------------------------------------------------------------------------------
      0.00000      0.00000      0.00000         0.000000      0.000000      0.000000
 -----------------------------------------------------------------------------------
    total drift:                                0.000000      0.000000      0.000000


--------------------------------------------------------------------------------------------------------



  FREE ENERGIE OF THE ION-ELECTRON SYSTEM (eV)
  ---------------------------------------------------
  free  energy   TOTEN  =        -4.37333304 eV

  energy  without entropy=       -4.37392522  energy(sigma->0) =       -4.37353043
 


--------------------------------------------------------------------------------------------------------


    POTLOK:  cpu time    0.0023: real time    0.0054


--------------------------------------------------------------------------------------------------------


 writing wavefunctions
     LOOP+:  cpu time    1.6176: real time    4.7411
    4ORBIT:  cpu time    0.0000: real time    0.0000

 total amount of memory used by VASP MPI-rank0    33328. kBytes
=======================================================================

   base      :      30000. kBytes
   nonl-proj :       2156. kBytes
   fftplans  :        142. kBytes
   grid      :        192. kBytes
   one-center:         15. kBytes
   wavefun   :        823. kBytes
 
  
  
 General timing and accounting informations for this job:
 ========================================================
  
                  Total CPU time used (sec):        2.032
                            User time (sec):        1.785
                          System time (sec):        0.247
                         Elapsed time (sec):        6.220
  
                   Maximum memory used (kb):       57000.
                   Average memory used (kb):           0.
  
                          Minor page faults:        14935
                          Major page faults:            0
                 Voluntary context switches:         1969
