<?xml version="1.0" encoding="ISO-8859-1"?>
<modeling>
 <generator>
  <i name="program" type="string">vasp </i>
  <i name="version" type="string">5.4.4.18Apr17-6-g9f103f2a35  </i>
  <i name="subversion" type="string">(build Jul 01 2019 03:25:34) complex            parallel </i>
  <i name="platform" type="string">LinuxIFC </i>
  <i name="date" type="string">2020 07 08 </i>
  <i name="time" type="string">00:55:37 </i>
 </generator>
 <incar>
  <i type="string" name="SYSTEM"> FCC Au</i>
  <i type="string" name="PREC">normal</i>
  <i name="EDIFF">      0.00010000</i>
  <i name="ENCUT">    230.00000000</i>
  <v type="int" name="KPOINT_BSE">    -1     0     0     0</v>
 </incar>
 <structure name="primitive_cell" >
  <crystal>
   <varray name="basis" >
    <v>       0.00000000       2.00000000       2.00000000 </v>
    <v>       2.00000000       0.00000000       2.00000000 </v>
    <v>       2.00000000       2.00000000       0.00000000 </v>
   </varray>
   <i name="volume">     16.00000000 </i>
   <varray name="rec_basis" >
    <v>      -0.25000000       0.25000000       0.25000000 </v>
    <v>       0.25000000      -0.25000000       0.25000000 </v>
    <v>       0.25000000       0.25000000      -0.25000000 </v>
   </varray>
  </crystal>
  <varray name="positions" >
   <v>       0.00000000       0.00000000       0.00000000 </v>
  </varray>
 </structure>
 <varray name="primitive_index" >
  <v type="int" >        1 </v>
 </varray>
 <kpoints>
  <generation param="Monkhorst-Pack">
   <v type="int" name="divisions">      10       10       10 </v>
   <v name="usershift">      0.00000000       0.00000000       0.00000000 </v>
   <v name="genvec1">      0.10000000       0.00000000       0.00000000 </v>
   <v name="genvec2">      0.00000000       0.10000000       0.00000000 </v>
   <v name="genvec3">      0.00000000       0.00000000       0.10000000 </v>
   <v name="shift">      0.50000000       0.50000000       0.50000000 </v>
  </generation>
  <varray name="kpointlist" >
   <v>       0.05000000       0.05000000       0.05000000 </v>
   <v>       0.15000000       0.05000000       0.05000000 </v>
   <v>       0.25000000       0.05000000       0.05000000 </v>
   <v>       0.35000000       0.05000000       0.05000000 </v>
   <v>       0.45000000       0.05000000       0.05000000 </v>
   <v>      -0.45000000       0.05000000       0.05000000 </v>
   <v>      -0.35000000       0.05000000       0.05000000 </v>
   <v>      -0.25000000       0.05000000       0.05000000 </v>
   <v>      -0.15000000       0.05000000       0.05000000 </v>
   <v>      -0.05000000       0.05000000       0.05000000 </v>
   <v>       0.15000000       0.15000000       0.05000000 </v>
   <v>       0.25000000       0.15000000       0.05000000 </v>
   <v>       0.35000000       0.15000000       0.05000000 </v>
   <v>       0.45000000       0.15000000       0.05000000 </v>
   <v>      -0.45000000       0.15000000       0.05000000 </v>
   <v>      -0.35000000       0.15000000       0.05000000 </v>
   <v>      -0.25000000       0.15000000       0.05000000 </v>
   <v>      -0.15000000       0.15000000       0.05000000 </v>
   <v>      -0.05000000       0.15000000       0.05000000 </v>
   <v>       0.25000000       0.25000000       0.05000000 </v>
   <v>       0.35000000       0.25000000       0.05000000 </v>
   <v>       0.45000000       0.25000000       0.05000000 </v>
   <v>      -0.45000000       0.25000000       0.05000000 </v>
   <v>      -0.35000000       0.25000000       0.05000000 </v>
   <v>      -0.25000000       0.25000000       0.05000000 </v>
   <v>      -0.15000000       0.25000000       0.05000000 </v>
   <v>      -0.05000000       0.25000000       0.05000000 </v>
   <v>       0.35000000       0.35000000       0.05000000 </v>
   <v>       0.45000000       0.35000000       0.05000000 </v>
   <v>      -0.45000000       0.35000000       0.05000000 </v>
   <v>      -0.35000000       0.35000000       0.05000000 </v>
   <v>      -0.25000000       0.35000000       0.05000000 </v>
   <v>      -0.15000000       0.35000000       0.05000000 </v>
   <v>      -0.05000000       0.35000000       0.05000000 </v>
   <v>       0.45000000       0.45000000       0.05000000 </v>
   <v>      -0.45000000       0.45000000       0.05000000 </v>
   <v>      -0.35000000       0.45000000       0.05000000 </v>
   <v>      -0.25000000       0.45000000       0.05000000 </v>
   <v>      -0.15000000       0.45000000       0.05000000 </v>
   <v>      -0.05000000       0.45000000       0.05000000 </v>
   <v>      -0.45000000      -0.45000000       0.05000000 </v>
   <v>      -0.35000000      -0.45000000       0.05000000 </v>
   <v>      -0.25000000      -0.45000000       0.05000000 </v>
   <v>      -0.15000000      -0.45000000       0.05000000 </v>
   <v>      -0.35000000      -0.35000000       0.05000000 </v>
   <v>      -0.25000000      -0.35000000       0.05000000 </v>
   <v>      -0.15000000      -0.35000000       0.05000000 </v>
   <v>      -0.25000000      -0.25000000       0.05000000 </v>
   <v>      -0.15000000      -0.25000000       0.05000000 </v>
   <v>      -0.15000000      -0.15000000       0.05000000 </v>
   <v>       0.15000000       0.15000000       0.15000000 </v>
   <v>       0.25000000       0.15000000       0.15000000 </v>
   <v>       0.35000000       0.15000000       0.15000000 </v>
   <v>       0.45000000       0.15000000       0.15000000 </v>
   <v>      -0.45000000       0.15000000       0.15000000 </v>
   <v>      -0.35000000       0.15000000       0.15000000 </v>
   <v>      -0.25000000       0.15000000       0.15000000 </v>
   <v>      -0.15000000       0.15000000       0.15000000 </v>
   <v>       0.25000000       0.25000000       0.15000000 </v>
   <v>       0.35000000       0.25000000       0.15000000 </v>
   <v>       0.45000000       0.25000000       0.15000000 </v>
   <v>      -0.45000000       0.25000000       0.15000000 </v>
   <v>      -0.35000000       0.25000000       0.15000000 </v>
   <v>      -0.25000000       0.25000000       0.15000000 </v>
   <v>      -0.15000000       0.25000000       0.15000000 </v>
   <v>       0.35000000       0.35000000       0.15000000 </v>
   <v>       0.45000000       0.35000000       0.15000000 </v>
   <v>      -0.45000000       0.35000000       0.15000000 </v>
   <v>      -0.35000000       0.35000000       0.15000000 </v>
   <v>      -0.25000000       0.35000000       0.15000000 </v>
   <v>      -0.15000000       0.35000000       0.15000000 </v>
   <v>       0.45000000       0.45000000       0.15000000 </v>
   <v>      -0.45000000       0.45000000       0.15000000 </v>
   <v>      -0.35000000       0.45000000       0.15000000 </v>
   <v>      -0.25000000       0.45000000       0.15000000 </v>
   <v>      -0.15000000       0.45000000       0.15000000 </v>
   <v>      -0.45000000      -0.45000000       0.15000000 </v>
   <v>      -0.35000000      -0.45000000       0.15000000 </v>
   <v>      -0.25000000      -0.45000000       0.15000000 </v>
   <v>      -0.35000000      -0.35000000       0.15000000 </v>
   <v>      -0.25000000      -0.35000000       0.15000000 </v>
   <v>      -0.25000000      -0.25000000       0.15000000 </v>
   <v>       0.25000000       0.25000000       0.25000000 </v>
   <v>       0.35000000       0.25000000       0.25000000 </v>
   <v>       0.45000000       0.25000000       0.25000000 </v>
   <v>      -0.45000000       0.25000000       0.25000000 </v>
   <v>      -0.35000000       0.25000000       0.25000000 </v>
   <v>      -0.25000000       0.25000000       0.25000000 </v>
   <v>       0.35000000       0.35000000       0.25000000 </v>
   <v>       0.45000000       0.35000000       0.25000000 </v>
   <v>      -0.45000000       0.35000000       0.25000000 </v>
   <v>      -0.35000000       0.35000000       0.25000000 </v>
   <v>      -0.25000000       0.35000000       0.25000000 </v>
   <v>       0.45000000       0.45000000       0.25000000 </v>
   <v>      -0.45000000       0.45000000       0.25000000 </v>
   <v>      -0.35000000       0.45000000       0.25000000 </v>
   <v>      -0.25000000       0.45000000       0.25000000 </v>
   <v>      -0.45000000      -0.45000000       0.25000000 </v>
   <v>      -0.35000000      -0.45000000       0.25000000 </v>
   <v>      -0.35000000      -0.35000000       0.25000000 </v>
   <v>       0.35000000       0.35000000       0.35000000 </v>
   <v>       0.45000000       0.35000000       0.35000000 </v>
   <v>      -0.45000000       0.35000000       0.35000000 </v>
   <v>      -0.35000000       0.35000000       0.35000000 </v>
   <v>       0.45000000       0.45000000       0.35000000 </v>
   <v>      -0.45000000       0.45000000       0.35000000 </v>
   <v>      -0.35000000       0.45000000       0.35000000 </v>
   <v>      -0.45000000      -0.45000000       0.35000000 </v>
   <v>       0.45000000       0.45000000       0.45000000 </v>
   <v>      -0.45000000       0.45000000       0.45000000 </v>
  </varray>
  <varray name="weights" >
   <v>       0.00200000 </v>
   <v>       0.00600000 </v>
   <v>       0.00600000 </v>
   <v>       0.00600000 </v>
   <v>       0.00600000 </v>
   <v>       0.00600000 </v>
   <v>       0.00600000 </v>
   <v>       0.00600000 </v>
   <v>       0.00600000 </v>
   <v>       0.00600000 </v>
   <v>       0.00600000 </v>
   <v>       0.01200000 </v>
   <v>       0.01200000 </v>
   <v>       0.01200000 </v>
   <v>       0.01200000 </v>
   <v>       0.01200000 </v>
   <v>       0.01200000 </v>
   <v>       0.01200000 </v>
   <v>       0.01200000 </v>
   <v>       0.00600000 </v>
   <v>       0.01200000 </v>
   <v>       0.01200000 </v>
   <v>       0.01200000 </v>
   <v>       0.01200000 </v>
   <v>       0.01200000 </v>
   <v>       0.01200000 </v>
   <v>       0.01200000 </v>
   <v>       0.00600000 </v>
   <v>       0.01200000 </v>
   <v>       0.01200000 </v>
   <v>       0.01200000 </v>
   <v>       0.01200000 </v>
   <v>       0.01200000 </v>
   <v>       0.01200000 </v>
   <v>       0.00600000 </v>
   <v>       0.01200000 </v>
   <v>       0.01200000 </v>
   <v>       0.01200000 </v>
   <v>       0.01200000 </v>
   <v>       0.01200000 </v>
   <v>       0.00600000 </v>
   <v>       0.01200000 </v>
   <v>       0.01200000 </v>
   <v>       0.01200000 </v>
   <v>       0.00600000 </v>
   <v>       0.01200000 </v>
   <v>       0.01200000 </v>
   <v>       0.00600000 </v>
   <v>       0.01200000 </v>
   <v>       0.00600000 </v>
   <v>       0.00200000 </v>
   <v>       0.00600000 </v>
   <v>       0.00600000 </v>
   <v>       0.00600000 </v>
   <v>       0.00600000 </v>
   <v>       0.00600000 </v>
   <v>       0.00600000 </v>
   <v>       0.00600000 </v>
   <v>       0.00600000 </v>
   <v>       0.01200000 </v>
   <v>       0.01200000 </v>
   <v>       0.01200000 </v>
   <v>       0.01200000 </v>
   <v>       0.01200000 </v>
   <v>       0.01200000 </v>
   <v>       0.00600000 </v>
   <v>       0.01200000 </v>
   <v>       0.01200000 </v>
   <v>       0.01200000 </v>
   <v>       0.01200000 </v>
   <v>       0.01200000 </v>
   <v>       0.00600000 </v>
   <v>       0.01200000 </v>
   <v>       0.01200000 </v>
   <v>       0.01200000 </v>
   <v>       0.01200000 </v>
   <v>       0.00600000 </v>
   <v>       0.01200000 </v>
   <v>       0.01200000 </v>
   <v>       0.00600000 </v>
   <v>       0.01200000 </v>
   <v>       0.00600000 </v>
   <v>       0.00200000 </v>
   <v>       0.00600000 </v>
   <v>       0.00600000 </v>
   <v>       0.00600000 </v>
   <v>       0.00600000 </v>
   <v>       0.00600000 </v>
   <v>       0.00600000 </v>
   <v>       0.01200000 </v>
   <v>       0.01200000 </v>
   <v>       0.01200000 </v>
   <v>       0.01200000 </v>
   <v>       0.00600000 </v>
   <v>       0.01200000 </v>
   <v>       0.01200000 </v>
   <v>       0.01200000 </v>
   <v>       0.00600000 </v>
   <v>       0.01200000 </v>
   <v>       0.00600000 </v>
   <v>       0.00200000 </v>
   <v>       0.00600000 </v>
   <v>       0.00600000 </v>
   <v>       0.00600000 </v>
   <v>       0.00600000 </v>
   <v>       0.01200000 </v>
   <v>       0.01200000 </v>
   <v>       0.00600000 </v>
   <v>       0.00200000 </v>
   <v>       0.00600000 </v>
  </varray>
 </kpoints>
 <parameters>
  <separator name="general" >
   <i type="string" name="SYSTEM">FCC Au</i>
   <i type="logical" name="LCOMPAT"> F  </i>
  </separator>
  <separator name="electronic" >
   <i type="string" name="PREC">normal</i>
   <i name="ENMAX">    230.00000000</i>
   <i name="ENAUG">    356.67000000</i>
   <i name="EDIFF">      0.00010000</i>
   <i type="int" name="IALGO">    38</i>
   <i type="int" name="IWAVPR">    10</i>
   <i type="int" name="NBANDS">    12</i>
   <i name="NELECT">     11.00000000</i>
   <i type="int" name="TURBO">     0</i>
   <i type="int" name="IRESTART">     0</i>
   <i type="int" name="NREBOOT">     0</i>
   <i type="int" name="NMIN">     0</i>
   <i name="EREF">      0.00000000</i>
   <separator name="electronic smearing" >
    <i type="int" name="ISMEAR">     1</i>
    <i name="SIGMA">      0.20000000</i>
    <i name="KSPACING">      0.50000000</i>
    <i type="logical" name="KGAMMA"> T  </i>
   </separator>
   <separator name="electronic projectors" >
    <i type="logical" name="LREAL"> F  </i>
    <v name="ROPT">      0.00000000</v>
    <i type="int" name="LMAXPAW">  -100</i>
    <i type="int" name="LMAXMIX">     2</i>
    <i type="logical" name="NLSPLINE"> F  </i>
   </separator>
   <separator name="electronic startup" >
    <i type="int" name="ISTART">     1</i>
    <i type="int" name="ICHARG">     0</i>
    <i type="int" name="INIWAV">     1</i>
   </separator>
   <separator name="electronic spin" >
    <i type="int" name="ISPIN">     1</i>
    <i type="logical" name="LNONCOLLINEAR"> F  </i>
    <v name="MAGMOM">      1.00000000</v>
    <i name="NUPDOWN">     -1.00000000</i>
    <i type="logical" name="LSORBIT"> F  </i>
    <v name="SAXIS">      0.00000000      0.00000000      1.00000000</v>
    <i type="logical" name="LSPIRAL"> F  </i>
    <v name="QSPIRAL">      0.00000000      0.00000000      0.00000000</v>
    <i type="logical" name="LZEROZ"> F  </i>
   </separator>
   <separator name="electronic exchange-correlation" >
    <i type="logical" name="LASPH"> F  </i>
    <i type="logical" name="LMETAGGA"> F  </i>
   </separator>
   <separator name="electronic convergence" >
    <i type="int" name="NELM">    60</i>
    <i type="int" name="NELMDL">     0</i>
    <i type="int" name="NELMIN">     2</i>
    <i name="ENINI">    230.00000000</i>
    <separator name="electronic convergence detail" >
     <i type="logical" name="LDIAG"> T  </i>
     <i type="logical" name="LSUBROT"> F  </i>
     <i name="WEIMIN">      0.00000000</i>
     <i name="EBREAK">      0.00000208</i>
     <i name="DEPER">      0.30000000</i>
     <i type="int" name="NRMM">     4</i>
     <i name="TIME">      0.40000000</i>
    </separator>
   </separator>
   <separator name="electronic mixer" >
    <i name="AMIX">      0.40000000</i>
    <i name="BMIX">      1.00000000</i>
    <i name="AMIN">      0.10000000</i>
    <i name="AMIX_MAG">      1.60000000</i>
    <i name="BMIX_MAG">      1.00000000</i>
    <separator name="electronic mixer details" >
     <i type="int" name="IMIX">     4</i>
     <i type="logical" name="MIXFIRST"> F  </i>
     <i type="int" name="MAXMIX">   -45</i>
     <i name="WC">    100.00000000</i>
     <i type="int" name="INIMIX">     1</i>
     <i type="int" name="MIXPRE">     1</i>
     <i type="int" name="MREMOVE">     5</i>
    </separator>
   </separator>
   <separator name="electronic dipolcorrection" >
    <i type="logical" name="LDIPOL"> F  </i>
    <i type="logical" name="LMONO"> F  </i>
    <i type="int" name="IDIPOL">     0</i>
    <i name="EPSILON">      1.00000000</i>
    <v name="DIPOL">   -100.00000000   -100.00000000   -100.00000000</v>
    <i name="EFIELD">      0.00000000</i>
   </separator>
  </separator>
  <separator name="grids" >
   <i type="int" name="NGX">    10</i>
   <i type="int" name="NGY">    10</i>
   <i type="int" name="NGZ">    10</i>
   <i type="int" name="NGXF">    20</i>
   <i type="int" name="NGYF">    20</i>
   <i type="int" name="NGZF">    20</i>
   <i type="logical" name="ADDGRID"> F  </i>
  </separator>
  <separator name="ionic" >
   <i type="int" name="NSW">     0</i>
   <i type="int" name="IBRION">    -1</i>
   <i type="int" name="MDALGO">     0</i>
   <i type="int" name="ISIF">     2</i>
   <i name="PSTRESS">      0.00000000</i>
   <i name="EDIFFG">      0.00100000</i>
   <i type="int" name="NFREE">     0</i>
   <i name="POTIM">      0.50000000</i>
   <i name="SMASS">     -3.00000000</i>
   <i name="SCALEE">      1.00000000</i>
  </separator>
  <separator name="ionic md" >
   <i name="TEBEG">      0.00010000</i>
   <i name="TEEND">      0.00010000</i>
   <i type="int" name="NBLOCK">     1</i>
   <i type="int" name="KBLOCK">     1</i>
   <i type="int" name="NPACO">   256</i>
   <i name="APACO">     16.00000000</i>
  </separator>
  <separator name="symmetry" >
   <i type="int" name="ISYM">     2</i>
   <i name="SYMPREC">      0.00001000</i>
  </separator>
  <separator name="dos" >
   <i type="int" name="LORBIT">     0</i>
   <v name="RWIGS">     -1.00000000</v>
   <i type="int" name="NEDOS">   301</i>
   <i name="EMIN">     10.00000000</i>
   <i name="EMAX">    -10.00000000</i>
   <i name="EFERMI">      0.00000000</i>
  </separator>
  <separator name="writing" >
   <i type="int" name="NWRITE">     2</i>
   <i type="logical" name="LWAVE"> T  </i>
   <i type="logical" name="LDOWNSAMPLE"> F  </i>
   <i type="logical" name="LCHARG"> T  </i>
   <i type="logical" name="LPARD"> F  </i>
   <i type="logical" name="LVTOT"> F  </i>
   <i type="logical" name="LVHAR"> F  </i>
   <i type="logical" name="LELF"> F  </i>
   <i type="logical" name="LOPTICS"> F  </i>
   <v name="STM">      0.00000000      0.00000000      0.00000000      0.00000000      0.00000000      0.00000000      0.00000000</v>
  </separator>
  <separator name="performance" >
   <i type="int" name="NPAR">     4</i>
   <i type="int" name="NSIM">     4</i>
   <i type="int" name="NBLK">    -1</i>
   <i type="logical" name="LPLANE"> T  </i>
   <i type="logical" name="LSCALAPACK"> T  </i>
   <i type="logical" name="LSCAAWARE"> F  </i>
   <i type="logical" name="LSCALU"> F  </i>
   <i type="logical" name="LASYNC"> F  </i>
   <i type="logical" name="LORBITALREAL"> F  </i>
  </separator>
  <separator name="miscellaneous" >
   <i type="int" name="IDIOT">     3</i>
   <i type="int" name="ISPECIAL">     0</i>
   <i type="logical" name="LMUSIC"> F  </i>
   <v name="POMASS">    196.96600000</v>
   <v name="DARWINR">      0.00000000</v>
   <v name="DARWINV">      1.00000000</v>
   <i type="logical" name="LCORR"> T  </i>
  </separator>
  <i type="logical" name="GGA_COMPAT"> T  </i>
  <i type="logical" name="LBERRY"> F  </i>
  <i type="int" name="ICORELEVEL">     0</i>
  <i type="logical" name="LDAU"> F  </i>
  <i type="int" name="I_CONSTRAINED_M">     0</i>
  <separator name="electronic exchange-correlation" >
   <i type="string" name="GGA">--</i>
   <i type="int" name="VOSKOWN">     0</i>
   <i type="logical" name="LHFCALC"> F  </i>
   <i type="string" name="PRECFOCK"></i>
   <i type="logical" name="LSYMGRAD"> F  </i>
   <i type="logical" name="LHFONE"> F  </i>
   <i type="logical" name="LRHFCALC"> F  </i>
   <i type="logical" name="LTHOMAS"> F  </i>
   <i type="logical" name="LMODELHF"> F  </i>
   <i name="ENCUT4O">     -1.00000000</i>
   <i type="int" name="EXXOEP">     0</i>
   <i type="int" name="FOURORBIT">     0</i>
   <i name="AEXX">      0.00000000</i>
   <i name="HFALPHA">      0.00000000</i>
   <i name="MCALPHA">      0.00000000</i>
   <i name="ALDAX">      1.00000000</i>
   <i name="AGGAX">      1.00000000</i>
   <i name="ALDAC">      1.00000000</i>
   <i name="AGGAC">      1.00000000</i>
   <i type="int" name="NKREDX">     1</i>
   <i type="int" name="NKREDY">     1</i>
   <i type="int" name="NKREDZ">     1</i>
   <i type="logical" name="SHIFTRED"> F  </i>
   <i type="logical" name="ODDONLY"> F  </i>
   <i type="logical" name="EVENONLY"> F  </i>
   <i type="int" name="LMAXFOCK">     0</i>
   <i type="int" name="NMAXFOCKAE">     0</i>
   <i type="logical" name="LFOCKAEDFT"> F  </i>
   <i name="HFSCREEN">      0.00000000</i>
   <i name="HFSCREENC">      0.00000000</i>
   <i type="int" name="NBANDSGWLOW">     0</i>
  </separator>
  <separator name="vdW DFT" >
   <i type="logical" name="LUSE_VDW"> F  </i>
   <i name="Zab_VDW">     -0.84910000</i>
   <i name="PARAM1">      0.12340000</i>
   <i name="PARAM2">      1.00000000</i>
   <i name="PARAM3">      0.00000000</i>
  </separator>
  <separator name="model GW" >
   <i type="int" name="MODEL_GW">     0</i>
   <i name="MODEL_EPS0">      9.60000000</i>
   <i name="MODEL_ALPHA">      1.00000000</i>
  </separator>
  <separator name="linear response parameters" >
   <i type="logical" name="LEPSILON"> F  </i>
   <i type="logical" name="LRPA"> F  </i>
   <i type="logical" name="LNABLA"> F  </i>
   <i type="logical" name="LVEL"> F  </i>
   <i type="int" name="KINTER">     0</i>
   <i name="CSHIFT">      0.10000000</i>
   <i name="OMEGAMAX">     -1.00000000</i>
   <i name="DEG_THRESHOLD">      0.00200000</i>
   <i name="RTIME">     -0.10000000</i>
   <i name="WPLASMAI">      0.00000000</i>
   <v name="DFIELD">      0.00000000      0.00000000      0.00000000</v>
   <v name="WPLASMA">      0.00000000      0.00000000      0.00000000      0.00000000      0.00000000      0.00000000      0.00000000      0.00000000      0.00000000</v>
  </separator>
  <separator name="orbital magnetization" >
   <i type="logical" name="NUCIND"> F  </i>
   <v name="MAGPOS">      0.00000000      0.00000000      0.00000000</v>
   <i type="logical" name="LNICSALL"> T  </i>
   <i type="logical" name="ORBITALMAG"> F  </i>
   <i type="logical" name="LMAGBLOCH"> F  </i>
   <i type="logical" name="LCHIMAG"> F  </i>
   <i type="logical" name="LGAUGE"> T  </i>
   <i type="int" name="MAGATOM">     0</i>
   <v name="MAGDIPOL">      0.00000000      0.00000000      0.00000000</v>
   <v name="AVECCONST">      0.00000000      0.00000000      0.00000000</v>
  </separator>
  <separator name="response functions" >
   <i type="logical" name="LADDER"> F  </i>
   <i type="logical" name="LRPAFORCE"> F  </i>
   <i type="logical" name="LFXC"> F  </i>
   <i type="logical" name="LHARTREE"> T  </i>
   <i type="int" name="IBSE">     0</i>
   <v type="int" name="KPOINT">    -1     0     0     0</v>
   <i type="logical" name="LTCTE"> F  </i>
   <i type="logical" name="LTETE"> F  </i>
   <i type="logical" name="LTRIPLET"> F  </i>
   <i type="logical" name="LFXCEPS"> F  </i>
   <i type="logical" name="LFXHEG"> F  </i>
   <i type="int" name="NATURALO">     2</i>
   <i type="logical" name="L2ORDER"> F  </i>
   <i type="logical" name="LMP2LT"> F  </i>
   <i type="logical" name="LUSEW"> F  </i>
   <i name="ENCUTGW">     -2.00000000</i>
   <i name="ENCUTGWSOFT">     -2.00000000</i>
   <i name="ENCUTLF">     -1.00000000</i>
   <i type="int" name="LMAXMP2">    -1</i>
   <i name="SCISSOR">      0.00000000</i>
   <i type="int" name="NOMEGA">     0</i>
   <i type="int" name="NOMEGAR">     0</i>
   <i type="int" name="NBANDSGW">    -1</i>
   <i type="int" name="NBANDSO">    -1</i>
   <i type="int" name="NBANDSV">    -1</i>
   <i type="int" name="NELM">     1</i>
   <i type="int" name="NELMHF">     1</i>
   <i type="int" name="DIM">     3</i>
   <i type="int" name="ANTIRES">     0</i>
   <i name="OMEGAMAX">    -30.00000000</i>
   <i name="OMEGAMIN">    -30.00000000</i>
   <i name="OMEGATL">   -200.00000000</i>
   <i type="int" name="OMEGAGRID">   140</i>
   <i name="CSHIFT">     -0.10000000</i>
   <i type="logical" name="SELFENERGY"> F  </i>
   <i type="logical" name="LSPECTRAL"> F  </i>
   <i type="logical" name="LSPECTRALGW"> F  </i>
   <i type="logical" name="LSINGLES"> F  </i>
   <i type="logical" name="LFERMIGW"> F  </i>
   <i type="logical" name="ODDONLYGW"> F  </i>
   <i type="logical" name="EVENONLYGW"> F  </i>
   <i type="int" name="NKREDLFX">     1</i>
   <i type="int" name="NKREDLFY">     1</i>
   <i type="int" name="NKREDLFZ">     1</i>
   <i type="int" name="MAXMEM">  2800</i>
   <i type="int" name="TELESCOPE">     0</i>
   <i type="int" name="TAUPAR">     1</i>
   <i type="int" name="OMEGAPAR">    -1</i>
   <i name="LAMBDA">      1.00000000</i>
  </separator>
  <separator name="External order field" >
   <i name="OFIELD_KAPPA">      0.00000000</i>
   <v name="OFIELD_K">      0.00000000      0.00000000      0.00000000</v>
   <i name="OFIELD_Q6_NEAR">      0.00000000</i>
   <i name="OFIELD_Q6_FAR">      0.00000000</i>
   <i name="OFIELD_A">      0.00000000</i>
  </separator>
 </parameters>
 <atominfo>
  <atoms>       1 </atoms>
  <types>       1 </types>
  <array name="atoms" >
   <dimension dim="1">ion</dimension>
   <field type="string">element</field>
   <field type="int">atomtype</field>
   <set>
    <rc><c>Au</c><c>   1</c></rc>
   </set>
  </array>
  <array name="atomtypes" >
   <dimension dim="1">type</dimension>
   <field type="int">atomspertype</field>
   <field type="string">element</field>
   <field>mass</field>
   <field>valence</field>
   <field type="string">pseudopotential</field>
   <set>
    <rc><c>   1</c><c>Au</c><c>    196.96600000</c><c>     11.00000000</c><c> PAW Au 04Feb1998                       </c></rc>
   </set>
  </array>
 </atominfo>
 <structure name="initialpos" >
  <crystal>
   <varray name="basis" >
    <v>       0.00000000       2.00000000       2.00000000 </v>
    <v>       2.00000000       0.00000000       2.00000000 </v>
    <v>       2.00000000       2.00000000       0.00000000 </v>
   </varray>
   <i name="volume">     16.00000000 </i>
   <varray name="rec_basis" >
    <v>      -0.25000000       0.25000000       0.25000000 </v>
    <v>       0.25000000      -0.25000000       0.25000000 </v>
    <v>       0.25000000       0.25000000      -0.25000000 </v>
   </varray>
  </crystal>
  <varray name="positions" >
   <v>       0.00000000       0.00000000       0.00000000 </v>
  </varray>
 </structure>
 <calculation>
  <scstep>
   <time name="dav">    0.31    0.91</time>
   <time name="total">    0.31    1.04</time>
   <energy>
    <i name="alphaZ">    114.86745875 </i>
    <i name="ewald">   -998.56820046 </i>
    <i name="hartreedc">   -113.40372989 </i>
    <i name="XCdc">     16.40218177 </i>
    <i name="pawpsdc">    773.36948546 </i>
    <i name="pawaedc">   -755.98436149 </i>
    <i name="eentropy">     -0.00073134 </i>
    <i name="bandstr">     29.11284587 </i>
    <i name="atom">    929.39633208 </i>
    <i name="e_fr_energy">     -4.80871925 </i>
    <i name="e_wo_entrp">     -4.80798792 </i>
    <i name="e_0_energy">     -4.80847547 </i>
   </energy>
  </scstep>
  <scstep>
   <time name="dav">    0.29    0.89</time>
   <time name="total">    0.30    0.91</time>
   <energy>
    <i name="e_fr_energy">     -4.38871655 </i>
    <i name="e_wo_entrp">     -4.38891017 </i>
    <i name="e_0_energy">     -4.38878109 </i>
   </energy>
  </scstep>
  <scstep>
   <time name="dav">    0.30    0.90</time>
   <time name="total">    0.30    0.92</time>
   <energy>
    <i name="e_fr_energy">     -4.37307109 </i>
    <i name="e_wo_entrp">     -4.37366229 </i>
    <i name="e_0_energy">     -4.37326816 </i>
   </energy>
  </scstep>
  <scstep>
   <time name="dav">    0.30    0.90</time>
   <time name="total">    0.30    0.92</time>
   <energy>
    <i name="e_fr_energy">     -4.37333200 </i>
    <i name="e_wo_entrp">     -4.37392073 </i>
    <i name="e_0_energy">     -4.37352825 </i>
   </energy>
  </scstep>
  <scstep>
   <time name="dav">    0.24    0.62</time>
   <time name="total">    0.24    0.62</time>
   <energy>
    <i name="alphaZ">    114.86745875 </i>
    <i name="ewald">   -998.56820046 </i>
    <i name="hartreedc">   -103.81042118 </i>
    <i name="XCdc">     15.93669087 </i>
    <i name="pawpsdc">    763.32179175 </i>
    <i name="pawaedc">   -745.80090633 </i>
    <i name="eentropy">      0.00059218 </i>
    <i name="bandstr">     20.28332931 </i>
    <i name="atom">    929.39633208 </i>
    <i name="e_fr_energy">     -4.37333304 </i>
    <i name="e_wo_entrp">     -4.37392522 </i>
    <i name="e_0_energy">     -4.37353043 </i>
   </energy>
  </scstep>
  <structure>
   <crystal>
    <varray name="basis" >
     <v>       0.00000000       2.00000000       2.00000000 </v>
     <v>       2.00000000       0.00000000       2.00000000 </v>
     <v>       2.00000000       2.00000000       0.00000000 </v>
    </varray>
    <i name="volume">     16.00000000 </i>
    <varray name="rec_basis" >
     <v>      -0.25000000       0.25000000       0.25000000 </v>
     <v>       0.25000000      -0.25000000       0.25000000 </v>
     <v>       0.25000000       0.25000000      -0.25000000 </v>
    </varray>
   </crystal>
   <varray name="positions" >
    <v>       0.00000000       0.00000000       0.00000000 </v>
   </varray>
  </structure>
  <varray name="forces" >
   <v>       0.00000000       0.00000000       0.00000000 </v>
  </varray>
  <varray name="stress" >
   <v>      63.70510400      -0.00000000       0.00000000 </v>
   <v>       0.00000000      63.70510400      -0.00000000 </v>
   <v>      -0.00000000       0.00000000      63.70510400 </v>
  </varray>
  <energy>
   <i name="e_fr_energy">     -4.37333304 </i>
   <i name="e_wo_entrp">     -4.37353043 </i>
   <i name="e_0_energy">      0.00059218 </i>
  </energy>
  <time name="totalsc">    1.62    4.74</time>
  <eigenvalues>
   <array>
    <dimension dim="1">band</dimension>
    <dimension dim="2">kpoint</dimension>
    <dimension dim="3">spin</dimension>
    <field>eigene</field>
    <field>occ</field>
    <set>
     <set comment="spin 1">
      <set comment="kpoint 1">
       <r>   -4.1136    1.0000 </r>
       <r>    1.3107    1.0000 </r>
       <r>    1.3760    1.0000 </r>
       <r>    1.3760    1.0000 </r>
       <r>    3.0468    1.0000 </r>
       <r>    3.0468    1.0000 </r>
       <r>   21.8470    0.0000 </r>
       <r>   25.2738    0.0000 </r>
       <r>   26.0651    0.0000 </r>
       <r>   26.0651    0.0000 </r>
       <r>   31.0306    0.0000 </r>
       <r>   34.5398    0.0000 </r>
      </set>
      <set comment="kpoint 2">
       <r>   -3.6330    1.0000 </r>
       <r>    1.1388    1.0000 </r>
       <r>    1.5292    1.0000 </r>
       <r>    1.5653    1.0000 </r>
       <r>    2.8817    1.0000 </r>
       <r>    3.1020    1.0000 </r>
       <r>   22.2926    0.0000 </r>
       <r>   23.2736    0.0000 </r>
       <r>   25.7756    0.0000 </r>
       <r>   27.0537    0.0000 </r>
       <r>   30.7021    0.0000 </r>
       <r>   33.4210    0.0000 </r>
      </set>
      <set comment="kpoint 3">
       <r>   -2.5997    1.0000 </r>
       <r>    1.0031    1.0000 </r>
       <r>    1.6971    1.0000 </r>
       <r>    1.7221    1.0000 </r>
       <r>    2.8886    1.0000 </r>
       <r>    3.3384    1.0000 </r>
       <r>   19.4918    0.0000 </r>
       <r>   22.9360    0.0000 </r>
       <r>   26.1023    0.0000 </r>
       <r>   28.4767    0.0000 </r>
       <r>   28.5352    0.0000 </r>
       <r>   31.1618    0.0000 </r>
      </set>
      <set comment="kpoint 4">
       <r>   -1.6955    1.0000 </r>
       <r>    1.4954    1.0000 </r>
       <r>    1.5933    1.0000 </r>
       <r>    1.7188    1.0000 </r>
       <r>    3.4302    1.0000 </r>
       <r>    3.9686    1.0000 </r>
       <r>   15.4285    0.0000 </r>
       <r>   22.1980    0.0000 </r>
       <r>   25.1678    0.0000 </r>
       <r>   27.4789    0.0000 </r>
       <r>   29.6810    0.0000 </r>
       <r>   30.9114    0.0000 </r>
      </set>
      <set comment="kpoint 5">
       <r>   -1.4849    1.0000 </r>
       <r>    1.3286    1.0000 </r>
       <r>    1.4073    1.0000 </r>
       <r>    3.3287    1.0000 </r>
       <r>    4.0992    1.0000 </r>
       <r>    4.8689    1.0000 </r>
       <r>   11.5698   -0.0000 </r>
       <r>   21.3540    0.0000 </r>
       <r>   24.1467    0.0000 </r>
       <r>   25.2925    0.0000 </r>
       <r>   31.6820    0.0000 </r>
       <r>   32.0513    0.0000 </r>
      </set>
      <set comment="kpoint 6">
       <r>   -1.4848    1.0000 </r>
       <r>    1.2544    1.0000 </r>
       <r>    1.3624    1.0000 </r>
       <r>    3.8199    1.0000 </r>
       <r>    4.4215    1.0000 </r>
       <r>    5.6668    1.0000 </r>
       <r>    9.8995   -0.0000 </r>
       <r>   21.1227    0.0000 </r>
       <r>   24.1849    0.0000 </r>
       <r>   24.2978    0.0000 </r>
       <r>   32.2659    0.0000 </r>
       <r>   32.3532    0.0000 </r>
      </set>
      <set comment="kpoint 7">
       <r>   -1.5074    1.0000 </r>
       <r>    1.3621    1.0000 </r>
       <r>    1.4854    1.0000 </r>
       <r>    2.7185    1.0000 </r>
       <r>    4.1929    1.0000 </r>
       <r>    4.2897    1.0000 </r>
       <r>   12.7704    0.0000 </r>
       <r>   21.6033    0.0000 </r>
       <r>   24.6555    0.0000 </r>
       <r>   25.5276    0.0000 </r>
       <r>   31.6325    0.0000 </r>
       <r>   31.7341    0.0000 </r>
      </set>
      <set comment="kpoint 8">
       <r>   -1.9204    1.0000 </r>
       <r>    1.2709    1.0000 </r>
       <r>    1.6077    1.0000 </r>
       <r>    1.6778    1.0000 </r>
       <r>    3.3266    1.0000 </r>
       <r>    3.6297    1.0000 </r>
       <r>   16.7998    0.0000 </r>
       <r>   22.5885    0.0000 </r>
       <r>   25.7123    0.0000 </r>
       <r>   27.6030    0.0000 </r>
       <r>   29.3838    0.0000 </r>
       <r>   31.1824    0.0000 </r>
      </set>
      <set comment="kpoint 9">
       <r>   -2.9780    1.0000 </r>
       <r>    0.9934    1.0000 </r>
       <r>    1.6886    1.0000 </r>
       <r>    1.7031    1.0000 </r>
       <r>    2.8417    1.0000 </r>
       <r>    3.2033    1.0000 </r>
       <r>   20.7692    0.0000 </r>
       <r>   22.9925    0.0000 </r>
       <r>   26.0968    0.0000 </r>
       <r>   27.5541    0.0000 </r>
       <r>   29.3680    0.0000 </r>
       <r>   31.9447    0.0000 </r>
      </set>
      <set comment="kpoint 10">
       <r>   -3.8690    1.0000 </r>
       <r>    1.1896    1.0000 </r>
       <r>    1.4820    1.0000 </r>
       <r>    1.4882    1.0000 </r>
       <r>    2.9084    1.0000 </r>
       <r>    3.1110    1.0000 </r>
       <r>   22.1296    0.0000 </r>
       <r>   24.3469    0.0000 </r>
       <r>   25.8621    0.0000 </r>
       <r>   26.2180    0.0000 </r>
       <r>   31.8112    0.0000 </r>
       <r>   33.6961    0.0000 </r>
      </set>
      <set comment="kpoint 11">
       <r>   -3.3946    1.0000 </r>
       <r>    0.9504    1.0000 </r>
       <r>    1.7035    1.0000 </r>
       <r>    1.7077    1.0000 </r>
       <r>    2.6637    1.0000 </r>
       <r>    3.2341    1.0000 </r>
       <r>   22.6183    0.0000 </r>
       <r>   23.4617    0.0000 </r>
       <r>   25.2814    0.0000 </r>
       <r>   25.8571    0.0000 </r>
       <r>   31.2357    0.0000 </r>
       <r>   32.7776    0.0000 </r>
      </set>
      <set comment="kpoint 12">
       <r>   -2.5345    1.0000 </r>
       <r>    0.6747    1.0000 </r>
       <r>    1.8066    1.0000 </r>
       <r>    2.0127    1.0000 </r>
       <r>    2.6001    1.0000 </r>
       <r>    3.4783    1.0000 </r>
       <r>   21.0357    0.0000 </r>
       <r>   22.8219    0.0000 </r>
       <r>   24.8049    0.0000 </r>
       <r>   26.0883    0.0000 </r>
       <r>   29.1946    0.0000 </r>
       <r>   31.9115    0.0000 </r>
      </set>
      <set comment="kpoint 13">
       <r>   -1.4908    1.0000 </r>
       <r>    0.7647    1.0000 </r>
       <r>    1.4702    1.0000 </r>
       <r>    2.0221    1.0000 </r>
       <r>    3.3286    1.0000 </r>
       <r>    4.1139    1.0000 </r>
       <r>   17.0351    0.0000 </r>
       <r>   22.2945    0.0000 </r>
       <r>   23.7415    0.0000 </r>
       <r>   26.1106    0.0000 </r>
       <r>   29.8331    0.0000 </r>
       <r>   31.5493    0.0000 </r>
      </set>
      <set comment="kpoint 14">
       <r>   -1.1079    1.0000 </r>
       <r>    1.1355    1.0000 </r>
       <r>    1.7186    1.0000 </r>
       <r>    1.8947    1.0000 </r>
       <r>    4.1679    1.0000 </r>
       <r>    5.3533    1.0000 </r>
       <r>   12.9451    0.0000 </r>
       <r>   21.6617    0.0000 </r>
       <r>   22.5430    0.0000 </r>
       <r>   24.7801    0.0000 </r>
       <r>   31.6008    0.0000 </r>
       <r>   32.8367    0.0000 </r>
      </set>
      <set comment="kpoint 15">
       <r>   -1.0922    1.0000 </r>
       <r>    0.9937    1.0000 </r>
       <r>    1.6910    1.0000 </r>
       <r>    2.6760    1.0000 </r>
       <r>    4.3662    1.0000 </r>
       <r>    7.2272   -0.0000 </r>
       <r>    9.8612   -0.0000 </r>
       <r>   21.1668    0.0000 </r>
       <r>   22.2167    0.0000 </r>
       <r>   23.8969    0.0000 </r>
       <r>   32.2154    0.0000 </r>
       <r>   33.2214    0.0000 </r>
      </set>
      <set comment="kpoint 16">
       <r>   -1.0700    1.0000 </r>
       <r>    1.0837    1.0000 </r>
       <r>    1.7185    1.0000 </r>
       <r>    2.3142    1.0000 </r>
       <r>    4.0066    1.0000 </r>
       <r>    6.0934    1.0190 </r>
       <r>   11.7809   -0.0000 </r>
       <r>   20.9777    0.0000 </r>
       <r>   22.4952    0.0000 </r>
       <r>   24.9421    0.0000 </r>
       <r>   31.2598    0.0000 </r>
       <r>   32.9113    0.0000 </r>
      </set>
      <set comment="kpoint 17">
       <r>   -1.2435    1.0000 </r>
       <r>    1.0722    1.0000 </r>
       <r>    1.4094    1.0000 </r>
       <r>    1.9271    1.0000 </r>
       <r>    3.2335    1.0000 </r>
       <r>    4.7016    1.0000 </r>
       <r>   15.6704    0.0000 </r>
       <r>   21.3089    0.0000 </r>
       <r>   23.5906    0.0000 </r>
       <r>   27.0187    0.0000 </r>
       <r>   29.2987    0.0000 </r>
       <r>   31.9818    0.0000 </r>
      </set>
      <set comment="kpoint 18">
       <r>   -2.1628    1.0000 </r>
       <r>    0.7211    1.0000 </r>
       <r>    1.6879    1.0000 </r>
       <r>    2.0379    1.0000 </r>
       <r>    2.5950    1.0000 </r>
       <r>    3.7640    1.0000 </r>
       <r>   19.6298    0.0000 </r>
       <r>   21.9685    0.0000 </r>
       <r>   25.3380    0.0000 </r>
       <r>   26.3746    0.0000 </r>
       <r>   30.1095    0.0000 </r>
       <r>   30.9510    0.0000 </r>
      </set>
      <set comment="kpoint 19">
       <r>   -3.1758    1.0000 </r>
       <r>    0.9533    1.0000 </r>
       <r>    1.7047    1.0000 </r>
       <r>    1.7164    1.0000 </r>
       <r>    2.7074    1.0000 </r>
       <r>    3.2437    1.0000 </r>
       <r>   21.9852    0.0000 </r>
       <r>   22.8036    0.0000 </r>
       <r>   25.3541    0.0000 </r>
       <r>   27.1906    0.0000 </r>
       <r>   29.7415    0.0000 </r>
       <r>   32.8578    0.0000 </r>
      </set>
      <set comment="kpoint 20">
       <r>   -1.9654    1.0000 </r>
       <r>    0.2827    1.0000 </r>
       <r>    1.9708    1.0000 </r>
       <r>    2.4340    1.0000 </r>
       <r>    2.6424    1.0000 </r>
       <r>    3.6132    1.0000 </r>
       <r>   21.5516    0.0000 </r>
       <r>   22.7419    0.0000 </r>
       <r>   23.6570    0.0000 </r>
       <r>   24.5826    0.0000 </r>
       <r>   26.2753    0.0000 </r>
       <r>   33.2549    0.0000 </r>
      </set>
      <set comment="kpoint 21">
       <r>   -1.1432    1.0000 </r>
       <r>    0.0353    1.0000 </r>
       <r>    1.6839    1.0000 </r>
       <r>    2.8176    1.0000 </r>
       <r>    3.3662    1.0000 </r>
       <r>    4.1397    1.0000 </r>
       <r>   18.7932    0.0000 </r>
       <r>   20.7913    0.0000 </r>
       <r>   22.4182    0.0000 </r>
       <r>   25.1989    0.0000 </r>
       <r>   26.6243    0.0000 </r>
       <r>   33.3580    0.0000 </r>
      </set>
      <set comment="kpoint 22">
       <r>   -0.6717    1.0000 </r>
       <r>    0.3136    1.0000 </r>
       <r>    1.4139    1.0000 </r>
       <r>    2.6682    1.0000 </r>
       <r>    4.2664    1.0000 </r>
       <r>    5.6520    1.0000 </r>
       <r>   14.5937    0.0000 </r>
       <r>   20.1065    0.0000 </r>
       <r>   20.6416    0.0000 </r>
       <r>   24.7578    0.0000 </r>
       <r>   29.8980    0.0000 </r>
       <r>   33.4092    0.0000 </r>
      </set>
      <set comment="kpoint 23">
       <r>   -0.5475    1.0000 </r>
       <r>    0.5962    1.0000 </r>
       <r>    1.6273    1.0000 </r>
       <r>    2.4467    1.0000 </r>
       <r>    4.4053    1.0000 </r>
       <r>    8.2182   -0.0000 </r>
       <r>   10.8924   -0.0000 </r>
       <r>   18.7949    0.0000 </r>
       <r>   20.7121    0.0000 </r>
       <r>   24.2526    0.0000 </r>
       <r>   32.4890    0.0000 </r>
       <r>   34.2389    0.0000 </r>
      </set>
      <set comment="kpoint 24">
       <r>   -0.3579    1.0000 </r>
       <r>    0.6694    1.0000 </r>
       <r>    1.6426    1.0000 </r>
       <r>    2.3316    1.0000 </r>
       <r>    3.9556    1.0000 </r>
       <r>    8.0520   -0.0000 </r>
       <r>   11.4747   -0.0000 </r>
       <r>   17.6678    0.0000 </r>
       <r>   21.9364    0.0000 </r>
       <r>   24.4343    0.0000 </r>
       <r>   31.5661    0.0000 </r>
       <r>   34.0101    0.0000 </r>
      </set>
      <set comment="kpoint 25">
       <r>   -0.2594    1.0000 </r>
       <r>    0.7608    1.0000 </r>
       <r>    1.0313    1.0000 </r>
       <r>    2.4197    1.0000 </r>
       <r>    3.1905    1.0000 </r>
       <r>    6.2130    1.0322 </r>
       <r>   14.9528    0.0000 </r>
       <r>   17.6044    0.0000 </r>
       <r>   23.0980    0.0000 </r>
       <r>   26.0813    0.0000 </r>
       <r>   29.2089    0.0000 </r>
       <r>   33.8820    0.0000 </r>
      </set>
      <set comment="kpoint 26">
       <r>   -1.0701    1.0000 </r>
       <r>    0.6337    1.0000 </r>
       <r>    1.3812    1.0000 </r>
       <r>    2.2883    1.0000 </r>
       <r>    2.7474    1.0000 </r>
       <r>    4.8029    1.0000 </r>
       <r>   17.1402    0.0000 </r>
       <r>   19.9093    0.0000 </r>
       <r>   24.0681    0.0000 </r>
       <r>   27.2159    0.0000 </r>
       <r>   28.5752    0.0000 </r>
       <r>   32.5620    0.0000 </r>
      </set>
      <set comment="kpoint 27">
       <r>   -2.0797    1.0000 </r>
       <r>    0.9175    1.0000 </r>
       <r>    1.6604    1.0000 </r>
       <r>    1.8269    1.0000 </r>
       <r>    2.9544    1.0000 </r>
       <r>    3.6852    1.0000 </r>
       <r>   18.2546    0.0000 </r>
       <r>   22.7368    0.0000 </r>
       <r>   25.0824    0.0000 </r>
       <r>   27.4643    0.0000 </r>
       <r>   29.4853    0.0000 </r>
       <r>   30.7649    0.0000 </r>
      </set>
      <set comment="kpoint 28">
       <r>   -1.0179    1.0000 </r>
       <r>   -0.3804    1.0000 </r>
       <r>    2.6313    1.0000 </r>
       <r>    3.4044    1.0000 </r>
       <r>    3.8551    1.0000 </r>
       <r>    4.0733    1.0000 </r>
       <r>   18.7392    0.0000 </r>
       <r>   19.6905    0.0000 </r>
       <r>   20.0681    0.0000 </r>
       <r>   24.0420    0.0000 </r>
       <r>   25.9851    0.0000 </r>
       <r>   35.7893    0.0000 </r>
      </set>
      <set comment="kpoint 29">
       <r>   -0.8763    1.0000 </r>
       <r>   -0.4987    1.0000 </r>
       <r>    2.6923    1.0000 </r>
       <r>    3.7352    1.0000 </r>
       <r>    4.2825    1.0000 </r>
       <r>    5.6804    1.0000 </r>
       <r>   15.8465    0.0000 </r>
       <r>   17.9819    0.0000 </r>
       <r>   18.6031    0.0000 </r>
       <r>   25.1083    0.0000 </r>
       <r>   27.0536    0.0000 </r>
       <r>   35.4023    0.0000 </r>
      </set>
      <set comment="kpoint 30">
       <r>   -0.6987    1.0000 </r>
       <r>   -0.1600    1.0000 </r>
       <r>    2.3020    1.0000 </r>
       <r>    3.3970    1.0000 </r>
       <r>    4.5155    1.0000 </r>
       <r>    8.4502   -0.0000 </r>
       <r>   12.4682    0.0000 </r>
       <r>   16.2672    0.0000 </r>
       <r>   18.6953    0.0000 </r>
       <r>   25.2972    0.0000 </r>
       <r>   29.8751    0.0000 </r>
       <r>   34.3853    0.0000 </r>
      </set>
      <set comment="kpoint 31">
       <r>   -0.3776    1.0000 </r>
       <r>    0.3917    1.0000 </r>
       <r>    1.7052    1.0000 </r>
       <r>    3.0303    1.0000 </r>
       <r>    4.1493    1.0000 </r>
       <r>    9.7219   -0.0000 </r>
       <r>   11.9029    0.0000 </r>
       <r>   14.5569    0.0000 </r>
       <r>   20.1200    0.0000 </r>
       <r>   24.9859    0.0000 </r>
       <r>   32.9347    0.0000 </r>
       <r>   33.5314    0.0000 </r>
      </set>
      <set comment="kpoint 32">
       <r>   -0.0596    1.0000 </r>
       <r>    0.7123    1.0000 </r>
       <r>    1.1616    1.0000 </r>
       <r>    2.6328    1.0000 </r>
       <r>    3.6894    1.0000 </r>
       <r>    7.8863   -0.0000 </r>
       <r>   13.3881    0.0000 </r>
       <r>   15.5564    0.0000 </r>
       <r>   21.9697    0.0000 </r>
       <r>   24.8370    0.0000 </r>
       <r>   31.1514    0.0000 </r>
       <r>   34.2406    0.0000 </r>
      </set>
      <set comment="kpoint 33">
       <r>   -0.6816    1.0000 </r>
       <r>    0.9715    1.0000 </r>
       <r>    1.4996    1.0000 </r>
       <r>    2.0822    1.0000 </r>
       <r>    3.5916    1.0000 </r>
       <r>    6.1802    1.0353 </r>
       <r>   13.3299    0.0000 </r>
       <r>   19.3598    0.0000 </r>
       <r>   22.7729    0.0000 </r>
       <r>   25.5344    0.0000 </r>
       <r>   30.1303    0.0000 </r>
       <r>   33.3606    0.0000 </r>
      </set>
      <set comment="kpoint 34">
       <r>   -1.4183    1.0000 </r>
       <r>    1.3639    1.0000 </r>
       <r>    1.6382    1.0000 </r>
       <r>    1.8779    1.0000 </r>
       <r>    3.7351    1.0000 </r>
       <r>    4.5059    1.0000 </r>
       <r>   14.1443    0.0000 </r>
       <r>   21.9158    0.0000 </r>
       <r>   23.8800    0.0000 </r>
       <r>   26.2696    0.0000 </r>
       <r>   30.5783    0.0000 </r>
       <r>   31.7222    0.0000 </r>
      </set>
      <set comment="kpoint 35">
       <r>   -1.1661    1.0000 </r>
       <r>   -0.8152    1.0000 </r>
       <r>    4.1480    1.0000 </r>
       <r>    4.1735    1.0000 </r>
       <r>    4.5534    1.0000 </r>
       <r>    6.1058    1.0218 </r>
       <r>   14.5298    0.0000 </r>
       <r>   17.1430    0.0000 </r>
       <r>   17.4665    0.0000 </r>
       <r>   24.4273    0.0000 </r>
       <r>   26.9278    0.0000 </r>
       <r>   36.7036    0.0000 </r>
      </set>
      <set comment="kpoint 36">
       <r>   -1.0896    1.0000 </r>
       <r>   -0.7596    1.0000 </r>
       <r>    3.7155    1.0000 </r>
       <r>    4.1167    1.0000 </r>
       <r>    4.7165    1.0000 </r>
       <r>    8.2125   -0.0000 </r>
       <r>   12.6045    0.0000 </r>
       <r>   16.0947    0.0000 </r>
       <r>   17.0639    0.0000 </r>
       <r>   25.4209    0.0000 </r>
       <r>   27.4838    0.0000 </r>
       <r>   35.8048    0.0000 </r>
      </set>
      <set comment="kpoint 37">
       <r>   -0.7595    1.0000 </r>
       <r>   -0.2582    1.0000 </r>
       <r>    2.6190    1.0000 </r>
       <r>    3.5873    1.0000 </r>
       <r>    4.5097    1.0000 </r>
       <r>    9.9109   -0.0000 </r>
       <r>   11.5953   -0.0000 </r>
       <r>   14.8883    0.0000 </r>
       <r>   18.3290    0.0000 </r>
       <r>   25.5259    0.0000 </r>
       <r>   29.8990    0.0000 </r>
       <r>   34.5163    0.0000 </r>
      </set>
      <set comment="kpoint 38">
       <r>   -0.4110    1.0000 </r>
       <r>    0.4417    1.0000 </r>
       <r>    1.6589    1.0000 </r>
       <r>    2.7846    1.0000 </r>
       <r>    4.2878    1.0000 </r>
       <r>    9.8771   -0.0000 </r>
       <r>   10.3041   -0.0000 </r>
       <r>   16.6101    0.0000 </r>
       <r>   20.3174    0.0000 </r>
       <r>   24.6718    0.0000 </r>
       <r>   32.6860    0.0000 </r>
       <r>   33.9174    0.0000 </r>
      </set>
      <set comment="kpoint 39">
       <r>   -0.7476    1.0000 </r>
       <r>    0.7993    1.0000 </r>
       <r>    1.9825    1.0000 </r>
       <r>    2.1688    1.0000 </r>
       <r>    4.2215    1.0000 </r>
       <r>    8.1246   -0.0000 </r>
       <r>    9.9942   -0.0000 </r>
       <r>   19.7231    0.0000 </r>
       <r>   21.8979    0.0000 </r>
       <r>   23.9854    0.0000 </r>
       <r>   32.0287    0.0000 </r>
       <r>   33.6592    0.0000 </r>
      </set>
      <set comment="kpoint 40">
       <r>   -1.3443    1.0000 </r>
       <r>    1.1853    1.0000 </r>
       <r>    1.4922    1.0000 </r>
       <r>    3.1298    1.0000 </r>
       <r>    4.3141    1.0000 </r>
       <r>    5.9092    1.0007 </r>
       <r>   10.5722   -0.0000 </r>
       <r>   21.3047    0.0000 </r>
       <r>   23.3136    0.0000 </r>
       <r>   24.4842    0.0000 </r>
       <r>   32.0678    0.0000 </r>
       <r>   32.5963    0.0000 </r>
      </set>
      <set comment="kpoint 41">
       <r>   -1.2506    1.0000 </r>
       <r>   -0.9077    1.0000 </r>
       <r>    4.3060    1.0000 </r>
       <r>    4.4795    1.0000 </r>
       <r>    4.7310    1.0000 </r>
       <r>    7.3155   -0.0000 </r>
       <r>   12.8841    0.0000 </r>
       <r>   16.5913    0.0000 </r>
       <r>   16.9556    0.0000 </r>
       <r>   24.5930    0.0000 </r>
       <r>   27.1231    0.0000 </r>
       <r>   36.4807    0.0000 </r>
      </set>
      <set comment="kpoint 42">
       <r>   -1.0027    1.0000 </r>
       <r>   -0.6709    1.0000 </r>
       <r>    3.3105    1.0000 </r>
       <r>    4.0400    1.0000 </r>
       <r>    4.5430    1.0000 </r>
       <r>    6.9831   -0.0003 </r>
       <r>   14.1018    0.0000 </r>
       <r>   16.7437    0.0000 </r>
       <r>   17.5668    0.0000 </r>
       <r>   25.2764    0.0000 </r>
       <r>   27.3339    0.0000 </r>
       <r>   35.7672    0.0000 </r>
      </set>
      <set comment="kpoint 43">
       <r>   -0.6311    1.0000 </r>
       <r>    0.0393    1.0000 </r>
       <r>    1.8309    1.0000 </r>
       <r>    3.0575    1.0000 </r>
       <r>    4.4607    1.0000 </r>
       <r>    6.9478   -0.0008 </r>
       <r>   13.4579    0.0000 </r>
       <r>   18.2310    0.0000 </r>
       <r>   19.4228    0.0000 </r>
       <r>   24.9700    0.0000 </r>
       <r>   29.8684    0.0000 </r>
       <r>   34.0311    0.0000 </r>
      </set>
      <set comment="kpoint 44">
       <r>   -0.7990    1.0000 </r>
       <r>    0.8525    1.0000 </r>
       <r>    1.6583    1.0000 </r>
       <r>    2.1228    1.0000 </r>
       <r>    4.3863    1.0000 </r>
       <r>    6.6362   -0.0274 </r>
       <r>   11.8431   -0.0000 </r>
       <r>   20.8320    0.0000 </r>
       <r>   21.2671    0.0000 </r>
       <r>   24.0991    0.0000 </r>
       <r>   32.1932    0.0000 </r>
       <r>   33.9389    0.0000 </r>
      </set>
      <set comment="kpoint 45">
       <r>   -1.0449    1.0000 </r>
       <r>   -0.6358    1.0000 </r>
       <r>    3.4894    1.0000 </r>
       <r>    3.8599    1.0000 </r>
       <r>    4.3071    1.0000 </r>
       <r>    4.8012    1.0000 </r>
       <r>   16.7353    0.0000 </r>
       <r>   18.2314    0.0000 </r>
       <r>   18.4133    0.0000 </r>
       <r>   24.1970    0.0000 </r>
       <r>   26.5397    0.0000 </r>
       <r>   36.8157    0.0000 </r>
      </set>
      <set comment="kpoint 46">
       <r>   -0.8456    1.0000 </r>
       <r>   -0.2568    1.0000 </r>
       <r>    2.0420    1.0000 </r>
       <r>    3.2878    1.0000 </r>
       <r>    3.9084    1.0000 </r>
       <r>    4.7041    1.0000 </r>
       <r>   17.4079    0.0000 </r>
       <r>   19.3906    0.0000 </r>
       <r>   20.3581    0.0000 </r>
       <r>   25.0622    0.0000 </r>
       <r>   26.7087    0.0000 </r>
       <r>   34.5031    0.0000 </r>
      </set>
      <set comment="kpoint 47">
       <r>   -0.9643    1.0000 </r>
       <r>    0.5740    1.0000 </r>
       <r>    1.2899    1.0000 </r>
       <r>    2.3087    1.0000 </r>
       <r>    3.8687    1.0000 </r>
       <r>    4.7014    1.0000 </r>
       <r>   15.8080    0.0000 </r>
       <r>   21.3735    0.0000 </r>
       <r>   22.3505    0.0000 </r>
       <r>   25.0181    0.0000 </r>
       <r>   29.9222    0.0000 </r>
       <r>   32.5477    0.0000 </r>
      </set>
      <set comment="kpoint 48">
       <r>   -1.3092    1.0000 </r>
       <r>   -0.0662    1.0000 </r>
       <r>    2.0562    1.0000 </r>
       <r>    2.9051    1.0000 </r>
       <r>    3.1735    1.0000 </r>
       <r>    3.8417    1.0000 </r>
       <r>   20.2861    0.0000 </r>
       <r>   21.1795    0.0000 </r>
       <r>   22.4087    0.0000 </r>
       <r>   24.2715    0.0000 </r>
       <r>   25.3537    0.0000 </r>
       <r>   34.4078    0.0000 </r>
      </set>
      <set comment="kpoint 49">
       <r>   -1.7937    1.0000 </r>
       <r>    0.3557    1.0000 </r>
       <r>    1.7122    1.0000 </r>
       <r>    2.3843    1.0000 </r>
       <r>    2.8525    1.0000 </r>
       <r>    3.7744    1.0000 </r>
       <r>   19.9979    0.0000 </r>
       <r>   22.0820    0.0000 </r>
       <r>   24.0964    0.0000 </r>
       <r>   25.2316    0.0000 </r>
       <r>   27.6418    0.0000 </r>
       <r>   32.3086    0.0000 </r>
      </set>
      <set comment="kpoint 50">
       <r>   -2.7294    1.0000 </r>
       <r>    0.6337    1.0000 </r>
       <r>    1.9657    1.0000 </r>
       <r>    2.0260    1.0000 </r>
       <r>    2.4333    1.0000 </r>
       <r>    3.4058    1.0000 </r>
       <r>   22.4720    0.0000 </r>
       <r>   23.4214    0.0000 </r>
       <r>   24.1917    0.0000 </r>
       <r>   25.0634    0.0000 </r>
       <r>   28.9755    0.0000 </r>
       <r>   32.6456    0.0000 </r>
      </set>
      <set comment="kpoint 51">
       <r>   -3.4096    1.0000 </r>
       <r>    1.1187    1.0000 </r>
       <r>    1.5845    1.0000 </r>
       <r>    1.5845    1.0000 </r>
       <r>    2.9947    1.0000 </r>
       <r>    2.9947    1.0000 </r>
       <r>   21.8223    0.0000 </r>
       <r>   22.8421    0.0000 </r>
       <r>   26.8104    0.0000 </r>
       <r>   26.8104    0.0000 </r>
       <r>   30.2124    0.0000 </r>
       <r>   32.7961    0.0000 </r>
      </set>
      <set comment="kpoint 52">
       <r>   -2.7532    1.0000 </r>
       <r>    0.8900    1.0000 </r>
       <r>    1.7233    1.0000 </r>
       <r>    1.8140    1.0000 </r>
       <r>    2.6453    1.0000 </r>
       <r>    3.4192    1.0000 </r>
       <r>   20.7873    0.0000 </r>
       <r>   22.5385    0.0000 </r>
       <r>   25.4017    0.0000 </r>
       <r>   27.7647    0.0000 </r>
       <r>   28.8795    0.0000 </r>
       <r>   32.4236    0.0000 </r>
      </set>
      <set comment="kpoint 53">
       <r>   -1.6532    1.0000 </r>
       <r>    0.7154    1.0000 </r>
       <r>    1.5979    1.0000 </r>
       <r>    2.1249    1.0000 </r>
       <r>    2.5425    1.0000 </r>
       <r>    4.2324    1.0000 </r>
       <r>   18.3386    0.0000 </r>
       <r>   20.9974    0.0000 </r>
       <r>   25.0125    0.0000 </r>
       <r>   26.7524    0.0000 </r>
       <r>   29.5914    0.0000 </r>
       <r>   31.5811    0.0000 </r>
      </set>
      <set comment="kpoint 54">
       <r>   -0.9700    1.0000 </r>
       <r>    1.1383    1.0000 </r>
       <r>    1.5221    1.0000 </r>
       <r>    1.8959    1.0000 </r>
       <r>    3.2912    1.0000 </r>
       <r>    5.3766    1.0000 </r>
       <r>   14.4377    0.0000 </r>
       <r>   20.3189    0.0000 </r>
       <r>   23.3411    0.0000 </r>
       <r>   26.6018    0.0000 </r>
       <r>   29.3007    0.0000 </r>
       <r>   32.6967    0.0000 </r>
      </set>
      <set comment="kpoint 55">
       <r>   -0.9508    1.0000 </r>
       <r>    0.9777    1.0000 </r>
       <r>    1.7731    1.0000 </r>
       <r>    2.4286    1.0000 </r>
       <r>    4.0590    1.0000 </r>
       <r>    6.9916   -0.0003 </r>
       <r>   10.7923   -0.0000 </r>
       <r>   20.2849    0.0000 </r>
       <r>   22.6946    0.0000 </r>
       <r>   24.1268    0.0000 </r>
       <r>   31.7873    0.0000 </r>
       <r>   32.9321    0.0000 </r>
      </set>
      <set comment="kpoint 56">
       <r>   -0.9938    1.0000 </r>
       <r>    0.9472    1.0000 </r>
       <r>    1.8290    1.0000 </r>
       <r>    2.2493    1.0000 </r>
       <r>    4.4574    1.0000 </r>
       <r>    6.9449   -0.0009 </r>
       <r>   10.6108   -0.0000 </r>
       <r>   20.9594    0.0000 </r>
       <r>   22.7778    0.0000 </r>
       <r>   23.0700    0.0000 </r>
       <r>   32.8450    0.0000 </r>
       <r>   33.1412    0.0000 </r>
      </set>
      <set comment="kpoint 57">
       <r>   -1.0682    1.0000 </r>
       <r>    1.0471    1.0000 </r>
       <r>    1.3129    1.0000 </r>
       <r>    2.0081    1.0000 </r>
       <r>    4.2879    1.0000 </r>
       <r>    4.7693    1.0000 </r>
       <r>   14.2970    0.0000 </r>
       <r>   22.0479    0.0000 </r>
       <r>   22.6348    0.0000 </r>
       <r>   24.2672    0.0000 </r>
       <r>   31.7667    0.0000 </r>
       <r>   32.6283    0.0000 </r>
      </set>
      <set comment="kpoint 58">
       <r>   -1.6853    1.0000 </r>
       <r>    0.4973    1.0000 </r>
       <r>    1.6067    1.0000 </r>
       <r>    2.1588    1.0000 </r>
       <r>    3.2385    1.0000 </r>
       <r>    3.7818    1.0000 </r>
       <r>   18.5205    0.0000 </r>
       <r>   23.2499    0.0000 </r>
       <r>   23.2846    0.0000 </r>
       <r>   25.4423    0.0000 </r>
       <r>   28.6630    0.0000 </r>
       <r>   32.5333    0.0000 </r>
      </set>
      <set comment="kpoint 59">
       <r>   -2.3763    1.0000 </r>
       <r>    0.7677    1.0000 </r>
       <r>    1.7431    1.0000 </r>
       <r>    1.8934    1.0000 </r>
       <r>    2.8468    1.0000 </r>
       <r>    3.4762    1.0000 </r>
       <r>   19.6639    0.0000 </r>
       <r>   23.2161    0.0000 </r>
       <r>   24.8295    0.0000 </r>
       <r>   26.8910    0.0000 </r>
       <r>   29.0561    0.0000 </r>
       <r>   31.9340    0.0000 </r>
      </set>
      <set comment="kpoint 60">
       <r>   -1.4771    1.0000 </r>
       <r>    0.4857    1.0000 </r>
       <r>    1.4955    1.0000 </r>
       <r>    2.3509    1.0000 </r>
       <r>    2.8249    1.0000 </r>
       <r>    4.2097    1.0000 </r>
       <r>   18.4885    0.0000 </r>
       <r>   21.0303    0.0000 </r>
       <r>   24.1701    0.0000 </r>
       <r>   26.1680    0.0000 </r>
       <r>   29.2376    0.0000 </r>
       <r>   31.3594    0.0000 </r>
      </set>
      <set comment="kpoint 61">
       <r>   -0.5124    1.0000 </r>
       <r>    0.5104    1.0000 </r>
       <r>    1.0585    1.0000 </r>
       <r>    2.5990    1.0000 </r>
       <r>    3.1698    1.0000 </r>
       <r>    5.4825    1.0000 </r>
       <r>   16.0161    0.0000 </r>
       <r>   18.7531    0.0000 </r>
       <r>   22.6902    0.0000 </r>
       <r>   27.0590    0.0000 </r>
       <r>   28.5095    0.0000 </r>
       <r>   33.1883    0.0000 </r>
      </set>
      <set comment="kpoint 62">
       <r>   -0.3835    1.0000 </r>
       <r>    0.6953    1.0000 </r>
       <r>    1.3883    1.0000 </r>
       <r>    2.3794    1.0000 </r>
       <r>    3.9440    1.0000 </r>
       <r>    7.2223   -0.0000 </r>
       <r>   12.3506    0.0000 </r>
       <r>   18.4753    0.0000 </r>
       <r>   21.3174    0.0000 </r>
       <r>   25.4683    0.0000 </r>
       <r>   30.6669    0.0000 </r>
       <r>   34.4138    0.0000 </r>
      </set>
      <set comment="kpoint 63">
       <r>   -0.4613    1.0000 </r>
       <r>    0.5947    1.0000 </r>
       <r>    1.7529    1.0000 </r>
       <r>    2.3056    1.0000 </r>
       <r>    4.2770    1.0000 </r>
       <r>    8.9146   -0.0000 </r>
       <r>    9.9815   -0.0000 </r>
       <r>   19.1282    0.0000 </r>
       <r>   20.2615    0.0000 </r>
       <r>   24.9045    0.0000 </r>
       <r>   31.6560    0.0000 </r>
       <r>   34.8682    0.0000 </r>
      </set>
      <set comment="kpoint 64">
       <r>   -0.5127    1.0000 </r>
       <r>    0.6925    1.0000 </r>
       <r>    1.1413    1.0000 </r>
       <r>    2.5217    1.0000 </r>
       <r>    4.0832    1.0000 </r>
       <r>    6.4393    0.4668 </r>
       <r>   13.3739    0.0000 </r>
       <r>   19.3690    0.0000 </r>
       <r>   20.8744    0.0000 </r>
       <r>   25.4586    0.0000 </r>
       <r>   30.6309    0.0000 </r>
       <r>   33.6201    0.0000 </r>
      </set>
      <set comment="kpoint 65">
       <r>   -0.8483    1.0000 </r>
       <r>    0.2331    1.0000 </r>
       <r>    1.3047    1.0000 </r>
       <r>    2.7394    1.0000 </r>
       <r>    3.2772    1.0000 </r>
       <r>    4.7689    1.0000 </r>
       <r>   17.3073    0.0000 </r>
       <r>   19.8550    0.0000 </r>
       <r>   22.4871    0.0000 </r>
       <r>   26.2634    0.0000 </r>
       <r>   28.1975    0.0000 </r>
       <r>   32.4009    0.0000 </r>
      </set>
      <set comment="kpoint 66">
       <r>   -1.0781    1.0000 </r>
       <r>    0.2201    1.0000 </r>
       <r>    1.5240    1.0000 </r>
       <r>    2.4937    1.0000 </r>
       <r>    3.9578    1.0000 </r>
       <r>    4.0780    1.0000 </r>
       <r>   17.2901    0.0000 </r>
       <r>   21.7308    0.0000 </r>
       <r>   22.3551    0.0000 </r>
       <r>   24.4616    0.0000 </r>
       <r>   28.3071    0.0000 </r>
       <r>   33.4564    0.0000 </r>
      </set>
      <set comment="kpoint 67">
       <r>   -0.5340    1.0000 </r>
       <r>   -0.0081    1.0000 </r>
       <r>    1.4228    1.0000 </r>
       <r>    3.1770    1.0000 </r>
       <r>    3.7639    1.0000 </r>
       <r>    5.5387    1.0000 </r>
       <r>   16.0850    0.0000 </r>
       <r>   18.6086    0.0000 </r>
       <r>   20.5871    0.0000 </r>
       <r>   26.2450    0.0000 </r>
       <r>   27.9762    0.0000 </r>
       <r>   33.2766    0.0000 </r>
      </set>
      <set comment="kpoint 68">
       <r>   -0.1643    1.0000 </r>
       <r>    0.1582    1.0000 </r>
       <r>    1.1830    1.0000 </r>
       <r>    3.2628    1.0000 </r>
       <r>    4.0945    1.0000 </r>
       <r>    7.5070   -0.0000 </r>
       <r>   14.0090    0.0000 </r>
       <r>   16.5273    0.0000 </r>
       <r>   19.0165    0.0000 </r>
       <r>   27.3251    0.0000 </r>
       <r>   29.1625    0.0000 </r>
       <r>   33.4037    0.0000 </r>
      </set>
      <set comment="kpoint 69">
       <r>    0.0193    1.0000 </r>
       <r>    0.3382    1.0000 </r>
       <r>    1.2064    1.0000 </r>
       <r>    2.8622    1.0000 </r>
       <r>    4.3591    1.0000 </r>
       <r>    9.9706   -0.0000 </r>
       <r>   11.1025   -0.0000 </r>
       <r>   16.2074    0.0000 </r>
       <r>   18.3475    0.0000 </r>
       <r>   26.9626    0.0000 </r>
       <r>   31.0162    0.0000 </r>
       <r>   34.5303    0.0000 </r>
      </set>
      <set comment="kpoint 70">
       <r>    0.2569    1.0000 </r>
       <r>    0.3859    1.0000 </r>
       <r>    0.8063    1.0000 </r>
       <r>    2.9504    1.0000 </r>
       <r>    4.0656    1.0000 </r>
       <r>    8.2897   -0.0000 </r>
       <r>   13.3684    0.0000 </r>
       <r>   15.5948    0.0000 </r>
       <r>   19.3985    0.0000 </r>
       <r>   27.2553    0.0000 </r>
       <r>   29.9235    0.0000 </r>
       <r>   34.7977    0.0000 </r>
      </set>
      <set comment="kpoint 71">
       <r>   -0.1622    1.0000 </r>
       <r>    0.3633    1.0000 </r>
       <r>    0.9034    1.0000 </r>
       <r>    2.9778    1.0000 </r>
       <r>    3.6474    1.0000 </r>
       <r>    6.3539    0.8022 </r>
       <r>   14.9681    0.0000 </r>
       <r>   17.6028    0.0000 </r>
       <r>   20.8952    0.0000 </r>
       <r>   27.0007    0.0000 </r>
       <r>   28.8441    0.0000 </r>
       <r>   33.4367    0.0000 </r>
      </set>
      <set comment="kpoint 72">
       <r>   -0.8014    1.0000 </r>
       <r>   -0.2995    1.0000 </r>
       <r>    2.3846    1.0000 </r>
       <r>    3.2839    1.0000 </r>
       <r>    4.5196    1.0000 </r>
       <r>    6.1727    1.0348 </r>
       <r>   14.6807    0.0000 </r>
       <r>   18.2056    0.0000 </r>
       <r>   19.1676    0.0000 </r>
       <r>   24.7293    0.0000 </r>
       <r>   28.2884    0.0000 </r>
       <r>   35.1908    0.0000 </r>
      </set>
      <set comment="kpoint 73">
       <r>   -0.7004    1.0000 </r>
       <r>   -0.3863    1.0000 </r>
       <r>    2.4173    1.0000 </r>
       <r>    3.7474    1.0000 </r>
       <r>    4.5004    1.0000 </r>
       <r>    7.9978   -0.0000 </r>
       <r>   13.5382    0.0000 </r>
       <r>   16.2288    0.0000 </r>
       <r>   17.5055    0.0000 </r>
       <r>   26.5655    0.0000 </r>
       <r>   28.2495    0.0000 </r>
       <r>   34.2697    0.0000 </r>
      </set>
      <set comment="kpoint 74">
       <r>   -0.4182    1.0000 </r>
       <r>   -0.0506    1.0000 </r>
       <r>    1.9170    1.0000 </r>
       <r>    3.2879    1.0000 </r>
       <r>    4.7111    1.0000 </r>
       <r>   10.4730   -0.0000 </r>
       <r>   12.0357    0.0000 </r>
       <r>   14.7093    0.0000 </r>
       <r>   16.7549    0.0000 </r>
       <r>   28.0382    0.0000 </r>
       <r>   29.8899    0.0000 </r>
       <r>   32.7876    0.0000 </r>
      </set>
      <set comment="kpoint 75">
       <r>   -0.0462    1.0000 </r>
       <r>    0.4465    1.0000 </r>
       <r>    1.1613    1.0000 </r>
       <r>    2.9306    1.0000 </r>
       <r>    4.4601    1.0000 </r>
       <r>   10.2405   -0.0000 </r>
       <r>   12.2449    0.0000 </r>
       <r>   14.3697    0.0000 </r>
       <r>   17.9353    0.0000 </r>
       <r>   27.6090    0.0000 </r>
       <r>   31.1474    0.0000 </r>
       <r>   33.7618    0.0000 </r>
      </set>
      <set comment="kpoint 76">
       <r>   -0.1020    1.0000 </r>
       <r>    0.4223    1.0000 </r>
       <r>    1.2854    1.0000 </r>
       <r>    2.6711    1.0000 </r>
       <r>    4.1932    1.0000 </r>
       <r>    8.5590   -0.0000 </r>
       <r>   11.5331   -0.0000 </r>
       <r>   17.5799    0.0000 </r>
       <r>   19.5416    0.0000 </r>
       <r>   26.1088    0.0000 </r>
       <r>   30.8916    0.0000 </r>
       <r>   35.2702    0.0000 </r>
      </set>
      <set comment="kpoint 77">
       <r>   -0.9829    1.0000 </r>
       <r>   -0.5789    1.0000 </r>
       <r>    3.3214    1.0000 </r>
       <r>    3.9009    1.0000 </r>
       <r>    4.5909    1.0000 </r>
       <r>    8.9065   -0.0000 </r>
       <r>   12.1824    0.0000 </r>
       <r>   15.3864    0.0000 </r>
       <r>   17.9104    0.0000 </r>
       <r>   25.2320    0.0000 </r>
       <r>   28.4499    0.0000 </r>
       <r>   35.5869    0.0000 </r>
      </set>
      <set comment="kpoint 78">
       <r>   -0.7927    1.0000 </r>
       <r>   -0.4684    1.0000 </r>
       <r>    2.7959    1.0000 </r>
       <r>    3.7418    1.0000 </r>
       <r>    4.7117    1.0000 </r>
       <r>    9.3732   -0.0000 </r>
       <r>   12.2299    0.0000 </r>
       <r>   15.4888    0.0000 </r>
       <r>   16.9383    0.0000 </r>
       <r>   26.7394    0.0000 </r>
       <r>   28.3441    0.0000 </r>
       <r>   34.3922    0.0000 </r>
      </set>
      <set comment="kpoint 79">
       <r>   -0.3119    1.0000 </r>
       <r>    0.0149    1.0000 </r>
       <r>    1.6049    1.0000 </r>
       <r>    3.3440    1.0000 </r>
       <r>    4.4770    1.0000 </r>
       <r>    8.9325   -0.0000 </r>
       <r>   13.0985    0.0000 </r>
       <r>   15.5040    0.0000 </r>
       <r>   17.5010    0.0000 </r>
       <r>   27.7651    0.0000 </r>
       <r>   29.5236    0.0000 </r>
       <r>   33.1309    0.0000 </r>
      </set>
      <set comment="kpoint 80">
       <r>   -0.9065    1.0000 </r>
       <r>   -0.4841    1.0000 </r>
       <r>    2.9687    1.0000 </r>
       <r>    3.6519    1.0000 </r>
       <r>    4.5973    1.0000 </r>
       <r>    7.5926   -0.0000 </r>
       <r>   13.3785    0.0000 </r>
       <r>   16.4064    0.0000 </r>
       <r>   18.3414    0.0000 </r>
       <r>   25.0320    0.0000 </r>
       <r>   28.3859    0.0000 </r>
       <r>   35.5181    0.0000 </r>
      </set>
      <set comment="kpoint 81">
       <r>   -0.5661    1.0000 </r>
       <r>   -0.2261    1.0000 </r>
       <r>    1.8857    1.0000 </r>
       <r>    3.5603    1.0000 </r>
       <r>    4.1687    1.0000 </r>
       <r>    6.6261   -0.0221 </r>
       <r>   14.8426    0.0000 </r>
       <r>   17.3863    0.0000 </r>
       <r>   18.7659    0.0000 </r>
       <r>   26.3476    0.0000 </r>
       <r>   28.0928    0.0000 </r>
       <r>   33.9153    0.0000 </r>
      </set>
      <set comment="kpoint 82">
       <r>   -0.7896    1.0000 </r>
       <r>   -0.0507    1.0000 </r>
       <r>    1.7998    1.0000 </r>
       <r>    2.8791    1.0000 </r>
       <r>    4.3369    1.0000 </r>
       <r>    4.9411    1.0000 </r>
       <r>   15.9924    0.0000 </r>
       <r>   20.3241    0.0000 </r>
       <r>   20.3489    0.0000 </r>
       <r>   24.4607    0.0000 </r>
       <r>   28.2202    0.0000 </r>
       <r>   34.4444    0.0000 </r>
      </set>
      <set comment="kpoint 83">
       <r>   -2.3104    1.0000 </r>
       <r>    1.1729    1.0000 </r>
       <r>    1.6585    1.0000 </r>
       <r>    1.6585    1.0000 </r>
       <r>    3.2432    1.0000 </r>
       <r>    3.2432    1.0000 </r>
       <r>   18.1153    0.0000 </r>
       <r>   22.8158    0.0000 </r>
       <r>   27.3498    0.0000 </r>
       <r>   27.3498    0.0000 </r>
       <r>   29.2990    0.0000 </r>
       <r>   30.8098    0.0000 </r>
      </set>
      <set comment="kpoint 84">
       <r>   -1.6838    1.0000 </r>
       <r>    1.0405    1.0000 </r>
       <r>    1.5994    1.0000 </r>
       <r>    1.8144    1.0000 </r>
       <r>    2.9768    1.0000 </r>
       <r>    4.1365    1.0000 </r>
       <r>   16.9258    0.0000 </r>
       <r>   22.0802    0.0000 </r>
       <r>   24.5023    0.0000 </r>
       <r>   28.1135    0.0000 </r>
       <r>   28.9020    0.0000 </r>
       <r>   30.8892    0.0000 </r>
      </set>
      <set comment="kpoint 85">
       <r>   -0.6467    1.0000 </r>
       <r>    0.7386    1.0000 </r>
       <r>    1.2831    1.0000 </r>
       <r>    2.2372    1.0000 </r>
       <r>    2.8668    1.0000 </r>
       <r>    5.4667    1.0000 </r>
       <r>   15.9635    0.0000 </r>
       <r>   18.7524    0.0000 </r>
       <r>   23.8840    0.0000 </r>
       <r>   26.9543    0.0000 </r>
       <r>   28.3600    0.0000 </r>
       <r>   33.5189    0.0000 </r>
      </set>
      <set comment="kpoint 86">
       <r>   -0.1316    1.0000 </r>
       <r>    0.8305    1.0000 </r>
       <r>    1.1295    1.0000 </r>
       <r>    2.4158    1.0000 </r>
       <r>    3.3702    1.0000 </r>
       <r>    6.9812   -0.0004 </r>
       <r>   14.1002    0.0000 </r>
       <r>   16.5025    0.0000 </r>
       <r>   23.6452    0.0000 </r>
       <r>   24.2982    0.0000 </r>
       <r>   30.3894    0.0000 </r>
       <r>   33.6659    0.0000 </r>
      </set>
      <set comment="kpoint 87">
       <r>   -0.3937    1.0000 </r>
       <r>    0.6255    1.0000 </r>
       <r>    1.6705    1.0000 </r>
       <r>    2.4930    1.0000 </r>
       <r>    4.1102    1.0000 </r>
       <r>    9.0207   -0.0000 </r>
       <r>   10.6889   -0.0000 </r>
       <r>   17.0469    0.0000 </r>
       <r>   21.9348    0.0000 </r>
       <r>   23.7018    0.0000 </r>
       <r>   32.8942    0.0000 </r>
       <r>   33.7340    0.0000 </r>
      </set>
      <set comment="kpoint 88">
       <r>   -0.6233    1.0000 </r>
       <r>    0.3717    1.0000 </r>
       <r>    1.7050    1.0000 </r>
       <r>    2.6684    1.0000 </r>
       <r>    4.5177    1.0000 </r>
       <r>    7.5259   -0.0000 </r>
       <r>   12.0686    0.0000 </r>
       <r>   18.5195    0.0000 </r>
       <r>   20.5182    0.0000 </r>
       <r>   24.0791    0.0000 </r>
       <r>   31.7694    0.0000 </r>
       <r>   34.0318    0.0000 </r>
      </set>
      <set comment="kpoint 89">
       <r>   -1.4823    1.0000 </r>
       <r>    1.2571    1.0000 </r>
       <r>    1.4266    1.0000 </r>
       <r>    1.7956    1.0000 </r>
       <r>    3.8352    1.0000 </r>
       <r>    3.9905    1.0000 </r>
       <r>   15.5303    0.0000 </r>
       <r>   22.4111    0.0000 </r>
       <r>   24.0867    0.0000 </r>
       <r>   25.8965    0.0000 </r>
       <r>   30.6938    0.0000 </r>
       <r>   31.8443    0.0000 </r>
      </set>
      <set comment="kpoint 90">
       <r>   -0.8261    1.0000 </r>
       <r>    1.0410    1.0000 </r>
       <r>    1.0973    1.0000 </r>
       <r>    2.1820    1.0000 </r>
       <r>    3.6847    1.0000 </r>
       <r>    5.4267    1.0000 </r>
       <r>   14.4802    0.0000 </r>
       <r>   20.3858    0.0000 </r>
       <r>   22.4679    0.0000 </r>
       <r>   25.8110    0.0000 </r>
       <r>   30.0948    0.0000 </r>
       <r>   33.0069    0.0000 </r>
      </set>
      <set comment="kpoint 91">
       <r>    0.0808    1.0000 </r>
       <r>    0.6171    1.0000 </r>
       <r>    0.8010    1.0000 </r>
       <r>    2.7304    1.0000 </r>
       <r>    3.6183    1.0000 </r>
       <r>    7.1222   -0.0000 </r>
       <r>   14.0939    0.0000 </r>
       <r>   16.5317    0.0000 </r>
       <r>   21.3751    0.0000 </r>
       <r>   26.3575    0.0000 </r>
       <r>   29.7103    0.0000 </r>
       <r>   34.8110    0.0000 </r>
      </set>
      <set comment="kpoint 92">
       <r>   -0.0137    1.0000 </r>
       <r>    0.5187    1.0000 </r>
       <r>    1.1754    1.0000 </r>
       <r>    2.8405    1.0000 </r>
       <r>    4.0806    1.0000 </r>
       <r>    8.9993   -0.0000 </r>
       <r>   12.7400    0.0000 </r>
       <r>   14.8607    0.0000 </r>
       <r>   19.8629    0.0000 </r>
       <r>   26.0997    0.0000 </r>
       <r>   31.2720    0.0000 </r>
       <r>   35.4501    0.0000 </r>
      </set>
      <set comment="kpoint 93">
       <r>   -0.3781    1.0000 </r>
       <r>    0.2010    1.0000 </r>
       <r>    1.6319    1.0000 </r>
       <r>    3.1154    1.0000 </r>
       <r>    4.4147    1.0000 </r>
       <r>    9.3069   -0.0000 </r>
       <r>   11.6779   -0.0000 </r>
       <r>   16.2153    0.0000 </r>
       <r>   18.5717    0.0000 </r>
       <r>   26.1192    0.0000 </r>
       <r>   31.2765    0.0000 </r>
       <r>   33.3078    0.0000 </r>
      </set>
      <set comment="kpoint 94">
       <r>   -0.7653    1.0000 </r>
       <r>    0.6854    1.0000 </r>
       <r>    1.4359    1.0000 </r>
       <r>    2.3092    1.0000 </r>
       <r>    4.4687    1.0000 </r>
       <r>    6.0237    1.0070 </r>
       <r>   13.1183    0.0000 </r>
       <r>   20.6224    0.0000 </r>
       <r>   21.4328    0.0000 </r>
       <r>   23.7907    0.0000 </r>
       <r>   31.9471    0.0000 </r>
       <r>   33.4008    0.0000 </r>
      </set>
      <set comment="kpoint 95">
       <r>   -0.3717    1.0000 </r>
       <r>    0.3876    1.0000 </r>
       <r>    1.3431    1.0000 </r>
       <r>    2.8671    1.0000 </r>
       <r>    4.3055    1.0000 </r>
       <r>    7.7678   -0.0000 </r>
       <r>   12.4049    0.0000 </r>
       <r>   18.0635    0.0000 </r>
       <r>   19.3547    0.0000 </r>
       <r>   25.6958    0.0000 </r>
       <r>   30.9580    0.0000 </r>
       <r>   33.5936    0.0000 </r>
      </set>
      <set comment="kpoint 96">
       <r>    0.0244    1.0000 </r>
       <r>    0.4678    1.0000 </r>
       <r>    0.9675    1.0000 </r>
       <r>    2.9928    1.0000 </r>
       <r>    4.4636    1.0000 </r>
       <r>    9.6841   -0.0000 </r>
       <r>   12.7909    0.0000 </r>
       <r>   14.7384    0.0000 </r>
       <r>   17.6509    0.0000 </r>
       <r>   28.4060    0.0000 </r>
       <r>   30.1116    0.0000 </r>
       <r>   33.7504    0.0000 </r>
      </set>
      <set comment="kpoint 97">
       <r>   -0.1103    1.0000 </r>
       <r>    0.4748    1.0000 </r>
       <r>    1.1391    1.0000 </r>
       <r>    2.9458    1.0000 </r>
       <r>    4.7136    1.0000 </r>
       <r>   11.0287   -0.0000 </r>
       <r>   12.4217    0.0000 </r>
       <r>   13.8290    0.0000 </r>
       <r>   16.6465    0.0000 </r>
       <r>   29.2287    0.0000 </r>
       <r>   30.7428    0.0000 </r>
       <r>   32.3185    0.0000 </r>
      </set>
      <set comment="kpoint 98">
       <r>   -0.6053    1.0000 </r>
       <r>    0.1618    1.0000 </r>
       <r>    2.0198    1.0000 </r>
       <r>    3.0412    1.0000 </r>
       <r>    4.4280    1.0000 </r>
       <r>    9.1574   -0.0000 </r>
       <r>   11.2716   -0.0000 </r>
       <r>   16.3726    0.0000 </r>
       <r>   19.9078    0.0000 </r>
       <r>   24.4890    0.0000 </r>
       <r>   31.6359    0.0000 </r>
       <r>   34.4319    0.0000 </r>
      </set>
      <set comment="kpoint 99">
       <r>   -0.4237    1.0000 </r>
       <r>    0.1234    1.0000 </r>
       <r>    1.8546    1.0000 </r>
       <r>    3.2063    1.0000 </r>
       <r>    4.4720    1.0000 </r>
       <r>   10.5933   -0.0000 </r>
       <r>   11.4380   -0.0000 </r>
       <r>   14.5221    0.0000 </r>
       <r>   18.2471    0.0000 </r>
       <r>   26.4230    0.0000 </r>
       <r>   31.6162    0.0000 </r>
       <r>   32.9182    0.0000 </r>
      </set>
      <set comment="kpoint 100">
       <r>   -0.6267    1.0000 </r>
       <r>    0.0635    1.0000 </r>
       <r>    2.2345    1.0000 </r>
       <r>    3.3263    1.0000 </r>
       <r>    4.2948    1.0000 </r>
       <r>   10.4072   -0.0000 </r>
       <r>   11.0822   -0.0000 </r>
       <r>   14.5986    0.0000 </r>
       <r>   19.6054    0.0000 </r>
       <r>   24.7661    0.0000 </r>
       <r>   31.5974    0.0000 </r>
       <r>   34.6165    0.0000 </r>
      </set>
      <set comment="kpoint 101">
       <r>   -1.6438    1.0000 </r>
       <r>    1.4812    1.0000 </r>
       <r>    1.4812    1.0000 </r>
       <r>    2.3816    1.0000 </r>
       <r>    3.8527    1.0000 </r>
       <r>    3.8527    1.0000 </r>
       <r>   14.0353    0.0000 </r>
       <r>   21.8316    0.0000 </r>
       <r>   25.9819    0.0000 </r>
       <r>   25.9819    0.0000 </r>
       <r>   31.1799    0.0000 </r>
       <r>   31.2501    0.0000 </r>
      </set>
      <set comment="kpoint 102">
       <r>   -1.2821    1.0000 </r>
       <r>    1.2755    1.0000 </r>
       <r>    1.6026    1.0000 </r>
       <r>    2.3092    1.0000 </r>
       <r>    3.7293    1.0000 </r>
       <r>    5.1827    1.0000 </r>
       <r>   12.8991    0.0000 </r>
       <r>   21.4537    0.0000 </r>
       <r>   23.2058    0.0000 </r>
       <r>   25.9857    0.0000 </r>
       <r>   30.5795    0.0000 </r>
       <r>   32.2132    0.0000 </r>
      </set>
      <set comment="kpoint 103">
       <r>   -0.5309    1.0000 </r>
       <r>    0.8536    1.0000 </r>
       <r>    1.7242    1.0000 </r>
       <r>    2.1033    1.0000 </r>
       <r>    3.7027    1.0000 </r>
       <r>    7.0169   -0.0001 </r>
       <r>   12.3363    0.0000 </r>
       <r>   18.4359    0.0000 </r>
       <r>   23.1950    0.0000 </r>
       <r>   24.2169    0.0000 </r>
       <r>   30.9848    0.0000 </r>
       <r>   33.3463    0.0000 </r>
      </set>
      <set comment="kpoint 104">
       <r>   -0.2545    1.0000 </r>
       <r>    0.6499    1.0000 </r>
       <r>    1.4576    1.0000 </r>
       <r>    2.7914    1.0000 </r>
       <r>    3.8679    1.0000 </r>
       <r>    8.7295   -0.0000 </r>
       <r>   12.6789    0.0000 </r>
       <r>   14.8681    0.0000 </r>
       <r>   21.7994    0.0000 </r>
       <r>   24.0597    0.0000 </r>
       <r>   32.6960    0.0000 </r>
       <r>   33.9504    0.0000 </r>
      </set>
      <set comment="kpoint 105">
       <r>   -1.2859    1.0000 </r>
       <r>    1.1748    1.0000 </r>
       <r>    1.6039    1.0000 </r>
       <r>    2.5402    1.0000 </r>
       <r>    4.4009    1.0000 </r>
       <r>    5.4490    1.0000 </r>
       <r>   11.6194   -0.0000 </r>
       <r>   21.5244    0.0000 </r>
       <r>   23.5758    0.0000 </r>
       <r>   24.1276    0.0000 </r>
       <r>   32.2795    0.0000 </r>
       <r>   32.6672    0.0000 </r>
      </set>
      <set comment="kpoint 106">
       <r>   -0.7886    1.0000 </r>
       <r>    0.8348    1.0000 </r>
       <r>    1.9152    1.0000 </r>
       <r>    2.1267    1.0000 </r>
       <r>    4.2339    1.0000 </r>
       <r>    7.3491   -0.0000 </r>
       <r>   10.7989   -0.0000 </r>
       <r>   20.4470    0.0000 </r>
       <r>   21.2531    0.0000 </r>
       <r>   24.5189    0.0000 </r>
       <r>   31.6447    0.0000 </r>
       <r>   33.9160    0.0000 </r>
      </set>
      <set comment="kpoint 107">
       <r>   -0.1546    1.0000 </r>
       <r>    0.4543    1.0000 </r>
       <r>    1.4500    1.0000 </r>
       <r>    2.6187    1.0000 </r>
       <r>    4.1863    1.0000 </r>
       <r>    9.3305   -0.0000 </r>
       <r>   10.7602   -0.0000 </r>
       <r>   17.0249    0.0000 </r>
       <r>   19.9792    0.0000 </r>
       <r>   25.5754    0.0000 </r>
       <r>   31.4772    0.0000 </r>
       <r>   35.5045    0.0000 </r>
      </set>
      <set comment="kpoint 108">
       <r>   -0.6709    1.0000 </r>
       <r>    0.7362    1.0000 </r>
       <r>    1.9511    1.0000 </r>
       <r>    2.1393    1.0000 </r>
       <r>    4.3416    1.0000 </r>
       <r>    8.5973   -0.0000 </r>
       <r>    9.8315   -0.0000 </r>
       <r>   19.1920    0.0000 </r>
       <r>   22.2439    0.0000 </r>
       <r>   23.2156    0.0000 </r>
       <r>   33.1164    0.0000 </r>
       <r>   33.3471    0.0000 </r>
      </set>
      <set comment="kpoint 109">
       <r>   -1.5541    1.0000 </r>
       <r>    1.3277    1.0000 </r>
       <r>    1.3277    1.0000 </r>
       <r>    4.3414    1.0000 </r>
       <r>    4.3414    1.0000 </r>
       <r>    4.5516    1.0000 </r>
       <r>   10.5392   -0.0000 </r>
       <r>   21.1254    0.0000 </r>
       <r>   24.6961    0.0000 </r>
       <r>   24.6961    0.0000 </r>
       <r>   32.1050    0.0000 </r>
       <r>   32.1050    0.0000 </r>
      </set>
      <set comment="kpoint 110">
       <r>   -1.2795    1.0000 </r>
       <r>    1.1274    1.0000 </r>
       <r>    1.5169    1.0000 </r>
       <r>    3.1453    1.0000 </r>
       <r>    4.3145    1.0000 </r>
       <r>    6.6061   -0.0065 </r>
       <r>    9.8925   -0.0000 </r>
       <r>   21.1938    0.0000 </r>
       <r>   23.0436    0.0000 </r>
       <r>   24.1235    0.0000 </r>
       <r>   32.3433    0.0000 </r>
       <r>   32.5569    0.0000 </r>
      </set>
     </set>
    </set>
   </array>
  </eigenvalues>
  <separator name="orbital magnetization" >
   <v name="MAGDIPOLOUT">      0.00000000      0.00000000      0.00000000</v>
  </separator>
  <dos>
   <i name="efermi">      6.43143437 </i>
   <total>
    <array>
     <dimension dim="1">gridpoints</dimension>
     <dimension dim="2">spin</dimension>
     <field>energy</field>
     <field>total</field>
     <field>integrated</field>
     <set>
      <set comment="spin 1">
       <r>    -6.1601     0.0000     0.0000 </r>
       <r>    -6.0100     0.0000     0.0000 </r>
       <r>    -5.8599    -0.0000    -0.0000 </r>
       <r>    -5.7098    -0.0000    -0.0000 </r>
       <r>    -5.5598    -0.0000    -0.0000 </r>
       <r>    -5.4097    -0.0000    -0.0000 </r>
       <r>    -5.2596    -0.0000    -0.0000 </r>
       <r>    -5.1095    -0.0000    -0.0000 </r>
       <r>    -4.9595    -0.0000    -0.0000 </r>
       <r>    -4.8094    -0.0000    -0.0000 </r>
       <r>    -4.6593    -0.0000    -0.0000 </r>
       <r>    -4.5092    -0.0002    -0.0000 </r>
       <r>    -4.3592    -0.0008    -0.0002 </r>
       <r>    -4.2091     0.0034     0.0003 </r>
       <r>    -4.0590     0.0150     0.0026 </r>
       <r>    -3.9090     0.0341     0.0077 </r>
       <r>    -3.7589     0.0511     0.0154 </r>
       <r>    -3.6088     0.0511     0.0231 </r>
       <r>    -3.4587     0.0563     0.0315 </r>
       <r>    -3.3087     0.0748     0.0427 </r>
       <r>    -3.1586     0.1019     0.0580 </r>
       <r>    -3.0085     0.0908     0.0717 </r>
       <r>    -2.8584     0.0606     0.0808 </r>
       <r>    -2.7084     0.1056     0.0966 </r>
       <r>    -2.5583     0.1658     0.1215 </r>
       <r>    -2.4082     0.1411     0.1427 </r>
       <r>    -2.2581     0.0984     0.1574 </r>
       <r>    -2.1081     0.1671     0.1825 </r>
       <r>    -1.9580     0.1946     0.2117 </r>
       <r>    -1.8079     0.1810     0.2389 </r>
       <r>    -1.6578     0.2725     0.2798 </r>
       <r>    -1.5078     0.4470     0.3469 </r>
       <r>    -1.3577     0.5880     0.4351 </r>
       <r>    -1.2076     0.6429     0.5316 </r>
       <r>    -1.0575     0.9648     0.6764 </r>
       <r>    -0.9075     1.2073     0.8576 </r>
       <r>    -0.7574     1.5067     1.0837 </r>
       <r>    -0.6073     1.6819     1.3361 </r>
       <r>    -0.4572     1.6823     1.5886 </r>
       <r>    -0.3072     1.6547     1.8369 </r>
       <r>    -0.1571     1.3945     2.0462 </r>
       <r>    -0.0070     1.4719     2.2671 </r>
       <r>     0.1431     1.2498     2.4546 </r>
       <r>     0.2931     1.0007     2.6048 </r>
       <r>     0.4432     1.4215     2.8181 </r>
       <r>     0.5933     1.6427     3.0647 </r>
       <r>     0.7433     1.7272     3.3239 </r>
       <r>     0.8934     1.6294     3.5684 </r>
       <r>     1.0435     1.7130     3.8255 </r>
       <r>     1.1936     2.0280     4.1298 </r>
       <r>     1.3436     1.9630     4.4244 </r>
       <r>     1.4937     2.0777     4.7362 </r>
       <r>     1.6438     2.6651     5.1362 </r>
       <r>     1.7939     2.9666     5.5814 </r>
       <r>     1.9439     2.1282     5.9008 </r>
       <r>     2.0940     1.5219     6.1292 </r>
       <r>     2.2441     1.3024     6.3246 </r>
       <r>     2.3942     1.4706     6.5453 </r>
       <r>     2.5442     1.4607     6.7646 </r>
       <r>     2.6943     1.7308     7.0243 </r>
       <r>     2.8444     2.0005     7.3245 </r>
       <r>     2.9945     1.7714     7.5904 </r>
       <r>     3.1445     1.4921     7.8143 </r>
       <r>     3.2946     1.8476     8.0916 </r>
       <r>     3.4447     1.5868     8.3297 </r>
       <r>     3.5948     1.0827     8.4922 </r>
       <r>     3.7448     1.5520     8.7251 </r>
       <r>     3.8949     1.5396     8.9562 </r>
       <r>     4.0450     1.4496     9.1737 </r>
       <r>     4.1951     2.0948     9.4881 </r>
       <r>     4.3451     2.3591     9.8421 </r>
       <r>     4.4952     2.1481    10.1645 </r>
       <r>     4.6453     1.5389    10.3954 </r>
       <r>     4.7953     1.0770    10.5571 </r>
       <r>     4.9454     0.4858    10.6300 </r>
       <r>     5.0955     0.0370    10.6355 </r>
       <r>     5.2456     0.0443    10.6422 </r>
       <r>     5.3956     0.2877    10.6854 </r>
       <r>     5.5457     0.4839    10.7580 </r>
       <r>     5.6958     0.3783    10.8148 </r>
       <r>     5.8459     0.1776    10.8414 </r>
       <r>     5.9959     0.1557    10.8648 </r>
       <r>     6.1460     0.3315    10.9145 </r>
       <r>     6.2961     0.3571    10.9681 </r>
       <r>     6.4462     0.2330    11.0031 </r>
       <r>     6.5962     0.2354    11.0384 </r>
       <r>     6.7463     0.2012    11.0686 </r>
       <r>     6.8964     0.1789    11.0955 </r>
       <r>     7.0465     0.3918    11.1543 </r>
       <r>     7.1965     0.3894    11.2127 </r>
       <r>     7.3466     0.3232    11.2612 </r>
       <r>     7.4967     0.2422    11.2976 </r>
       <r>     7.6468     0.1784    11.3243 </r>
       <r>     7.7968     0.1446    11.3460 </r>
       <r>     7.9469     0.2128    11.3780 </r>
       <r>     8.0970     0.3254    11.4268 </r>
       <r>     8.2471     0.3855    11.4847 </r>
       <r>     8.3971     0.2742    11.5258 </r>
       <r>     8.5472     0.2014    11.5560 </r>
       <r>     8.6973     0.1596    11.5800 </r>
       <r>     8.8474     0.1682    11.6052 </r>
       <r>     8.9974     0.3384    11.6560 </r>
       <r>     9.1475     0.2482    11.6933 </r>
       <r>     9.2976     0.2151    11.7255 </r>
       <r>     9.4476     0.2452    11.7623 </r>
       <r>     9.5977     0.0919    11.7761 </r>
       <r>     9.7478     0.2215    11.8094 </r>
       <r>     9.8979     0.5699    11.8949 </r>
       <r>    10.0479     0.5755    11.9813 </r>
       <r>    10.1980     0.2152    12.0136 </r>
       <r>    10.3481     0.1835    12.0411 </r>
       <r>    10.4982     0.2775    12.0827 </r>
       <r>    10.6482     0.3761    12.1392 </r>
       <r>    10.7983     0.3847    12.1969 </r>
       <r>    10.9484     0.3118    12.2437 </r>
       <r>    11.0985     0.2572    12.2823 </r>
       <r>    11.2485     0.1605    12.3064 </r>
       <r>    11.3986     0.1474    12.3285 </r>
       <r>    11.5487     0.3769    12.3851 </r>
       <r>    11.6988     0.4302    12.4497 </r>
       <r>    11.8488     0.3284    12.4990 </r>
       <r>    11.9989     0.2615    12.5382 </r>
       <r>    12.1490     0.2413    12.5744 </r>
       <r>    12.2991     0.3772    12.6310 </r>
       <r>    12.4491     0.4688    12.7014 </r>
       <r>    12.5992     0.3267    12.7504 </r>
       <r>    12.7493     0.3045    12.7961 </r>
       <r>    12.8994     0.3506    12.8487 </r>
       <r>    13.0494     0.2488    12.8861 </r>
       <r>    13.1995     0.1719    12.9119 </r>
       <r>    13.3496     0.3606    12.9660 </r>
       <r>    13.4996     0.5054    13.0418 </r>
       <r>    13.6497     0.2046    13.0725 </r>
       <r>    13.7998     0.0489    13.0799 </r>
       <r>    13.9499     0.1472    13.1020 </r>
       <r>    14.0999     0.3616    13.1562 </r>
       <r>    14.2500     0.3386    13.2071 </r>
       <r>    14.4001     0.2555    13.2454 </r>
       <r>    14.5502     0.4784    13.3172 </r>
       <r>    14.7002     0.5405    13.3983 </r>
       <r>    14.8503     0.5305    13.4779 </r>
       <r>    15.0004     0.4777    13.5496 </r>
       <r>    15.1505     0.1337    13.5697 </r>
       <r>    15.3005    -0.0063    13.5687 </r>
       <r>    15.4506     0.2332    13.6037 </r>
       <r>    15.6007     0.4840    13.6764 </r>
       <r>    15.7508     0.3526    13.7293 </r>
       <r>    15.9008     0.2592    13.7682 </r>
       <r>    16.0509     0.3676    13.8233 </r>
       <r>    16.2010     0.5078    13.8996 </r>
       <r>    16.3511     0.4289    13.9639 </r>
       <r>    16.5011     0.3450    14.0157 </r>
       <r>    16.6512     0.4919    14.0895 </r>
       <r>    16.8013     0.4593    14.1585 </r>
       <r>    16.9514     0.4182    14.2212 </r>
       <r>    17.1014     0.5249    14.3000 </r>
       <r>    17.2515     0.3722    14.3559 </r>
       <r>    17.4016     0.3783    14.4126 </r>
       <r>    17.5517     0.6778    14.5143 </r>
       <r>    17.7017     0.6486    14.6117 </r>
       <r>    17.8518     0.2432    14.6482 </r>
       <r>    18.0019     0.2230    14.6816 </r>
       <r>    18.1519     0.3431    14.7331 </r>
       <r>    18.3020     0.5873    14.8213 </r>
       <r>    18.4521     0.6962    14.9258 </r>
       <r>    18.6022     0.6681    15.0260 </r>
       <r>    18.7522     0.6899    15.1296 </r>
       <r>    18.9023     0.4710    15.2002 </r>
       <r>    19.0524     0.1798    15.2272 </r>
       <r>    19.2025     0.2203    15.2603 </r>
       <r>    19.3525     0.4627    15.3297 </r>
       <r>    19.5026     0.6285    15.4241 </r>
       <r>    19.6527     0.4522    15.4919 </r>
       <r>    19.8028     0.3924    15.5508 </r>
       <r>    19.9528     0.4899    15.6243 </r>
       <r>    20.1029     0.4771    15.6959 </r>
       <r>    20.2530     0.4801    15.7680 </r>
       <r>    20.4031     0.6344    15.8632 </r>
       <r>    20.5531     0.4654    15.9330 </r>
       <r>    20.7032     0.4106    15.9946 </r>
       <r>    20.8533     0.5632    16.0792 </r>
       <r>    21.0034     0.6095    16.1706 </r>
       <r>    21.1534     0.5704    16.2562 </r>
       <r>    21.3035     0.7448    16.3680 </r>
       <r>    21.4536     0.7055    16.4739 </r>
       <r>    21.6037     0.3390    16.5247 </r>
       <r>    21.7537     0.2370    16.5603 </r>
       <r>    21.9038     0.5045    16.6360 </r>
       <r>    22.0539     0.7361    16.7465 </r>
       <r>    22.2040     0.5332    16.8265 </r>
       <r>    22.3540     0.5710    16.9122 </r>
       <r>    22.5041     0.7726    17.0282 </r>
       <r>    22.6542     0.7274    17.1373 </r>
       <r>    22.8042     0.6748    17.2386 </r>
       <r>    22.9543     0.4441    17.3053 </r>
       <r>    23.1044     0.3092    17.3517 </r>
       <r>    23.2545     0.4622    17.4210 </r>
       <r>    23.4045     0.4180    17.4838 </r>
       <r>    23.5546     0.2655    17.5236 </r>
       <r>    23.7047     0.3277    17.5728 </r>
       <r>    23.8548     0.3713    17.6285 </r>
       <r>    24.0048     0.5535    17.7116 </r>
       <r>    24.1549     0.9565    17.8551 </r>
       <r>    24.3050     0.8812    17.9874 </r>
       <r>    24.4551     0.6254    18.0812 </r>
       <r>    24.6051     0.5968    18.1708 </r>
       <r>    24.7552     0.6150    18.2631 </r>
       <r>    24.9053     0.7576    18.3768 </r>
       <r>    25.0554     0.8510    18.5045 </r>
       <r>    25.2054     0.8279    18.6288 </r>
       <r>    25.3555     0.8969    18.7634 </r>
       <r>    25.5056     0.8766    18.8949 </r>
       <r>    25.6557     0.5604    18.9790 </r>
       <r>    25.8057     0.3370    19.0296 </r>
       <r>    25.9558     0.3984    19.0894 </r>
       <r>    26.1059     0.8045    19.2101 </r>
       <r>    26.2560     1.0096    19.3616 </r>
       <r>    26.4060     0.7169    19.4692 </r>
       <r>    26.5561     0.4286    19.5336 </r>
       <r>    26.7062     0.3920    19.5924 </r>
       <r>    26.8562     0.3767    19.6489 </r>
       <r>    27.0063     0.5467    19.7310 </r>
       <r>    27.1564     0.6507    19.8286 </r>
       <r>    27.3065     0.5261    19.9076 </r>
       <r>    27.4565     0.4673    19.9777 </r>
       <r>    27.6066     0.4564    20.0462 </r>
       <r>    27.7567     0.3441    20.0978 </r>
       <r>    27.9068     0.1817    20.1251 </r>
       <r>    28.0568     0.2595    20.1641 </r>
       <r>    28.2069     0.4349    20.2293 </r>
       <r>    28.3570     0.5591    20.3132 </r>
       <r>    28.5071     0.5512    20.3959 </r>
       <r>    28.6571     0.3294    20.4454 </r>
       <r>    28.8072     0.1604    20.4694 </r>
       <r>    28.9573     0.1949    20.4987 </r>
       <r>    29.1074     0.2773    20.5403 </r>
       <r>    29.2574     0.5740    20.6264 </r>
       <r>    29.4075     0.5323    20.7063 </r>
       <r>    29.5576     0.2992    20.7512 </r>
       <r>    29.7077     0.3187    20.7991 </r>
       <r>    29.8577     0.6659    20.8990 </r>
       <r>    30.0078     0.8047    21.0198 </r>
       <r>    30.1579     0.5144    21.0970 </r>
       <r>    30.3080     0.1965    21.1265 </r>
       <r>    30.4580     0.0540    21.1346 </r>
       <r>    30.6081     0.2867    21.1776 </r>
       <r>    30.7582     0.5365    21.2581 </r>
       <r>    30.9083     0.5473    21.3403 </r>
       <r>    31.0583     0.5513    21.4230 </r>
       <r>    31.2084     0.5915    21.5118 </r>
       <r>    31.3585     0.5413    21.5930 </r>
       <r>    31.5085     0.4737    21.6641 </r>
       <r>    31.6586     0.8626    21.7935 </r>
       <r>    31.8087     0.8126    21.9155 </r>
       <r>    31.9588     0.5699    22.0010 </r>
       <r>    32.1088     0.5416    22.0823 </r>
       <r>    32.2589     0.5668    22.1674 </r>
       <r>    32.4090     0.6311    22.2621 </r>
       <r>    32.5591     0.6562    22.3606 </r>
       <r>    32.7091     0.7221    22.4689 </r>
       <r>    32.8592     0.7638    22.5836 </r>
       <r>    33.0093     0.6866    22.6866 </r>
       <r>    33.1594     0.4920    22.7604 </r>
       <r>    33.3094     0.7381    22.8712 </r>
       <r>    33.4595     0.9397    23.0122 </r>
       <r>    33.6096     0.7110    23.1189 </r>
       <r>    33.7597     0.5890    23.2073 </r>
       <r>    33.9097     0.6771    23.3089 </r>
       <r>    34.0598     0.6380    23.4047 </r>
       <r>    34.2099     0.3480    23.4569 </r>
       <r>    34.3600     0.4996    23.5319 </r>
       <r>    34.5100     0.6934    23.6359 </r>
       <r>    34.6601     0.4159    23.6983 </r>
       <r>    34.8102     0.2424    23.7347 </r>
       <r>    34.9603     0.2149    23.7670 </r>
       <r>    35.1103     0.0547    23.7752 </r>
       <r>    35.2604     0.1091    23.7915 </r>
       <r>    35.4105     0.2723    23.8324 </r>
       <r>    35.5605     0.3333    23.8824 </r>
       <r>    35.7106     0.2369    23.9180 </r>
       <r>    35.8607     0.2300    23.9525 </r>
       <r>    36.0108     0.0902    23.9660 </r>
       <r>    36.1608    -0.0104    23.9644 </r>
       <r>    36.3109    -0.0036    23.9639 </r>
       <r>    36.4610     0.0299    23.9684 </r>
       <r>    36.6111     0.0559    23.9768 </r>
       <r>    36.7611     0.0781    23.9885 </r>
       <r>    36.9112     0.0678    23.9987 </r>
       <r>    37.0613     0.0128    24.0006 </r>
       <r>    37.2114    -0.0033    24.0001 </r>
       <r>    37.3614    -0.0007    24.0000 </r>
       <r>    37.5115    -0.0000    24.0000 </r>
       <r>    37.6616    -0.0000    24.0000 </r>
       <r>    37.8117    -0.0000    24.0000 </r>
       <r>    37.9617    -0.0000    24.0000 </r>
       <r>    38.1118    -0.0000    24.0000 </r>
       <r>    38.2619     0.0000    24.0000 </r>
       <r>    38.4120     0.0000    24.0000 </r>
       <r>    38.5620     0.0000    24.0000 </r>
       <r>    38.7121     0.0000    24.0000 </r>
       <r>    38.8622     0.0000    24.0000 </r>
      </set>
     </set>
    </array>
   </total>
  </dos>
 </calculation>
 <structure name="finalpos" >
  <crystal>
   <varray name="basis" >
    <v>       0.00000000       2.00000000       2.00000000 </v>
    <v>       2.00000000       0.00000000       2.00000000 </v>
    <v>       2.00000000       2.00000000       0.00000000 </v>
   </varray>
   <i name="volume">     16.00000000 </i>
   <varray name="rec_basis" >
    <v>      -0.25000000       0.25000000       0.25000000 </v>
    <v>       0.25000000      -0.25000000       0.25000000 </v>
    <v>       0.25000000       0.25000000      -0.25000000 </v>
   </varray>
  </crystal>
  <varray name="positions" >
   <v>       0.00000000       0.00000000       0.00000000 </v>
  </varray>
 </structure>
</modeling>
