FCC Au                                  
           1
     0.000000    2.000000    2.000000
     2.000000    0.000000    2.000000
     2.000000    2.000000    0.000000
   Au
   1
Direct configuration=     1
   0.00000000  0.00000000  0.00000000
