fcc Ni                                  
   3.45000000000000     
     0.000000    0.500000    0.500000
     0.500000    0.000000    0.500000
     0.500000    0.500000    0.000000
   Ni
     1
Direct
  0.000000  0.000000  0.000000
 
   20   20   20
  141.86      133.17      109.97      79.371      49.487      26.324      12.234      6.0542      4.3448      3.6997    
  3.4869      3.6997      4.3448      6.0542      12.234      26.324      49.487      79.371      109.97      133.17    
  133.17      117.27      90.537      60.727      34.922      17.200      7.9897      4.8131      3.9247      3.5036    
  3.5041      3.9254      4.8132      7.9912      17.205      34.925      60.721      90.517      117.24      133.16    
  109.97      90.537      64.964      40.161      21.227      10.056      5.4246      4.1453      3.5513      3.3589    
  3.5517      4.1450      5.4248      10.060      21.233      40.163      64.953      90.515      109.95      117.24    
  79.371      60.727      40.161      22.776      11.397      5.9973      4.3205      3.6160      3.2705      3.2706    
  3.6155      4.3192      5.9967      11.399      22.781      40.164      60.726      79.367      90.515      90.517    
  49.487      34.922      21.227      11.397      6.2346      4.4234      3.6724      3.2285      3.0903      3.2288    
  3.6722      4.4216      6.2315      11.394      21.227      34.926      49.493      60.726      64.953      60.721    
  26.324      17.200      10.056      5.9973      4.4234      3.6952      3.2149      2.9946      2.9948      3.2158    
  3.6967      4.4236      5.9939      10.049      17.194      26.321      34.926      40.164      40.163      34.925    
  12.234      7.9897      5.4246      4.3205      3.6724      3.2149      2.9654      2.8889      2.9652      3.2165    
  3.6767      4.3249      5.4247      7.9833      12.223      17.194      21.227      22.781      21.233      17.205    
  6.0542      4.8131      4.1453      3.6160      3.2285      2.9946      2.8889      2.8880      2.9929      3.2286    
  3.6202      4.1529      4.8196      6.0541      7.9833      10.049      11.394      11.399      10.060      7.9912    
  4.3448      3.9247      3.5513      3.2705      3.0903      2.9948      2.9652      2.9929      3.0861      3.2662    
  3.5514      3.9315      4.3548      4.8196      5.4247      5.9939      6.2315      5.9967      5.4248      4.8132    
  3.6997      3.5036      3.3589      3.2706      3.2288      3.2158      3.2165      3.2286      3.2662      3.3510    
  3.4973      3.6997      3.9315      4.1529      4.3249      4.4236      4.4216      4.3192      4.1450      3.9254    
  3.4869      3.5041      3.5517      3.6155      3.6722      3.6967      3.6767      3.6202      3.5514      3.4973    
  3.4771      3.4973      3.5514      3.6202      3.6767      3.6967      3.6722      3.6155      3.5517      3.5041    
  3.6997      3.9254      4.1450      4.3192      4.4216      4.4236      4.3249      4.1529      3.9315      3.6997    
  3.4973      3.3510      3.2662      3.2286      3.2165      3.2158      3.2288      3.2706      3.3589      3.5036    
  4.3448      4.8132      5.4248      5.9967      6.2315      5.9939      5.4247      4.8196      4.3548      3.9315    
  3.5514      3.2662      3.0861      2.9929      2.9652      2.9948      3.0903      3.2705      3.5513      3.9247    
  6.0542      7.9912      10.060      11.399      11.394      10.049      7.9833      6.0541      4.8196      4.1529    
  3.6202      3.2286      2.9929      2.8880      2.8889      2.9946      3.2285      3.6160      4.1453      4.8131    
  12.234      17.205      21.233      22.781      21.227      17.194      12.223      7.9833      5.4247      4.3249    
  3.6767      3.2165      2.9652      2.8889      2.9654      3.2149      3.6724      4.3205      5.4246      7.9897    
  26.324      34.925      40.163      40.164      34.926      26.321      17.194      10.049      5.9939      4.4236    
  3.6967      3.2158      2.9948      2.9946      3.2149      3.6952      4.4234      5.9973      10.056      17.200    
  49.487      60.721      64.953      60.726      49.493      34.926      21.227      11.394      6.2315      4.4216    
  3.6722      3.2288      3.0903      3.2285      3.6724      4.4234      6.2346      11.397      21.227      34.922    
  79.371      90.517      90.515      79.367      60.726      40.164      22.781      11.399      5.9967      4.3192    
  3.6155      3.2706      3.2705      3.6160      4.3205      5.9973      11.397      22.776      40.161      60.727    
  109.97      117.24      109.95      90.515      64.953      40.163      21.233      10.060      5.4248      4.1450    
  3.5517      3.3589      3.5513      4.1453      5.4246      10.056      21.227      40.161      64.964      90.537    
  133.17      133.16      117.24      90.517      60.721      34.925      17.205      7.9912      4.8132      3.9254    
  3.5041      3.5036      3.9247      4.8131      7.9897      17.200      34.922      60.727      90.537      117.27    
  133.17      117.27      90.537      60.727      34.922      17.200      7.9897      4.8131      3.9247      3.5036    
  3.5041      3.9254      4.8132      7.9912      17.205      34.925      60.721      90.517      117.24      133.16    
  117.27      96.501      69.239      42.842      22.665      10.670      5.6062      4.2146      3.6065      3.4083    
  3.6069      4.2142      5.6067      10.675      22.674      42.842      69.220      96.467      117.24      125.04    
  90.537      69.239      45.820      26.010      12.903      6.5036      4.4635      3.7232      3.3567      3.3568    
  3.7227      4.4621      6.5047      12.910      26.017      45.819      69.224      90.516      103.30      103.31    
  60.727      42.842      26.010      13.772      7.1099      4.6615      3.8269      3.3411      3.1885      3.3417    
  3.8261      4.6588      7.1081      13.774      26.015      42.848      60.730      74.567      79.793      74.567    
  34.922      22.665      12.903      7.1099      4.7432      3.8897      3.3453      3.0919      3.0926      3.3463    
  3.8892      4.7398      7.1050      12.900      22.668      34.930      46.450      53.469      53.465      46.440    
  17.200      10.670      6.5036      4.6615      3.8897      3.3502      3.0507      2.9593      3.0510      3.3519    
  3.8920      4.6615      6.4994      10.663      17.196      24.657      30.652      32.951      30.650      24.658    
  7.9897      5.6062      4.4635      3.8269      3.3453      3.0507      2.9186      2.9180      3.0504      3.3481    
  3.8326      4.4684      5.6061      7.9836      11.489      15.095      17.395      17.398      15.103      11.499    
  4.8131      4.2146      3.7232      3.3411      3.0919      2.9593      2.9180      2.9575      3.0897      3.3413    
  3.7280      4.2228      4.8198      5.8261      7.2114      8.4619      8.9699      8.4678      7.2172      5.8258    
  3.9247      3.6065      3.3567      3.1885      3.0926      3.0510      3.0504      3.0897      3.1829      3.3515    
  3.6067      3.9317      4.2785      4.6156      4.9727      5.2272      5.2277      4.9719      4.6100      4.2693    
  3.5036      3.4083      3.3568      3.3417      3.3463      3.3519      3.3481      3.3413      3.3515      3.4001    
  3.4976      3.6380      3.8000      3.9518      4.0596      4.0973      4.0556      3.9455      3.7950      3.6381    
  3.5041      3.6069      3.7227      3.8261      3.8892      3.8920      3.8326      3.7280      3.6067      3.4976    
  3.4221      3.3901      3.3963      3.4218      3.4417      3.4397      3.4183      3.3964      3.3961      3.4313    
  3.9254      4.2142      4.4621      4.6588      4.7398      4.6615      4.4684      4.2228      3.9317      3.6380    
  3.3901      3.2148      3.1119      3.0628      3.0486      3.0630      3.1147      3.2209      3.3956      3.6381    
  4.8132      5.6067      6.5047      7.1081      7.1050      6.4994      5.6061      4.8198      4.2785      3.8000    
  3.3963      3.1119      2.9444      2.8700      2.8710      2.9470      3.1149      3.3963      3.7943      4.2693    
  7.9912      10.675      12.910      13.774      12.900      10.663      7.9836      5.8261      4.6156      3.9518    
  3.4218      3.0628      2.8700      2.8116      2.8710      3.0630      3.4190      3.9460      4.6100      5.8258    
  17.205      22.674      26.017      26.015      22.668      17.196      11.489      7.2114      4.9727      4.0596    
  3.4417      3.0486      2.8710      2.8710      3.0479      3.4391      4.0566      4.9728      7.2169      11.499    
  34.925      42.842      45.819      42.848      34.930      24.657      15.095      8.4619      5.2272      4.0973    
  3.4397      3.0630      2.9470      3.0630      3.4391      4.0970      5.2294      8.4673      15.100      24.658    
  60.721      69.220      69.224      60.730      46.450      30.652      17.395      8.9699      5.2277      4.0556    
  3.4183      3.1147      3.1149      3.4190      4.0566      5.2294      8.9716      17.395      30.647      46.440    
  90.517      96.467      90.516      74.567      53.469      32.951      17.398      8.4678      4.9719      3.9455    
  3.3964      3.2209      3.3963      3.9460      4.9728      8.4673      17.395      32.946      53.466      74.567    
  117.24      117.24      103.30      79.793      53.465      30.650      15.103      7.2172      4.6100      3.7950    
  3.3961      3.3956      3.7943      4.6100      7.2169      15.100      30.647      53.466      79.800      103.31    
  133.16      125.04      103.31      74.567      46.440      24.658      11.499      5.8258      4.2693      3.6381    
  3.4313      3.6381      4.2693      5.8258      11.499      24.658      46.440      74.567      103.31      125.04    
  109.97      90.537      64.964      40.161      21.227      10.056      5.4246      4.1453      3.5513      3.3589    
  3.5517      4.1450      5.4248      10.060      21.233      40.163      64.953      90.515      109.95      117.24    
  90.537      69.239      45.820      26.010      12.903      6.5036      4.4635      3.7232      3.3567      3.3568    
  3.7227      4.4621      6.5047      12.910      26.017      45.819      69.224      90.516      103.30      103.31    
  64.964      45.820      27.813      14.680      7.4561      4.7537      3.8809      3.3812      3.2235      3.3816    
  3.8797      4.7509      7.4556      14.685      27.821      45.826      64.964      79.797      85.407      79.800    
  40.161      26.010      14.680      7.8363      4.9494      3.9931      3.4169      3.1459      3.1466      3.4177    
  3.9913      4.9447      7.8320      14.681      26.019      40.176      53.480      61.601      61.595      53.466    
  21.227      12.903      7.4561      4.9494      4.0341      3.4436      3.1104      3.0090      3.1112      3.4446    
  4.0333      4.9449      7.4495      12.900      21.233      30.660      38.218      41.113      38.206      30.647    
  10.056      6.5036      4.7537      3.9931      3.4436      3.1012      2.9482      2.9480      3.1017      3.4462    
  3.9959      4.7530      6.4985      10.050      15.098      20.197      23.425      23.424      20.196      15.100    
  5.4246      4.4635      3.8809      3.4169      3.1104      2.9482      2.8984      2.9471      3.1105      3.4203    
  3.8866      4.4680      5.4245      7.2118      9.5763      11.647      12.474      11.652      9.5834      7.2169    
  4.1453      3.7232      3.3812      3.1459      3.0090      2.9480      2.9471      3.0064      3.1432      3.3811    
  3.7280      4.1530      4.6158      5.2569      6.0179      6.5536      6.5557      6.0215      5.2567      4.6100    
  3.5513      3.3567      3.2235      3.1466      3.1112      3.1017      3.1105      3.1432      3.2172      3.3515    
  3.5518      3.8004      4.0593      4.2833      4.4485      4.5149      4.4473      4.2791      4.0521      3.7943    
  3.3589      3.3568      3.3816      3.4177      3.4446      3.4462      3.4203      3.3811      3.3515      3.3515    
  3.3906      3.4653      3.5596      3.6471      3.6993      3.6974      3.6428      3.5559      3.4655      3.3956    
  3.5517      3.7227      3.8797      3.9913      4.0333      3.9959      3.8866      3.7280      3.5518      3.3906    
  3.2693      3.1981      3.1701      3.1657      3.1657      3.1637      3.1697      3.2024      3.2766      3.3961    
  4.1450      4.4621      4.7509      4.9447      4.9449      4.7530      4.4680      4.1530      3.8004      3.4653    
  3.1981      3.0182      2.9161      2.8718      2.8718      2.9173      3.0217      3.2021      3.4655      3.7950    
  5.4248      6.5047      7.4556      7.8320      7.4495      6.4985      5.4245      4.6158      4.0593      3.5596    
  3.1701      2.9161      2.7812      2.7402      2.7825      2.9178      3.1699      3.5556      4.0521      4.6100    
  10.060      12.910      14.685      14.681      12.900      10.050      7.2118      5.2569      4.2833      3.6471    
  3.1657      2.8718      2.7402      2.7406      2.8721      3.1641      3.6434      4.2796      5.2567      7.2172    
  21.233      26.017      27.821      26.019      21.233      15.098      9.5763      6.0179      4.4485      3.6993    
  3.1657      2.8718      2.7825      2.8721      3.1647      3.6973      4.4485      6.0224      9.5834      15.103    
  40.163      45.819      45.826      40.176      30.660      20.197      11.647      6.5536      4.5149      3.6974    
  3.1637      2.9173      2.9178      3.1641      3.6973      4.5158      6.5575      11.651      20.196      30.650    
  64.953      69.224      64.964      53.480      38.218      23.425      12.474      6.5557      4.4473      3.6428    
  3.1697      3.0217      3.1699      3.6434      4.4485      6.5575      12.474      23.421      38.206      53.465    
  90.515      90.516      79.797      61.601      41.113      23.424      11.652      6.0215      4.2791      3.5559    
  3.2024      3.2021      3.5556      4.2796      6.0224      11.651      23.421      41.108      61.595      79.793    
  109.95      103.30      85.407      61.595      38.206      20.196      9.5834      5.2567      4.0521      3.4655    
  3.2766      3.4655      4.0521      5.2567      9.5834      20.196      38.206      61.595      85.407      103.30    
  117.24      103.31      79.800      53.466      30.647      15.100      7.2169      4.6100      3.7943      3.3956    
  3.3961      3.7950      4.6100      7.2172      15.103      30.650      53.465      79.793      103.30      117.24    
  79.371      60.727      40.161      22.776      11.397      5.9973      4.3205      3.6160      3.2705      3.2706    
  3.6155      4.3192      5.9967      11.399      22.781      40.164      60.726      79.367      90.515      90.517    
  60.727      42.842      26.010      13.772      7.1099      4.6615      3.8269      3.3411      3.1885      3.3417    
  3.8261      4.6588      7.1081      13.774      26.015      42.848      60.730      74.567      79.793      74.567    
  40.161      26.010      14.680      7.8363      4.9494      3.9931      3.4169      3.1459      3.1466      3.4177    
  3.9913      4.9447      7.8320      14.681      26.019      40.176      53.480      61.601      61.595      53.466    
  22.776      13.772      7.8363      5.0661      4.0840      3.4768      3.1320      3.0270      3.1329      3.4775    
  4.0821      5.0600      7.8288      13.771      22.788      32.967      41.124      44.249      41.108      32.946    
  11.397      7.1099      4.9494      4.0840      3.4995      3.1309      2.9667      2.9668      3.1321      3.5015    
  4.0836      4.9435      7.1011      11.393      17.402      23.433      27.241      27.235      23.421      17.395    
  5.9973      4.6615      3.9931      3.4768      3.1309      2.9487      2.8936      2.9485      3.1325      3.4803    
  3.9956      4.6596      5.9916      8.4616      11.648      14.400      15.492      14.400      11.651      8.4673    
  4.3205      3.8269      3.4169      3.1320      2.9667      2.8936      2.8928      2.9653      3.1324      3.4203    
  3.8320      4.3239      4.9720      6.0175      7.2407      8.0837      8.0862      7.2465      6.0224      4.9728    
  3.6160      3.3411      3.1459      3.0270      2.9668      2.9485      2.9653      3.0241      3.1430      3.3410    
  3.6201      3.9519      4.2832      4.6059      4.9013      5.0278      4.9031      4.6061      4.2796      3.9460    
  3.2705      3.1885      3.1466      3.1329      3.1321      3.1325      3.1324      3.1430      3.1825      3.2661    
  3.3966      3.5599      3.7278      3.8661      3.9441      3.9434      3.8633      3.7230      3.5556      3.3963    
  3.2706      3.3417      3.4177      3.4775      3.5015      3.4803      3.4203      3.3410      3.2661      3.2151    
  3.1983      3.2147      3.2513      3.2866      3.3001      3.2843      3.2489      3.2148      3.2021      3.2209    
  3.6155      3.8261      3.9913      4.0821      4.0836      3.9956      3.8320      3.6201      3.3966      3.1983    
  3.0500      2.9579      2.9114      2.8934      2.8927      2.9108      2.9601      3.0550      3.2024      3.3964    
  4.3192      4.6588      4.9447      5.0600      4.9435      4.6596      4.3239      3.9519      3.5599      3.2147    
  2.9579      2.7949      2.7092      2.6829      2.7095      2.7964      2.9600      3.2148      3.5559      3.9455    
  5.9967      7.1081      7.8320      7.8288      7.1011      5.9916      4.9720      4.2832      3.7278      3.2513    
  2.9114      2.7092      2.6188      2.6192      2.7099      2.9111      3.2487      3.7230      4.2791      4.9719    
  11.399      13.774      14.681      13.771      11.393      8.4616      6.0175      4.6059      3.8661      3.2866    
  2.8934      2.6829      2.6192      2.6834      2.8930      3.2843      3.8637      4.6061      6.0215      8.4678    
  22.781      26.015      26.019      22.788      17.402      11.648      7.2407      4.9013      3.9441      3.3001    
  2.8927      2.7095      2.7099      2.8930      3.2992      3.9438      4.9044      7.2465      11.652      17.398    
  40.164      42.848      40.176      32.967      23.433      14.400      8.0837      5.0278      3.9434      3.2843    
  2.9108      2.7964      2.9111      3.2843      3.9438      5.0303      8.0876      14.400      23.424      32.951    
  60.726      60.730      53.480      41.124      27.241      15.492      8.0862      4.9031      3.8633      3.2489    
  2.9601      2.9600      3.2487      3.8637      4.9044      8.0876      15.490      27.235      41.113      53.469    
  79.367      74.567      61.601      44.249      27.235      14.400      7.2465      4.6061      3.7230      3.2148    
  3.0550      3.2148      3.7230      4.6061      7.2465      14.400      27.235      44.249      61.601      74.567    
  90.515      79.793      61.595      41.108      23.421      11.651      6.0224      4.2796      3.5556      3.2021    
  3.2024      3.5559      4.2791      6.0215      11.652      23.424      41.113      61.601      79.797      90.516    
  90.517      74.567      53.466      32.946      17.395      8.4673      4.9728      3.9460      3.3963      3.2209    
  3.3964      3.9455      4.9719      8.4678      17.398      32.951      53.469      74.567      90.516      96.467    
  49.487      34.922      21.227      11.397      6.2346      4.4234      3.6724      3.2285      3.0903      3.2288    
  3.6722      4.4216      6.2315      11.394      21.227      34.926      49.493      60.726      64.953      60.721    
  34.922      22.665      12.903      7.1099      4.7432      3.8897      3.3453      3.0919      3.0926      3.3463    
  3.8892      4.7398      7.1050      12.900      22.668      34.930      46.450      53.469      53.465      46.440    
  21.227      12.903      7.4561      4.9494      4.0341      3.4436      3.1104      3.0090      3.1112      3.4446    
  4.0333      4.9449      7.4495      12.900      21.233      30.660      38.218      41.113      38.206      30.647    
  11.397      7.1099      4.9494      4.0840      3.4995      3.1309      2.9667      2.9668      3.1321      3.5015    
  4.0836      4.9435      7.1011      11.393      17.402      23.433      27.241      27.235      23.421      17.395    
  6.2346      4.7432      4.0341      3.4995      3.1394      2.9501      2.8934      2.9505      3.1416      3.5026    
  4.0342      4.7375      6.2262      8.9669      12.476      15.494      16.688      15.490      12.474      8.9716    
  4.4234      3.8897      3.4436      3.1309      2.9501      2.8713      2.8710      2.9502      3.1331      3.4472    
  3.8920      4.4217      5.2242      6.5513      8.0831      9.1281      9.1296      8.0876      6.5575      5.2294    
  3.6724      3.3453      3.1104      2.9667      2.8934      2.8710      2.8922      2.9655      3.1110      3.3484    
  3.6766      4.0590      4.4470      4.8999      5.3353      5.5218      5.3392      4.9044      4.4485      4.0566    
  3.2285      3.0919      3.0090      2.9668      2.9505      2.9502      2.9655      3.0064      3.0895      3.2285    
  3.4219      3.6471      3.8656      4.0368      4.1310      4.1315      4.0370      3.8637      3.6434      3.4190    
  3.0903      3.0926      3.1112      3.1321      3.1416      3.1331      3.1110      3.0895      3.0856      3.1117    
  3.1700      3.2512      3.3359      3.4002      3.4238      3.3987      3.3332      3.2487      3.1699      3.1149    
  3.2288      3.3463      3.4446      3.5015      3.5026      3.4472      3.3484      3.2285      3.1117      3.0178    
  2.9575      2.9302      2.9253      2.9276      2.9268      2.9239      2.9303      2.9600      3.0217      3.1147    
  3.6722      3.8892      4.0333      4.0836      4.0342      3.8920      3.6766      3.4219      3.1700      2.9575    
  2.8035      2.7078      2.6582      2.6428      2.6577      2.7085      2.8063      2.9601      3.1697      3.4183    
  4.4216      4.7398      4.9449      4.9435      4.7375      4.4217      4.0590      3.6471      3.2512      2.9302    
  2.7078      2.5761      2.5165      2.5164      2.5764      2.7085      2.9303      3.2489      3.6428      4.0556    
  6.2315      7.1050      7.4495      7.1011      6.2262      5.2242      4.4470      3.8656      3.3359      2.9253    
  2.6582      2.5165      2.4733      2.5169      2.6581      2.9237      3.3332      3.8633      4.4473      5.2277    
  11.394      12.900      12.900      11.393      8.9669      6.5513      4.8999      4.0368      3.4002      2.9276    
  2.6428      2.5164      2.5169      2.6432      2.9267      3.3987      4.0370      4.9031      6.5557      8.9699    
  21.227      22.668      21.233      17.402      12.476      8.0831      5.3353      4.1310      3.4238      2.9268    
  2.6577      2.5764      2.6581      2.9267      3.4237      4.1326      5.3392      8.0862      12.474      17.395    
  34.926      34.930      30.660      23.433      15.494      9.1281      5.5218      4.1315      3.3987      2.9239    
  2.7085      2.7085      2.9237      3.3987      4.1326      5.5242      9.1296      15.492      23.425      30.652    
  49.493      46.450      38.218      27.241      16.688      9.1296      5.3392      4.0370      3.3332      2.9303    
  2.8063      2.9303      3.3332      4.0370      5.3392      9.1296      16.688      27.241      38.218      46.450    
  60.726      53.469      41.113      27.235      15.490      8.0876      4.9044      3.8637      3.2487      2.9600    
  2.9601      3.2489      3.8633      4.9031      8.0862      15.492      27.241      41.124      53.480      60.730    
  64.953      53.465      38.206      23.421      12.474      6.5575      4.4485      3.6434      3.1699      3.0217    
  3.1697      3.6428      4.4473      6.5557      12.474      23.425      38.218      53.480      64.964      69.224    
  60.721      46.440      30.647      17.395      8.9716      5.2294      4.0566      3.4190      3.1149      3.1147    
  3.4183      4.0556      5.2277      8.9699      17.395      30.652      46.450      60.730      69.224      69.220    
  26.324      17.200      10.056      5.9973      4.4234      3.6952      3.2149      2.9946      2.9948      3.2158    
  3.6967      4.4236      5.9939      10.049      17.194      26.321      34.926      40.164      40.163      34.925    
  17.200      10.670      6.5036      4.6615      3.8897      3.3502      3.0507      2.9593      3.0510      3.3519    
  3.8920      4.6615      6.4994      10.663      17.196      24.657      30.652      32.951      30.650      24.658    
  10.056      6.5036      4.7537      3.9931      3.4436      3.1012      2.9482      2.9480      3.1017      3.4462    
  3.9959      4.7530      6.4985      10.050      15.098      20.197      23.425      23.424      20.196      15.100    
  5.9973      4.6615      3.9931      3.4768      3.1309      2.9487      2.8936      2.9485      3.1325      3.4803    
  3.9956      4.6596      5.9916      8.4616      11.648      14.400      15.492      14.400      11.651      8.4673    
  4.4234      3.8897      3.4436      3.1309      2.9501      2.8713      2.8710      2.9502      3.1331      3.4472    
  3.8920      4.4217      5.2242      6.5513      8.0831      9.1281      9.1296      8.0876      6.5575      5.2294    
  3.6952      3.3502      3.1012      2.9487      2.8713      2.8479      2.8707      2.9486      3.1029      3.3536    
  3.6984      4.0975      4.5124      5.0246      5.5199      5.7315      5.5242      5.0303      4.5158      4.0970    
  3.2149      3.0507      2.9482      2.8936      2.8710      2.8707      2.8927      2.9472      3.0510      3.2174    
  3.4428      3.6994      3.9426      4.1295      4.2372      4.2388      4.1326      3.9438      3.6973      3.4391    
  2.9946      2.9593      2.9480      2.9485      2.9502      2.9486      2.9472      2.9573      2.9929      3.0632    
  3.1661      3.2864      3.3995      3.4801      3.5095      3.4803      3.3987      3.2843      3.1641      3.0630    
  2.9948      3.0510      3.1017      3.1325      3.1331      3.1029      3.0510      2.9929      2.9442      2.9158    
  2.9110      2.9249      2.9461      2.9610      2.9604      2.9447      2.9237      2.9111      2.9178      2.9470    
  3.2158      3.3519      3.4462      3.4803      3.4472      3.3536      3.2174      3.0632      2.9158      2.7941    
  2.7071      2.6539      2.6269      2.6187      2.6263      2.6538      2.7085      2.7964      2.9173      3.0630    
  3.6967      3.8920      3.9959      3.9956      3.8920      3.6984      3.4428      3.1661      2.9110      2.7071    
  2.5646      2.4782      2.4380      2.4378      2.4783      2.5657      2.7085      2.9108      3.1637      3.4397    
  4.4236      4.6615      4.7530      4.6596      4.4217      4.0975      3.6994      3.2864      2.9249      2.6539    
  2.4782      2.3832      2.3535      2.3832      2.4783      2.6538      2.9239      3.2843      3.6974      4.0973    
  5.9939      6.4994      6.4985      5.9916      5.2242      4.5124      3.9426      3.3995      2.9461      2.6269    
  2.4380      2.3535      2.3538      2.4382      2.6263      2.9447      3.3987      3.9434      4.5149      5.2272    
  10.049      10.663      10.050      8.4616      6.5513      5.0246      4.1295      3.4801      2.9610      2.6187    
  2.4378      2.3832      2.4382      2.6186      2.9604      3.4803      4.1315      5.0278      6.5536      8.4619    
  17.194      17.196      15.098      11.648      8.0831      5.5199      4.2372      3.5095      2.9604      2.6263    
  2.4783      2.4783      2.6263      2.9604      3.5101      4.2388      5.5218      8.0837      11.647      15.095    
  26.321      24.657      20.197      14.400      9.1281      5.7315      4.2388      3.4803      2.9447      2.6538    
  2.5657      2.6538      2.9447      3.4803      4.2388      5.7315      9.1281      14.400      20.197      24.657    
  34.926      30.652      23.425      15.492      9.1296      5.5242      4.1326      3.3987      2.9237      2.7085    
  2.7085      2.9239      3.3987      4.1315      5.5218      9.1281      15.494      23.433      30.660      34.930    
  40.164      32.951      23.424      14.400      8.0876      5.0303      3.9438      3.2843      2.9111      2.7964    
  2.9108      3.2843      3.9434      5.0278      8.0837      14.400      23.433      32.967      40.176      42.848    
  40.163      30.650      20.196      11.651      6.5575      4.5158      3.6973      3.1641      2.9178      2.9173    
  3.1637      3.6974      4.5149      6.5536      11.647      20.197      30.660      40.176      45.826      45.819    
  34.925      24.658      15.100      8.4673      5.2294      4.0970      3.4391      3.0630      2.9470      3.0630    
  3.4397      4.0973      5.2272      8.4619      15.095      24.657      34.930      42.848      45.819      42.842    
  12.234      7.9897      5.4246      4.3205      3.6724      3.2149      2.9654      2.8889      2.9652      3.2165    
  3.6767      4.3249      5.4247      7.9833      12.223      17.194      21.227      22.781      21.233      17.205    
  7.9897      5.6062      4.4635      3.8269      3.3453      3.0507      2.9186      2.9180      3.0504      3.3481    
  3.8326      4.4684      5.6061      7.9836      11.489      15.095      17.395      17.398      15.103      11.499    
  5.4246      4.4635      3.8809      3.4169      3.1104      2.9482      2.8984      2.9471      3.1105      3.4203    