fcc Ni                                  
   3.45000000000000     
     0.000000    0.500000    0.500000
     0.500000    0.000000    0.500000
     0.500000    0.500000    0.000000
   Ni
     1
Direct
  0.000000  0.000000  0.000000
 
   20   20   20
 0.14185614722E+03 0.13317386401E+03 0.10997260122E+03 0.79371286122E+02 0.49486633095E+02
 0.26323587314E+02 0.12233863343E+02 0.60541825841E+01 0.43447721090E+01 0.36996782868E+01
 0.34868854139E+01 0.36996782868E+01 0.43447721090E+01 0.60541825841E+01 0.12233863343E+02
 0.26323587314E+02 0.49486633095E+02 0.79371286122E+02 0.10997260122E+03 0.13317386401E+03
 0.13317386401E+03 0.11726673095E+03 0.90536946405E+02 0.60727085306E+02 0.34921725543E+02
 0.17200276869E+02 0.79897277820E+01 0.48131060023E+01 0.39246508517E+01 0.35035592120E+01
 0.35041466024E+01 0.39253866162E+01 0.48131992665E+01 0.79911588292E+01 0.17204726791E+02
 0.34925037577E+02 0.60720577830E+02 0.90517308214E+02 0.11724347884E+03 0.13316339434E+03
 0.10997260122E+03 0.90536946405E+02 0.64964174472E+02 0.40160872089E+02 0.21226851583E+02
 0.10055812221E+02 0.54245996409E+01 0.41452660109E+01 0.35513123764E+01 0.33589033729E+01
 0.35517055138E+01 0.41449942410E+01 0.54247899198E+01 0.10059540137E+02 0.21233433008E+02
 0.40162602938E+02 0.64952899739E+02 0.90515032430E+02 0.10995453009E+03 0.11724347884E+03
 0.79371286122E+02 0.60727085306E+02 0.40160872089E+02 0.22776404276E+02 0.11396564067E+02
 0.59973180150E+01 0.43204831226E+01 0.36160077573E+01 0.32705425229E+01 0.32705680622E+01
 0.36155479428E+01 0.43192042990E+01 0.59966970525E+01 0.11398612243E+02 0.22780569701E+02
 0.40163584876E+02 0.60725508675E+02 0.79367010677E+02 0.90515032430E+02 0.90517308214E+02
 0.49486633095E+02 0.34921725543E+02 0.21226851583E+02 0.11396564067E+02 0.62345897803E+01
 0.44233704755E+01 0.36724046320E+01 0.32284810479E+01 0.30902868209E+01 0.32287885179E+01
 0.36721574982E+01 0.44216326505E+01 0.62314952553E+01 0.11393881337E+02 0.21227083872E+02
 0.34926018979E+02 0.49493218639E+02 0.60725508675E+02 0.64952899739E+02 0.60720577830E+02
 0.26323587314E+02 0.17200276869E+02 0.10055812221E+02 0.59973180150E+01 0.44233704755E+01
 0.36951853457E+01 0.32148643552E+01 0.29946277748E+01 0.29948458849E+01 0.32158215674E+01
 0.36967099695E+01 0.44235532496E+01 0.59939039204E+01 0.10049210934E+02 0.17194090709E+02
 0.26321190558E+02 0.34926018979E+02 0.40163584876E+02 0.40162602938E+02 0.34925037577E+02
 0.12233863343E+02 0.79897277820E+01 0.54245996409E+01 0.43204831226E+01 0.36724046320E+01
 0.32148643552E+01 0.29654263560E+01 0.28889477414E+01 0.29651912826E+01 0.32164604807E+01
 0.36767063239E+01 0.43248608369E+01 0.54246578064E+01 0.79833127056E+01 0.12223041487E+02
 0.17194090709E+02 0.21227083872E+02 0.22780569701E+02 0.21233433008E+02 0.17204726791E+02
 0.60541825841E+01 0.48131060023E+01 0.41452660109E+01 0.36160077573E+01 0.32284810479E+01
 0.29946277748E+01 0.28889477414E+01 0.28880161460E+01 0.29929040635E+01 0.32285896928E+01
 0.36202149945E+01 0.41528836264E+01 0.48196065055E+01 0.60541241215E+01 0.79833127056E+01
 0.10049210934E+02 0.11393881337E+02 0.11398612243E+02 0.10059540137E+02 0.79911588292E+01
 0.43447721090E+01 0.39246508517E+01 0.35513123764E+01 0.32705425229E+01 0.30902868209E+01
 0.29948458849E+01 0.29651912826E+01 0.29929040635E+01 0.30861173836E+01 0.32662195185E+01
 0.35513547477E+01 0.39314699762E+01 0.43547929454E+01 0.48196065055E+01 0.54246578064E+01
 0.59939039204E+01 0.62314952553E+01 0.59966970525E+01 0.54247899198E+01 0.48131992665E+01
 0.36996782868E+01 0.35035592120E+01 0.33589033729E+01 0.32705680622E+01 0.32287885179E+01
 0.32158215674E+01 0.32164604807E+01 0.32285896928E+01 0.32662195185E+01 0.33510409201E+01
 0.34972970444E+01 0.36996976799E+01 0.39314699762E+01 0.41528836264E+01 0.43248608369E+01
 0.44235532496E+01 0.44216326505E+01 0.43192042990E+01 0.41449942410E+01 0.39253866162E+01
 0.34868854139E+01 0.35041466024E+01 0.35517055138E+01 0.36155479428E+01 0.36721574982E+01
 0.36967099695E+01 0.36767063239E+01 0.36202149945E+01 0.35513547477E+01 0.34972970444E+01
 0.34770995260E+01 0.34972970444E+01 0.35513547477E+01 0.36202149945E+01 0.36767063239E+01
 0.36967099695E+01 0.36721574982E+01 0.36155479428E+01 0.35517055138E+01 0.35041466024E+01
 0.36996782868E+01 0.39253866162E+01 0.41449942410E+01 0.43192042990E+01 0.44216326505E+01
 0.44235532496E+01 0.43248608369E+01 0.41528836264E+01 0.39314699762E+01 0.36996976799E+01
 0.34972970444E+01 0.33510409201E+01 0.32662195185E+01 0.32285896928E+01 0.32164604807E+01
 0.32158215674E+01 0.32287885179E+01 0.32705680622E+01 0.33589033729E+01 0.35035592120E+01
 0.43447721090E+01 0.48131992665E+01 0.54247899198E+01 0.59966970525E+01 0.62314952553E+01
 0.59939039204E+01 0.54246578064E+01 0.48196065055E+01 0.43547929454E+01 0.39314699762E+01
 0.35513547477E+01 0.32662195185E+01 0.30861173836E+01 0.29929040635E+01 0.29651912826E+01
 0.29948458849E+01 0.30902868209E+01 0.32705425229E+01 0.35513123764E+01 0.39246508517E+01
 0.60541825841E+01 0.79911588292E+01 0.10059540137E+02 0.11398612243E+02 0.11393881337E+02
 0.10049210934E+02 0.79833127056E+01 0.60541241215E+01 0.48196065055E+01 0.41528836264E+01
 0.36202149945E+01 0.32285896928E+01 0.29929040635E+01 0.28880161460E+01 0.28889477414E+01
 0.29946277748E+01 0.32284810479E+01 0.36160077573E+01 0.41452660109E+01 0.48131060023E+01
 0.12233863343E+02 0.17204726791E+02 0.21233433008E+02 0.22780569701E+02 0.21227083872E+02
 0.17194090709E+02 0.12223041487E+02 0.79833127056E+01 0.54246578064E+01 0.43248608369E+01
 0.36767063239E+01 0.32164604807E+01 0.29651912826E+01 0.28889477414E+01 0.29654263560E+01
 0.32148643552E+01 0.36724046320E+01 0.43204831226E+01 0.54245996409E+01 0.79897277820E+01
 0.26323587314E+02 0.34925037577E+02 0.40162602938E+02 0.40163584876E+02 0.34926018979E+02
 0.26321190558E+02 0.17194090709E+02 0.10049210934E+02 0.59939039204E+01 0.44235532496E+01
 0.36967099695E+01 0.32158215674E+01 0.29948458849E+01 0.29946277748E+01 0.32148643552E+01
 0.36951853457E+01 0.44233704755E+01 0.59973180150E+01 0.10055812221E+02 0.17200276869E+02
 0.49486633095E+02 0.60720577830E+02 0.64952899739E+02 0.60725508675E+02 0.49493218639E+02
 0.34926018979E+02 0.21227083872E+02 0.11393881337E+02 0.62314952553E+01 0.44216326505E+01
 0.36721574982E+01 0.32287885179E+01 0.30902868209E+01 0.32284810479E+01 0.36724046320E+01
 0.44233704755E+01 0.62345897803E+01 0.11396564067E+02 0.21226851583E+02 0.34921725543E+02
 0.79371286122E+02 0.90517308214E+02 0.90515032430E+02 0.79367010677E+02 0.60725508675E+02
 0.40163584876E+02 0.22780569701E+02 0.11398612243E+02 0.59966970525E+01 0.43192042990E+01
 0.36155479428E+01 0.32705680622E+01 0.32705425229E+01 0.36160077573E+01 0.43204831226E+01
 0.59973180150E+01 0.11396564067E+02 0.22776404276E+02 0.40160872089E+02 0.60727085306E+02
 0.10997260122E+03 0.11724347884E+03 0.10995453009E+03 0.90515032430E+02 0.64952899739E+02
 0.40162602938E+02 0.21233433008E+02 0.10059540137E+02 0.54247899198E+01 0.41449942410E+01
 0.35517055138E+01 0.33589033729E+01 0.35513123764E+01 0.41452660109E+01 0.54245996409E+01
 0.10055812221E+02 0.21226851583E+02 0.40160872089E+02 0.64964174472E+02 0.90536946405E+02
 0.13317386401E+03 0.13316339434E+03 0.11724347884E+03 0.90517308214E+02 0.60720577830E+02
 0.34925037577E+02 0.17204726791E+02 0.79911588292E+01 0.48131992665E+01 0.39253866162E+01
 0.35041466024E+01 0.35035592120E+01 0.39246508517E+01 0.48131060023E+01 0.79897277820E+01
 0.17200276869E+02 0.34921725543E+02 0.60727085306E+02 0.90536946405E+02 0.11726673095E+03
 0.13317386401E+03 0.11726673095E+03 0.90536946405E+02 0.60727085306E+02 0.34921725543E+02
 0.17200276869E+02 0.79897277820E+01 0.48131060023E+01 0.39246508517E+01 0.35035592120E+01
 0.35041466024E+01 0.39253866162E+01 0.48131992665E+01 0.79911588292E+01 0.17204726791E+02
 0.34925037577E+02 0.60720577830E+02 0.90517308214E+02 0.11724347884E+03 0.13316339434E+03
 0.11726673095E+03 0.96501007535E+02 0.69239113905E+02 0.42841601322E+02 0.22665049546E+02
 0.10669832235E+02 0.56062102441E+01 0.42145753990E+01 0.36064760887E+01 0.34083208204E+01
 0.36069068783E+01 0.42141691456E+01 0.56067009880E+01 0.10675291282E+02 0.22673831361E+02
 0.42842198506E+02 0.69220055335E+02 0.96466611594E+02 0.11723893461E+03 0.12504339249E+03
 0.90536946405E+02 0.69239113905E+02 0.45820210538E+02 0.26009643667E+02 0.12903040300E+02
 0.65036441700E+01 0.44635172292E+01 0.37232496998E+01 0.33566829703E+01 0.33567872559E+01
 0.37226592866E+01 0.44620723402E+01 0.65046546218E+01 0.12909501199E+02 0.26017483358E+02
 0.45819266180E+02 0.69224123726E+02 0.90516394257E+02 0.10329897052E+03 0.10330861628E+03
 0.60727085306E+02 0.42841601322E+02 0.26009643667E+02 0.13771554049E+02 0.71099238345E+01
 0.46614874892E+01 0.38269325472E+01 0.33410955467E+01 0.31884974523E+01 0.33416606211E+01
 0.38261209413E+01 0.46587915111E+01 0.71080525683E+01 0.13773682950E+02 0.26015488355E+02
 0.42847507944E+02 0.60730077409E+02 0.74567365173E+02 0.79792856631E+02 0.74566848664E+02
 0.34921725543E+02 0.22665049546E+02 0.12903040300E+02 0.71099238345E+01 0.47431628285E+01
 0.38897473052E+01 0.33453089844E+01 0.30919170786E+01 0.30925563166E+01 0.33463389315E+01
 0.38892139676E+01 0.47398401659E+01 0.71050392115E+01 0.12900229560E+02 0.22667801534E+02
 0.34929991383E+02 0.46449677649E+02 0.53469436269E+02 0.53465432813E+02 0.46440485075E+02
 0.17200276869E+02 0.10669832235E+02 0.65036441700E+01 0.46614874892E+01 0.38897473052E+01
 0.33502130081E+01 0.30506808315E+01 0.29593074560E+01 0.30510499117E+01 0.33518636818E+01
 0.38920442391E+01 0.46615393347E+01 0.64993693371E+01 0.10663110043E+02 0.17195560405E+02
 0.24657139550E+02 0.30651561105E+02 0.32950707795E+02 0.30650071270E+02 0.24657622932E+02
 0.79897277820E+01 0.56062102441E+01 0.44635172292E+01 0.38269325472E+01 0.33453089844E+01
 0.30506808315E+01 0.29186150422E+01 0.29180007977E+01 0.30504256719E+01 0.33480622203E+01
 0.38326204634E+01 0.44684356122E+01 0.56061251787E+01 0.79836166415E+01 0.11489282215E+02
 0.15094759234E+02 0.17394952439E+02 0.17397970716E+02 0.15102607966E+02 0.11498514128E+02
 0.48131060023E+01 0.42145753990E+01 0.37232496998E+01 0.33410955467E+01 0.30919170786E+01
 0.29593074560E+01 0.29180007977E+01 0.29574649175E+01 0.30897251767E+01 0.33413035745E+01
 0.37280472510E+01 0.42227894000E+01 0.48197647303E+01 0.58260799186E+01 0.72114438989E+01
 0.84618776546E+01 0.89698886748E+01 0.84677842675E+01 0.72172489853E+01 0.58258234178E+01
 0.39246508517E+01 0.36064760887E+01 0.33566829703E+01 0.31884974523E+01 0.30925563166E+01
 0.30510499117E+01 0.30504256719E+01 0.30897251767E+01 0.31829312478E+01 0.33515012889E+01
 0.36067169855E+01 0.39316759040E+01 0.42785348364E+01 0.46155572148E+01 0.49727436962E+01
 0.52272337059E+01 0.52277467501E+01 0.49719472797E+01 0.46099664252E+01 0.42692917292E+01
 0.35035592120E+01 0.34083208204E+01 0.33567872559E+01 0.33416606211E+01 0.33463389315E+01
 0.33518636818E+01 0.33480622203E+01 0.33413035745E+01 0.33515012889E+01 0.34000544330E+01
 0.34975630448E+01 0.36380485081E+01 0.38000119140E+01 0.39517831562E+01 0.40595934572E+01
 0.40973480860E+01 0.40555766310E+01 0.39454803273E+01 0.37949927682E+01 0.36381235154E+01
 0.35041466024E+01 0.36069068783E+01 0.37226592866E+01 0.38261209413E+01 0.38892139676E+01
 0.38920442391E+01 0.38326204634E+01 0.37280472510E+01 0.36067169855E+01 0.34975630448E+01
 0.34221297690E+01 0.33900579992E+01 0.33962935075E+01 0.34217702806E+01 0.34416630078E+01
 0.34396644790E+01 0.34183175318E+01 0.33964103422E+01 0.33961081093E+01 0.34312837754E+01
 0.39253866162E+01 0.42141691456E+01 0.44620723402E+01 0.46587915111E+01 0.47398401659E+01
 0.46615393347E+01 0.44684356122E+01 0.42227894000E+01 0.39316759040E+01 0.36380485081E+01
 0.33900579992E+01 0.32148390703E+01 0.31119113947E+01 0.30628476032E+01 0.30486401784E+01
 0.30629511319E+01 0.31146594885E+01 0.32208898980E+01 0.33956154987E+01 0.36381235154E+01
 0.48131992665E+01 0.56067009880E+01 0.65046546218E+01 0.71080525683E+01 0.71050392115E+01
 0.64993693371E+01 0.56061251787E+01 0.48197647303E+01 0.42785348364E+01 0.38000119140E+01
 0.33962935075E+01 0.31119113947E+01 0.29443795883E+01 0.28700464386E+01 0.28709774138E+01
 0.29470424095E+01 0.31149034764E+01 0.33962604293E+01 0.37943448380E+01 0.42692917293E+01
 0.79911588292E+01 0.10675291282E+02 0.12909501199E+02 0.13773682950E+02 0.12900229560E+02
 0.10663110043E+02 0.79836166415E+01 0.58260799186E+01 0.46155572148E+01 0.39517831562E+01
 0.34217702806E+01 0.30628476032E+01 0.28700464386E+01 0.28116135573E+01 0.28710496502E+01
 0.30630044088E+01 0.34189618248E+01 0.39459661726E+01 0.46100281481E+01 0.58258234178E+01
 0.17204726791E+02 0.22673831361E+02 0.26017483358E+02 0.26015488355E+02 0.22667801534E+02
 0.17195560405E+02 0.11489282215E+02 0.72114438989E+01 0.49727436962E+01 0.40595934572E+01
 0.34416630078E+01 0.30486401784E+01 0.28709774138E+01 0.28710496502E+01 0.30479454037E+01
 0.34391363478E+01 0.40566303124E+01 0.49728498269E+01 0.72168538761E+01 0.11498514128E+02
 0.34925037577E+02 0.42842198506E+02 0.45819266180E+02 0.42847507944E+02 0.34929991383E+02
 0.24657139550E+02 0.15094759234E+02 0.84618776546E+01 0.52272337059E+01 0.40973480860E+01
 0.34396644790E+01 0.30629511319E+01 0.29470424095E+01 0.30630044088E+01 0.34391363478E+01
 0.40970020952E+01 0.52293977859E+01 0.84672710174E+01 0.15100063200E+02 0.24657622932E+02
 0.60720577830E+02 0.69220055335E+02 0.69224123726E+02 0.60730077409E+02 0.46449677649E+02
 0.30651561105E+02 0.17394952439E+02 0.89698886748E+01 0.52277467501E+01 0.40555766310E+01
 0.34183175318E+01 0.31146594885E+01 0.31149034764E+01 0.34189618248E+01 0.40566303124E+01
 0.52293977859E+01 0.89716018929E+01 0.17394645621E+02 0.30646777340E+02 0.46440485075E+02
 0.90517308214E+02 0.96466611594E+02 0.90516394257E+02 0.74567365173E+02 0.53469436269E+02
 0.32950707795E+02 0.17397970716E+02 0.84677842675E+01 0.49719472797E+01 0.39454803273E+01
 0.33964103422E+01 0.32208898980E+01 0.33962604293E+01 0.39459661726E+01 0.49728498269E+01
 0.84672710174E+01 0.17394645621E+02 0.32945810628E+02 0.53465969446E+02 0.74566848664E+02
 0.11724347884E+03 0.11723893461E+03 0.10329897052E+03 0.79792856631E+02 0.53465432813E+02
 0.30650071270E+02 0.15102607966E+02 0.72172489853E+01 0.46099664252E+01 0.37949927682E+01
 0.33961081093E+01 0.33956154987E+01 0.37943448380E+01 0.46100281481E+01 0.72168538761E+01
 0.15100063200E+02 0.30646777340E+02 0.53465969446E+02 0.79799856116E+02 0.10330861628E+03
 0.13316339434E+03 0.12504339249E+03 0.10330861628E+03 0.74566848664E+02 0.46440485075E+02
 0.24657622932E+02 0.11498514128E+02 0.58258234178E+01 0.42692917293E+01 0.36381235154E+01
 0.34312837754E+01 0.36381235154E+01 0.42692917293E+01 0.58258234178E+01 0.11498514128E+02
 0.24657622932E+02 0.46440485075E+02 0.74566848664E+02 0.10330861628E+03 0.12504339249E+03
 0.10997260122E+03 0.90536946405E+02 0.64964174472E+02 0.40160872089E+02 0.21226851583E+02
 0.10055812221E+02 0.54245996409E+01 0.41452660109E+01 0.35513123764E+01 0.33589033729E+01
 0.35517055138E+01 0.41449942410E+01 0.54247899198E+01 0.10059540137E+02 0.21233433008E+02
 0.40162602938E+02 0.64952899739E+02 0.90515032430E+02 0.10995453009E+03 0.11724347884E+03
 0.90536946405E+02 0.69239113905E+02 0.45820210538E+02 0.26009643667E+02 0.12903040300E+02
 0.65036441700E+01 0.44635172292E+01 0.37232496998E+01 0.33566829703E+01 0.33567872559E+01
 0.37226592866E+01 0.44620723402E+01 0.65046546218E+01 0.12909501199E+02 0.26017483358E+02
 0.45819266180E+02 0.69224123726E+02 0.90516394257E+02 0.10329897052E+03 0.10330861628E+03
 0.64964174472E+02 0.45820210538E+02 0.27812688178E+02 0.14679693622E+02 0.74561147420E+01
 0.47537003397E+01 0.38808679923E+01 0.33811563216E+01 0.32234971608E+01 0.33816252231E+01
 0.38796526263E+01 0.47508526194E+01 0.74556045904E+01 0.14684873954E+02 0.27821179769E+02
 0.45825677846E+02 0.64963548272E+02 0.79796826474E+02 0.85406579242E+02 0.79799856116E+02
 0.40160872089E+02 0.26009643667E+02 0.14679693622E+02 0.78362794974E+01 0.49494274140E+01
 0.39931133738E+01 0.34169009518E+01 0.31458953259E+01 0.31466438103E+01 0.34176953737E+01
 0.39913287789E+01 0.49446837986E+01 0.78320199701E+01 0.14681087216E+02 0.26019389854E+02
 0.40176376992E+02 0.53480248919E+02 0.61600976182E+02 0.61595195464E+02 0.53465969446E+02
 0.21226851583E+02 0.12903040300E+02 0.74561147420E+01 0.49494274140E+01 0.40341472868E+01
 0.34436014858E+01 0.31103822553E+01 0.30089502751E+01 0.31112262013E+01 0.34446115512E+01
 0.40333428337E+01 0.49449229163E+01 0.74495178135E+01 0.12900293033E+02 0.21233287896E+02
 0.30660464282E+02 0.38217556380E+02 0.41113267538E+02 0.38206159702E+02 0.30646777340E+02
 0.10055812221E+02 0.65036441700E+01 0.47537003397E+01 0.39931133738E+01 0.34436014858E+01
 0.31011638383E+01 0.29482124496E+01 0.29480287919E+01 0.31017492544E+01 0.34461893091E+01
 0.39959058889E+01 0.47530101889E+01 0.64985195061E+01 0.10049927222E+02 0.15097788993E+02
 0.20197187084E+02 0.23425417511E+02 0.23424171483E+02 0.20195791010E+02 0.15100063200E+02
 0.54245996409E+01 0.44635172292E+01 0.38808679923E+01 0.34169009518E+01 0.31103822553E+01
 0.29482124496E+01 0.28984415994E+01 0.29470933387E+01 0.31105149198E+01 0.34202840525E+01
 0.38865709892E+01 0.44679869848E+01 0.54245166622E+01 0.72118342350E+01 0.95762747451E+01
 0.11646518901E+02 0.12474251166E+02 0.11651506006E+02 0.95833595331E+01 0.72168538761E+01
 0.41452660109E+01 0.37232496998E+01 0.33811563216E+01 0.31458953259E+01 0.30089502751E+01
 0.29480287919E+01 0.29470933387E+01 0.30064005047E+01 0.31431597412E+01 0.33811070234E+01
 0.37279589018E+01 0.41530152858E+01 0.46158072811E+01 0.52569311991E+01 0.60178868205E+01
 0.65535776937E+01 0.65557335248E+01 0.60215012433E+01 0.52567227000E+01 0.46100281481E+01
 0.35513123764E+01 0.33566829703E+01 0.32234971608E+01 0.31466438103E+01 0.31112262013E+01
 0.31017492544E+01 0.31105149198E+01 0.31431597412E+01 0.32171721155E+01 0.33514943160E+01
 0.35517532072E+01 0.38004319703E+01 0.40593054521E+01 0.42833174254E+01 0.44484528236E+01
 0.45148723393E+01 0.44472786049E+01 0.42790554879E+01 0.40520807796E+01 0.37943448380E+01
 0.33589033729E+01 0.33567872559E+01 0.33816252231E+01 0.34176953737E+01 0.34446115512E+01
 0.34461893091E+01 0.34202840525E+01 0.33811070234E+01 0.33514943160E+01 0.33514631834E+01
 0.33905514596E+01 0.34653421732E+01 0.35596334239E+01 0.36471292821E+01 0.36992561922E+01
 0.36974330026E+01 0.36428328541E+01 0.35559100525E+01 0.34654797094E+01 0.33956154987E+01
 0.35517055138E+01 0.37226592866E+01 0.38796526263E+01 0.39913287789E+01 0.40333428337E+01
 0.39959058889E+01 0.38865709892E+01 0.37279589018E+01 0.35517532072E+01 0.33905514596E+01
 0.32692746032E+01 0.31981452143E+01 0.31700802757E+01 0.31656907227E+01 0.31656854358E+01
 0.31636650422E+01 0.31697161314E+01 0.32023987642E+01 0.32766305521E+01 0.33961081093E+01
 0.41449942410E+01 0.44620723402E+01 0.47508526194E+01 0.49446837986E+01 0.49449229163E+01
 0.47530101889E+01 0.44679869848E+01 0.41530152858E+01 0.38004319703E+01 0.34653421732E+01
 0.31981452143E+01 0.30181689320E+01 0.29160898850E+01 0.28717650290E+01 0.28718089064E+01
 0.29173201157E+01 0.30217357920E+01 0.32020776074E+01 0.34654797094E+01 0.37949927682E+01
 0.54247899198E+01 0.65046546218E+01 0.74556045904E+01 0.78320199701E+01 0.74495178135E+01
 0.64985195061E+01 0.54245166622E+01 0.46158072811E+01 0.40593054521E+01 0.35596334239E+01
 0.31700802757E+01 0.29160898850E+01 0.27811793684E+01 0.27402337588E+01 0.27824703591E+01
 0.29177538997E+01 0.31699470692E+01 0.35555740794E+01 0.40520807796E+01 0.46099664252E+01
 0.10059540137E+02 0.12909501199E+02 0.14684873954E+02 0.14681087216E+02 0.12900293033E+02
 0.10049927222E+02 0.72118342350E+01 0.52569311991E+01 0.42833174254E+01 0.36471292821E+01
 0.31656907227E+01 0.28717650290E+01 0.27402337588E+01 0.27406395952E+01 0.28720506948E+01
 0.31641330875E+01 0.36433920270E+01 0.42795858727E+01 0.52567227000E+01 0.72172489853E+01
 0.21233433008E+02 0.26017483358E+02 0.27821179769E+02 0.26019389854E+02 0.21233287896E+02
 0.15097788993E+02 0.95762747451E+01 0.60178868205E+01 0.44484528236E+01 0.36992561922E+01
 0.31656854358E+01 0.28718089064E+01 0.27824703591E+01 0.28720506948E+01 0.31647151477E+01
 0.36972845314E+01 0.44485032427E+01 0.60223988624E+01 0.95833595331E+01 0.15102607966E+02
 0.40162602938E+02 0.45819266180E+02 0.45825677846E+02 0.40176376992E+02 0.30660464282E+02
 0.20197187084E+02 0.11646518901E+02 0.65535776937E+01 0.45148723393E+01 0.36974330026E+01
 0.31636650422E+01 0.29173201157E+01 0.29177538997E+01 0.31641330875E+01 0.36972845314E+01
 0.45158101313E+01 0.65574576607E+01 0.11650912895E+02 0.20195791010E+02 0.30650071270E+02
 0.64952899739E+02 0.69224123726E+02 0.64963548272E+02 0.53480248919E+02 0.38217556380E+02
 0.23425417511E+02 0.12474251166E+02 0.65557335248E+01 0.44472786049E+01 0.36428328541E+01
 0.31697161314E+01 0.30217357920E+01 0.31699470692E+01 0.36433920270E+01 0.44485032427E+01
 0.65574576607E+01 0.12474490288E+02 0.23420718462E+02 0.38206159702E+02 0.53465432813E+02
 0.90515032430E+02 0.90516394257E+02 0.79796826474E+02 0.61600976182E+02 0.41113267538E+02
 0.23424171483E+02 0.11651506006E+02 0.60215012433E+01 0.42790554879E+01 0.35559100525E+01
 0.32023987642E+01 0.32020776074E+01 0.35555740794E+01 0.42795858727E+01 0.60223988624E+01
 0.11650912895E+02 0.23420718462E+02 0.41107587344E+02 0.61595195464E+02 0.79792856631E+02
 0.10995453009E+03 0.10329897052E+03 0.85406579242E+02 0.61595195464E+02 0.38206159702E+02
 0.20195791010E+02 0.95833595331E+01 0.52567227000E+01 0.40520807796E+01 0.34654797094E+01
 0.32766305521E+01 0.34654797094E+01 0.40520807796E+01 0.52567227000E+01 0.95833595331E+01
 0.20195791010E+02 0.38206159702E+02 0.61595195464E+02 0.85406579242E+02 0.10329897052E+03
 0.11724347884E+03 0.10330861628E+03 0.79799856116E+02 0.53465969446E+02 0.30646777340E+02
 0.15100063200E+02 0.72168538761E+01 0.46100281481E+01 0.37943448380E+01 0.33956154987E+01
 0.33961081093E+01 0.37949927682E+01 0.46099664252E+01 0.72172489853E+01 0.15102607966E+02
 0.30650071270E+02 0.53465432813E+02 0.79792856631E+02 0.10329897052E+03 0.11723893461E+03
 0.79371286122E+02 0.60727085306E+02 0.40160872089E+02 0.22776404276E+02 0.11396564067E+02
 0.59973180150E+01 0.43204831226E+01 0.36160077573E+01 0.32705425229E+01 0.32705680622E+01
 0.36155479428E+01 0.43192042990E+01 0.59966970525E+01 0.11398612243E+02 0.22780569701E+02
 0.40163584876E+02 0.60725508675E+02 0.79367010677E+02 0.90515032430E+02 0.90517308214E+02
 0.60727085306E+02 0.42841601322E+02 0.26009643667E+02 0.13771554049E+02 0.71099238345E+01
 0.46614874892E+01 0.38269325472E+01 0.33410955467E+01 0.31884974523E+01 0.33416606211E+01
 0.38261209413E+01 0.46587915111E+01 0.71080525683E+01 0.13773682950E+02 0.26015488355E+02
 0.42847507944E+02 0.60730077409E+02 0.74567365173E+02 0.79792856631E+02 0.74566848664E+02
 0.40160872089E+02 0.26009643667E+02 0.14679693622E+02 0.78362794974E+01 0.49494274140E+01
 0.39931133738E+01 0.34169009518E+01 0.31458953259E+01 0.31466438103E+01 0.34176953737E+01
 0.39913287789E+01 0.49446837986E+01 0.78320199701E+01 0.14681087216E+02 0.26019389854E+02
 0.40176376992E+02 0.53480248919E+02 0.61600976182E+02 0.61595195464E+02 0.53465969446E+02
 0.22776404276E+02 0.13771554049E+02 0.78362794974E+01 0.50660735006E+01 0.40839655199E+01
 0.34767826236E+01 0.31320123627E+01 0.30270242765E+01 0.31329064695E+01 0.34775159653E+01
 0.40821260305E+01 0.50599629840E+01 0.78288314280E+01 0.13770637664E+02 0.22788174633E+02
 0.32966588776E+02 0.41124087092E+02 0.44249220119E+02 0.41107587344E+02 0.32945810628E+02
 0.11396564067E+02 0.71099238345E+01 0.49494274140E+01 0.40839655199E+01 0.34994962989E+01
 0.31309468682E+01 0.29666524054E+01 0.29668177514E+01 0.31320908919E+01 0.35014707452E+01
 0.40835703405E+01 0.49435155556E+01 0.71011482367E+01 0.11393089884E+02 0.17401651233E+02
 0.23433082159E+02 0.27241393080E+02 0.27235254491E+02 0.23420718462E+02 0.17394645621E+02
 0.59973180150E+01 0.46614874892E+01 0.39931133738E+01 0.34767826236E+01 0.31309468682E+01
 0.29486677173E+01 0.28936433305E+01 0.29484932074E+01 0.31324599049E+01 0.34802653229E+01
 0.39955565250E+01 0.46595887570E+01 0.59915593504E+01 0.84616275759E+01 0.11648422175E+02
 0.14400048876E+02 0.15491527009E+02 0.14400136478E+02 0.11650912895E+02 0.84672710174E+01
 0.43204831226E+01 0.38269325472E+01 0.34169009518E+01 0.31320123627E+01 0.29666524054E+01
 0.28936433305E+01 0.28928255136E+01 0.29653140005E+01 0.31324462594E+01 0.34203211653E+01
 0.38319840634E+01 0.43239187206E+01 0.49719950760E+01 0.60174605708E+01 0.72407203408E+01
 0.80836852193E+01 0.80862070903E+01 0.72464759418E+01 0.60223988624E+01 0.49728498269E+01
 0.36160077573E+01 0.33410955467E+01 0.31458953259E+01 0.30270242765E+01 0.29668177514E+01
 0.29484932074E+01 0.29653140005E+01 0.30240845720E+01 0.31430171011E+01 0.33410470071E+01
 0.36201010337E+01 0.39519038034E+01 0.42832470923E+01 0.46058599847E+01 0.49012819554E+01
 0.50277551604E+01 0.49030927412E+01 0.46061497441E+01 0.42795858727E+01 0.39459661726E+01
 0.32705425229E+01 0.31884974523E+01 0.31466438103E+01 0.31329064695E+01 0.31320908919E+01
 0.31324599049E+01 0.31324462594E+01 0.31430171011E+01 0.31824875267E+01 0.32661484805E+01
 0.33966450395E+01 0.35598766203E+01 0.37277563492E+01 0.38660752644E+01 0.39441451222E+01
 0.39433936556E+01 0.38633362070E+01 0.37230324307E+01 0.35555740794E+01 0.33962604293E+01
 0.32705680622E+01 0.33416606211E+01 0.34176953737E+01 0.34775159653E+01 0.35014707452E+01
 0.34802653229E+01 0.34203211653E+01 0.33410470071E+01 0.32661484805E+01 0.32151073354E+01
 0.31982971943E+01 0.32147031339E+01 0.32513030127E+01 0.32865695982E+01 0.33001170227E+01
 0.32842785619E+01 0.32488700516E+01 0.32148312718E+01 0.32020776074E+01 0.32208898980E+01
 0.36155479428E+01 0.38261209413E+01 0.39913287789E+01 0.40821260305E+01 0.40835703405E+01
 0.39955565250E+01 0.38319840634E+01 0.36201010337E+01 0.33966450395E+01 0.31982971943E+01
 0.30499865460E+01 0.29578788560E+01 0.29114072392E+01 0.28934263608E+01 0.28926651942E+01
 0.29107944332E+01 0.29601370975E+01 0.30549592893E+01 0.32023987642E+01 0.33964103422E+01
 0.43192042990E+01 0.46587915111E+01 0.49446837986E+01 0.50599629840E+01 0.49435155556E+01
 0.46595887570E+01 0.43239187206E+01 0.39519038034E+01 0.35598766203E+01 0.32147031339E+01
 0.29578788560E+01 0.27949293893E+01 0.27092251464E+01 0.26828689129E+01 0.27094654057E+01
 0.27963705814E+01 0.29600256493E+01 0.32148312718E+01 0.35559100525E+01 0.39454803273E+01
 0.59966970525E+01 0.71080525683E+01 0.78320199701E+01 0.78288314280E+01 0.71011482367E+01
 0.59915593504E+01 0.49719950760E+01 0.42832470923E+01 0.37277563492E+01 0.32513030127E+01
 0.29114072392E+01 0.27092251464E+01 0.26188079286E+01 0.26191941618E+01 0.27099279998E+01
 0.29111490680E+01 0.32487261984E+01 0.37230324307E+01 0.42790554879E+01 0.49719472797E+01
 0.11398612243E+02 0.13773682950E+02 0.14681087216E+02 0.13770637664E+02 0.11393089884E+02
 0.84616275759E+01 0.60174605708E+01 0.46058599847E+01 0.38660752644E+01 0.32865695982E+01
 0.28934263608E+01 0.26828689129E+01 0.26191941618E+01 0.26834412798E+01 0.28929774843E+01
 0.32843203597E+01 0.38637031402E+01 0.46061497441E+01 0.60215012433E+01 0.84677842675E+01
 0.22780569701E+02 0.26015488355E+02 0.26019389854E+02 0.22788174633E+02 0.17401651233E+02
 0.11648422175E+02 0.72407203408E+01 0.49012819554E+01 0.39441451222E+01 0.33001170227E+01
 0.28926651942E+01 0.27094654057E+01 0.27099279998E+01 0.28929774843E+01 0.32992063962E+01
 0.39437935804E+01 0.49043854218E+01 0.72464759418E+01 0.11651506006E+02 0.17397970716E+02
 0.40163584876E+02 0.42847507944E+02 0.40176376992E+02 0.32966588776E+02 0.23433082159E+02
 0.14400048876E+02 0.80836852193E+01 0.50277551604E+01 0.39433936556E+01 0.32842785619E+01
 0.29107944332E+01 0.27963705814E+01 0.29111490680E+01 0.32843203597E+01 0.39437935804E+01
 0.50302911211E+01 0.80875990466E+01 0.14400136478E+02 0.23424171483E+02 0.32950707795E+02
 0.60725508675E+02 0.60730077409E+02 0.53480248919E+02 0.41124087092E+02 0.27241393080E+02
 0.15491527009E+02 0.80862070903E+01 0.49030927412E+01 0.38633362070E+01 0.32488700516E+01
 0.29601370975E+01 0.29600256493E+01 0.32487261984E+01 0.38637031402E+01 0.49043854218E+01
 0.80875990466E+01 0.15490462672E+02 0.27235254491E+02 0.41113267538E+02 0.53469436269E+02
 0.79367010677E+02 0.74567365173E+02 0.61600976182E+02 0.44249220119E+02 0.27235254491E+02
 0.14400136478E+02 0.72464759418E+01 0.46061497441E+01 0.37230324307E+01 0.32148312718E+01
 0.30549592893E+01 0.32148312718E+01 0.37230324307E+01 0.46061497441E+01 0.72464759418E+01
 0.14400136478E+02 0.27235254491E+02 0.44249220119E+02 0.61600976182E+02 0.74567365173E+02
 0.90515032430E+02 0.79792856631E+02 0.61595195464E+02 0.41107587344E+02 0.23420718462E+02
 0.11650912895E+02 0.60223988624E+01 0.42795858727E+01 0.35555740794E+01 0.32020776074E+01
 0.32023987642E+01 0.35559100525E+01 0.42790554879E+01 0.60215012433E+01 0.11651506006E+02
 0.23424171483E+02 0.41113267538E+02 0.61600976182E+02 0.79796826474E+02 0.90516394257E+02
 0.90517308214E+02 0.74566848664E+02 0.53465969446E+02 0.32945810628E+02 0.17394645621E+02
 0.84672710174E+01 0.49728498269E+01 0.39459661726E+01 0.33962604293E+01 0.32208898980E+01
 0.33964103422E+01 0.39454803273E+01 0.49719472797E+01 0.84677842675E+01 0.17397970716E+02
 0.32950707795E+02 0.53469436269E+02 0.74567365173E+02 0.90516394257E+02 0.96466611594E+02
 0.49486633095E+02 0.34921725543E+02 0.21226851583E+02 0.11396564067E+02 0.62345897803E+01
 0.44233704755E+01 0.36724046320E+01 0.32284810479E+01 0.30902868209E+01 0.32287885179E+01
 0.36721574982E+01 0.44216326505E+01 0.62314952553E+01 0.11393881337E+02 0.21227083872E+02
 0.34926018979E+02 0.49493218639E+02 0.60725508675E+02 0.64952899739E+02 0.60720577830E+02
 0.34921725543E+02 0.22665049546E+02 0.12903040300E+02 0.71099238345E+01 0.47431628285E+01
 0.38897473052E+01 0.33453089844E+01 0.30919170786E+01 0.30925563166E+01 0.33463389315E+01