   1   1   0   0
  0.1026591E+02  0.2439518E-09  0.2439518E-09  0.2439518E-09  0.5000000E-15
  1.000000000000000E-004
  CAR 
 fcc Ni                                  
     58.29333245     -1.86189761  301     10.21620211      1.00000000
     -1.862  0.0000E+00  0.0000E+00  0.0000E+00  0.0000E+00
     -1.661  0.0000E+00  0.0000E+00  0.0000E+00  0.0000E+00
     -1.461  0.0000E+00  0.0000E+00  0.0000E+00  0.0000E+00
     -1.260  0.0000E+00  0.0000E+00  0.0000E+00  0.0000E+00
     -1.060  0.0000E+00  0.0000E+00  0.0000E+00  0.0000E+00
     -0.859 -0.4858E-35 -0.6703E-34 -0.9742E-36 -0.1344E-34
     -0.659 -0.7404E-28 -0.7527E-27 -0.1485E-28 -0.1509E-27
     -0.458 -0.1487E-21 -0.1113E-20 -0.2981E-22 -0.2231E-21
     -0.258 -0.3800E-16 -0.2086E-15 -0.7619E-17 -0.4183E-16
     -0.057 -0.1280E-11 -0.5159E-11 -0.2566E-12 -0.1034E-11
      0.143 -0.5459E-08 -0.1606E-07 -0.1095E-08 -0.3221E-08
      0.344 -0.2803E-05 -0.5937E-05 -0.5630E-06 -0.1194E-05
      0.544 -0.1455E-03 -0.2084E-03 -0.2974E-04 -0.4298E-04
      0.745  0.1272E-03  0.6027E-03 -0.4235E-05  0.7787E-04
      0.945  0.5702E-02  0.6671E-02  0.1139E-02  0.1416E-02
      1.146  0.1533E-01  0.1751E-01  0.4214E-02  0.4926E-02
      1.346  0.2303E-01  0.2269E-01  0.8832E-02  0.9476E-02
      1.547  0.2330E-01  0.2360E-01  0.1350E-01  0.1421E-01
      1.747  0.2916E-01  0.3037E-01  0.1935E-01  0.2030E-01
      1.948  0.4144E-01  0.4323E-01  0.2766E-01  0.2896E-01
      2.148  0.3975E-01  0.3630E-01  0.3563E-01  0.3624E-01
      2.349  0.2682E-01  0.2803E-01  0.4101E-01  0.4186E-01
      2.549  0.5016E-01  0.5229E-01  0.5107E-01  0.5235E-01
      2.750  0.7248E-01  0.7177E-01  0.6560E-01  0.6674E-01
      2.951  0.4161E-01  0.3754E-01  0.7394E-01  0.7427E-01
      3.151  0.4379E-01  0.4469E-01  0.8272E-01  0.8323E-01
      3.352  0.7831E-01  0.7654E-01  0.9843E-01  0.9858E-01
      3.552  0.6955E-01  0.6825E-01  0.1124E+00  0.1123E+00
      3.753  0.7516E-01  0.6936E-01  0.1274E+00  0.1262E+00
      3.953  0.8572E-01  0.8316E-01  0.1446E+00  0.1428E+00
      4.154  0.9759E-01  0.8692E-01  0.1642E+00  0.1603E+00
      4.354  0.8127E-01  0.7801E-01  0.1805E+00  0.1759E+00
      4.555  0.1273E+00  0.9752E-01  0.2060E+00  0.1955E+00
      4.755  0.1648E+00  0.1435E+00  0.2391E+00  0.2242E+00
      4.956  0.1569E+00  0.1264E+00  0.2705E+00  0.2496E+00
      5.156  0.2815E+00  0.1249E+00  0.3270E+00  0.2746E+00
      5.357  0.4764E+00  0.2010E+00  0.4225E+00  0.3149E+00
      5.557  0.5034E+00  0.3316E+00  0.5235E+00  0.3814E+00
      5.758  0.6002E+00  0.4058E+00  0.6438E+00  0.4628E+00
      5.958  0.7445E+00  0.4758E+00  0.7931E+00  0.5582E+00
      6.159  0.9176E+00  0.5113E+00  0.9771E+00  0.6607E+00
      6.359  0.9297E+00  0.4972E+00  0.1164E+01  0.7604E+00
      6.560  0.8157E+00  0.7378E+00  0.1327E+01  0.9083E+00
      6.760  0.7759E+00  0.8246E+00  0.1483E+01  0.1074E+01
      6.961  0.7919E+00  0.8145E+00  0.1641E+01  0.1237E+01
      7.161  0.9776E+00  0.7563E+00  0.1837E+01  0.1389E+01
      7.362  0.1121E+01  0.7416E+00  0.2062E+01  0.1537E+01
      7.562  0.1164E+01  0.7488E+00  0.2296E+01  0.1688E+01
      7.763  0.1461E+01  0.9541E+00  0.2589E+01  0.1879E+01
      7.963  0.1570E+01  0.1081E+01  0.2903E+01  0.2096E+01
      8.164  0.1163E+01  0.1131E+01  0.3137E+01  0.2322E+01
      8.364  0.8797E+00  0.1315E+01  0.3313E+01  0.2586E+01
      8.565  0.1009E+01  0.1349E+01  0.3515E+01  0.2857E+01
      8.766  0.1220E+01  0.1261E+01  0.3760E+01  0.3109E+01
      8.966  0.1289E+01  0.9739E+00  0.4018E+01  0.3305E+01
      9.167  0.1194E+01  0.9278E+00  0.4258E+01  0.3491E+01
      9.367  0.1208E+01  0.1143E+01  0.4500E+01  0.3720E+01
      9.568  0.1855E+01  0.1207E+01  0.4872E+01  0.3962E+01
      9.768  0.1600E+01  0.1096E+01  0.5193E+01  0.4182E+01
      9.969  0.3677E+00  0.9793E+00  0.5266E+01  0.4378E+01
     10.169  0.1878E+00  0.1201E+01  0.5304E+01  0.4619E+01
     10.370  0.8686E-01  0.1708E+01  0.5321E+01  0.4961E+01
     10.570  0.1949E+00  0.1279E+01  0.5361E+01  0.5218E+01
     10.771  0.1839E+00  0.4630E+00  0.5397E+01  0.5311E+01
     10.971  0.1261E+00  0.1049E+00  0.5423E+01  0.5332E+01
     11.172  0.1152E+00  0.1704E+00  0.5446E+01  0.5366E+01
     11.372  0.1398E+00  0.2297E+00  0.5474E+01  0.5412E+01
     11.573  0.1533E+00  0.1259E+00  0.5505E+01  0.5437E+01
     11.773  0.1287E+00  0.1288E+00  0.5530E+01  0.5463E+01
     11.974  0.1250E+00  0.1663E+00  0.5555E+01  0.5496E+01
     12.174  0.1138E+00  0.1745E+00  0.5578E+01  0.5531E+01
     12.375  0.1969E+00  0.1354E+00  0.5618E+01  0.5558E+01
     12.575  0.9494E-01  0.1186E+00  0.5637E+01  0.5582E+01
     12.776  0.7506E-01  0.1915E+00  0.5652E+01  0.5621E+01
     12.976  0.1435E+00  0.1115E+00  0.5681E+01  0.5643E+01
     13.177  0.8002E-01  0.9751E-01  0.5697E+01  0.5662E+01
     13.377  0.1599E+00  0.1148E+00  0.5729E+01  0.5685E+01
     13.578  0.1399E+00  0.1373E+00  0.5757E+01  0.5713E+01
     13.778  0.1382E+00  0.1675E+00  0.5784E+01  0.5747E+01
     13.979  0.9079E-01  0.1169E+00  0.5803E+01  0.5770E+01
     14.179  0.2516E-01  0.1250E+00  0.5808E+01  0.5795E+01
     14.380  0.7222E-01  0.6217E-01  0.5822E+01  0.5808E+01
     14.581  0.1111E+00  0.3909E-01  0.5845E+01  0.5815E+01
     14.781  0.1420E+00  0.1181E+00  0.5873E+01  0.5839E+01
     14.982  0.1168E+00  0.1267E+00  0.5896E+01  0.5865E+01
     15.182  0.6571E-01  0.1278E+00  0.5910E+01  0.5890E+01
     15.383  0.9943E-02  0.9585E-01  0.5912E+01  0.5909E+01
     15.583  0.8137E-01  0.3556E-02  0.5928E+01  0.5910E+01
     15.784  0.5590E-01  0.6518E-01  0.5939E+01  0.5923E+01
     15.984  0.5814E-01  0.7723E-01  0.5951E+01  0.5939E+01
     16.185  0.6483E-01  0.5801E-01  0.5964E+01  0.5950E+01
     16.385  0.7832E-01  0.6106E-01  0.5979E+01  0.5963E+01
     16.586  0.1020E+00  0.6289E-01  0.6000E+01  0.5975E+01
     16.786  0.1420E+00  0.3320E-01  0.6028E+01  0.5982E+01
     16.987  0.1034E+00  0.1527E+00  0.6049E+01  0.6012E+01
     17.187  0.1949E+00  0.1199E+00  0.6088E+01  0.6036E+01
     17.388  0.2068E+00  0.1697E+00  0.6130E+01  0.6070E+01
     17.588  0.7796E-01  0.2381E+00  0.6145E+01  0.6118E+01
     17.789  0.1336E+00  0.1131E+00  0.6172E+01  0.6141E+01
     17.989  0.1130E+00  0.1229E+00  0.6195E+01  0.6166E+01
     18.190  0.1485E+00  0.1185E+00  0.6225E+01  0.6189E+01
     18.390  0.1350E+00  0.1440E+00  0.6252E+01  0.6218E+01
     18.591  0.1148E+00  0.1494E+00  0.6275E+01  0.6248E+01
     18.791  0.1377E+00  0.1237E+00  0.6302E+01  0.6273E+01
     18.992  0.7167E-01  0.1375E+00  0.6317E+01  0.6301E+01
     19.192  0.9471E-01  0.7815E-01  0.6336E+01  0.6316E+01
     19.393  0.1393E+00  0.8787E-01  0.6364E+01  0.6334E+01
     19.593  0.1045E+00  0.1343E+00  0.6384E+01  0.6361E+01
     19.794  0.9743E-01  0.1222E+00  0.6404E+01  0.6385E+01
     19.995  0.8360E-01  0.9152E-01  0.6421E+01  0.6404E+01
     20.195  0.1504E+00  0.9555E-01  0.6451E+01  0.6423E+01
     20.396  0.1778E+00  0.1429E+00  0.6487E+01  0.6451E+01
     20.596  0.1472E+00  0.1597E+00  0.6516E+01  0.6483E+01
     20.797  0.1269E+00  0.1690E+00  0.6542E+01  0.6517E+01
     20.997  0.1660E+00  0.1293E+00  0.6575E+01  0.6543E+01
     21.198  0.2275E+00  0.1684E+00  0.6620E+01  0.6577E+01
     21.398  0.1223E+00  0.2342E+00  0.6645E+01  0.6624E+01
     21.599  0.7388E-01  0.1104E+00  0.6660E+01  0.6646E+01
     21.799  0.1786E+00  0.9474E-01  0.6696E+01  0.6665E+01
     22.000  0.2531E+00  0.2032E+00  0.6746E+01  0.6706E+01
     22.200  0.1743E+00  0.2452E+00  0.6781E+01  0.6755E+01
     22.401  0.1004E+00  0.1481E+00  0.6801E+01  0.6785E+01
     22.601  0.2675E+00  0.1291E+00  0.6855E+01  0.6811E+01
     22.802  0.2263E+00  0.2938E+00  0.6900E+01  0.6870E+01
     23.002  0.1472E+00  0.2010E+00  0.6930E+01  0.6910E+01
     23.203  0.9434E-01  0.1226E+00  0.6949E+01  0.6934E+01
     23.403  0.1308E+00  0.1097E+00  0.6975E+01  0.6956E+01
     23.604  0.2155E+00  0.1737E+00  0.7018E+01  0.6991E+01
     23.804  0.2483E+00  0.2254E+00  0.7068E+01  0.7036E+01
     24.005  0.1716E+00  0.2407E+00  0.7103E+01  0.7085E+01
     24.205  0.1460E+00  0.1364E+00  0.7132E+01  0.7112E+01
     24.406  0.1500E+00  0.1625E+00  0.7162E+01  0.7145E+01
     24.606  0.2047E+00  0.1584E+00  0.7203E+01  0.7176E+01
     24.807  0.2843E+00  0.2524E+00  0.7260E+01  0.7227E+01
     25.007  0.2059E+00  0.2744E+00  0.7301E+01  0.7282E+01
     25.208  0.8312E-01  0.1467E+00  0.7318E+01  0.7311E+01
     25.408  0.1545E+00  0.9569E-01  0.7349E+01  0.7331E+01
     25.609  0.3034E+00  0.2355E+00  0.7410E+01  0.7378E+01
     25.810  0.2820E+00  0.3167E+00  0.7466E+01  0.7441E+01
     26.010  0.2429E+00  0.2580E+00  0.7515E+01  0.7493E+01
     26.211  0.1236E+00  0.1942E+00  0.7540E+01  0.7532E+01
     26.411  0.8791E-01  0.7696E-01  0.7557E+01  0.7547E+01
     26.612  0.2661E+00  0.1856E+00  0.7611E+01  0.7585E+01
     26.812  0.2633E+00  0.2921E+00  0.7664E+01  0.7643E+01
     27.013  0.2188E+00  0.2396E+00  0.7707E+01  0.7691E+01
     27.213  0.1622E+00  0.1833E+00  0.7740E+01  0.7728E+01
     27.414  0.1653E+00  0.1326E+00  0.7773E+01  0.7755E+01
     27.614  0.2059E+00  0.2220E+00  0.7814E+01  0.7799E+01
     27.815  0.1385E+00  0.1540E+00  0.7842E+01  0.7830E+01
     28.015  0.1918E+00  0.1614E+00  0.7881E+01  0.7862E+01
     28.216  0.2433E+00  0.2392E+00  0.7929E+01  0.7910E+01
     28.416  0.2345E+00  0.2485E+00  0.7976E+01  0.7960E+01
     28.617  0.2093E+00  0.2169E+00  0.8018E+01  0.8004E+01
     28.817  0.1496E+00  0.1710E+00  0.8048E+01  0.8038E+01
     29.018  0.9940E-01  0.1102E+00  0.8068E+01  0.8060E+01
     29.218  0.1974E+00  0.1496E+00  0.8108E+01  0.8090E+01
     29.419  0.2161E+00  0.2551E+00  0.8151E+01  0.8141E+01
     29.619  0.7298E-01  0.9825E-01  0.8166E+01  0.8161E+01
     29.820  0.8662E-01  0.8022E-01  0.8183E+01  0.8177E+01
     30.020  0.2022E+00  0.1571E+00  0.8224E+01  0.8208E+01
     30.221  0.2102E+00  0.2177E+00  0.8266E+01  0.8252E+01
     30.421  0.1976E+00  0.2142E+00  0.8305E+01  0.8295E+01
     30.622  0.1616E+00  0.1726E+00  0.8338E+01  0.8330E+01
     30.822  0.1480E+00  0.1575E+00  0.8368E+01  0.8361E+01
     31.023  0.1337E+00  0.1243E+00  0.8394E+01  0.8386E+01
     31.223  0.1238E+00  0.1190E+00  0.8419E+01  0.8410E+01
     31.424  0.1372E+00  0.1348E+00  0.8447E+01  0.8437E+01
     31.625  0.2499E+00  0.2511E+00  0.8497E+01  0.8487E+01
     31.825  0.1775E+00  0.1759E+00  0.8532E+01  0.8523E+01
     32.026  0.1007E+00  0.1187E+00  0.8553E+01  0.8546E+01
     32.226  0.1488E+00  0.1476E+00  0.8582E+01  0.8576E+01
     32.427  0.2208E+00  0.2098E+00  0.8627E+01  0.8618E+01
     32.627  0.2418E+00  0.2292E+00  0.8675E+01  0.8664E+01
     32.828  0.1972E+00  0.2041E+00  0.8715E+01  0.8705E+01
     33.028  0.2482E+00  0.2434E+00  0.8765E+01  0.8754E+01
     33.229  0.2145E+00  0.2145E+00  0.8808E+01  0.8797E+01
     33.429  0.2817E+00  0.2781E+00  0.8864E+01  0.8853E+01
     33.630  0.2640E+00  0.2829E+00  0.8917E+01  0.8909E+01
     33.830  0.1827E+00  0.2080E+00  0.8954E+01  0.8951E+01
     34.031  0.2128E+00  0.1777E+00  0.8996E+01  0.8987E+01
     34.231  0.2876E+00  0.2916E+00  0.9054E+01  0.9045E+01
     34.432  0.1085E+00  0.1461E+00  0.9076E+01  0.9075E+01
     34.632  0.2192E+00  0.1946E+00  0.9120E+01  0.9114E+01
     34.833  0.3011E+00  0.2864E+00  0.9180E+01  0.9171E+01
     35.033  0.3456E+00  0.3153E+00  0.9249E+01  0.9234E+01
     35.234  0.3347E+00  0.3582E+00  0.9316E+01  0.9306E+01
     35.434  0.2057E+00  0.2201E+00  0.9358E+01  0.9350E+01
     35.635  0.2503E+00  0.2420E+00  0.9408E+01  0.9399E+01
     35.835  0.1938E+00  0.2064E+00  0.9447E+01  0.9440E+01
     36.036  0.1672E+00  0.1566E+00  0.9480E+01  0.9471E+01
     36.236  0.1826E+00  0.1765E+00  0.9517E+01  0.9507E+01
     36.437  0.3430E+00  0.3354E+00  0.9586E+01  0.9574E+01
     36.637  0.3048E+00  0.3024E+00  0.9647E+01  0.9635E+01
     36.838  0.3046E+00  0.2934E+00  0.9708E+01  0.9694E+01
     37.038  0.1959E+00  0.2256E+00  0.9747E+01  0.9739E+01
     37.239  0.1859E+00  0.2221E+00  0.9784E+01  0.9783E+01
     37.440  0.1518E+00  0.1361E+00  0.9815E+01  0.9811E+01
     37.640  0.1405E+00  0.1157E+00  0.9843E+01  0.9834E+01
     37.841  0.1421E+00  0.1880E+00  0.9872E+01  0.9872E+01
     38.041  0.1150E+00  0.1047E+00  0.9895E+01  0.9893E+01
     38.242  0.1524E+00  0.1209E+00  0.9925E+01  0.9917E+01
     38.442  0.2370E+00  0.2051E+00  0.9973E+01  0.9958E+01
     38.643  0.1837E+00  0.2339E+00  0.1001E+02  0.1000E+02
     38.843  0.1884E+00  0.1573E+00  0.1005E+02  0.1004E+02
     39.044  0.1927E+00  0.1809E+00  0.1009E+02  0.1007E+02
     39.244  0.1388E+00  0.1700E+00  0.1011E+02  0.1011E+02
     39.445  0.1061E+00  0.1179E+00  0.1014E+02  0.1013E+02
     39.645  0.8718E-01  0.4723E-01  0.1015E+02  0.1014E+02
     39.846  0.1246E+00  0.1586E+00  0.1018E+02  0.1017E+02
     40.046  0.1795E+00  0.2154E+00  0.1021E+02  0.1021E+02
     40.247  0.2377E+00  0.1950E+00  0.1026E+02  0.1025E+02
     40.447  0.1922E+00  0.1942E+00  0.1030E+02  0.1029E+02
     40.648  0.1782E+00  0.1772E+00  0.1034E+02  0.1033E+02
     40.848  0.2008E+00  0.1921E+00  0.1038E+02  0.1037E+02
     41.049  0.2782E+00  0.2375E+00  0.1043E+02  0.1041E+02
     41.249  0.3591E+00  0.3377E+00  0.1050E+02  0.1048E+02
     41.450  0.3809E+00  0.4046E+00  0.1058E+02  0.1056E+02
     41.650  0.2748E+00  0.3153E+00  0.1063E+02  0.1063E+02
     41.851  0.2827E+00  0.2949E+00  0.1069E+02  0.1069E+02
     42.051  0.2399E+00  0.2853E+00  0.1074E+02  0.1074E+02
     42.252  0.3022E+00  0.2268E+00  0.1080E+02  0.1079E+02
     42.452  0.2845E+00  0.2937E+00  0.1086E+02  0.1085E+02
     42.653  0.1364E+00  0.1542E+00  0.1088E+02  0.1088E+02
     42.853  0.2058E+00  0.2209E+00  0.1093E+02  0.1092E+02
     43.054  0.2218E+00  0.2340E+00  0.1097E+02  0.1097E+02
     43.255  0.1275E+00  0.1184E+00  0.1100E+02  0.1099E+02
     43.455  0.1404E+00  0.1263E+00  0.1102E+02  0.1102E+02
     43.656  0.2461E+00  0.2405E+00  0.1107E+02  0.1107E+02
     43.856  0.2134E+00  0.2414E+00  0.1112E+02  0.1112E+02
     44.057  0.1923E+00  0.1783E+00  0.1115E+02  0.1115E+02
     44.257  0.2033E+00  0.2167E+00  0.1120E+02  0.1119E+02
     44.458  0.2121E+00  0.2164E+00  0.1124E+02  0.1124E+02
     44.658  0.1139E+00  0.1070E+00  0.1126E+02  0.1126E+02
     44.859  0.1119E+00  0.9586E-01  0.1128E+02  0.1128E+02
     45.059  0.2493E+00  0.2504E+00  0.1133E+02  0.1133E+02
     45.260  0.1727E+00  0.1875E+00  0.1137E+02  0.1137E+02
     45.460  0.8898E-01  0.9156E-01  0.1139E+02  0.1138E+02
     45.661  0.6466E-01  0.5064E-01  0.1140E+02  0.1139E+02
     45.861  0.1941E+00  0.1661E+00  0.1144E+02  0.1143E+02
     46.062  0.1079E+00  0.1568E+00  0.1146E+02  0.1146E+02
     46.262  0.2138E+00  0.2016E+00  0.1150E+02  0.1150E+02
     46.463  0.3028E+00  0.3044E+00  0.1156E+02  0.1156E+02
     46.663  0.2299E+00  0.2320E+00  0.1161E+02  0.1161E+02
     46.864  0.7941E-01  0.9560E-01  0.1163E+02  0.1163E+02
     47.064  0.3308E-01  0.1851E-02  0.1163E+02  0.1163E+02
     47.265  0.1956E+00  0.1621E+00  0.1167E+02  0.1166E+02
     47.465  0.1584E+00  0.2204E+00  0.1170E+02  0.1170E+02
     47.666  0.3612E-01  0.3998E-01  0.1171E+02  0.1171E+02
     47.866  0.1496E+00  0.1480E+00  0.1174E+02  0.1174E+02
     48.067  0.1909E+00  0.1666E+00  0.1178E+02  0.1177E+02
     48.267  0.3229E-01  0.4895E-01  0.1178E+02  0.1178E+02
     48.468  0.2119E-01  0.3119E-01  0.1179E+02  0.1179E+02
     48.668  0.1090E+00  0.9572E-01  0.1181E+02  0.1181E+02
     48.869  0.7089E-01  0.7785E-01  0.1183E+02  0.1183E+02
     49.070  0.4072E-01  0.4249E-01  0.1183E+02  0.1183E+02
     49.270  0.8514E-01  0.8420E-01  0.1185E+02  0.1185E+02
     49.471  0.4878E-01  0.3684E-01  0.1186E+02  0.1186E+02
     49.671  0.9644E-01  0.1027E+00  0.1188E+02  0.1188E+02
     49.872  0.3680E-01  0.4256E-01  0.1189E+02  0.1189E+02
     50.072  0.4698E-01  0.5693E-01  0.1190E+02  0.1190E+02
     50.273  0.8460E-01  0.7735E-01  0.1191E+02  0.1191E+02
     50.473  0.1629E-01  0.8641E-02  0.1192E+02  0.1192E+02
     50.674  0.4223E-02  0.1167E-01  0.1192E+02  0.1192E+02
     50.874  0.2483E-01  0.2053E-01  0.1192E+02  0.1192E+02
     51.075  0.3069E-01  0.3050E-01  0.1193E+02  0.1193E+02
     51.275  0.4776E-01  0.4800E-01  0.1194E+02  0.1194E+02
     51.476  0.1217E-01  0.9313E-02  0.1194E+02  0.1194E+02
     51.676 -0.1840E-02 -0.1688E-02  0.1194E+02  0.1194E+02
     51.877 -0.8584E-03 -0.9090E-03  0.1194E+02  0.1194E+02
     52.077  0.4081E-02  0.5217E-02  0.1194E+02  0.1194E+02
     52.278  0.2027E-01  0.2023E-01  0.1194E+02  0.1194E+02
     52.478  0.2148E-01  0.2453E-01  0.1195E+02  0.1195E+02
     52.679  0.4013E-01  0.3761E-01  0.1196E+02  0.1196E+02
     52.879  0.2551E-01  0.2363E-01  0.1196E+02  0.1196E+02
     53.080  0.3601E-01  0.3676E-01  0.1197E+02  0.1197E+02
     53.280  0.7953E-02  0.1199E-01  0.1197E+02  0.1197E+02
     53.481  0.4255E-01  0.4348E-01  0.1198E+02  0.1198E+02
     53.681  0.1421E-01  0.8465E-02  0.1198E+02  0.1198E+02
     53.882 -0.1881E-02 -0.1583E-02  0.1198E+02  0.1198E+02
     54.082 -0.1002E-02 -0.1002E-02  0.1198E+02  0.1198E+02
     54.283  0.6424E-02  0.7978E-02  0.1198E+02  0.1198E+02
     54.484  0.2194E-01  0.2139E-01  0.1199E+02  0.1199E+02
     54.684  0.3171E-02  0.2139E-02  0.1199E+02  0.1199E+02
     54.885 -0.1261E-02 -0.1226E-02  0.1199E+02  0.1199E+02
     55.085  0.2144E-02  0.2769E-02  0.1199E+02  0.1199E+02
     55.286  0.2052E-01  0.2086E-01  0.1199E+02  0.1199E+02
     55.486  0.1522E-01  0.1545E-01  0.1200E+02  0.1200E+02
     55.687  0.2070E-01  0.2021E-01  0.1200E+02  0.1200E+02
     55.887  0.2473E-02  0.1769E-02  0.1200E+02  0.1200E+02
     56.088 -0.6169E-03 -0.5462E-03  0.1200E+02  0.1200E+02
     56.288 -0.1780E-04 -0.1357E-04  0.1200E+02  0.1200E+02
     56.489 -0.4817E-07 -0.3251E-07  0.1200E+02  0.1200E+02
     56.689 -0.1548E-10 -0.9294E-11  0.1200E+02  0.1200E+02
     56.890 -0.6245E-15 -0.3389E-15  0.1200E+02  0.1200E+02
     57.090  0.0000E+00  0.0000E+00  0.1200E+02  0.1200E+02
     57.291  0.0000E+00  0.0000E+00  0.1200E+02  0.1200E+02
     57.491  0.0000E+00  0.0000E+00  0.1200E+02  0.1200E+02
     57.692  0.0000E+00  0.0000E+00  0.1200E+02  0.1200E+02
     57.892  0.0000E+00  0.0000E+00  0.1200E+02  0.1200E+02
     58.093  0.0000E+00  0.0000E+00  0.1200E+02  0.1200E+02
     58.293  0.0000E+00  0.0000E+00  0.1200E+02  0.1200E+02
