    1    1    1    2
  0.1026591E+02  0.2439518E-09  0.2439518E-09  0.2439518E-09  0.5000000E-15
  1.000000000000000E-004
  CAR 
 fcc Ni                                  
     10    110     12
 
  0.5000000E-01  0.5000000E-01  0.5000000E-01  0.2000000E-02
    1        0.902677      0.872431   1.000000   1.000000
    2        7.613920      8.329033   1.000000   1.000000
    3        7.665689      8.385125   1.000000   1.000000
    4        7.665689      8.385125   1.000000   1.000000
    5        8.886469      9.506193   1.000000   1.000003
    6        8.886469      9.506193   1.000000   1.000003
    7       34.217448     34.094336   0.000000   0.000000
    8       37.372869     37.361802   0.000000   0.000000
    9       38.552364     38.547236   0.000000   0.000000
   10       38.552364     38.547236   0.000000   0.000000
   11       42.393192     42.458408   0.000000   0.000000
   12       42.393194     42.458411   0.000000   0.000000
 
  0.1500000E+00  0.5000000E-01  0.5000000E-01  0.6000000E-02
    1        1.438218      1.409281   1.000000   1.000000
    2        7.469531      8.167763   1.000000   1.000000
    3        7.776001      8.499949   1.000000   1.000000
    4        7.793126      8.510697   1.000000   1.000000
    5        8.780402      9.393463   1.000000   1.000000
    6        8.919335      9.543356   1.000000   1.000011
    7       32.186962     32.199530   0.000000   0.000000
    8       34.617254     34.603423   0.000000   0.000000
    9       37.338201     37.312327   0.000000   0.000000
   10       39.281190     39.279608   0.000000   0.000000
   11       41.962286     41.936559   0.000000   0.000000
   12       42.609147     42.660614   0.000000   0.000000
 
  0.2500000E+00  0.5000000E-01  0.5000000E-01  0.6000000E-02
    1        2.680003      2.664954   1.000000   1.000000
    2        7.265196      7.914365   1.000000   1.000000
    3        7.891709      8.578976   1.000000   1.000000
    4        7.924015      8.625021   1.000000   1.000000
    5        8.765003      9.403799   1.000000   1.000000
    6        9.049875      9.706317   1.000000   1.000926
    7       27.080719     27.191222   0.000000   0.000000
    8       33.483235     33.473773   0.000000   0.000000
    9       36.718227     36.696689   0.000000   0.000000
   10       38.784973     38.844105   0.000000   0.000000
   11       41.572419     41.542286   0.000000   0.000000
   12       42.045782     42.079916   0.000000   0.000000
 
  0.3500000E+00  0.5000000E-01  0.5000000E-01  0.6000000E-02
    1        4.197778      4.284522   1.000000   1.000000
    2        7.433932      7.931856   1.000000   1.000000
    3        7.800135      8.443022   1.000000   1.000000
    4        7.852604      8.499746   1.000000   1.000000
    5        9.075498      9.777284   1.000000   1.004057
    6        9.411999     10.108686   1.000000   0.890036
    7       22.084080     22.273351   0.000000   0.000000
    8       32.802206     32.776731   0.000000   0.000000
    9       35.583645     35.585160   0.000000   0.000000
   10       38.027813     38.136526   0.000000   0.000000
   11       39.710747     39.736116   0.000000   0.000000
   12       41.517817     41.527119   0.000000   0.000000
 
  0.4500000E+00  0.5000000E-01  0.5000000E-01  0.6000000E-02
    1        5.005539      5.344686   1.000000   1.000000
    2        7.655309      8.266428   1.000000   1.000000
    3        7.723092      8.346445   1.000000   1.000000
    4        8.545972      8.800883   1.000000   1.000000
    5        9.458250     10.196276   1.000001   0.583852
    6        9.974693     10.590367   1.035411  -0.011861
    7       17.947537     18.254451   0.000000   0.000000
    8       32.455642     32.384706   0.000000   0.000000
    9       34.886690     34.926896   0.000000   0.000000
   10       36.386790     36.479663   0.000000   0.000000
   11       39.270829     39.313108   0.000000   0.000000
   12       40.688797     40.716349   0.000000   0.000000
 
 -0.4500000E+00  0.5000000E-01  0.5000000E-01  0.6000000E-02
    1        5.118853      5.532708   1.000000   1.000000
    2        7.601458      8.204952   1.000000   1.000000
    3        7.688405      8.308694   1.000000   1.000000
    4        9.002978      9.326064   1.000000   1.000000
    5        9.633449     10.382385   1.000150   0.002461
    6       10.476639     10.866322  -0.034628  -0.000021
    7       16.409499     16.808158   0.000000   0.000000
    8       32.502914     32.396298   0.000000   0.000000
    9       35.063518     35.147404   0.000000   0.000000
   10       35.152946     35.231120   0.000000   0.000000
   11       39.887851     39.934666   0.000000   0.000000
   12       39.946103     39.975544   0.000000   0.000000
 
 -0.3500000E+00  0.5000000E-01  0.5000000E-01  0.6000000E-02
    1        4.848221      5.109191   1.000000   1.000000
    2        7.683368      8.270905   1.000000   1.000000
    3        7.773582      8.407590   1.000000   1.000000
    4        8.091026      8.435740   1.000000   1.000000
    5        9.514413     10.246431   1.000004   0.373698
    6        9.603758     10.266005   1.000066   0.296338
    7       19.173565     19.433848   0.000000   0.000000
    8       32.986023     32.877279   0.000000   0.000000
    9       34.548990     34.636598   0.000000   0.000000
   10       36.410123     36.511399   0.000000   0.000000
   11       39.778493     39.793898   0.000000   0.000000
   12       41.249024     41.284000   0.000000   0.000000
 
 -0.2500000E+00  0.5000000E-01  0.5000000E-01  0.6000000E-02
    1        3.716348      3.748511   1.000000   1.000000
    2        7.278415      7.848636   1.000000   1.000000
    3        7.844708      8.496282   1.000000   1.000000
    4        7.898775      8.565589   1.000000   1.000000
    5        9.021866      9.701983   1.000000   1.000838
    6        9.206233      9.896125   1.000000   1.023048
    7       23.682773     23.843548   0.000000   0.000000
    8       33.813823     33.721274   0.000000   0.000000
    9       34.772024     34.859697   0.000000   0.000000
   10       38.282611     38.382738   0.000000   0.000000
   11       40.081900     40.071403   0.000000   0.000000
   12       43.119354     43.136495   0.000000   0.000000
 
 -0.1500000E+00  0.5000000E-01  0.5000000E-01  0.6000000E-02
    1        2.202484      2.179311   1.000000   1.000000
    2        7.312736      7.983645   1.000000   1.000000
    3        7.887243      8.594588   1.000000   1.000000
    4        7.897197      8.607359   1.000000   1.000000
    5        8.743913      9.369578   1.000000   1.000000
    6        8.972623      9.610505   1.000000   1.000080
    7       28.841702     28.926646   0.000000   0.000000
    8       34.680938     34.597017   0.000000   0.000000
    9       35.587397     35.660935   0.000000   0.000000
   10       39.330900     39.322758   0.000000   0.000000
   11       40.874258     40.899920   0.000000   0.000000
   12       44.838120     44.832296   0.000000   0.000000
 
 -0.5000000E-01  0.5000000E-01  0.5000000E-01  0.6000000E-02
    1        1.172864      1.143052   1.000000   1.000000
    2        7.521323      8.228436   1.000000   1.000000
    3        7.737532      8.458740   1.000000   1.000000
    4        7.741501      8.462519   1.000000   1.000000
    5        8.798524      9.412519   1.000000   1.000000
    6        8.926127      9.547870   1.000000   1.000012
    7       33.492117     33.433583   0.000000   0.000000
    8       35.970009     35.944583   0.000000   0.000000
    9       36.910883     36.953492   0.000000   0.000000
   10       38.457773     38.431261   0.000000   0.000000
   11       42.451483     42.497108   0.000000   0.000000
   12       43.935645     43.949955   0.000000   0.000000
 
  0.1500000E+00  0.1500000E+00  0.5000000E-01  0.6000000E-02
    1        1.700538      1.672283   1.000000   1.000000
    2        7.336270      8.028882   1.000000   1.000000
    3        7.887186      8.610534   1.000000   1.000000
    4        7.890347      8.614715   1.000000   1.000000
    5        8.639532      9.243234   1.000000   1.000000
    6        9.003640      9.629164   1.000000   1.000134
    7       32.380743     32.393200   0.000000   0.000000
    8       34.603740     34.572121   0.000000   0.000000
    9       34.972141     35.039673   0.000000   0.000000
   10       37.049054     37.017245   0.000000   0.000000
   11       43.125883     43.260169   0.000000   0.000000
   12       44.486429     44.560865   0.000000   0.000000
 
  0.2500000E+00  0.1500000E+00  0.5000000E-01  0.1200000E-01
    1        2.694083      2.674581   1.000000   1.000000
    2        7.092823      7.759295   1.000000   1.000000
    3        7.972075      8.646237   1.000000   1.000000
    4        8.102969      8.829954   1.000000   1.000000
    5        8.577622      9.201366   1.000000   1.000000
    6        9.144253      9.792097   1.000000   1.005313
    7       29.199114     29.284144   0.000000   0.000000
    8       31.463207     31.509127   0.000000   0.000000
    9       35.268240     35.258451   0.000000   0.000000
   10       36.751702     36.740104   0.000000   0.000000
   11       41.285435     41.477019   0.000000   0.000000
   12       44.420436     44.392543   0.000000   0.000000
 
  0.3500000E+00  0.1500000E+00  0.5000000E-01  0.1200000E-01
    1        4.144785      4.183868   1.000000   1.000000
    2        6.979634      7.579170   1.000000   1.000000
    3        7.746603      8.365566   1.000000   1.000000
    4        8.133061      8.806755   1.000000   1.000000
    5        9.016336      9.688716   1.000000   1.000613
    6        9.526903     10.210701   1.000006   0.523270
    7       24.062532     24.212869   0.000000   0.000000
    8       30.622655     30.673618   0.000000   0.000000
    9       33.718647     33.725455   0.000000   0.000000
   10       36.297523     36.368990   0.000000   0.000000
   11       42.738972     42.804001   0.000000   0.000000
   12       42.999772     42.979626   0.000000   0.000000
 
  0.4500000E+00  0.1500000E+00  0.5000000E-01  0.1200000E-01
    1        5.208365      5.484129   1.000000   1.000000
    2        7.345580      7.773429   1.000000   1.000000
    3        7.602493      8.203891   1.000000   1.000000
    4        8.014571      8.651391   1.000000   1.000000
    5        9.495688     10.220438   1.000002   0.482080
    6       10.479334     11.040409  -0.034336  -0.000000
    7       19.492144     19.730024   0.000000   0.000000
    8       30.322381     30.349025   0.000000   0.000000
    9       32.111157     32.174512   0.000000   0.000000
   10       35.341653     35.389961   0.000000   0.000000
   11       41.879515     41.894331   0.000000   0.000000
   12       44.293469     44.288451   0.000000   0.000000
 
 -0.4500000E+00  0.1500000E+00  0.5000000E-01  0.1200000E-01
    1        5.449408      5.884313   1.000000   1.000000
    2        7.334883      7.839826   1.000000   1.000000
    3        7.918706      8.539914   1.000000   1.000000
    4        8.113215      8.589066   1.000000   1.000000
    5        9.604118     10.356024   1.000066   0.040438
    6       11.930308     12.248161  -0.000000  -0.000000
    7       16.529469     16.901584   0.000000   0.000000
    8       29.908320     29.925823   0.000000   0.000000
    9       31.703655     31.791962   0.000000   0.000000
   10       35.120278     35.135183   0.000000   0.000000
   11       41.196678     41.233592   0.000000   0.000000
   12       43.956899     43.951397   0.000000   0.000000
 
 -0.3500000E+00  0.1500000E+00  0.5000000E-01  0.1200000E-01
    1        5.361507      5.718246   1.000000   1.000000
    2        7.415826      7.912726   1.000000   1.000000
    3        7.806626      8.298095   1.000000   1.000000
    4        7.964275      8.579607   1.000000   1.000000
    5        9.395715     10.133570   1.000000   0.818751
    6       11.088663     11.580653  -0.000000  -0.000000
    7       18.226803     18.508190   0.000000   0.000000
    8       29.259461     29.309926   0.000000   0.000000
    9       32.830396     32.878137   0.000000   0.000000
   10       35.898224     35.919023   0.000000   0.000000
   11       40.822251     40.861159   0.000000   0.000000
   12       43.616431     43.612189   0.000000   0.000000
 
 -0.2500000E+00  0.1500000E+00  0.5000000E-01  0.1200000E-01
    1        4.617929      4.710865   1.000000   1.000000
    2        7.121224      7.673184   1.000000   1.000000
    3        7.651434      8.263058   1.000000   1.000000
    4        8.081310      8.726940   1.000000   1.000000
    5        8.943633      9.643444   1.000000   1.000196
    6        9.942521     10.610554   1.032862  -0.008749
    7       22.467861     22.644955   0.000000   0.000000
    8       29.187736     29.253855   0.000000   0.000000
    9       34.651931     34.658746   0.000000   0.000000
   10       37.591137     37.639789   0.000000   0.000000
   11       40.741503     40.753449   0.000000   0.000000
   12       42.882305     42.885675   0.000000   0.000000
 
 -0.1500000E+00  0.1500000E+00  0.5000000E-01  0.1200000E-01
    1        3.156438      3.146223   1.000000   1.000000
    2        7.087110      7.739786   1.000000   1.000000
    3        7.877343      8.530513   1.000000   1.000000
    4        8.133761      8.855475   1.000000   1.000000
    5        8.573927      9.193851   1.000000   1.000000
    6        9.316715      9.988250   1.000000   1.034212
    7       27.466492     27.575047   0.000000   0.000000
    8       29.773219     29.836378   0.000000   0.000000
    9       36.854478     36.832448   0.000000   0.000000
   10       38.386194     38.362354   0.000000   0.000000
   11       41.663329     41.673235   0.000000   0.000000
   12       42.254632     42.358433   0.000000   0.000000
 
 -0.5000000E-01  0.1500000E+00  0.5000000E-01  0.1200000E-01
    1        1.955906      1.929520   1.000000   1.000000
    2        7.318969      8.003136   1.000000   1.000000
    3        7.889960      8.598135   1.000000   1.000000
    4        7.903842      8.630096   1.000000   1.000000
    5        8.665283      9.274091   1.000000   1.000000
    6        9.006031      9.639645   1.000000   1.000177
    7       30.683650     30.740493   0.000000   0.000000
    8       33.025270     33.042533   0.000000   0.000000
    9       36.637015     36.615228   0.000000   0.000000
   10       38.782668     38.742457   0.000000   0.000000
   11       41.808364     41.856176   0.000000   0.000000
   12       43.815701     43.815345   0.000000   0.000000
 
  0.2500000E+00  0.2500000E+00  0.5000000E-01  0.6000000E-02
    1        3.366919      3.359999   1.000000   1.000000
    2        6.796678      7.449456   1.000000   1.000000
    3        8.135782      8.726382   1.000000   1.000000
    4        8.379207      9.116306   1.000000   1.000000
    5        8.550675      9.246985   1.000000   1.000000
    6        9.233133      9.872273   1.000000   1.017700
    7       29.671915     29.750049   0.000000   0.000000
    8       31.223180     31.301060   0.000000   0.000000
    9       32.166790     32.157226   0.000000   0.000000
   10       33.350648     33.383641   0.000000   0.000000
   11       38.307143     38.505239   0.000000   0.000000
   12       48.442376     48.380571   0.000000   0.000000
 
  0.3500000E+00  0.2500000E+00  0.5000000E-01  0.1200000E-01
    1        4.483336      4.534656   1.000000   1.000000
    2        6.552109      7.179366   1.000000   1.000000
    3        7.893414      8.458380   1.000000   1.000000
    4        8.644342      9.362445   1.000000   1.000000
    5        9.055389      9.709335   1.000000   1.000992
    6        9.548801     10.225090   1.000013   0.462433
    7       26.513489     26.620041   0.000000   0.000000
    8       28.554923     28.625022   0.000000   0.000000
    9       30.443836     30.506340   0.000000   0.000000
   10       33.992786     34.040729   0.000000   0.000000
   11       38.326308     38.466269   0.000000   0.000000
   12       47.981129     47.944582   0.000000   0.000000
 
  0.4500000E+00  0.2500000E+00  0.5000000E-01  0.1200000E-01
    1        5.501486      5.728214   1.000000   1.000000
    2        6.546207      7.098511   1.000000   1.000000
    3        7.612832      8.176602   1.000000   1.000000
    4        8.571142      9.234873   1.000000   1.000000
    5        9.557453     10.282369   1.000016   0.236286
    6       10.846723     11.375224  -0.000039  -0.000000
    7       21.727099     21.891158   0.000000   0.000000
    8       27.649247     27.721064   0.000000   0.000000
    9       28.649877     28.741155   0.000000   0.000000
   10       34.144210     34.201130   0.000000   0.000000
   11       41.698916     41.779408   0.000000   0.000000
   12       46.461415     46.461954   0.000000   0.000000
 
 -0.4500000E+00  0.2500000E+00  0.5000000E-01  0.1200000E-01
    1        5.924906      6.377977   1.000000   1.000000
    2        6.737122      7.158367   1.000000   1.000000
    3        7.565260      8.144909   1.000000   1.000000
    4        8.432144      9.066972   1.000000   1.000000
    5        9.620241     10.381632   1.000105   0.003329
    6       13.180739     13.508761  -0.000000  -0.000000
    7       17.724222     17.984621   0.000000   0.000000
    8       25.990220     26.091701   0.000000   0.000000
    9       28.982551     29.063244   0.000000   0.000000
   10       34.255348     34.292965   0.000000   0.000000
   11       44.327852     44.332148   0.000000   0.000000
   12       47.220229     47.287415   0.000000   0.000000
 
 -0.3500000E+00  0.2500000E+00  0.5000000E-01  0.1200000E-01
    1        6.050552      6.504093   1.000000   1.000000
    2        6.895533      7.318300   1.000000   1.000000
    3        7.433055      8.001041   1.000000   1.000000
    4        8.366863      8.983677   1.000000   1.000000
    5        9.357125     10.121477   1.000000   0.855269
    6       13.329766     13.670144  -0.000000  -0.000000
    7       17.736674     18.009348   0.000000   0.000000
    8       24.807994     24.923267   0.000000   0.000000
    9       30.348455     30.425045   0.000000   0.000000
   10       34.975643     34.996614   0.000000   0.000000
   11       43.477385     43.474746   0.000000   0.000000
   12       47.394961     47.368976   0.000000   0.000000
 
 -0.2500000E+00  0.2500000E+00  0.5000000E-01  0.1200000E-01
    1        5.739193      5.942179   1.000000   1.000000
    2        6.947127      7.521190   1.000000   1.000000
    3        7.241372      7.794064   1.000000   1.000000
    4        8.432748      9.029415   1.000000   1.000000
    5        8.886914      9.646909   1.000000   1.000215
    6       11.314975     11.871206  -0.000000  -0.000000
    7       21.728652     21.914442   0.000000   0.000000
    8       24.419615     24.538130   0.000000   0.000000
    9       32.363004     32.423010   0.000000   0.000000
   10       36.551446     36.574223   0.000000   0.000000
   11       42.081427     42.046243   0.000000   0.000000
   12       46.244582     46.238297   0.000000   0.000000
 
 -0.1500000E+00  0.2500000E+00  0.5000000E-01  0.1200000E-01
    1        4.557208      4.606165   1.000000   1.000000
    2        6.931423      7.549105   1.000000   1.000000
    3        7.627458      8.226689   1.000000   1.000000
    4        8.333863      8.974882   1.000000   1.000000
    5        8.629632      9.332773   1.000000   1.000000
    6       10.029451     10.698293   1.016816  -0.001711
    7       24.442543     24.591512   0.000000   0.000000
    8       26.856843     26.951214   0.000000   0.000000
    9       34.735737     34.760633   0.000000   0.000000
   10       38.580096     38.610193   0.000000   0.000000
   11       40.206479     40.175268   0.000000   0.000000
   12       44.101233     44.145146   0.000000   0.000000
 
 -0.5000000E-01  0.2500000E+00  0.5000000E-01  0.1200000E-01
    1        3.351586      3.354025   1.000000   1.000000
    2        7.150556      7.775872   1.000000   1.000000
    3        7.869211      8.523790   1.000000   1.000000
    4        7.999605      8.683793   1.000000   1.000000
    5        8.792062      9.452412   1.000000   1.000000
    6        9.256533      9.932619   1.000000   1.031099
    7       25.487189     25.620003   0.000000   0.000000
    8       32.026918     32.054389   0.000000   0.000000
    9       35.645837     35.629190   0.000000   0.000000
   10       38.743530     38.806558   0.000000   0.000000
   11       40.691097     40.690722   0.000000   0.000000
   12       42.603183     42.624793   0.000000   0.000000
 
  0.3500000E+00  0.3500000E+00  0.5000000E-01  0.6000000E-02
    1        4.957775      5.108625   1.000000   1.000000
    2        6.227038      6.841350   1.000000   1.000000
    3        8.538423      8.994512   1.000000   1.000000
    4        9.008465      9.757762   1.000000   1.002785
    5        9.395171     10.045500   1.000000   1.002499
    6        9.488925     10.157466   1.000002   0.737049
    7       26.760185     26.839024   0.000000   0.000000
    8       27.373472     27.465129   0.000000   0.000000
    9       28.129051     28.186747   0.000000   0.000000
   10       31.830406     31.925168   0.000000   0.000000
   11       35.934655     36.079812   0.000000   0.000000
   12       52.886888     52.906254   0.000000   0.000000
 
  0.4500000E+00  0.3500000E+00  0.5000000E-01  0.1200000E-01
    1        5.390400      5.667052   1.000000   1.000000
    2        6.081904      6.678115   1.000000   1.000000
    3        8.488209      9.036208   1.000000   1.000000
    4        9.242784      9.936301   1.000000   1.031790
    5        9.570350     10.294996   1.000024   0.193550
    6       10.998956     11.431920  -0.000000  -0.000000
    7       24.167625     24.280700   0.000000   0.000000
    8       24.784510     24.904003   0.000000   0.000000
    9       26.521896     26.585357   0.000000   0.000000
   10       32.900371     32.980733   0.000000   0.000000
   11       36.979444     37.101815   0.000000   0.000000
   12       51.193822     51.178700   0.000000   0.000000
 
 -0.4500000E+00  0.3500000E+00  0.5000000E-01  0.1200000E-01
    1        5.778583      6.157745   1.000000   1.000000
    2        6.180057      6.734738   1.000000   1.000000
    3        8.092462      8.666961   1.000000   1.000000
    4        9.057914      9.702971   1.000000   1.000857
    5        9.668966     10.452864   1.000378  -0.035178
    6       13.669916     13.959307  -0.000000  -0.000000
    7       20.163504     20.316176   0.000000   0.000000
    8       22.566304     22.732539   0.000000   0.000000
    9       26.806178     26.870628   0.000000   0.000000
   10       33.425166     33.498580   0.000000   0.000000
   11       40.988559     41.079714   0.000000   0.000000
   12       49.229252     49.214067   0.000000   0.000000
 
 -0.3500000E+00  0.3500000E+00  0.5000000E-01  0.1200000E-01
    1        6.194193      6.669174   1.000000   1.000000
    2        6.419601      6.879380   1.000000   1.000000
    3        7.582861      8.163768   1.000000   1.000000
    4        8.851466      9.458183   1.000000   1.000001
    5        9.450422     10.251691   1.000000   0.352424
    6       16.151901     16.378029   0.000000   0.000000
    7       17.227504     17.455030   0.000000   0.000000
    8       21.424567     21.605567   0.000000   0.000000
    9       28.103418     28.179120   0.000000   0.000000
   10       33.973989     34.024739   0.000000   0.000000
   11       46.196949     46.258375   0.000000   0.000000
   12       47.285713     47.266006   0.000000   0.000000
 
 -0.2500000E+00  0.3500000E+00  0.5000000E-01  0.1200000E-01
    1        6.309671      6.720581   1.000000   1.000000
    2        6.782307      7.234348   1.000000   1.000000
    3        7.164217      7.746858   1.000000   1.000000
    4        8.580738      9.176971   1.000000   1.000000
    5        9.184958      9.970092   1.000000   1.035453
    6       13.421186     13.792147  -0.000000  -0.000000
    7       19.295697     19.509738   0.000000   0.000000
    8       22.594339     22.740312   0.000000   0.000000
    9       30.119161     30.197616   0.000000   0.000000
   10       34.976804     35.004318   0.000000   0.000000
   11       44.453944     44.420575   0.000000   0.000000
   12       48.584228     48.542890   0.000000   0.000000
 
 -0.1500000E+00  0.3500000E+00  0.5000000E-01  0.1200000E-01
    1        5.564873      5.850878   1.000000   1.000000
    2        7.240733      7.676030   1.000000   1.000000
    3        7.353034      7.964318   1.000000   1.000000
    4        8.186132      8.806584   1.000000   1.000000
    5        9.145543      9.883147   1.000000   1.020084
    6       11.248142     11.783509  -0.000000  -0.000000
    7       19.855861     20.079378   0.000000   0.000000
    8       26.743696     26.835988   0.000000   0.000000
    9       32.509942     32.563970   0.000000   0.000000
   10       36.313232     36.330351   0.000000   0.000000
   11       41.518536     41.527052   0.000000   0.000000
   12       45.010087     44.998403   0.000000   0.000000
 
 -0.5000000E-01  0.3500000E+00  0.5000000E-01  0.1200000E-01
    1        4.719956      4.891212   1.000000   1.000000
    2        7.513330      7.946923   1.000000   1.000000
    3        7.680366      8.309970   1.000000   1.000000
    4        7.891564      8.531313   1.000000   1.000000
    5        9.252222      9.958737   1.000000   1.034904
    6        9.774984     10.445891   1.003886  -0.034465
    7       20.685964     20.901953   0.000000   0.000000
    8       31.556285     31.566423   0.000000   0.000000
    9       34.411085     34.414280   0.000000   0.000000
   10       36.757219     36.848040   0.000000   0.000000
   11       40.460190     40.477472   0.000000   0.000000
   12       42.302378     42.315353   0.000000   0.000000
 
  0.4500000E+00  0.4500000E+00  0.5000000E-01  0.6000000E-02
    1        5.266510      5.598604   1.000000   1.000000
    2        5.837980      6.427566   1.000000   1.000000
    3        9.433667     10.147281   1.000000   0.773318
    4        9.527104     10.209983   1.000006   0.526301
    5        9.695276     10.471893   1.000716  -0.035045
    6       11.621707     11.783264  -0.000000  -0.000000
    7       21.861654     22.056775   0.000000   0.000000
    8       25.348582     25.395931   0.000000   0.000000
    9       26.180091     26.206318   0.000000   0.000000
   10       31.329913     31.458614   0.000000   0.000000
   11       35.176689     35.315300   0.000000   0.000000
   12       55.217363     55.208061   0.000000   0.000000
 
 -0.4500000E+00  0.4500000E+00  0.5000000E-01  0.1200000E-01
    1        5.387726      5.750274   1.000000   1.000000
    2        5.847357      6.429904   1.000000   1.000000
    3        9.089339      9.752982   1.000000   1.002531
    4        9.517077     10.158336   1.000004   0.733858
    5        9.755738     10.577099   1.002675  -0.014260
    6       13.480282     13.620716  -0.000000  -0.000000
    7       20.303262     20.546090   0.000000   0.000000
    8       23.490311     23.567603   0.000000   0.000000
    9       25.380317     25.420958   0.000000   0.000000
   10       32.475921     32.575394   0.000000   0.000000
   11       36.560773     36.686186   0.000000   0.000000
   12       53.405705     53.375514   0.000000   0.000000
 
 -0.3500000E+00  0.4500000E+00  0.5000000E-01  0.1200000E-01
    1        5.751305      6.142855   1.000000   1.000000
    2        6.106601      6.666310   1.000000   1.000000
    3        8.266667      8.864175   1.000000   1.000000
    4        9.203270      9.827777   1.000000   1.009595
    5        9.647876     10.460468   1.000220  -0.035456
    6       15.052479     15.258345  -0.000000  -0.000000
    7       19.616132     19.778099   0.000000   0.000000
    8       20.912106     21.111046   0.000000   0.000000
    9       26.461860     26.521428   0.000000   0.000000
   10       33.308316     33.386586   0.000000   0.000000
   11       40.860519     40.954864   0.000000   0.000000
   12       50.198168     50.162968   0.000000   0.000000
 
 -0.2500000E+00  0.4500000E+00  0.5000000E-01  0.1200000E-01
    1        6.119524      6.612180   1.000000   1.000000
    2        6.517552      6.940952   1.000000   1.000000
    3        7.570616      8.150139   1.000000   1.000000
    4        8.670341      9.296189   1.000000   1.000000
    5        9.546899     10.325278   1.000012   0.106004
    6       14.874160     15.127324  -0.000000  -0.000000
    7       17.219463     17.479229   0.000000   0.000000
    8       23.419246     23.560059   0.000000   0.000000
    9       28.394593     28.471562   0.000000   0.000000
   10       34.054659     34.100281   0.000000   0.000000
   11       45.490629     45.500845   0.000000   0.000000
   12       47.149242     47.204235   0.000000   0.000000
 
 -0.1500000E+00  0.4500000E+00  0.5000000E-01  0.1200000E-01
    1        5.739269      6.195024   1.000000   1.000000
    2        7.100339      7.546872   1.000000   1.000000
    3        7.765755      8.300955   1.000000   1.000000
    4        8.124826      8.748206   1.000000   1.000000
    5        9.519864     10.276175   1.000005   0.258442
    6       12.891284     13.189054  -0.000000  -0.000000
    7       16.677477     17.024308   0.000000   0.000000
    8       27.390301     27.468011   0.000000   0.000000
    9       30.825287     30.900982   0.000000   0.000000
   10       35.006042     35.019270   0.000000   0.000000
   11       42.294136     42.315665   0.000000   0.000000
   12       45.812649     45.796872   0.000000   0.000000
 
 -0.5000000E-01  0.4500000E+00  0.5000000E-01  0.1200000E-01
    1        5.203452      5.600154   1.000000   1.000000
    2        7.532198      8.102830   1.000000   1.000000