       N       E                     dE             d eps       ncg     rms          rms(c)
DAV:   1     0.181818075531E+02    0.18182E+02   -0.29592E+03  5864   0.647E+02
DAV:   2    -0.536240263528E+01   -0.23544E+02   -0.21897E+02  5792   0.120E+02
DAV:   3    -0.578854491767E+01   -0.42614E+00   -0.42530E+00  5984   0.179E+01
DAV:   4    -0.579066196263E+01   -0.21170E-02   -0.21169E-02  6092   0.114E+00
DAV:   5    -0.579068786642E+01   -0.25904E-04   -0.25902E-04  5816   0.117E-01    0.146E+01
DAV:   6    -0.576078377973E+01    0.29904E-01   -0.12316E+01  6640   0.454E+01    0.562E+00
DAV:   7    -0.545667220420E+01    0.30411E+00   -0.24321E+00  6628   0.172E+01    0.176E+00
DAV:   8    -0.544488318759E+01    0.11789E-01   -0.16642E-02  5944   0.929E-01    0.956E-01
DAV:   9    -0.544158644437E+01    0.32967E-02   -0.20762E-03  6728   0.303E-01    0.418E-01
DAV:  10    -0.544075187000E+01    0.83457E-03   -0.11296E-03  4892   0.214E-01    0.506E-02
DAV:  11    -0.544076748465E+01   -0.15615E-04   -0.31886E-05  2904   0.454E-02
   1 F= -.54407675E+01 E0= -.54402455E+01  d E =-.156603E-02  mag=     0.6146
