 vasp.5.4.4.18Apr17-6-g9f103f2a35 (build Jul 01 2019 03:25:34) complex          
  
 executed on             LinuxIFC date 2020.07.09  19:35:30
 running on    4 total cores
 distrk:  each k-point on    4 cores,    1 groups
 distr:  one band on NCORES_PER_BAND=   1 cores,    4 groups


--------------------------------------------------------------------------------------------------------


 INCAR:
 POTCAR:    PAW_PBE Ni 02Aug2007                  
 POTCAR:    PAW_PBE Ni 02Aug2007                  
   VRHFIN =Ni:                                                                  
   LEXCH  = PE                                                                  
   EATOM  =  1077.6739 eV,   79.2068 Ry                                         
                                                                                
   TITEL  = PAW_PBE Ni 02Aug2007                                                
   LULTRA =        F    use ultrasoft PP ?                                      
   IUNSCR =        1    unscreen: 0-lin 1-nonlin 2-no                           
   RPACOR =    2.000    partial core radius                                     
   POMASS =   58.690; ZVAL   =   10.000    mass and valenz                      
   RCORE  =    2.300    outmost cutoff radius                                   
   RWIGS  =    2.430; RWIGS  =    1.286    wigner-seitz radius (au A)           
   ENMAX  =  269.532; ENMIN  =  202.149 eV                                      
   RCLOC  =    1.201    cutoff for local pot                                    
   LCOR   =        T    correct aug charges                                     
   LPAW   =        T    paw PP                                                  
   EAUG   =  544.565                                                            
   DEXC   =    0.000                                                            
   RMAX   =    2.357    core radius for proj-oper                               
   RAUG   =    1.300    factor for augmentation sphere                          
   RDEP   =    2.390    radius for radial grids                                 
   RDEPT  =    1.838    core radius for aug-charge                              
                                                                                
   Atomic configuration                                                         
    9 entries                                                                   
     n  l   j            E        occ.                                          
     1  0  0.50     -8206.4253   2.0000                                         
     2  0  0.50      -976.1748   2.0000                                         
     2  1  1.50      -839.0571   6.0000                                         
     3  0  0.50      -105.9991   2.0000                                         
     3  1  1.50       -66.4603   6.0000                                         
     3  2  2.50        -4.6458   9.0000                                         
     4  0  0.50        -4.4926   1.0000                                         
     4  1  1.50        -4.0817   0.0000                                         
     4  3  2.50        -1.3606   0.0000                                         
   Description                                                                  
     l       E           TYP  RCUT    TYP  RCUT                                 
     2     -4.6457903     23  2.300                                             
     2     -6.0063729     23  2.300                                             
     0     -4.4925590     23  2.300                                             
     0      5.0102601     23  2.300                                             
     1     -2.7211652     23  2.300                                             
     1     16.5183231     23  2.300                                             
  local pseudopotential read in
  partial core-charges read in
  partial kinetic energy density read in
  atomic valenz-charges read in
  non local Contribution for L=           2  read in
    real space projection operators read in
  non local Contribution for L=           2  read in
    real space projection operators read in
  non local Contribution for L=           0  read in
    real space projection operators read in
  non local Contribution for L=           0  read in
    real space projection operators read in
  non local Contribution for L=           1  read in
    real space projection operators read in
  non local Contribution for L=           1  read in
    real space projection operators read in
    PAW grid and wavefunctions read in
 
   number of l-projection  operators is LMAX  =           6
   number of lm-projection operators is LMMAX =          18
 
  PAW_PBE Ni 02Aug2007                  :
 energy of atom  1       EATOM=-1077.6739
 kinetic energy error for atom=    0.0378 (will be added to EATOM!!)
 
 
 POSCAR: FCC Ni Bulk                             
  positions in direct lattice
  No initial velocities read in
 exchange correlation table for  LEXCH =        8
   RHO(1)=    0.500       N(1)  =     2000
   RHO(2)=  100.500       N(2)  =     4000
 


--------------------------------------------------------------------------------------------------------


 ion  position               nearest neighbor table
   1  0.000  0.000  0.000-
 
  LATTYP: Found a face centered cubic cell.
 ALAT       =     3.4500000000
  
  Lattice vectors:
  
 A1 = (   0.0000000000,   1.7250000000,   1.7250000000)
 A2 = (   1.7250000000,   0.0000000000,   1.7250000000)
 A3 = (   1.7250000000,   1.7250000000,   0.0000000000)


Analysis of symmetry for initial positions (statically):
=====================================================================
 Subroutine PRICEL returns:
 Original cell was already a primitive cell.
 

 Routine SETGRP: Setting up the symmetry group for a 
 face centered cubic supercell.


 Subroutine GETGRP returns: Found 48 space group operations
 (whereof 48 operations were pure point group operations)
 out of a pool of 48 trial point group operations.


The static configuration has the point symmetry O_h .


Analysis of symmetry for dynamics (positions and initial velocities):
=====================================================================
 Subroutine PRICEL returns:
 Original cell was already a primitive cell.
 

 Routine SETGRP: Setting up the symmetry group for a 
 face centered cubic supercell.


 Subroutine GETGRP returns: Found 48 space group operations
 (whereof 48 operations were pure point group operations)
 out of a pool of 48 trial point group operations.


The dynamic configuration has the point symmetry O_h .


Analysis of structural, dynamic, and magnetic symmetry:
=====================================================================
 Subroutine PRICEL returns:
 Original cell was already a primitive cell.
 

 Routine SETGRP: Setting up the symmetry group for a 
 face centered cubic supercell.


 Subroutine GETGRP returns: Found 48 space group operations
 (whereof 48 operations were pure point group operations)
 out of a pool of 48 trial point group operations.


The magnetic configuration has the point symmetry O_h .


 Subroutine INISYM returns: Found 48 space group operations
 (whereof 48 operations are pure point group operations),
 and found     1 'primitive' translations

 
 
 KPOINTS: 10x10x10                                

Automatic generation of k-mesh.
Space group operators:
 irot       det(A)        alpha          n_x          n_y          n_z        tau_x        tau_y        tau_z
    1     1.000000     0.000000     1.000000     0.000000     0.000000     0.000000     0.000000     0.000000
    2    -1.000000     0.000000     1.000000     0.000000     0.000000     0.000000     0.000000     0.000000
    3     1.000000   120.000000    -0.577350    -0.577350    -0.577350     0.000000     0.000000     0.000000
    4    -1.000000   120.000000    -0.577350    -0.577350    -0.577350     0.000000     0.000000     0.000000
    5     1.000000   120.000000     0.577350     0.577350     0.577350     0.000000     0.000000     0.000000
    6    -1.000000   120.000000     0.577350     0.577350     0.577350     0.000000     0.000000     0.000000
    7     1.000000    90.000000     0.000000     0.000000    -1.000000     0.000000     0.000000     0.000000
    8    -1.000000    90.000000     0.000000     0.000000    -1.000000     0.000000     0.000000     0.000000
    9     1.000000   180.000000     0.000000     0.707107     0.707107     0.000000     0.000000     0.000000
   10    -1.000000   180.000000     0.000000     0.707107     0.707107     0.000000     0.000000     0.000000
   11     1.000000    90.000000     0.000000     1.000000     0.000000     0.000000     0.000000     0.000000
   12    -1.000000    90.000000     0.000000     1.000000     0.000000     0.000000     0.000000     0.000000
   13     1.000000   180.000000     0.000000     0.000000     1.000000     0.000000     0.000000     0.000000
   14    -1.000000   180.000000     0.000000     0.000000     1.000000     0.000000     0.000000     0.000000
   15     1.000000   120.000000    -0.577350     0.577350     0.577350     0.000000     0.000000     0.000000
   16    -1.000000   120.000000    -0.577350     0.577350     0.577350     0.000000     0.000000     0.000000
   17     1.000000   120.000000    -0.577350     0.577350    -0.577350     0.000000     0.000000     0.000000
   18    -1.000000   120.000000    -0.577350     0.577350    -0.577350     0.000000     0.000000     0.000000
   19     1.000000    90.000000     0.000000     0.000000     1.000000     0.000000     0.000000     0.000000
   20    -1.000000    90.000000     0.000000     0.000000     1.000000     0.000000     0.000000     0.000000
   21     1.000000    90.000000    -1.000000     0.000000     0.000000     0.000000     0.000000     0.000000
   22    -1.000000    90.000000    -1.000000     0.000000     0.000000     0.000000     0.000000     0.000000
   23     1.000000   180.000000     0.707107     0.000000     0.707107     0.000000     0.000000     0.000000
   24    -1.000000   180.000000     0.707107     0.000000     0.707107     0.000000     0.000000     0.000000
   25     1.000000   120.000000     0.577350    -0.577350     0.577350     0.000000     0.000000     0.000000
   26    -1.000000   120.000000     0.577350    -0.577350     0.577350     0.000000     0.000000     0.000000
   27     1.000000   120.000000    -0.577350    -0.577350     0.577350     0.000000     0.000000     0.000000
   28    -1.000000   120.000000    -0.577350    -0.577350     0.577350     0.000000     0.000000     0.000000
   29     1.000000   180.000000     1.000000     0.000000     0.000000     0.000000     0.000000     0.000000
   30    -1.000000   180.000000     1.000000     0.000000     0.000000     0.000000     0.000000     0.000000
   31     1.000000    90.000000     0.000000    -1.000000     0.000000     0.000000     0.000000     0.000000
   32    -1.000000    90.000000     0.000000    -1.000000     0.000000     0.000000     0.000000     0.000000
   33     1.000000   180.000000     0.707107     0.707107     0.000000     0.000000     0.000000     0.000000
   34    -1.000000   180.000000     0.707107     0.707107     0.000000     0.000000     0.000000     0.000000
   35     1.000000    90.000000     1.000000     0.000000     0.000000     0.000000     0.000000     0.000000
   36    -1.000000    90.000000     1.000000     0.000000     0.000000     0.000000     0.000000     0.000000
   37     1.000000   120.000000     0.577350    -0.577350    -0.577350     0.000000     0.000000     0.000000
   38    -1.000000   120.000000     0.577350    -0.577350    -0.577350     0.000000     0.000000     0.000000
   39     1.000000   180.000000     0.000000     1.000000     0.000000     0.000000     0.000000     0.000000
   40    -1.000000   180.000000     0.000000     1.000000     0.000000     0.000000     0.000000     0.000000
   41     1.000000   120.000000     0.577350     0.577350    -0.577350     0.000000     0.000000     0.000000
   42    -1.000000   120.000000     0.577350     0.577350    -0.577350     0.000000     0.000000     0.000000
   43     1.000000   180.000000     0.000000    -0.707107     0.707107     0.000000     0.000000     0.000000
   44    -1.000000   180.000000     0.000000    -0.707107     0.707107     0.000000     0.000000     0.000000
   45     1.000000   180.000000     0.707107    -0.707107     0.000000     0.000000     0.000000     0.000000
   46    -1.000000   180.000000     0.707107    -0.707107     0.000000     0.000000     0.000000     0.000000
   47     1.000000   180.000000     0.707107     0.000000    -0.707107     0.000000     0.000000     0.000000
   48    -1.000000   180.000000     0.707107     0.000000    -0.707107     0.000000     0.000000     0.000000
 
 Subroutine IBZKPT returns following result:
 ===========================================
 
 Found    110 irreducible k-points:
 
 Following reciprocal coordinates:
            Coordinates               Weight
  0.050000  0.050000  0.050000     96.000000
  0.150000  0.050000  0.050000    288.000000
  0.250000  0.050000  0.050000    288.000000
  0.350000  0.050000  0.050000    288.000000
  0.450000  0.050000  0.050000    288.000000
 -0.450000  0.050000  0.050000    288.000000
 -0.350000  0.050000  0.050000    288.000000
 -0.250000  0.050000  0.050000    288.000000
 -0.150000  0.050000  0.050000    288.000000
 -0.050000  0.050000  0.050000    288.000000
  0.150000  0.150000  0.050000    288.000000
  0.250000  0.150000  0.050000    576.000000
  0.350000  0.150000  0.050000    576.000000
  0.450000  0.150000  0.050000    576.000000
 -0.450000  0.150000  0.050000    576.000000
 -0.350000  0.150000  0.050000    576.000000
 -0.250000  0.150000  0.050000    576.000000
 -0.150000  0.150000  0.050000    576.000000
 -0.050000  0.150000  0.050000    576.000000
  0.250000  0.250000  0.050000    288.000000
  0.350000  0.250000  0.050000    576.000000
  0.450000  0.250000  0.050000    576.000000
 -0.450000  0.250000  0.050000    576.000000
 -0.350000  0.250000  0.050000    576.000000
 -0.250000  0.250000  0.050000    576.000000
 -0.150000  0.250000  0.050000    576.000000
 -0.050000  0.250000  0.050000    576.000000
  0.350000  0.350000  0.050000    288.000000
  0.450000  0.350000  0.050000    576.000000
 -0.450000  0.350000  0.050000    576.000000
 -0.350000  0.350000  0.050000    576.000000
 -0.250000  0.350000  0.050000    576.000000
 -0.150000  0.350000  0.050000    576.000000
 -0.050000  0.350000  0.050000    576.000000
  0.450000  0.450000  0.050000    288.000000
 -0.450000  0.450000  0.050000    576.000000
 -0.350000  0.450000  0.050000    576.000000
 -0.250000  0.450000  0.050000    576.000000
 -0.150000  0.450000  0.050000    576.000000
 -0.050000  0.450000  0.050000    576.000000
 -0.450000 -0.450000  0.050000    288.000000
 -0.350000 -0.450000  0.050000    576.000000
 -0.250000 -0.450000  0.050000    576.000000
 -0.150000 -0.450000  0.050000    576.000000
 -0.350000 -0.350000  0.050000    288.000000
 -0.250000 -0.350000  0.050000    576.000000
 -0.150000 -0.350000  0.050000    576.000000
 -0.250000 -0.250000  0.050000    288.000000
 -0.150000 -0.250000  0.050000    576.000000
 -0.150000 -0.150000  0.050000    288.000000
  0.150000  0.150000  0.150000     96.000000
  0.250000  0.150000  0.150000    288.000000
  0.350000  0.150000  0.150000    288.000000
  0.450000  0.150000  0.150000    288.000000
 -0.450000  0.150000  0.150000    288.000000
 -0.350000  0.150000  0.150000    288.000000
 -0.250000  0.150000  0.150000    288.000000
 -0.150000  0.150000  0.150000    288.000000
  0.250000  0.250000  0.150000    288.000000
  0.350000  0.250000  0.150000    576.000000
  0.450000  0.250000  0.150000    576.000000
 -0.450000  0.250000  0.150000    576.000000
 -0.350000  0.250000  0.150000    576.000000
 -0.250000  0.250000  0.150000    576.000000
 -0.150000  0.250000  0.150000    576.000000
  0.350000  0.350000  0.150000    288.000000
  0.450000  0.350000  0.150000    576.000000
 -0.450000  0.350000  0.150000    576.000000
 -0.350000  0.350000  0.150000    576.000000
 -0.250000  0.350000  0.150000    576.000000
 -0.150000  0.350000  0.150000    576.000000
  0.450000  0.450000  0.150000    288.000000
 -0.450000  0.450000  0.150000    576.000000
 -0.350000  0.450000  0.150000    576.000000
 -0.250000  0.450000  0.150000    576.000000
 -0.150000  0.450000  0.150000    576.000000
 -0.450000 -0.450000  0.150000    288.000000
 -0.350000 -0.450000  0.150000    576.000000
 -0.250000 -0.450000  0.150000    576.000000
 -0.350000 -0.350000  0.150000    288.000000
 -0.250000 -0.350000  0.150000    576.000000
 -0.250000 -0.250000  0.150000    288.000000
  0.250000  0.250000  0.250000     96.000000
  0.350000  0.250000  0.250000    288.000000
  0.450000  0.250000  0.250000    288.000000
 -0.450000  0.250000  0.250000    288.000000
 -0.350000  0.250000  0.250000    288.000000
 -0.250000  0.250000  0.250000    288.000000
  0.350000  0.350000  0.250000    288.000000
  0.450000  0.350000  0.250000    576.000000
 -0.450000  0.350000  0.250000    576.000000
 -0.350000  0.350000  0.250000    576.000000
 -0.250000  0.350000  0.250000    576.000000
  0.450000  0.450000  0.250000    288.000000
 -0.450000  0.450000  0.250000    576.000000
 -0.350000  0.450000  0.250000    576.000000
 -0.250000  0.450000  0.250000    576.000000
 -0.450000 -0.450000  0.250000    288.000000
 -0.350000 -0.450000  0.250000    576.000000
 -0.350000 -0.350000  0.250000    288.000000
  0.350000  0.350000  0.350000     96.000000
  0.450000  0.350000  0.350000    288.000000
 -0.450000  0.350000  0.350000    288.000000
 -0.350000  0.350000  0.350000    288.000000
  0.450000  0.450000  0.350000    288.000000
 -0.450000  0.450000  0.350000    576.000000
 -0.350000  0.450000  0.350000    576.000000
 -0.450000 -0.450000  0.350000    288.000000
  0.450000  0.450000  0.450000     96.000000
 -0.450000  0.450000  0.450000    288.000000
 
 Following cartesian coordinates:
            Coordinates               Weight
  0.050000  0.050000  0.050000     96.000000
 -0.050000  0.150000  0.150000    288.000000
 -0.150000  0.250000  0.250000    288.000000
 -0.250000  0.350000  0.350000    288.000000
 -0.350000  0.450000  0.450000    288.000000
  0.550000 -0.450000 -0.450000    288.000000
  0.450000 -0.350000 -0.350000    288.000000
  0.350000 -0.250000 -0.250000    288.000000
  0.250000 -0.150000 -0.150000    288.000000
  0.150000 -0.050000 -0.050000    288.000000
  0.050000  0.050000  0.250000    288.000000
 -0.050000  0.150000  0.350000    576.000000
 -0.150000  0.250000  0.450000    576.000000
 -0.250000  0.350000  0.550000    576.000000
  0.650000 -0.550000 -0.350000    576.000000
  0.550000 -0.450000 -0.250000    576.000000
  0.450000 -0.350000 -0.150000    576.000000
  0.350000 -0.250000 -0.050000    576.000000
  0.250000 -0.150000  0.050000    576.000000
  0.050000  0.050000  0.450000    288.000000
 -0.050000  0.150000  0.550000    576.000000
 -0.150000  0.250000  0.650000    576.000000
  0.750000 -0.650000 -0.250000    576.000000
  0.650000 -0.550000 -0.150000    576.000000
  0.550000 -0.450000 -0.050000    576.000000
  0.450000 -0.350000  0.050000    576.000000
  0.350000 -0.250000  0.150000    576.000000
  0.050000  0.050000  0.650000    288.000000
 -0.050000  0.150000  0.750000    576.000000
  0.850000 -0.750000 -0.150000    576.000000
  0.750000 -0.650000 -0.050000    576.000000
  0.650000 -0.550000  0.050000    576.000000
  0.550000 -0.450000  0.150000    576.000000
  0.450000 -0.350000  0.250000    576.000000
  0.050000  0.050000  0.850000    288.000000
  0.950000 -0.850000 -0.050000    576.000000
  0.850000 -0.750000  0.050000    576.000000
  0.750000 -0.650000  0.150000    576.000000
  0.650000 -0.550000  0.250000    576.000000
  0.550000 -0.450000  0.350000    576.000000
  0.050000  0.050000 -0.950000    288.000000
 -0.050000  0.150000 -0.850000    576.000000
 -0.150000  0.250000 -0.750000    576.000000
 -0.250000  0.350000 -0.650000    576.000000
  0.050000  0.050000 -0.750000    288.000000
 -0.050000  0.150000 -0.650000    576.000000
 -0.150000  0.250000 -0.550000    576.000000
  0.050000  0.050000 -0.550000    288.000000
 -0.050000  0.150000 -0.450000    576.000000
  0.050000  0.050000 -0.350000    288.000000
  0.150000  0.150000  0.150000     96.000000
  0.050000  0.250000  0.250000    288.000000
 -0.050000  0.350000  0.350000    288.000000
 -0.150000  0.450000  0.450000    288.000000
  0.750000 -0.450000 -0.450000    288.000000
  0.650000 -0.350000 -0.350000    288.000000
  0.550000 -0.250000 -0.250000    288.000000
  0.450000 -0.150000 -0.150000    288.000000
  0.150000  0.150000  0.350000    288.000000
  0.050000  0.250000  0.450000    576.000000
 -0.050000  0.350000  0.550000    576.000000
  0.850000 -0.550000 -0.350000    576.000000
  0.750000 -0.450000 -0.250000    576.000000
  0.650000 -0.350000 -0.150000    576.000000
  0.550000 -0.250000 -0.050000    576.000000
  0.150000  0.150000  0.550000    288.000000
  0.050000  0.250000  0.650000    576.000000
  0.950000 -0.650000 -0.250000    576.000000
  0.850000 -0.550000 -0.150000    576.000000
  0.750000 -0.450000 -0.050000    576.000000
  0.650000 -0.350000  0.050000    576.000000
  0.150000  0.150000  0.750000    288.000000
  1.050000 -0.750000 -0.150000    576.000000
  0.950000 -0.650000 -0.050000    576.000000
  0.850000 -0.550000  0.050000    576.000000
  0.750000 -0.450000  0.150000    576.000000
  0.150000  0.150000 -1.050000    288.000000
  0.050000  0.250000 -0.950000    576.000000
 -0.050000  0.350000 -0.850000    576.000000
  0.150000  0.150000 -0.850000    288.000000
  0.050000  0.250000 -0.750000    576.000000
  0.150000  0.150000 -0.650000    288.000000
  0.250000  0.250000  0.250000     96.000000
  0.150000  0.350000  0.350000    288.000000
  0.050000  0.450000  0.450000    288.000000
  0.950000 -0.450000 -0.450000    288.000000
  0.850000 -0.350000 -0.350000    288.000000
  0.750000 -0.250000 -0.250000    288.000000
  0.250000  0.250000  0.450000    288.000000
  0.150000  0.350000  0.550000    576.000000
  1.050000 -0.550000 -0.350000    576.000000
  0.950000 -0.450000 -0.250000    576.000000
  0.850000 -0.350000 -0.150000    576.000000
  0.250000  0.250000  0.650000    288.000000
  1.150000 -0.650000 -0.250000    576.000000
  1.050000 -0.550000 -0.150000    576.000000
  0.950000 -0.450000 -0.050000    576.000000
  0.250000  0.250000 -1.150000    288.000000
  0.150000  0.350000 -1.050000    576.000000
  0.250000  0.250000 -0.950000    288.000000
  0.350000  0.350000  0.350000     96.000000
  0.250000  0.450000  0.450000    288.000000
  1.150000 -0.450000 -0.450000    288.000000
  1.050000 -0.350000 -0.350000    288.000000
  0.350000  0.350000  0.550000    288.000000
  1.250000 -0.550000 -0.350000    576.000000
  1.150000 -0.450000 -0.250000    576.000000
  0.350000  0.350000 -1.250000    288.000000
  0.450000  0.450000  0.450000     96.000000
  1.350000 -0.450000 -0.450000    288.000000
 


--------------------------------------------------------------------------------------------------------




 Dimension of arrays:
   k-points           NKPTS =    110   k-points in BZ     NKDIM =    110   number of bands    NBANDS=     12
   number of dos      NEDOS =    301   number of ions     NIONS =      1
   non local maximal  LDIM  =      6   non local SUM 2l+1 LMDIM =     18
   total plane-waves  NPLWV =   1000
   max r-space proj   IRMAX =      1   max aug-charges    IRDMAX=   3357
   dimension x,y,z NGX =    10 NGY =   10 NGZ =   10
   dimension x,y,z NGXF=    20 NGYF=   20 NGZF=   20
   support grid    NGXF=    20 NGYF=   20 NGZF=   20
   ions per type =               1
   NGX,Y,Z   is equivalent  to a cutoff of   6.81,  6.81,  6.81 a.u.
   NGXF,Y,Z  is equivalent  to a cutoff of  13.63, 13.63, 13.63 a.u.

 SYSTEM =  fcc Ni                                  
 POSCAR =  FCC Ni Bulk                             

 Startparameter for this run:
   NWRITE =      2    write-flag & timer
   PREC   = normal    normal or accurate (medium, high low for compatibility)
   ISTART =      0    job   : 0-new  1-cont  2-samecut
   ICHARG =      2    charge: 1-file 2-atom 10-const
   ISPIN  =      2    spin polarized calculation?
   LNONCOLLINEAR =      F non collinear calculations
   LSORBIT =      F    spin-orbit coupling
   INIWAV =      1    electr: 0-lowe 1-rand  2-diag
   LASPH  =      F    aspherical Exc in radial PAW
   METAGGA=      F    non-selfconsistent MetaGGA calc.

 Electronic Relaxation 1
   ENCUT  =  270.0 eV  19.84 Ry    4.45 a.u.   3.27  3.27  3.27*2*pi/ulx,y,z
   ENINI  =  270.0     initial cutoff
   ENAUG  =  544.6 eV  augmentation charge cutoff
   NELM   =     60;   NELMIN=  2; NELMDL= -5     # of ELM steps 
   EDIFF  = 0.1E-03   stopping-criterion for ELM
   LREAL  =      F    real-space projection
   NLSPLINE    = F    spline interpolate recip. space projectors
   LCOMPAT=      F    compatible to vasp.4.4
   GGA_COMPAT  = T    GGA compatible to vasp.4.4-vasp.4.6
   LMAXPAW     = -100 max onsite density
   LMAXMIX     =    2 max onsite mixed and CHGCAR
   VOSKOWN=      0    Vosko Wilk Nusair interpolation
   ROPT   =    0.00000
 Ionic relaxation
   EDIFFG = 0.1E-02   stopping-criterion for IOM
   NSW    =      0    number of steps for IOM
   NBLOCK =      1;   KBLOCK =      1    inner block; outer block 
   IBRION =     -1    ionic relax: 0-MD 1-quasi-New 2-CG
   NFREE  =      0    steps in history (QN), initial steepest desc. (CG)
   ISIF   =      2    stress and relaxation
   IWAVPR =     10    prediction:  0-non 1-charg 2-wave 3-comb
   ISYM   =      2    0-nonsym 1-usesym 2-fastsym
   LCORR  =      T    Harris-Foulkes like correction to forces

   POTIM  = 0.5000    time-step for ionic-motion
   TEIN   =    0.0    initial temperature
   TEBEG  =    0.0;   TEEND  =   0.0 temperature during run
   SMASS  =  -3.00    Nose mass-parameter (am)
   estimated Nose-frequenzy (Omega)   =  0.10E-29 period in steps =****** mass=  -0.136E-27a.u.
   SCALEE = 1.0000    scale energy and forces
   NPACO  =    256;   APACO  = 16.0  distance and # of slots for P.C.
   PSTRESS=    0.0 pullay stress

  Mass of Ions in am
   POMASS =  58.69
  Ionic Valenz
   ZVAL   =  10.00
  Atomic Wigner-Seitz radii
   RWIGS  =  -1.00
  virtual crystal weights 
   VCA    =   1.00
   NELECT =      10.0000    total number of electrons
   NUPDOWN=      -1.0000    fix difference up-down

 DOS related values:
   EMIN   =  10.00;   EMAX   =-10.00  energy-range for DOS
   EFERMI =   0.00
   ISMEAR =     1;   SIGMA  =   0.20  broadening in eV -4-tet -1-fermi 0-gaus

 Electronic relaxation 2 (details)
   IALGO  =     38    algorithm
   LDIAG  =      T    sub-space diagonalisation (order eigenvalues)
   LSUBROT=      F    optimize rotation matrix (better conditioning)
   TURBO    =      0    0=normal 1=particle mesh
   IRESTART =      0    0=no restart 2=restart with 2 vectors
   NREBOOT  =      0    no. of reboots
   NMIN     =      0    reboot dimension
   EREF     =   0.00    reference energy to select bands
   IMIX   =      4    mixing-type and parameters
     AMIX     =   0.40;   BMIX     =  1.00
     AMIX_MAG =   1.60;   BMIX_MAG =  1.00
     AMIN     =   0.10
     WC   =   100.;   INIMIX=   1;  MIXPRE=   1;  MAXMIX= -45

 Intra band minimization:
   WEIMIN = 0.0000     energy-eigenvalue tresh-hold
   EBREAK =  0.21E-05  absolut break condition
   DEPER  =   0.30     relativ break condition  

   TIME   =   0.40     timestep for ELM

  volume/ion in A,a.u.               =      10.27        69.28
  Fermi-wavevector in a.u.,A,eV,Ry     =   1.622840  3.066723 35.832440  2.633610
  Thomas-Fermi vector in A             =   2.716388
 
 Write flags
   LWAVE        =      T    write WAVECAR
   LDOWNSAMPLE  =      F    k-point downsampling of WAVECAR
   LCHARG       =      T    write CHGCAR
   LVTOT        =      F    write LOCPOT, total local potential
   LVHAR        =      F    write LOCPOT, Hartree potential only
   LELF         =      F    write electronic localiz. function (ELF)
   LORBIT       =      0    0 simple, 1 ext, 2 COOP (PROOUT), +10 PAW based schemes


 Dipole corrections
   LMONO  =      F    monopole corrections only (constant potential shift)
   LDIPOL =      F    correct potential (dipole corrections)
   IDIPOL =      0    1-x, 2-y, 3-z, 4-all directions 
   EPSILON=  1.0000000 bulk dielectric constant

 Exchange correlation treatment:
   GGA     =    --    GGA type
   LEXCH   =     8    internal setting for exchange type
   VOSKOWN=      0    Vosko Wilk Nusair interpolation
   LHFCALC =     F    Hartree Fock is set to
   LHFONE  =     F    Hartree Fock one center treatment
   AEXX    =    0.0000 exact exchange contribution

 Linear response parameters
   LEPSILON=     F    determine dielectric tensor
   LRPA    =     F    only Hartree local field effects (RPA)
   LNABLA  =     F    use nabla operator in PAW spheres
   LVEL    =     F    velocity operator in full k-point grid
   LINTERFAST=   F  fast interpolation
   KINTER  =     0    interpolate to denser k-point grid
   CSHIFT  =0.1000    complex shift for real part using Kramers Kronig
   OMEGAMAX=  -1.0    maximum frequency
   DEG_THRESHOLD= 0.2000000E-02 threshold for treating states as degnerate
   RTIME   =   -0.100 relaxation time in fs
  (WPLASMAI=    0.000 imaginary part of plasma frequency in eV, 0.658/RTIME)
   DFIELD  = 0.0000000 0.0000000 0.0000000 field for delta impulse in time
 
 Orbital magnetization related:
   ORBITALMAG=     F  switch on orbital magnetization
   LCHIMAG   =     F  perturbation theory with respect to B field
   DQ        =  0.001000  dq finite difference perturbation B field
   LLRAUG    =     F  two centre corrections for induced B field



--------------------------------------------------------------------------------------------------------


 Static calculation
 charge density and potential will be updated during run
 spin polarized calculation
 Variant of blocked Davidson
 Davidson routine will perform the subspace rotation
 perform sub-space diagonalisation
    after iterative eigenvector-optimisation
 modified Broyden-mixing scheme, WC =      100.0
 initial mixing is a Kerker type mixing with AMIX =  0.4000 and BMIX =      1.0000
 Hartree-type preconditioning will be used
 using additional bands            7
 reciprocal scheme for non local part
 use partial core corrections
 calculate Harris-corrections to forces 
   (improved forces if not selfconsistent)
 use gradient corrections 
 use of overlap-Matrix (Vanderbilt PP)
 Methfessel and Paxton  Order N= 1 SIGMA  =   0.20


--------------------------------------------------------------------------------------------------------


  energy-cutoff  :      270.00
  volume of cell :       10.27
      direct lattice vectors                 reciprocal lattice vectors
     0.000000000  1.725000000  1.725000000    -0.289855072  0.289855072  0.289855072
     1.725000000  0.000000000  1.725000000     0.289855072 -0.289855072  0.289855072
     1.725000000  1.725000000  0.000000000     0.289855072  0.289855072 -0.289855072

  length of vectors
     2.439518395  2.439518395  2.439518395     0.502043712  0.502043712  0.502043712


 
 k-points in units of 2pi/SCALE and weight: 10x10x10                                
   0.05000000  0.05000000  0.05000000       0.002
  -0.05000000  0.15000000  0.15000000       0.006
  -0.15000000  0.25000000  0.25000000       0.006
  -0.25000000  0.35000000  0.35000000       0.006
  -0.35000000  0.45000000  0.45000000       0.006
   0.55000000 -0.45000000 -0.45000000       0.006
   0.45000000 -0.35000000 -0.35000000       0.006
   0.35000000 -0.25000000 -0.25000000       0.006
   0.25000000 -0.15000000 -0.15000000       0.006
   0.15000000 -0.05000000 -0.05000000       0.006
   0.05000000  0.05000000  0.25000000       0.006
  -0.05000000  0.15000000  0.35000000       0.012
  -0.15000000  0.25000000  0.45000000       0.012
  -0.25000000  0.35000000  0.55000000       0.012
   0.65000000 -0.55000000 -0.35000000       0.012
   0.55000000 -0.45000000 -0.25000000       0.012
   0.45000000 -0.35000000 -0.15000000       0.012
   0.35000000 -0.25000000 -0.05000000       0.012
   0.25000000 -0.15000000  0.05000000       0.012
   0.05000000  0.05000000  0.45000000       0.006
  -0.05000000  0.15000000  0.55000000       0.012
  -0.15000000  0.25000000  0.65000000       0.012
   0.75000000 -0.65000000 -0.25000000       0.012
   0.65000000 -0.55000000 -0.15000000       0.012
   0.55000000 -0.45000000 -0.05000000       0.012
   0.45000000 -0.35000000  0.05000000       0.012
   0.35000000 -0.25000000  0.15000000       0.012
   0.05000000  0.05000000  0.65000000       0.006
  -0.05000000  0.15000000  0.75000000       0.012
   0.85000000 -0.75000000 -0.15000000       0.012
   0.75000000 -0.65000000 -0.05000000       0.012
   0.65000000 -0.55000000  0.05000000       0.012
   0.55000000 -0.45000000  0.15000000       0.012
   0.45000000 -0.35000000  0.25000000       0.012
   0.05000000  0.05000000  0.85000000       0.006
   0.95000000 -0.85000000 -0.05000000       0.012
   0.85000000 -0.75000000  0.05000000       0.012
   0.75000000 -0.65000000  0.15000000       0.012
   0.65000000 -0.55000000  0.25000000       0.012
   0.55000000 -0.45000000  0.35000000       0.012
   0.05000000  0.05000000 -0.95000000       0.006
  -0.05000000  0.15000000 -0.85000000       0.012
  -0.15000000  0.25000000 -0.75000000       0.012
  -0.25000000  0.35000000 -0.65000000       0.012
   0.05000000  0.05000000 -0.75000000       0.006
  -0.05000000  0.15000000 -0.65000000       0.012
  -0.15000000  0.25000000 -0.55000000       0.012
   0.05000000  0.05000000 -0.55000000       0.006
  -0.05000000  0.15000000 -0.45000000       0.012
   0.05000000  0.05000000 -0.35000000       0.006
   0.15000000  0.15000000  0.15000000       0.002
   0.05000000  0.25000000  0.25000000       0.006
  -0.05000000  0.35000000  0.35000000       0.006
  -0.15000000  0.45000000  0.45000000       0.006
   0.75000000 -0.45000000 -0.45000000       0.006
   0.65000000 -0.35000000 -0.35000000       0.006
   0.55000000 -0.25000000 -0.25000000       0.006
   0.45000000 -0.15000000 -0.15000000       0.006
   0.15000000  0.15000000  0.35000000       0.006
   0.05000000  0.25000000  0.45000000       0.012
  -0.05000000  0.35000000  0.55000000       0.012
   0.85000000 -0.55000000 -0.35000000       0.012
   0.75000000 -0.45000000 -0.25000000       0.012
   0.65000000 -0.35000000 -0.15000000       0.012
   0.55000000 -0.25000000 -0.05000000       0.012
   0.15000000  0.15000000  0.55000000       0.006
   0.05000000  0.25000000  0.65000000       0.012
   0.95000000 -0.65000000 -0.25000000       0.012
   0.85000000 -0.55000000 -0.15000000       0.012
   0.75000000 -0.45000000 -0.05000000       0.012
   0.65000000 -0.35000000  0.05000000       0.012
   0.15000000  0.15000000  0.75000000       0.006
   1.05000000 -0.75000000 -0.15000000       0.012
   0.95000000 -0.65000000 -0.05000000       0.012
   0.85000000 -0.55000000  0.05000000       0.012
   0.75000000 -0.45000000  0.15000000       0.012
   0.15000000  0.15000000 -1.05000000       0.006
   0.05000000  0.25000000 -0.95000000       0.012
  -0.05000000  0.35000000 -0.85000000       0.012
   0.15000000  0.15000000 -0.85000000       0.006
   0.05000000  0.25000000 -0.75000000       0.012
   0.15000000  0.15000000 -0.65000000       0.006
   0.25000000  0.25000000  0.25000000       0.002
   0.15000000  0.35000000  0.35000000       0.006
   0.05000000  0.45000000  0.45000000       0.006
   0.95000000 -0.45000000 -0.45000000       0.006
   0.85000000 -0.35000000 -0.35000000       0.006
   0.75000000 -0.25000000 -0.25000000       0.006
   0.25000000  0.25000000  0.45000000       0.006
   0.15000000  0.35000000  0.55000000       0.012
   1.05000000 -0.55000000 -0.35000000       0.012
   0.95000000 -0.45000000 -0.25000000       0.012
   0.85000000 -0.35000000 -0.15000000       0.012
   0.25000000  0.25000000  0.65000000       0.006
   1.15000000 -0.65000000 -0.25000000       0.012
   1.05000000 -0.55000000 -0.15000000       0.012
   0.95000000 -0.45000000 -0.05000000       0.012
   0.25000000  0.25000000 -1.15000000       0.006
   0.15000000  0.35000000 -1.05000000       0.012
   0.25000000  0.25000000 -0.95000000       0.006
   0.35000000  0.35000000  0.35000000       0.002
   0.25000000  0.45000000  0.45000000       0.006
   1.15000000 -0.45000000 -0.45000000       0.006
   1.05000000 -0.35000000 -0.35000000       0.006
   0.35000000  0.35000000  0.55000000       0.006
   1.25000000 -0.55000000 -0.35000000       0.012
   1.15000000 -0.45000000 -0.25000000       0.012
   0.35000000  0.35000000 -1.25000000       0.006
   0.45000000  0.45000000  0.45000000       0.002
   1.35000000 -0.45000000 -0.45000000       0.006
 
 k-points in reciprocal lattice and weights: 10x10x10                                
   0.05000000  0.05000000  0.05000000       0.002
   0.15000000  0.05000000  0.05000000       0.006
   0.25000000  0.05000000  0.05000000       0.006
   0.35000000  0.05000000  0.05000000       0.006
   0.45000000  0.05000000  0.05000000       0.006
  -0.45000000  0.05000000  0.05000000       0.006
  -0.35000000  0.05000000  0.05000000       0.006
  -0.25000000  0.05000000  0.05000000       0.006
  -0.15000000  0.05000000  0.05000000       0.006
  -0.05000000  0.05000000  0.05000000       0.006
   0.15000000  0.15000000  0.05000000       0.006
   0.25000000  0.15000000  0.05000000       0.012
   0.35000000  0.15000000  0.05000000       0.012
   0.45000000  0.15000000  0.05000000       0.012
  -0.45000000  0.15000000  0.05000000       0.012
  -0.35000000  0.15000000  0.05000000       0.012
  -0.25000000  0.15000000  0.05000000       0.012
  -0.15000000  0.15000000  0.05000000       0.012
  -0.05000000  0.15000000  0.05000000       0.012
   0.25000000  0.25000000  0.05000000       0.006
   0.35000000  0.25000000  0.05000000       0.012
   0.45000000  0.25000000  0.05000000       0.012
  -0.45000000  0.25000000  0.05000000       0.012
  -0.35000000  0.25000000  0.05000000       0.012
  -0.25000000  0.25000000  0.05000000       0.012
  -0.15000000  0.25000000  0.05000000       0.012
  -0.05000000  0.25000000  0.05000000       0.012
   0.35000000  0.35000000  0.05000000       0.006
   0.45000000  0.35000000  0.05000000       0.012
  -0.45000000  0.35000000  0.05000000       0.012
  -0.35000000  0.35000000  0.05000000       0.012
  -0.25000000  0.35000000  0.05000000       0.012
  -0.15000000  0.35000000  0.05000000       0.012
  -0.05000000  0.35000000  0.05000000       0.012
   0.45000000  0.45000000  0.05000000       0.006
  -0.45000000  0.45000000  0.05000000       0.012
  -0.35000000  0.45000000  0.05000000       0.012
  -0.25000000  0.45000000  0.05000000       0.012
  -0.15000000  0.45000000  0.05000000       0.012
  -0.05000000  0.45000000  0.05000000       0.012
  -0.45000000 -0.45000000  0.05000000       0.006
  -0.35000000 -0.45000000  0.05000000       0.012
  -0.25000000 -0.45000000  0.05000000       0.012
  -0.15000000 -0.45000000  0.05000000       0.012
  -0.35000000 -0.35000000  0.05000000       0.006
  -0.25000000 -0.35000000  0.05000000       0.012
  -0.15000000 -0.35000000  0.05000000       0.012
  -0.25000000 -0.25000000  0.05000000       0.006
  -0.15000000 -0.25000000  0.05000000       0.012
  -0.15000000 -0.15000000  0.05000000       0.006
   0.15000000  0.15000000  0.15000000       0.002
   0.25000000  0.15000000  0.15000000       0.006
   0.35000000  0.15000000  0.15000000       0.006
   0.45000000  0.15000000  0.15000000       0.006
  -0.45000000  0.15000000  0.15000000       0.006
  -0.35000000  0.15000000  0.15000000       0.006
  -0.25000000  0.15000000  0.15000000       0.006
  -0.15000000  0.15000000  0.15000000       0.006
   0.25000000  0.25000000  0.15000000       0.006
   0.35000000  0.25000000  0.15000000       0.012
   0.45000000  0.25000000  0.15000000       0.012
  -0.45000000  0.25000000  0.15000000       0.012
  -0.35000000  0.25000000  0.15000000       0.012
  -0.25000000  0.25000000  0.15000000       0.012
  -0.15000000  0.25000000  0.15000000       0.012
   0.35000000  0.35000000  0.15000000       0.006
   0.45000000  0.35000000  0.15000000       0.012
  -0.45000000  0.35000000  0.15000000       0.012
  -0.35000000  0.35000000  0.15000000       0.012
  -0.25000000  0.35000000  0.15000000       0.012
  -0.15000000  0.35000000  0.15000000       0.012
   0.45000000  0.45000000  0.15000000       0.006
  -0.45000000  0.45000000  0.15000000       0.012
  -0.35000000  0.45000000  0.15000000       0.012
  -0.25000000  0.45000000  0.15000000       0.012
  -0.15000000  0.45000000  0.15000000       0.012
  -0.45000000 -0.45000000  0.15000000       0.006
  -0.35000000 -0.45000000  0.15000000       0.012
  -0.25000000 -0.45000000  0.15000000       0.012
  -0.35000000 -0.35000000  0.15000000       0.006
  -0.25000000 -0.35000000  0.15000000       0.012
  -0.25000000 -0.25000000  0.15000000       0.006
   0.25000000  0.25000000  0.25000000       0.002
   0.35000000  0.25000000  0.25000000       0.006
   0.45000000  0.25000000  0.25000000       0.006
  -0.45000000  0.25000000  0.25000000       0.006
  -0.35000000  0.25000000  0.25000000       0.006
  -0.25000000  0.25000000  0.25000000       0.006
   0.35000000  0.35000000  0.25000000       0.006
   0.45000000  0.35000000  0.25000000       0.012
  -0.45000000  0.35000000  0.25000000       0.012
  -0.35000000  0.35000000  0.25000000       0.012
  -0.25000000  0.35000000  0.25000000       0.012
   0.45000000  0.45000000  0.25000000       0.006
  -0.45000000  0.45000000  0.25000000       0.012
  -0.35000000  0.45000000  0.25000000       0.012
  -0.25000000  0.45000000  0.25000000       0.012
  -0.45000000 -0.45000000  0.25000000       0.006
  -0.35000000 -0.45000000  0.25000000       0.012
  -0.35000000 -0.35000000  0.25000000       0.006
   0.35000000  0.35000000  0.35000000       0.002
   0.45000000  0.35000000  0.35000000       0.006
  -0.45000000  0.35000000  0.35000000       0.006
  -0.35000000  0.35000000  0.35000000       0.006
   0.45000000  0.45000000  0.35000000       0.006
  -0.45000000  0.45000000  0.35000000       0.012
  -0.35000000  0.45000000  0.35000000       0.012
  -0.45000000 -0.45000000  0.35000000       0.006
   0.45000000  0.45000000  0.45000000       0.002
  -0.45000000  0.45000000  0.45000000       0.006
 
 position of ions in fractional coordinates (direct lattice) 
   0.00000000  0.00000000  0.00000000
 
 position of ions in cartesian coordinates  (Angst):
   0.00000000  0.00000000  0.00000000
 


--------------------------------------------------------------------------------------------------------


 k-point  1 :   0.0500 0.0500 0.0500  plane waves:     113
 k-point  2 :   0.1500 0.0500 0.0500  plane waves:     109
 k-point  3 :   0.2500 0.0500 0.0500  plane waves:     104
 k-point  4 :   0.3500 0.0500 0.0500  plane waves:     102
 k-point  5 :   0.4500 0.0500 0.0500  plane waves:     103
 k-point  6 :  -0.4500 0.0500 0.0500  plane waves:     106
 k-point  7 :  -0.3500 0.0500 0.0500  plane waves:     103
 k-point  8 :  -0.2500 0.0500 0.0500  plane waves:     102
 k-point  9 :  -0.1500 0.0500 0.0500  plane waves:     105
 k-point 10 :  -0.0500 0.0500 0.0500  plane waves:     111
 k-point 11 :   0.1500 0.1500 0.0500  plane waves:     107
 k-point 12 :   0.2500 0.1500 0.0500  plane waves:     106
 k-point 13 :   0.3500 0.1500 0.0500  plane waves:     104
 k-point 14 :   0.4500 0.1500 0.0500  plane waves:     105
 k-point 15 :  -0.4500 0.1500 0.0500  plane waves:     103
 k-point 16 :  -0.3500 0.1500 0.0500  plane waves:     103
 k-point 17 :  -0.2500 0.1500 0.0500  plane waves:     101
 k-point 18 :  -0.1500 0.1500 0.0500  plane waves:     103
 k-point 19 :  -0.0500 0.1500 0.0500  plane waves:     105
 k-point 20 :   0.2500 0.2500 0.0500  plane waves:     101
 k-point 21 :   0.3500 0.2500 0.0500  plane waves:     103
 k-point 22 :   0.4500 0.2500 0.0500  plane waves:     103
 k-point 23 :  -0.4500 0.2500 0.0500  plane waves:     103
 k-point 24 :  -0.3500 0.2500 0.0500  plane waves:     103
 k-point 25 :  -0.2500 0.2500 0.0500  plane waves:     101
 k-point 26 :  -0.1500 0.2500 0.0500  plane waves:     101
 k-point 27 :  -0.0500 0.2500 0.0500  plane waves:     103
 k-point 28 :   0.3500 0.3500 0.0500  plane waves:     106
 k-point 29 :   0.4500 0.3500 0.0500  plane waves:     102
 k-point 30 :  -0.4500 0.3500 0.0500  plane waves:     104
 k-point 31 :  -0.3500 0.3500 0.0500  plane waves:     101
 k-point 32 :  -0.2500 0.3500 0.0500  plane waves:     102
 k-point 33 :  -0.1500 0.3500 0.0500  plane waves:     102
 k-point 34 :  -0.0500 0.3500 0.0500  plane waves:     104
 k-point 35 :   0.4500 0.4500 0.0500  plane waves:     105
 k-point 36 :  -0.4500 0.4500 0.0500  plane waves:     105
 k-point 37 :  -0.3500 0.4500 0.0500  plane waves:     104
 k-point 38 :  -0.2500 0.4500 0.0500  plane waves:     102
 k-point 39 :  -0.1500 0.4500 0.0500  plane waves:     103
 k-point 40 :  -0.0500 0.4500 0.0500  plane waves:     104
 k-point 41 :  -0.4500-0.4500 0.0500  plane waves:     105
 k-point 42 :  -0.3500-0.4500 0.0500  plane waves:     103
 k-point 43 :  -0.2500-0.4500 0.0500  plane waves:     103
 k-point 44 :  -0.1500-0.4500 0.0500  plane waves:     104
 k-point 45 :  -0.3500-0.3500 0.0500  plane waves:     105
 k-point 46 :  -0.2500-0.3500 0.0500  plane waves:     103
 k-point 47 :  -0.1500-0.3500 0.0500  plane waves:     103
 k-point 48 :  -0.2500-0.2500 0.0500  plane waves:     101
 k-point 49 :  -0.1500-0.2500 0.0500  plane waves:     104
 k-point 50 :  -0.1500-0.1500 0.0500  plane waves:     106
 k-point 51 :   0.1500 0.1500 0.1500  plane waves:     107
 k-point 52 :   0.2500 0.1500 0.1500  plane waves:     105
 k-point 53 :   0.3500 0.1500 0.1500  plane waves:     102
 k-point 54 :   0.4500 0.1500 0.1500  plane waves:     101
 k-point 55 :  -0.4500 0.1500 0.1500  plane waves:     103
 k-point 56 :  -0.3500 0.1500 0.1500  plane waves:     105
 k-point 57 :  -0.2500 0.1500 0.1500  plane waves:     105
 k-point 58 :  -0.1500 0.1500 0.1500  plane waves:     105
 k-point 59 :   0.2500 0.2500 0.1500  plane waves:     103
 k-point 60 :   0.3500 0.2500 0.1500  plane waves:     101
 k-point 61 :   0.4500 0.2500 0.1500  plane waves:     103
 k-point 62 :  -0.4500 0.2500 0.1500  plane waves:     101
 k-point 63 :  -0.3500 0.2500 0.1500  plane waves:     102
 k-point 64 :  -0.2500 0.2500 0.1500  plane waves:     102
 k-point 65 :  -0.1500 0.2500 0.1500  plane waves:     103
 k-point 66 :   0.3500 0.3500 0.1500  plane waves:     103
 k-point 67 :   0.4500 0.3500 0.1500  plane waves:     102
 k-point 68 :  -0.4500 0.3500 0.1500  plane waves:     104
 k-point 69 :  -0.3500 0.3500 0.1500  plane waves:     104
 k-point 70 :  -0.2500 0.3500 0.1500  plane waves:     104
 k-point 71 :  -0.1500 0.3500 0.1500  plane waves:     103
 k-point 72 :   0.4500 0.4500 0.1500  plane waves:     106
 k-point 73 :  -0.4500 0.4500 0.1500  plane waves:     103
 k-point 74 :  -0.3500 0.4500 0.1500  plane waves:     104
 k-point 75 :  -0.2500 0.4500 0.1500  plane waves:     104
 k-point 76 :  -0.1500 0.4500 0.1500  plane waves:     102
 k-point 77 :  -0.4500-0.4500 0.1500  plane waves:     102
 k-point 78 :  -0.3500-0.4500 0.1500  plane waves:     104
 k-point 79 :  -0.2500-0.4500 0.1500  plane waves:     104
 k-point 80 :  -0.3500-0.3500 0.1500  plane waves:     102
 k-point 81 :  -0.2500-0.3500 0.1500  plane waves:     104
 k-point 82 :  -0.2500-0.2500 0.1500  plane waves:     104
 k-point 83 :   0.2500 0.2500 0.2500  plane waves:     104
 k-point 84 :   0.3500 0.2500 0.2500  plane waves:     102
 k-point 85 :   0.4500 0.2500 0.2500  plane waves:      99
 k-point 86 :  -0.4500 0.2500 0.2500  plane waves:     103
 k-point 87 :  -0.3500 0.2500 0.2500  plane waves:     101
 k-point 88 :  -0.2500 0.2500 0.2500  plane waves:     104
 k-point 89 :   0.3500 0.3500 0.2500  plane waves:     104
 k-point 90 :   0.4500 0.3500 0.2500  plane waves:     104
 k-point 91 :  -0.4500 0.3500 0.2500  plane waves:     103
 k-point 92 :  -0.3500 0.3500 0.2500  plane waves:     104
 k-point 93 :  -0.2500 0.3500 0.2500  plane waves:     104
 k-point 94 :   0.4500 0.4500 0.2500  plane waves:     105
 k-point 95 :  -0.4500 0.4500 0.2500  plane waves:     104
 k-point 96 :  -0.3500 0.4500 0.2500  plane waves:     105
 k-point 97 :  -0.2500 0.4500 0.2500  plane waves:     105
 k-point 98 :  -0.4500-0.4500 0.2500  plane waves:     102
 k-point 99 :  -0.3500-0.4500 0.2500  plane waves:     105
 k-point ** :  -0.3500-0.3500 0.2500  plane waves:     102
 k-point ** :   0.3500 0.3500 0.3500  plane waves:      99
 k-point ** :   0.4500 0.3500 0.3500  plane waves:     101
 k-point ** :  -0.4500 0.3500 0.3500  plane waves:     103
 k-point ** :  -0.3500 0.3500 0.3500  plane waves:     101
 k-point ** :   0.4500 0.4500 0.3500  plane waves:     104
 k-point ** :  -0.4500 0.4500 0.3500  plane waves:     102
 k-point ** :  -0.3500 0.4500 0.3500  plane waves:     104
 k-point ** :  -0.4500-0.4500 0.3500  plane waves:     103
 k-point ** :   0.4500 0.4500 0.4500  plane waves:     108
 k-point ** :  -0.4500 0.4500 0.4500  plane waves:     105

 maximum and minimum number of plane-waves per node :       113       99

 maximum number of plane-waves:       113
 maximum index in each direction: 
   IXMAX=    3   IYMAX=    3   IZMAX=    3
   IXMIN=   -3   IYMIN=   -3   IZMIN=   -3


 serial   3D FFT for wavefunctions
 parallel 3D FFT for charge:
    minimum data exchange during FFTs selected (reduces bandwidth)


 total amount of memory used by VASP MPI-rank0    33768. kBytes
=======================================================================

   base      :      30000. kBytes
   nonl-proj :       1839. kBytes
   fftplans  :        142. kBytes
   grid      :        320. kBytes
   one-center:         31. kBytes
   wavefun   :       1436. kBytes
 
     INWAV:  cpu time    0.0000: real time    0.0000
 Broyden mixing: mesh for mixing (old mesh)
   NGX =  7   NGY =  7   NGZ =  7
  (NGX  = 20   NGY  = 20   NGZ  = 20)
  gives a total of    343 points

 initial charge density was supplied:
 charge density of overlapping atoms calculated
 number of electron      10.0000000 magnetization       3.0000000
 keeping initial charge density in first step


--------------------------------------------------------------------------------------------------------


 Maximum index for augmentation-charges          781 (set IRDMAX)


--------------------------------------------------------------------------------------------------------


 First call to EWALD:  gamma=   0.816
 Maximum number of real-space cells 3x 3x 3
 Maximum number of reciprocal cells 3x 3x 3

    FEWALD:  cpu time    0.0012: real time    0.0012


--------------------------------------- Iteration      1(   1)  ---------------------------------------


    POTLOK:  cpu time    0.0034: real time    0.0047
    SETDIJ:  cpu time    0.0039: real time    0.0039
     EDDAV:  cpu time    0.3236: real time    0.3307
       DOS:  cpu time    0.0019: real time    0.0019
    --------------------------------------------
      LOOP:  cpu time    0.3328: real time    0.3412

 eigenvalue-minimisations  :  5864
 total energy-change (2. order) : 0.1818181E+02  (-0.2959167E+03)
 number of electron      10.0000000 magnetization       3.0000000
 augmentation part       10.0000000 magnetization       3.0000000

 Free energy of the ion-electron system (eV)
  ---------------------------------------------------
  alpha Z        PSCENC =        49.67842074
  Ewald energy   TEWEN  =      -956.82663836
  -Hartree energ DENC   =      -236.35294024
  -exchange      EXHF   =         0.00000000
  -V(xc)+E(xc)   XCENC  =        32.91829952
  PAW double counting   =       961.92645289    -1028.66799202
  entropy T*S    EENTRO =         0.00199205
  eigenvalues    EBANDS =       117.86813830
  atomic energy  EATOM  =      1077.63607467
  Solvation  Ediel_sol  =         0.00000000
  ---------------------------------------------------
  free energy    TOTEN  =        18.18180755 eV

  energy without entropy =       18.17981550  energy(sigma->0) =       18.18114354


--------------------------------------------------------------------------------------------------------




--------------------------------------- Iteration      1(   2)  ---------------------------------------


     EDDAV:  cpu time    0.3079: real time    0.3148
       DOS:  cpu time    0.0020: real time    0.0020
    --------------------------------------------
      LOOP:  cpu time    0.3099: real time    0.3168

 eigenvalue-minimisations  :  5792
 total energy-change (2. order) :-0.2354421E+02  (-0.2189679E+02)
 number of electron      10.0000000 magnetization       3.0000000
 augmentation part       10.0000000 magnetization       3.0000000

 Free energy of the ion-electron system (eV)
  ---------------------------------------------------
  alpha Z        PSCENC =        49.67842074
  Ewald energy   TEWEN  =      -956.82663836
  -Hartree energ DENC   =      -236.35294024
  -exchange      EXHF   =         0.00000000
  -V(xc)+E(xc)   XCENC  =        32.91829952
  PAW double counting   =       961.92645289    -1028.66799202
  entropy T*S    EENTRO =        -0.00135525
  eigenvalues    EBANDS =        94.32727541
  atomic energy  EATOM  =      1077.63607467
  Solvation  Ediel_sol  =         0.00000000
  ---------------------------------------------------
  free energy    TOTEN  =        -5.36240264 eV

  energy without entropy =       -5.36104739  energy(sigma->0) =       -5.36195089


--------------------------------------------------------------------------------------------------------




--------------------------------------- Iteration      1(   3)  ---------------------------------------


     EDDAV:  cpu time    0.3270: real time    0.3341
       DOS:  cpu time    0.0019: real time    0.0019
    --------------------------------------------
      LOOP:  cpu time    0.3289: real time    0.3360

 eigenvalue-minimisations  :  5984
 total energy-change (2. order) :-0.4261423E+00  (-0.4252960E+00)
 number of electron      10.0000000 magnetization       3.0000000
 augmentation part       10.0000000 magnetization       3.0000000

 Free energy of the ion-electron system (eV)
  ---------------------------------------------------
  alpha Z        PSCENC =        49.67842074
  Ewald energy   TEWEN  =      -956.82663836
  -Hartree energ DENC   =      -236.35294024
  -exchange      EXHF   =         0.00000000
  -V(xc)+E(xc)   XCENC  =        32.91829952
  PAW double counting   =       961.92645289    -1028.66799202
  entropy T*S    EENTRO =        -0.00132583
  eigenvalues    EBANDS =        93.90110371
  atomic energy  EATOM  =      1077.63607467
  Solvation  Ediel_sol  =         0.00000000
  ---------------------------------------------------
  free energy    TOTEN  =        -5.78854492 eV

  energy without entropy =       -5.78721909  energy(sigma->0) =       -5.78810297


--------------------------------------------------------------------------------------------------------




--------------------------------------- Iteration      1(   4)  ---------------------------------------


     EDDAV:  cpu time    0.3265: real time    0.3336
       DOS:  cpu time    0.0019: real time    0.0019
    --------------------------------------------
      LOOP:  cpu time    0.3284: real time    0.3355

 eigenvalue-minimisations  :  6092
 total energy-change (2. order) :-0.2117045E-02  (-0.2116895E-02)
 number of electron      10.0000000 magnetization       3.0000000
 augmentation part       10.0000000 magnetization       3.0000000

 Free energy of the ion-electron system (eV)
  ---------------------------------------------------
  alpha Z        PSCENC =        49.67842074
  Ewald energy   TEWEN  =      -956.82663836
  -Hartree energ DENC   =      -236.35294024
  -exchange      EXHF   =         0.00000000
  -V(xc)+E(xc)   XCENC  =        32.91829952
  PAW double counting   =       961.92645289    -1028.66799202
  entropy T*S    EENTRO =        -0.00132368
  eigenvalues    EBANDS =        93.89898452
  atomic energy  EATOM  =      1077.63607467
  Solvation  Ediel_sol  =         0.00000000
  ---------------------------------------------------
  free energy    TOTEN  =        -5.79066196 eV

  energy without entropy =       -5.78933828  energy(sigma->0) =       -5.79022074


--------------------------------------------------------------------------------------------------------




--------------------------------------- Iteration      1(   5)  ---------------------------------------


     EDDAV:  cpu time    0.3112: real time    0.3184
       DOS:  cpu time    0.0020: real time    0.0020
    CHARGE:  cpu time    0.0044: real time    0.0044
    MIXING:  cpu time    0.0002: real time    0.0002
    --------------------------------------------
      LOOP:  cpu time    0.3178: real time    0.3250

 eigenvalue-minimisations  :  5816
 total energy-change (2. order) :-0.2590379E-04  (-0.2590188E-04)
 number of electron       9.9999874 magnetization       0.4874915
 augmentation part        5.5692490 magnetization       0.2914707

 Broyden mixing:
  rms(total) = 0.14588E+01    rms(broyden)= 0.14587E+01
  rms(prec ) = 0.35534E+01
  weight for this iteration     100.00

 Free energy of the ion-electron system (eV)
  ---------------------------------------------------
  alpha Z        PSCENC =        49.67842074
  Ewald energy   TEWEN  =      -956.82663836
  -Hartree energ DENC   =      -236.35294024
  -exchange      EXHF   =         0.00000000
  -V(xc)+E(xc)   XCENC  =        32.91829952
  PAW double counting   =       961.92645289    -1028.66799202
  entropy T*S    EENTRO =        -0.00132364
  eigenvalues    EBANDS =        93.89895857
  atomic energy  EATOM  =      1077.63607467
  Solvation  Ediel_sol  =         0.00000000
  ---------------------------------------------------
  free energy    TOTEN  =        -5.79068787 eV

  energy without entropy =       -5.78936423  energy(sigma->0) =       -5.79024665


--------------------------------------------------------------------------------------------------------




--------------------------------------- Iteration      1(   6)  ---------------------------------------


    POTLOK:  cpu time    0.0036: real time    0.0037
    SETDIJ:  cpu time    0.0033: real time    0.0034
     EDDAV:  cpu time    0.3389: real time    0.3457
       DOS:  cpu time    0.0019: real time    0.0019
    CHARGE:  cpu time    0.0048: real time    0.0048
    MIXING:  cpu time    0.0003: real time    0.0003
    --------------------------------------------
      LOOP:  cpu time    0.3528: real time    0.3598

 eigenvalue-minimisations  :  6640
 total energy-change (2. order) : 0.2990409E-01  (-0.1231578E+01)
 number of electron       9.9999850 magnetization       0.5670767
 augmentation part        6.4498629 magnetization       0.6096640

 Broyden mixing:
  rms(total) = 0.56168E+00    rms(broyden)= 0.56160E+00
  rms(prec ) = 0.14471E+01
  weight for this iteration     100.00

 eigenvalues of (default mixing * dielectric matrix)
  average eigenvalue GAMMA=   0.9192
  0.9192

 Free energy of the ion-electron system (eV)
  ---------------------------------------------------
  alpha Z        PSCENC =        49.67842074
  Ewald energy   TEWEN  =      -956.82663836
  -Hartree energ DENC   =      -211.69765468
  -exchange      EXHF   =         0.00000000
  -V(xc)+E(xc)   XCENC  =        30.68519213
  PAW double counting   =      1043.97813907    -1106.76809534
  entropy T*S    EENTRO =        -0.00451095
  eigenvalues    EBANDS =        67.55828894
  atomic energy  EATOM  =      1077.63607467
  Solvation  Ediel_sol  =         0.00000000
  ---------------------------------------------------
  free energy    TOTEN  =        -5.76078378 eV

  energy without entropy =       -5.75627283  energy(sigma->0) =       -5.75928013


--------------------------------------------------------------------------------------------------------




--------------------------------------- Iteration      1(   7)  ---------------------------------------


    POTLOK:  cpu time    0.0032: real time    0.0033
    SETDIJ:  cpu time    0.0032: real time    0.0032
     EDDAV:  cpu time    0.3370: real time    0.3438
       DOS:  cpu time    0.0020: real time    0.0020
    CHARGE:  cpu time    0.0046: real time    0.0045
    MIXING:  cpu time    0.0003: real time    0.0003
    --------------------------------------------
      LOOP:  cpu time    0.3502: real time    0.3570

 eigenvalue-minimisations  :  6628
 total energy-change (2. order) : 0.3041116E+00  (-0.2432143E+00)
 number of electron       9.9999860 magnetization       0.6600788
 augmentation part        6.1135982 magnetization       0.6428436

 Broyden mixing:
  rms(total) = 0.17585E+00    rms(broyden)= 0.17582E+00
  rms(prec ) = 0.36122E+00
  weight for this iteration     100.00

 eigenvalues of (default mixing * dielectric matrix)
  average eigenvalue GAMMA=   0.8943
  1.0606  0.7280

 Free energy of the ion-electron system (eV)
  ---------------------------------------------------
  alpha Z        PSCENC =        49.67842074
  Ewald energy   TEWEN  =      -956.82663836
  -Hartree energ DENC   =      -218.90733289
  -exchange      EXHF   =         0.00000000
  -V(xc)+E(xc)   XCENC  =        31.04147486
  PAW double counting   =      1081.91148003    -1148.61405559
  entropy T*S    EENTRO =        -0.00122415
  eigenvalues    EBANDS =        78.62512848
  atomic energy  EATOM  =      1077.63607467
  Solvation  Ediel_sol  =         0.00000000
  ---------------------------------------------------
  free energy    TOTEN  =        -5.45667220 eV

  energy without entropy =       -5.45544806  energy(sigma->0) =       -5.45626416


--------------------------------------------------------------------------------------------------------




--------------------------------------- Iteration      1(   8)  ---------------------------------------


    POTLOK:  cpu time    0.0031: real time    0.0032
    SETDIJ:  cpu time    0.0033: real time    0.0032
     EDDAV:  cpu time    0.3301: real time    0.3371
       DOS:  cpu time    0.0021: real time    0.0021
    CHARGE:  cpu time    0.0042: real time    0.0042
    MIXING:  cpu time    0.0003: real time    0.0003
    --------------------------------------------
      LOOP:  cpu time    0.3431: real time    0.3501

 eigenvalue-minimisations  :  5944
 total energy-change (2. order) : 0.1178902E-01  (-0.1664167E-02)
 number of electron       9.9999860 magnetization       0.6121348
 augmentation part        6.1335268 magnetization       0.5786692

 Broyden mixing:
  rms(total) = 0.95578E-01    rms(broyden)= 0.95576E-01
  rms(prec ) = 0.17849E+00
  weight for this iteration     100.00

 eigenvalues of (default mixing * dielectric matrix)
  average eigenvalue GAMMA=   0.9015
  1.3196  0.6925  0.6925

 Free energy of the ion-electron system (eV)
  ---------------------------------------------------
  alpha Z        PSCENC =        49.67842074
  Ewald energy   TEWEN  =      -956.82663836
  -Hartree energ DENC   =      -217.10717332
  -exchange      EXHF   =         0.00000000
  -V(xc)+E(xc)   XCENC  =        30.95457177
  PAW double counting   =      1122.97581835    -1190.72853540
  entropy T*S    EENTRO =        -0.00143131
  eigenvalues    EBANDS =        77.97400968
  atomic energy  EATOM  =      1077.63607467
  Solvation  Ediel_sol  =         0.00000000
  ---------------------------------------------------
  free energy    TOTEN  =        -5.44488319 eV

  energy without entropy =       -5.44345187  energy(sigma->0) =       -5.44440608


--------------------------------------------------------------------------------------------------------




--------------------------------------- Iteration      1(   9)  ---------------------------------------


    POTLOK:  cpu time    0.0031: real time    0.0033
    SETDIJ:  cpu time    0.0033: real time    0.0032
     EDDAV:  cpu time    0.3505: real time    0.3574
       DOS:  cpu time    0.0020: real time    0.0020
    CHARGE:  cpu time    0.0038: real time    0.0038
    MIXING:  cpu time    0.0002: real time    0.0003
    --------------------------------------------
      LOOP:  cpu time    0.3629: real time    0.3700

 eigenvalue-minimisations  :  6728
 total energy-change (2. order) : 0.3296743E-02  (-0.2076152E-03)
 number of electron       9.9999859 magnetization       0.6066983
 augmentation part        6.1432157 magnetization       0.5772836

 Broyden mixing:
  rms(total) = 0.41779E-01    rms(broyden)= 0.41779E-01
  rms(prec ) = 0.76922E-01
  weight for this iteration     100.00

 eigenvalues of (default mixing * dielectric matrix)
  average eigenvalue GAMMA=   1.1296
  2.2408  0.9985  0.6787  0.6006

 Free energy of the ion-electron system (eV)
  ---------------------------------------------------
  alpha Z        PSCENC =        49.67842074
  Ewald energy   TEWEN  =      -956.82663836
  -Hartree energ DENC   =      -216.12158017
  -exchange      EXHF   =         0.00000000
  -V(xc)+E(xc)   XCENC  =        30.90216130
  PAW double counting   =      1149.39038896    -1217.80183648
  entropy T*S    EENTRO =        -0.00156010
  eigenvalues    EBANDS =        77.70298300
  atomic energy  EATOM  =      1077.63607467
  Solvation  Ediel_sol  =         0.00000000
  ---------------------------------------------------
  free energy    TOTEN  =        -5.44158644 eV

  energy without entropy =       -5.44002635  energy(sigma->0) =       -5.44106641


--------------------------------------------------------------------------------------------------------




--------------------------------------- Iteration      1(  10)  ---------------------------------------


    POTLOK:  cpu time    0.0030: real time    0.0031
    SETDIJ:  cpu time    0.0031: real time    0.0031
     EDDAV:  cpu time    0.2815: real time    0.2881
       DOS:  cpu time    0.0021: real time    0.0021
    CHARGE:  cpu time    0.0043: real time    0.0043
    MIXING:  cpu time    0.0003: real time    0.0003
    --------------------------------------------
      LOOP:  cpu time    0.2944: real time    0.3012

 eigenvalue-minimisations  :  4892
 total energy-change (2. order) : 0.8345744E-03  (-0.1129588E-03)
 number of electron       9.9999859 magnetization       0.6185956
 augmentation part        6.1497254 magnetization       0.5915930

 Broyden mixing:
  rms(total) = 0.50611E-02    rms(broyden)= 0.50595E-02
  rms(prec ) = 0.73432E-02
  weight for this iteration     100.00

 eigenvalues of (default mixing * dielectric matrix)
  average eigenvalue GAMMA=   1.1355
  2.4056  1.1495  0.8356  0.6434  0.6434

 Free energy of the ion-electron system (eV)
  ---------------------------------------------------
  alpha Z        PSCENC =        49.67842074
  Ewald energy   TEWEN  =      -956.82663836
  -Hartree energ DENC   =      -215.42856243
  -exchange      EXHF   =         0.00000000
  -V(xc)+E(xc)   XCENC  =        30.87062122
  PAW double counting   =      1169.22454128    -1238.09105418
  entropy T*S    EENTRO =        -0.00160564
  eigenvalues    EBANDS =        77.49745082
  atomic energy  EATOM  =      1077.63607467
  Solvation  Ediel_sol  =         0.00000000
  ---------------------------------------------------
  free energy    TOTEN  =        -5.44075187 eV

  energy without entropy =       -5.43914623  energy(sigma->0) =       -5.44021666


--------------------------------------------------------------------------------------------------------




--------------------------------------- Iteration      1(  11)  ---------------------------------------


    POTLOK:  cpu time    0.0032: real time    0.0033
    SETDIJ:  cpu time    0.0032: real time    0.0032
     EDDAV:  cpu time    0.2198: real time    0.2262
       DOS:  cpu time    0.0021: real time    0.0021
    --------------------------------------------
      LOOP:  cpu time    0.2282: real time    0.2348

 eigenvalue-minimisations  :  2904
 total energy-change (2. order) :-0.1561465E-04  (-0.3188601E-05)
 number of electron       9.9999859 magnetization       0.6185956
 augmentation part        6.1497254 magnetization       0.5915930

 Free energy of the ion-electron system (eV)
  ---------------------------------------------------
  alpha Z        PSCENC =        49.67842074
  Ewald energy   TEWEN  =      -956.82663836
  -Hartree energ DENC   =      -215.36322220
  -exchange      EXHF   =         0.00000000
  -V(xc)+E(xc)   XCENC  =        30.86964100
  PAW double counting   =      1172.36817262    -1241.27934455
  entropy T*S    EENTRO =        -0.00156603
  eigenvalues    EBANDS =        77.47769463
  atomic energy  EATOM  =      1077.63607467
  Solvation  Ediel_sol  =         0.00000000
  ---------------------------------------------------
  free energy    TOTEN  =        -5.44076748 eV

  energy without entropy =       -5.43920145  energy(sigma->0) =       -5.44024547


--------------------------------------------------------------------------------------------------------




 average (electrostatic) potential at core
  the test charge radii are     0.9791
  (the norm of the test charge is              1.0000)
       1 -81.2615
 
 
 
 E-fermi :  10.2162     XC(G=0): -13.6017     alpha+bet :-17.4475


 spin component 1

 k-point     1 :       0.0500    0.0500    0.0500
  band No.  band energies     occupation 
      1       0.9027      1.00000
      2       7.6139      1.00000
      3       7.6657      1.00000
      4       7.6657      1.00000
      5       8.8865      1.00000
      6       8.8865      1.00000
      7      34.2174      0.00000
      8      37.3729      0.00000
      9      38.5524      0.00000
     10      38.5524      0.00000
     11      42.3932      0.00000
     12      42.3932      0.00000

 k-point     2 :       0.1500    0.0500    0.0500
  band No.  band energies     occupation 
      1       1.4382      1.00000
      2       7.4695      1.00000
      3       7.7760      1.00000
      4       7.7931      1.00000
      5       8.7804      1.00000
      6       8.9193      1.00000
      7      32.1870      0.00000
      8      34.6173      0.00000
      9      37.3382      0.00000
     10      39.2812      0.00000
     11      41.9623      0.00000
     12      42.6091      0.00000

 k-point     3 :       0.2500    0.0500    0.0500
  band No.  band energies     occupation 
      1       2.6800      1.00000
      2       7.2652      1.00000
      3       7.8917      1.00000
      4       7.9240      1.00000
      5       8.7650      1.00000
      6       9.0499      1.00000
      7      27.0807      0.00000
      8      33.4832      0.00000
      9      36.7182      0.00000
     10      38.7850      0.00000
     11      41.5724      0.00000
     12      42.0458      0.00000

 k-point     4 :       0.3500    0.0500    0.0500
  band No.  band energies     occupation 
      1       4.1978      1.00000
      2       7.4339      1.00000
      3       7.8001      1.00000
      4       7.8526      1.00000
      5       9.0755      1.00000
      6       9.4120      1.00000
      7      22.0841      0.00000
      8      32.8022      0.00000
      9      35.5836      0.00000
     10      38.0278      0.00000
     11      39.7107      0.00000
     12      41.5178      0.00000

 k-point     5 :       0.4500    0.0500    0.0500
  band No.  band energies     occupation 
      1       5.0055      1.00000
      2       7.6553      1.00000
      3       7.7231      1.00000
      4       8.5460      1.00000
      5       9.4582      1.00000
      6       9.9747      1.03541
      7      17.9475      0.00000
      8      32.4556      0.00000
      9      34.8867      0.00000
     10      36.3868      0.00000
     11      39.2708      0.00000
     12      40.6888      0.00000

 k-point     6 :      -0.4500    0.0500    0.0500
  band No.  band energies     occupation 
      1       5.1189      1.00000
      2       7.6015      1.00000
      3       7.6884      1.00000
      4       9.0030      1.00000
      5       9.6334      1.00015
      6      10.4766     -0.03463
      7      16.4095      0.00000
      8      32.5029      0.00000
      9      35.0635      0.00000
     10      35.1529      0.00000
     11      39.8879      0.00000
     12      39.9461      0.00000

 k-point     7 :      -0.3500    0.0500    0.0500
  band No.  band energies     occupation 
      1       4.8482      1.00000
      2       7.6834      1.00000
      3       7.7736      1.00000
      4       8.0910      1.00000
      5       9.5144      1.00000
      6       9.6038      1.00007
      7      19.1736      0.00000
      8      32.9860      0.00000
      9      34.5490      0.00000
     10      36.4101      0.00000
     11      39.7785      0.00000
     12      41.2490      0.00000

 k-point     8 :      -0.2500    0.0500    0.0500
  band No.  band energies     occupation 
      1       3.7163      1.00000
      2       7.2784      1.00000
      3       7.8447      1.00000
      4       7.8988      1.00000
      5       9.0219      1.00000
      6       9.2062      1.00000
      7      23.6828      0.00000
      8      33.8138      0.00000
      9      34.7720      0.00000
     10      38.2826      0.00000
     11      40.0819      0.00000
     12      43.1194      0.00000

 k-point     9 :      -0.1500    0.0500    0.0500
  band No.  band energies     occupation 
      1       2.2025      1.00000
      2       7.3127      1.00000
      3       7.8872      1.00000
      4       7.8972      1.00000
      5       8.7439      1.00000
      6       8.9726      1.00000
      7      28.8417      0.00000
      8      34.6809      0.00000
      9      35.5874      0.00000
     10      39.3309      0.00000
     11      40.8743      0.00000
     12      44.8381      0.00000

 k-point    10 :      -0.0500    0.0500    0.0500
  band No.  band energies     occupation 
      1       1.1729      1.00000
      2       7.5213      1.00000
      3       7.7375      1.00000
      4       7.7415      1.00000
      5       8.7985      1.00000
      6       8.9261      1.00000
      7      33.4921      0.00000
      8      35.9700      0.00000
      9      36.9109      0.00000
     10      38.4578      0.00000
     11      42.4515      0.00000
     12      43.9356      0.00000

 k-point    11 :       0.1500    0.1500    0.0500
  band No.  band energies     occupation 
      1       1.7005      1.00000
      2       7.3363      1.00000
      3       7.8872      1.00000
      4       7.8903      1.00000
      5       8.6395      1.00000
      6       9.0036      1.00000
      7      32.3807      0.00000
      8      34.6037      0.00000
      9      34.9721      0.00000
     10      37.0491      0.00000
     11      43.1259      0.00000
     12      44.4864      0.00000

 k-point    12 :       0.2500    0.1500    0.0500
  band No.  band energies     occupation 
      1       2.6941      1.00000
      2       7.0928      1.00000
      3       7.9721      1.00000
      4       8.1030      1.00000
      5       8.5776      1.00000
      6       9.1443      1.00000
      7      29.1991      0.00000
      8      31.4632      0.00000
      9      35.2682      0.00000
     10      36.7517      0.00000
     11      41.2854      0.00000
     12      44.4204      0.00000

 k-point    13 :       0.3500    0.1500    0.0500
  band No.  band energies     occupation 
      1       4.1448      1.00000
      2       6.9796      1.00000
      3       7.7466      1.00000
      4       8.1331      1.00000
      5       9.0163      1.00000
      6       9.5269      1.00001
      7      24.0625      0.00000
      8      30.6227      0.00000
      9      33.7186      0.00000
     10      36.2975      0.00000
     11      42.7390      0.00000
     12      42.9998      0.00000

 k-point    14 :       0.4500    0.1500    0.0500
  band No.  band energies     occupation 
      1       5.2084      1.00000
      2       7.3456      1.00000
      3       7.6025      1.00000
      4       8.0146      1.00000
      5       9.4957      1.00000
      6      10.4793     -0.03434
      7      19.4921      0.00000
      8      30.3224      0.00000
      9      32.1112      0.00000
     10      35.3417      0.00000
     11      41.8795      0.00000
     12      44.2935      0.00000

 k-point    15 :      -0.4500    0.1500    0.0500
  band No.  band energies     occupation 
      1       5.4494      1.00000
      2       7.3349      1.00000
      3       7.9187      1.00000
      4       8.1132      1.00000
      5       9.6041      1.00007
      6      11.9303     -0.00000
      7      16.5295      0.00000
      8      29.9083      0.00000
      9      31.7037      0.00000
     10      35.1203      0.00000
     11      41.1967      0.00000
     12      43.9569      0.00000

 k-point    16 :      -0.3500    0.1500    0.0500
  band No.  band energies     occupation 
      1       5.3615      1.00000
      2       7.4158      1.00000
      3       7.8066      1.00000
      4       7.9643      1.00000
      5       9.3957      1.00000
      6      11.0887     -0.00000
      7      18.2268      0.00000
      8      29.2595      0.00000
      9      32.8304      0.00000
     10      35.8982      0.00000
     11      40.8223      0.00000
     12      43.6164      0.00000

 k-point    17 :      -0.2500    0.1500    0.0500
  band No.  band energies     occupation 
      1       4.6179      1.00000
      2       7.1212      1.00000
      3       7.6514      1.00000
      4       8.0813      1.00000
      5       8.9436      1.00000
      6       9.9425      1.03286
      7      22.4679      0.00000
      8      29.1877      0.00000
      9      34.6519      0.00000
     10      37.5911      0.00000
     11      40.7415      0.00000
     12      42.8823      0.00000

 k-point    18 :      -0.1500    0.1500    0.0500
  band No.  band energies     occupation 
      1       3.1564      1.00000
      2       7.0871      1.00000
      3       7.8773      1.00000
      4       8.1338      1.00000
      5       8.5739      1.00000
      6       9.3167      1.00000
      7      27.4665      0.00000
      8      29.7732      0.00000
      9      36.8545      0.00000
     10      38.3862      0.00000
     11      41.6633      0.00000
     12      42.2546      0.00000

 k-point    19 :      -0.0500    0.1500    0.0500
  band No.  band energies     occupation 
      1       1.9559      1.00000
      2       7.3190      1.00000
      3       7.8900      1.00000
      4       7.9038      1.00000
      5       8.6653      1.00000
      6       9.0060      1.00000
      7      30.6836      0.00000
      8      33.0253      0.00000
      9      36.6370      0.00000
     10      38.7827      0.00000
     11      41.8084      0.00000
     12      43.8157      0.00000

 k-point    20 :       0.2500    0.2500    0.0500
  band No.  band energies     occupation 
      1       3.3669      1.00000
      2       6.7967      1.00000
      3       8.1358      1.00000
      4       8.3792      1.00000
      5       8.5507      1.00000
      6       9.2331      1.00000
      7      29.6719      0.00000
      8      31.2232      0.00000
      9      32.1668      0.00000
     10      33.3506      0.00000
     11      38.3071      0.00000
     12      48.4424      0.00000

 k-point    21 :       0.3500    0.2500    0.0500
  band No.  band energies     occupation 
      1       4.4833      1.00000
      2       6.5521      1.00000
      3       7.8934      1.00000
      4       8.6443      1.00000
      5       9.0554      1.00000
      6       9.5488      1.00001
      7      26.5135      0.00000
      8      28.5549      0.00000
      9      30.4438      0.00000
     10      33.9928      0.00000
     11      38.3263      0.00000
     12      47.9811      0.00000

[...]
      4       8.4123      1.00000
      5      10.0430      1.00507
      6      10.0430      1.00507
      7      20.7361      0.00000
      8      33.5194      0.00000
      9      36.3066      0.00000
     10      36.3066      0.00000
     11      40.3905      0.00000
     12      40.3905      0.00000

 k-point   102 :       0.4500    0.3500    0.3500
  band No.  band energies     occupation 
      1       5.3130      1.00000
      2       8.1065      1.00000
      3       8.2688      1.00000
      4       8.4917      1.00000
      5       9.9726      1.03545
      6      10.8982     -0.00001
      7      19.5926      0.00000
      8      30.3888      0.00000
      9      34.8242      0.00000
     10      36.2713      0.00000
     11      40.5465      0.00000
     12      41.7404      0.00000

 k-point   103 :      -0.4500    0.3500    0.3500
  band No.  band energies     occupation 
      1       6.2029      1.00000
      2       7.5911      1.00000
      3       7.9877      1.00000
      4       8.8331      1.00000
      5       9.9656      1.03534
      6      12.5921     -0.00000
      7      18.9378      0.00000
      8      25.7818      0.00000
      9      33.0870      0.00000
     10      34.0335      0.00000
     11      44.1066      0.00000
     12      44.2911      0.00000

 k-point   104 :      -0.3500    0.3500    0.3500
  band No.  band energies     occupation 
      1       6.8104      1.00000
      2       6.9828      1.00000
      3       7.9739      1.00000
      4       9.2930      1.00000
      5      10.0832      0.94700
      6      14.9935     -0.00000
      7      18.3435      0.00000
      8      22.0691      0.00000
      9      30.2882      0.00000
     10      33.2311      0.00000
     11      47.6972      0.00000
     12      47.7455      0.00000

 k-point   105 :       0.4500    0.4500    0.3500
  band No.  band energies     occupation 
      1       5.5298      1.00000
      2       8.0230      1.00000
      3       8.4743      1.00000
      4       8.4883      1.00000
      5      10.3733      0.01373
      6      11.0059     -0.00000
      7      18.3678      0.00000
      8      31.6007      0.00000
      9      33.2168      0.00000
     10      34.6537      0.00000
     11      41.7544      0.00000
     12      42.3601      0.00000

 k-point   106 :      -0.4500    0.4500    0.3500
  band No.  band energies     occupation 
      1       6.0979      1.00000
      2       7.5927      1.00000
      3       8.2393      1.00000
      4       8.7489      1.00000
      5      10.2784      0.25040
      6      12.6338     -0.00000
      7      17.6669      0.00000
      8      28.3319      0.00000
      9      30.1100      0.00000
     10      36.1838      0.00000
     11      41.1381      0.00000
     12      46.2990      0.00000

 k-point   107 :      -0.3500    0.4500    0.3500
  band No.  band energies     occupation 
      1       6.7747      1.00000
      2       7.0266      1.00000
      3       7.9350      1.00000
      4       9.1746      1.00000
      5      10.2692      0.28407
      6      14.9501     -0.00000
      7      17.4045      0.00000
      8      24.2723      0.00000
      9      27.5737      0.00000
     10      36.5000      0.00000
     11      42.8531      0.00000
     12      49.5886      0.00000

 k-point   108 :      -0.4500   -0.4500    0.3500
  band No.  band energies     occupation 
      1       6.2944      1.00000
      2       7.3681      1.00000
      3       8.2538      1.00000
      4       8.8622      1.00000
      5      10.3452      0.06080
      6      13.5362     -0.00000
      7      17.0733      0.00000
      8      26.6962      0.00000
      9      31.1735      0.00000
     10      33.3724      0.00000
     11      45.0971      0.00000
     12      45.2136      0.00000

 k-point   109 :       0.4500    0.4500    0.4500
  band No.  band energies     occupation 
      1       5.4114      1.00000
      2       8.2819      1.00000
      3       8.2819      1.00000
      4       9.4345      1.00000
      5      10.3372      0.07769
      6      10.3372      0.07769
      7      17.3072      0.00000
      8      32.8769      0.00000
      9      36.0544      0.00000
     10      36.0544      0.00000
     11      39.1210      0.00000
     12      39.1210      0.00000

 k-point   110 :      -0.4500    0.4500    0.4500
  band No.  band energies     occupation 
      1       5.7152      1.00000
      2       8.0323      1.00000
      3       8.4208      1.00000
      4       8.8488      1.00000
      5      10.3251      0.10651
      6      11.6964     -0.00000
      7      16.8540      0.00000
      8      30.7642      0.00000
      9      34.1954      0.00000
     10      34.2654      0.00000
     11      41.1822      0.00000
     12      41.7640      0.00000


--------------------------------------------------------------------------------------------------------


 soft charge-density along one line, spin component           1
         0         1         2         3         4         5         6         7         8         9
 total charge-density along one line
 
 soft charge-density along one line, spin component           2
         0         1         2         3         4         5         6         7         8         9
 total charge-density along one line
 
 pseudopotential strength for first ion, spin component:           1
 -0.053   0.000   0.000   0.000   0.000   0.000   0.000   0.000  -0.000   0.000  -0.752   0.000   0.000   0.000   0.000   0.000
  0.000   0.000  -0.053   0.000  -0.000   0.000   0.000   0.000   0.000   0.000   0.000   0.000  -0.752   0.000  -0.000   0.000
  0.000   0.000  -0.000   0.000   0.050   0.000  -0.000   0.000  -0.000   0.000   0.000   0.000  -0.000   0.000  -0.654   0.000
  0.000   0.000   0.000   0.000  -0.000   0.000  -0.053   0.000  -0.000   0.000   0.000   0.000   0.000   0.000  -0.000   0.000
 -0.000   0.000   0.000   0.000  -0.000   0.000  -0.000   0.000   0.050   0.000  -0.000   0.000   0.000   0.000  -0.000   0.000
 -0.752   0.000   0.000   0.000   0.000   0.000   0.000   0.000  -0.000   0.000  -1.380   0.000   0.000   0.000   0.000   0.000
  0.000   0.000  -0.752   0.000  -0.000   0.000   0.000   0.000   0.000   0.000   0.000   0.000  -1.380   0.000  -0.000   0.000
  0.000   0.000  -0.000   0.000  -0.654   0.000  -0.000   0.000  -0.000   0.000   0.000   0.000  -0.000   0.000  -1.285   0.000
  0.000   0.000   0.000   0.000  -0.000   0.000  -0.752   0.000  -0.000   0.000   0.000   0.000   0.000   0.000  -0.000   0.000
 -0.000   0.000   0.000   0.000  -0.000   0.000  -0.000   0.000  -0.654   0.000  -0.000   0.000   0.000   0.000  -0.000   0.000
 -0.000   0.000  -0.000   0.000   0.000   0.000  -0.000   0.000  -0.000   0.000  -0.000   0.000  -0.000   0.000   0.000   0.000
 -0.000   0.000  -0.000   0.000   0.000   0.000  -0.000   0.000  -0.000   0.000  -0.000   0.000  -0.000   0.000   0.000   0.000
 -0.000   0.000  -0.000   0.000   0.000   0.000   0.000   0.000   0.000   0.000  -0.000   0.000  -0.000   0.000   0.000   0.000
  0.000   0.000  -0.000   0.000  -0.000   0.000  -0.000   0.000  -0.000   0.000   0.000   0.000  -0.000   0.000  -0.000   0.000
 -0.000   0.000   0.000   0.000   0.000   0.000  -0.000   0.000  -0.000   0.000  -0.000   0.000   0.000   0.000   0.000   0.000
 -0.000   0.000  -0.000   0.000   0.000   0.000   0.000   0.000   0.000   0.000  -0.000   0.000  -0.000   0.000   0.000   0.000
  0.000   0.000  -0.000   0.000  -0.000   0.000  -0.000   0.000  -0.000   0.000   0.000   0.000  -0.000   0.000  -0.000   0.000
 -0.000   0.000   0.000   0.000   0.000   0.000  -0.000   0.000  -0.000   0.000  -0.000   0.000   0.000   0.000   0.000   0.000
 pseudopotential strength for first ion, spin component:           2
  0.566   0.000   0.000   0.000   0.000   0.000   0.000   0.000   0.000   0.000  -0.163   0.000   0.000   0.000   0.000   0.000
  0.000   0.000   0.566   0.000  -0.000   0.000   0.000   0.000   0.000   0.000   0.000   0.000  -0.163   0.000  -0.000   0.000
  0.000   0.000  -0.000   0.000   0.542   0.000  -0.000   0.000  -0.000   0.000   0.000   0.000  -0.000   0.000  -0.185   0.000
  0.000   0.000   0.000   0.000  -0.000   0.000   0.566   0.000  -0.000   0.000   0.000   0.000   0.000   0.000  -0.000   0.000
  0.000   0.000   0.000   0.000  -0.000   0.000  -0.000   0.000   0.542   0.000   0.000   0.000   0.000   0.000  -0.000   0.000
 -0.163   0.000   0.000   0.000   0.000   0.000   0.000   0.000   0.000   0.000  -0.817   0.000   0.000   0.000   0.000   0.000
  0.000   0.000  -0.163   0.000  -0.000   0.000   0.000   0.000   0.000   0.000   0.000   0.000  -0.817   0.000  -0.000   0.000
  0.000   0.000  -0.000   0.000  -0.185   0.000  -0.000   0.000  -0.000   0.000   0.000   0.000  -0.000   0.000  -0.839   0.000
  0.000   0.000   0.000   0.000  -0.000   0.000  -0.163   0.000  -0.000   0.000   0.000   0.000   0.000   0.000  -0.000   0.000
  0.000   0.000   0.000   0.000  -0.000   0.000  -0.000   0.000  -0.185   0.000   0.000   0.000   0.000   0.000  -0.000   0.000
 -0.000   0.000  -0.000   0.000   0.000   0.000  -0.000   0.000  -0.000   0.000  -0.000   0.000  -0.000   0.000   0.000   0.000
 -0.000   0.000  -0.000   0.000   0.000   0.000  -0.000   0.000  -0.000   0.000  -0.000   0.000  -0.000   0.000   0.000   0.000
 -0.000   0.000  -0.000   0.000   0.000   0.000   0.000   0.000   0.000   0.000  -0.000   0.000  -0.000   0.000   0.000   0.000
  0.000   0.000  -0.000   0.000  -0.000   0.000  -0.000   0.000  -0.000   0.000   0.000   0.000  -0.000   0.000  -0.000   0.000
 -0.000   0.000   0.000   0.000   0.000   0.000  -0.000   0.000  -0.000   0.000  -0.000   0.000   0.000   0.000   0.000   0.000
 -0.000   0.000  -0.000   0.000   0.000   0.000   0.000   0.000   0.000   0.000  -0.000   0.000  -0.000   0.000   0.000   0.000
  0.000   0.000  -0.000   0.000  -0.000   0.000  -0.000   0.000  -0.000   0.000   0.000   0.000  -0.000   0.000  -0.000   0.000
 -0.000   0.000   0.000   0.000   0.000   0.000  -0.000   0.000  -0.000   0.000  -0.000   0.000   0.000   0.000   0.000   0.000
 total augmentation occupancy for first ion, spin component:           1
  2.819   0.000   0.000   0.000   0.000  -1.402  -0.000   0.000  -0.000   0.000  -0.000   0.000   0.000   0.000   0.000   0.000
  0.000   2.819   0.000   0.000   0.000  -0.000  -1.402  -0.000  -0.000   0.000   0.000  -0.000   0.000   0.000   0.000   0.000
  0.000   0.000   3.591  -0.000   0.000  -0.000   0.000  -1.735   0.000   0.000   0.000  -0.000   0.000   0.000   0.000   0.000
  0.000   0.000  -0.000   2.819  -0.000  -0.000  -0.000   0.000  -1.402   0.000  -0.000   0.000   0.000   0.000   0.000   0.000
  0.000   0.000   0.000  -0.000   3.591  -0.000   0.000   0.000   0.000  -1.735   0.000  -0.000   0.000   0.000   0.000   0.000
 -1.402  -0.000  -0.000  -0.000   0.000   1.699  -0.000  -0.000  -0.000  -0.000   0.000  -0.000   0.000   0.000   0.000   0.000
 -0.000  -1.402  -0.000  -0.000   0.000  -0.000   1.699  -0.000  -0.000   0.000  -0.000   0.000   0.000   0.000   0.000   0.000
  0.000  -0.000  -1.735  -0.000   0.000   0.000   0.000   1.708   0.000   0.000  -0.000  -0.000   0.000   0.000   0.000   0.000
 -0.000  -0.000   0.000  -1.402   0.000  -0.000  -0.000   0.000   1.699  -0.000  -0.000   0.000   0.000   0.000   0.000   0.000
 -0.000   0.000   0.000   0.000  -1.735   0.000   0.000   0.000  -0.000   1.708   0.000  -0.000   0.000   0.000   0.000   0.000
 -0.000   0.000   0.000  -0.000   0.000   0.000  -0.000  -0.000   0.000   0.000   2.438  -0.344   0.000   0.000   0.000   0.000
  0.000  -0.000   0.000  -0.000   0.000  -0.000   0.000   0.000  -0.000  -0.000  -0.344   0.057   0.000   0.000   0.000   0.000
  0.000   0.000   0.000   0.000   0.000   0.000   0.000   0.000   0.000   0.000   0.000   0.000   0.334   0.000  -0.000  -0.035
  0.000   0.000   0.000   0.000   0.000   0.000   0.000   0.000   0.000   0.000   0.000   0.000   0.000   0.334  -0.000  -0.000
  0.000   0.000   0.000   0.000   0.000   0.000   0.000   0.000   0.000   0.000   0.000   0.000  -0.000   0.000   0.334   0.000
  0.000   0.000   0.000   0.000   0.000   0.000   0.000   0.000   0.000   0.000   0.000   0.000  -0.035  -0.000   0.000   0.004
  0.000   0.000   0.000   0.000   0.000   0.000   0.000   0.000   0.000   0.000   0.000   0.000  -0.000  -0.035   0.000   0.000
  0.000   0.000   0.000   0.000   0.000   0.000   0.000   0.000   0.000   0.000   0.000   0.000   0.000  -0.000  -0.035  -0.000
 total augmentation occupancy for first ion, spin component:           2
  1.060   0.000   0.000   0.000  -0.000  -0.537  -0.000   0.000  -0.000  -0.000  -0.000  -0.000   0.000   0.000   0.000   0.000
  0.000   1.060  -0.000   0.000   0.000  -0.000  -0.537   0.000  -0.000  -0.000   0.000  -0.000   0.000   0.000   0.000   0.000
 -0.000   0.000   0.592   0.000   0.000  -0.000  -0.000  -0.294   0.000   0.000   0.000  -0.000   0.000   0.000   0.000   0.000
  0.000   0.000   0.000   1.060  -0.000  -0.000  -0.000   0.000  -0.537   0.000   0.000   0.000   0.000   0.000   0.000   0.000
  0.000   0.000   0.000  -0.000   0.592  -0.000  -0.000   0.000   0.000  -0.294  -0.000   0.000   0.000   0.000   0.000   0.000
 -0.537  -0.000   0.000  -0.000  -0.000   0.187   0.000   0.000   0.000   0.000  -0.000   0.000   0.000   0.000   0.000   0.000
 -0.000  -0.537  -0.000  -0.000  -0.000   0.000   0.187   0.000   0.000   0.000   0.000  -0.000   0.000   0.000   0.000   0.000
 -0.000  -0.000  -0.294  -0.000  -0.000   0.000   0.000   0.083   0.000   0.000  -0.000   0.000   0.000   0.000   0.000   0.000
 -0.000  -0.000   0.000  -0.537   0.000   0.000   0.000  -0.000   0.187  -0.000   0.000  -0.000   0.000   0.000   0.000   0.000
  0.000  -0.000   0.000   0.000  -0.294  -0.000  -0.000   0.000  -0.000   0.083  -0.000   0.000   0.000   0.000   0.000   0.000
 -0.000   0.000   0.000   0.000  -0.000   0.000   0.000   0.000  -0.000  -0.000  -0.135   0.044   0.000   0.000   0.000   0.000
 -0.000  -0.000  -0.000  -0.000   0.000   0.000  -0.000   0.000  -0.000  -0.000   0.044  -0.009   0.000   0.000   0.000   0.000
  0.000   0.000   0.000   0.000   0.000   0.000   0.000   0.000   0.000   0.000   0.000   0.000  -0.018  -0.000   0.000   0.003
  0.000   0.000   0.000   0.000   0.000   0.000   0.000   0.000   0.000   0.000   0.000   0.000  -0.000  -0.018  -0.000   0.000
  0.000   0.000   0.000   0.000   0.000   0.000   0.000   0.000   0.000   0.000   0.000   0.000  -0.000   0.000  -0.018   0.000
  0.000   0.000   0.000   0.000   0.000   0.000   0.000   0.000   0.000   0.000   0.000   0.000   0.003   0.000   0.000  -0.000
  0.000   0.000   0.000   0.000   0.000   0.000   0.000   0.000   0.000   0.000   0.000   0.000   0.000   0.003  -0.000   0.000
  0.000   0.000   0.000   0.000   0.000   0.000   0.000   0.000   0.000   0.000   0.000   0.000  -0.000   0.000   0.003   0.000


------------------------ aborting loop because EDIFF is reached ----------------------------------------


    CHARGE:  cpu time    0.0045: real time    0.0045
    FORLOC:  cpu time    0.0001: real time    0.0001
    FORNL :  cpu time    0.0105: real time    0.0105
    STRESS:  cpu time    0.0407: real time    0.0408
    FORCOR:  cpu time    0.0025: real time    0.0026
    FORHAR:  cpu time    0.0005: real time    0.0004
    MIXING:  cpu time    0.0003: real time    0.0004
    OFIELD:  cpu time    0.0000: real time    0.0000

  FORCE on cell =-STRESS in cart. coord.  units (eV):
  Direction    XX          YY          ZZ          XY          YZ          ZX
  --------------------------------------------------------------------------------------
  Alpha Z    49.67842    49.67842    49.67842
  Ewald    -318.94222  -318.94222  -318.94222    -0.00000     0.00000    -0.00000
  Hartree    71.78733    71.78733    71.78733     0.00000     0.00000     0.00000
  E(xc)     -55.23005   -55.23005   -55.23005    -0.00024    -0.00024    -0.00024
  Local       5.74091     5.74091     5.74091     0.00189     0.00189     0.00189
  n-local    -6.64964    -5.99907    -8.78158     1.77885    -1.90246     0.06138
  augment   175.79414   175.79414   175.79414    -0.00141    -0.00141    -0.00141
  Kinetic    77.97490    78.03289    80.47133    -0.78316     0.69049     0.00586
  Fock        0.00000     0.00000     0.00000     0.00000     0.00000     0.00000
  -------------------------------------------------------------------------------------
  Total       0.51148     0.51148     0.51148    -0.00000     0.00000    -0.00000
  in kB      79.82494    79.82494    79.82494    -0.00000     0.00000    -0.00000
  external pressure =       79.82 kB  Pullay stress =        0.00 kB


 VOLUME and BASIS-vectors are now :
 -----------------------------------------------------------------------------
  energy-cutoff  :      270.00
  volume of cell :       10.27
      direct lattice vectors                 reciprocal lattice vectors
     0.000000000  1.725000000  1.725000000    -0.289855072  0.289855072  0.289855072
     1.725000000  0.000000000  1.725000000     0.289855072 -0.289855072  0.289855072
     1.725000000  1.725000000  0.000000000     0.289855072  0.289855072 -0.289855072

  length of vectors
     2.439518395  2.439518395  2.439518395     0.502043712  0.502043712  0.502043712


 FORCES acting on ions
    electron-ion (+dipol)            ewald-force                    non-local-force                 convergence-correction
 -----------------------------------------------------------------------------------------------
   0.476E-13 0.551E-13 0.387E-13   0.196E-14 0.269E-15 -.452E-15   0.000E+00 0.000E+00 -.827E-24   0.133E-13 0.551E-13 0.371E-13
 -----------------------------------------------------------------------------------------------
   0.476E-13 0.551E-13 0.387E-13   0.196E-14 0.269E-15 -.452E-15   0.000E+00 0.000E+00 -.827E-24   0.133E-13 0.551E-13 0.371E-13
 
 
 POSITION                                       TOTAL-FORCE (eV/Angst)
 -----------------------------------------------------------------------------------
      0.00000      0.00000      0.00000         0.000000     -0.000000     -0.000000
 -----------------------------------------------------------------------------------
    total drift:                                0.000000      0.000000      0.000000


--------------------------------------------------------------------------------------------------------



  FREE ENERGIE OF THE ION-ELECTRON SYSTEM (eV)
  ---------------------------------------------------
  free  energy   TOTEN  =        -5.44076748 eV

  energy  without entropy=       -5.43920145  energy(sigma->0) =       -5.44024547
 


--------------------------------------------------------------------------------------------------------


    POTLOK:  cpu time    0.0063: real time    0.0063


--------------------------------------------------------------------------------------------------------


 writing wavefunctions
     LOOP+:  cpu time    3.7111: real time    3.7943
    4ORBIT:  cpu time    0.0000: real time    0.0000

 total amount of memory used by VASP MPI-rank0    33768. kBytes
=======================================================================

   base      :      30000. kBytes
   nonl-proj :       1839. kBytes
   fftplans  :        142. kBytes
   grid      :        320. kBytes
   one-center:         31. kBytes
   wavefun   :       1436. kBytes
 
  
  
 General timing and accounting informations for this job:
 ========================================================
  
                  Total CPU time used (sec):        4.153
                            User time (sec):        3.643
                          System time (sec):        0.510
                         Elapsed time (sec):        4.293
  
                   Maximum memory used (kb):       59012.
                   Average memory used (kb):           0.
  
                          Minor page faults:        39556
                          Major page faults:            0
                 Voluntary context switches:         3959
