<?xml version="1.0" encoding="ISO-8859-1"?>
<modeling>
 <generator>
  <i name="program" type="string">vasp </i>
  <i name="version" type="string">5.4.4.18Apr17-6-g9f103f2a35  </i>
  <i name="subversion" type="string">(build Jul 01 2019 03:25:34) complex            parallel </i>
  <i name="platform" type="string">LinuxIFC </i>
  <i name="date" type="string">2020 07 09 </i>
  <i name="time" type="string">19:35:30 </i>
 </generator>
 <incar>
  <i type="string" name="SYSTEM"> fcc Ni</i>
  <i type="string" name="PREC">normal</i>
  <i type="int" name="ISPIN">     2</i>
  <i name="EDIFF">      0.00010000</i>
  <i name="ENCUT">    270.00000000</i>
  <v name="MAGMOM">      3.00000000</v>
  <v type="int" name="KPOINT_BSE">    -1     0     0     0</v>
 </incar>
 <structure name="primitive_cell" >
  <crystal>
   <varray name="basis" >
    <v>       0.00000000       1.72500000       1.72500000 </v>
    <v>       1.72500000       0.00000000       1.72500000 </v>
    <v>       1.72500000       1.72500000       0.00000000 </v>
   </varray>
   <i name="volume">     10.26590625 </i>
   <varray name="rec_basis" >
    <v>      -0.28985507       0.28985507       0.28985507 </v>
    <v>       0.28985507      -0.28985507       0.28985507 </v>
    <v>       0.28985507       0.28985507      -0.28985507 </v>
   </varray>
  </crystal>
  <varray name="positions" >
   <v>       0.00000000       0.00000000       0.00000000 </v>
  </varray>
 </structure>
 <varray name="primitive_index" >
  <v type="int" >        1 </v>
 </varray>
 <kpoints>
  <generation param="Monkhorst-Pack">
   <v type="int" name="divisions">      10       10       10 </v>
   <v name="usershift">      0.00000000       0.00000000       0.00000000 </v>
   <v name="genvec1">      0.10000000       0.00000000       0.00000000 </v>
   <v name="genvec2">      0.00000000       0.10000000       0.00000000 </v>
   <v name="genvec3">      0.00000000       0.00000000       0.10000000 </v>
   <v name="shift">      0.50000000       0.50000000       0.50000000 </v>
  </generation>
  <varray name="kpointlist" >
   <v>       0.05000000       0.05000000       0.05000000 </v>
   <v>       0.15000000       0.05000000       0.05000000 </v>
   <v>       0.25000000       0.05000000       0.05000000 </v>
   <v>       0.35000000       0.05000000       0.05000000 </v>
   <v>       0.45000000       0.05000000       0.05000000 </v>
   <v>      -0.45000000       0.05000000       0.05000000 </v>
   <v>      -0.35000000       0.05000000       0.05000000 </v>
   <v>      -0.25000000       0.05000000       0.05000000 </v>
   <v>      -0.15000000       0.05000000       0.05000000 </v>
   <v>      -0.05000000       0.05000000       0.05000000 </v>
   <v>       0.15000000       0.15000000       0.05000000 </v>
   <v>       0.25000000       0.15000000       0.05000000 </v>
   <v>       0.35000000       0.15000000       0.05000000 </v>
   <v>       0.45000000       0.15000000       0.05000000 </v>
   <v>      -0.45000000       0.15000000       0.05000000 </v>
   <v>      -0.35000000       0.15000000       0.05000000 </v>
   <v>      -0.25000000       0.15000000       0.05000000 </v>
   <v>      -0.15000000       0.15000000       0.05000000 </v>
   <v>      -0.05000000       0.15000000       0.05000000 </v>
   <v>       0.25000000       0.25000000       0.05000000 </v>
   <v>       0.35000000       0.25000000       0.05000000 </v>
   <v>       0.45000000       0.25000000       0.05000000 </v>
   <v>      -0.45000000       0.25000000       0.05000000 </v>
   <v>      -0.35000000       0.25000000       0.05000000 </v>
   <v>      -0.25000000       0.25000000       0.05000000 </v>
   <v>      -0.15000000       0.25000000       0.05000000 </v>
   <v>      -0.05000000       0.25000000       0.05000000 </v>
   <v>       0.35000000       0.35000000       0.05000000 </v>
   <v>       0.45000000       0.35000000       0.05000000 </v>
   <v>      -0.45000000       0.35000000       0.05000000 </v>
   <v>      -0.35000000       0.35000000       0.05000000 </v>
   <v>      -0.25000000       0.35000000       0.05000000 </v>
   <v>      -0.15000000       0.35000000       0.05000000 </v>
   <v>      -0.05000000       0.35000000       0.05000000 </v>
   <v>       0.45000000       0.45000000       0.05000000 </v>
   <v>      -0.45000000       0.45000000       0.05000000 </v>
   <v>      -0.35000000       0.45000000       0.05000000 </v>
   <v>      -0.25000000       0.45000000       0.05000000 </v>
   <v>      -0.15000000       0.45000000       0.05000000 </v>
   <v>      -0.05000000       0.45000000       0.05000000 </v>
   <v>      -0.45000000      -0.45000000       0.05000000 </v>
   <v>      -0.35000000      -0.45000000       0.05000000 </v>
   <v>      -0.25000000      -0.45000000       0.05000000 </v>
   <v>      -0.15000000      -0.45000000       0.05000000 </v>
   <v>      -0.35000000      -0.35000000       0.05000000 </v>
   <v>      -0.25000000      -0.35000000       0.05000000 </v>
   <v>      -0.15000000      -0.35000000       0.05000000 </v>
   <v>      -0.25000000      -0.25000000       0.05000000 </v>
   <v>      -0.15000000      -0.25000000       0.05000000 </v>
   <v>      -0.15000000      -0.15000000       0.05000000 </v>
   <v>       0.15000000       0.15000000       0.15000000 </v>
   <v>       0.25000000       0.15000000       0.15000000 </v>
   <v>       0.35000000       0.15000000       0.15000000 </v>
   <v>       0.45000000       0.15000000       0.15000000 </v>
   <v>      -0.45000000       0.15000000       0.15000000 </v>
   <v>      -0.35000000       0.15000000       0.15000000 </v>
   <v>      -0.25000000       0.15000000       0.15000000 </v>
   <v>      -0.15000000       0.15000000       0.15000000 </v>
   <v>       0.25000000       0.25000000       0.15000000 </v>
   <v>       0.35000000       0.25000000       0.15000000 </v>
   <v>       0.45000000       0.25000000       0.15000000 </v>
   <v>      -0.45000000       0.25000000       0.15000000 </v>
   <v>      -0.35000000       0.25000000       0.15000000 </v>
   <v>      -0.25000000       0.25000000       0.15000000 </v>
   <v>      -0.15000000       0.25000000       0.15000000 </v>
   <v>       0.35000000       0.35000000       0.15000000 </v>
   <v>       0.45000000       0.35000000       0.15000000 </v>
   <v>      -0.45000000       0.35000000       0.15000000 </v>
   <v>      -0.35000000       0.35000000       0.15000000 </v>
   <v>      -0.25000000       0.35000000       0.15000000 </v>
   <v>      -0.15000000       0.35000000       0.15000000 </v>
   <v>       0.45000000       0.45000000       0.15000000 </v>
   <v>      -0.45000000       0.45000000       0.15000000 </v>
   <v>      -0.35000000       0.45000000       0.15000000 </v>
   <v>      -0.25000000       0.45000000       0.15000000 </v>
   <v>      -0.15000000       0.45000000       0.15000000 </v>
   <v>      -0.45000000      -0.45000000       0.15000000 </v>
   <v>      -0.35000000      -0.45000000       0.15000000 </v>
   <v>      -0.25000000      -0.45000000       0.15000000 </v>
   <v>      -0.35000000      -0.35000000       0.15000000 </v>
   <v>      -0.25000000      -0.35000000       0.15000000 </v>
   <v>      -0.25000000      -0.25000000       0.15000000 </v>
   <v>       0.25000000       0.25000000       0.25000000 </v>
   <v>       0.35000000       0.25000000       0.25000000 </v>
   <v>       0.45000000       0.25000000       0.25000000 </v>
   <v>      -0.45000000       0.25000000       0.25000000 </v>
   <v>      -0.35000000       0.25000000       0.25000000 </v>
   <v>      -0.25000000       0.25000000       0.25000000 </v>
   <v>       0.35000000       0.35000000       0.25000000 </v>
   <v>       0.45000000       0.35000000       0.25000000 </v>
   <v>      -0.45000000       0.35000000       0.25000000 </v>
   <v>      -0.35000000       0.35000000       0.25000000 </v>
   <v>      -0.25000000       0.35000000       0.25000000 </v>
   <v>       0.45000000       0.45000000       0.25000000 </v>
   <v>      -0.45000000       0.45000000       0.25000000 </v>
   <v>      -0.35000000       0.45000000       0.25000000 </v>
   <v>      -0.25000000       0.45000000       0.25000000 </v>
   <v>      -0.45000000      -0.45000000       0.25000000 </v>
   <v>      -0.35000000      -0.45000000       0.25000000 </v>
   <v>      -0.35000000      -0.35000000       0.25000000 </v>
   <v>       0.35000000       0.35000000       0.35000000 </v>
   <v>       0.45000000       0.35000000       0.35000000 </v>
   <v>      -0.45000000       0.35000000       0.35000000 </v>
   <v>      -0.35000000       0.35000000       0.35000000 </v>
   <v>       0.45000000       0.45000000       0.35000000 </v>
   <v>      -0.45000000       0.45000000       0.35000000 </v>
   <v>      -0.35000000       0.45000000       0.35000000 </v>
   <v>      -0.45000000      -0.45000000       0.35000000 </v>
   <v>       0.45000000       0.45000000       0.45000000 </v>
   <v>      -0.45000000       0.45000000       0.45000000 </v>
  </varray>
  <varray name="weights" >
   <v>       0.00200000 </v>
   <v>       0.00600000 </v>
   <v>       0.00600000 </v>
   <v>       0.00600000 </v>
   <v>       0.00600000 </v>
   <v>       0.00600000 </v>
   <v>       0.00600000 </v>
   <v>       0.00600000 </v>
   <v>       0.00600000 </v>
   <v>       0.00600000 </v>
   <v>       0.00600000 </v>
   <v>       0.01200000 </v>
   <v>       0.01200000 </v>
   <v>       0.01200000 </v>
   <v>       0.01200000 </v>
   <v>       0.01200000 </v>
   <v>       0.01200000 </v>
   <v>       0.01200000 </v>
   <v>       0.01200000 </v>
   <v>       0.00600000 </v>
   <v>       0.01200000 </v>
   <v>       0.01200000 </v>
   <v>       0.01200000 </v>
   <v>       0.01200000 </v>
   <v>       0.01200000 </v>
   <v>       0.01200000 </v>
   <v>       0.01200000 </v>
   <v>       0.00600000 </v>
   <v>       0.01200000 </v>
   <v>       0.01200000 </v>
   <v>       0.01200000 </v>
   <v>       0.01200000 </v>
   <v>       0.01200000 </v>
   <v>       0.01200000 </v>
   <v>       0.00600000 </v>
   <v>       0.01200000 </v>
   <v>       0.01200000 </v>
   <v>       0.01200000 </v>
   <v>       0.01200000 </v>
   <v>       0.01200000 </v>
   <v>       0.00600000 </v>
   <v>       0.01200000 </v>
   <v>       0.01200000 </v>
   <v>       0.01200000 </v>
   <v>       0.00600000 </v>
   <v>       0.01200000 </v>
   <v>       0.01200000 </v>
   <v>       0.00600000 </v>
   <v>       0.01200000 </v>
   <v>       0.00600000 </v>
   <v>       0.00200000 </v>
   <v>       0.00600000 </v>
   <v>       0.00600000 </v>
   <v>       0.00600000 </v>
   <v>       0.00600000 </v>
   <v>       0.00600000 </v>
   <v>       0.00600000 </v>
   <v>       0.00600000 </v>
   <v>       0.00600000 </v>
   <v>       0.01200000 </v>
   <v>       0.01200000 </v>
   <v>       0.01200000 </v>
   <v>       0.01200000 </v>
   <v>       0.01200000 </v>
   <v>       0.01200000 </v>
   <v>       0.00600000 </v>
   <v>       0.01200000 </v>
   <v>       0.01200000 </v>
   <v>       0.01200000 </v>
   <v>       0.01200000 </v>
   <v>       0.01200000 </v>
   <v>       0.00600000 </v>
   <v>       0.01200000 </v>
   <v>       0.01200000 </v>
   <v>       0.01200000 </v>
   <v>       0.01200000 </v>
   <v>       0.00600000 </v>
   <v>       0.01200000 </v>
   <v>       0.01200000 </v>
   <v>       0.00600000 </v>
   <v>       0.01200000 </v>
   <v>       0.00600000 </v>
   <v>       0.00200000 </v>
   <v>       0.00600000 </v>
   <v>       0.00600000 </v>
   <v>       0.00600000 </v>
   <v>       0.00600000 </v>
   <v>       0.00600000 </v>
   <v>       0.00600000 </v>
   <v>       0.01200000 </v>
   <v>       0.01200000 </v>
   <v>       0.01200000 </v>
   <v>       0.01200000 </v>
   <v>       0.00600000 </v>
   <v>       0.01200000 </v>
   <v>       0.01200000 </v>
   <v>       0.01200000 </v>
   <v>       0.00600000 </v>
   <v>       0.01200000 </v>
   <v>       0.00600000 </v>
   <v>       0.00200000 </v>
   <v>       0.00600000 </v>
   <v>       0.00600000 </v>
   <v>       0.00600000 </v>
   <v>       0.00600000 </v>
   <v>       0.01200000 </v>
   <v>       0.01200000 </v>
   <v>       0.00600000 </v>
   <v>       0.00200000 </v>
   <v>       0.00600000 </v>
  </varray>
 </kpoints>
 <parameters>
  <separator name="general" >
   <i type="string" name="SYSTEM">fcc Ni</i>
   <i type="logical" name="LCOMPAT"> F  </i>
  </separator>
  <separator name="electronic" >
   <i type="string" name="PREC">normal</i>
   <i name="ENMAX">    270.00000000</i>
   <i name="ENAUG">    544.56500000</i>
   <i name="EDIFF">      0.00010000</i>
   <i type="int" name="IALGO">    38</i>
   <i type="int" name="IWAVPR">    10</i>
   <i type="int" name="NBANDS">    12</i>
   <i name="NELECT">     10.00000000</i>
   <i type="int" name="TURBO">     0</i>
   <i type="int" name="IRESTART">     0</i>
   <i type="int" name="NREBOOT">     0</i>
   <i type="int" name="NMIN">     0</i>
   <i name="EREF">      0.00000000</i>
   <separator name="electronic smearing" >
    <i type="int" name="ISMEAR">     1</i>
    <i name="SIGMA">      0.20000000</i>
    <i name="KSPACING">      0.50000000</i>
    <i type="logical" name="KGAMMA"> T  </i>
   </separator>
   <separator name="electronic projectors" >
    <i type="logical" name="LREAL"> F  </i>
    <v name="ROPT">      0.00000000</v>
    <i type="int" name="LMAXPAW">  -100</i>
    <i type="int" name="LMAXMIX">     2</i>
    <i type="logical" name="NLSPLINE"> F  </i>
   </separator>
   <separator name="electronic startup" >
    <i type="int" name="ISTART">     0</i>
    <i type="int" name="ICHARG">     2</i>
    <i type="int" name="INIWAV">     1</i>
   </separator>
   <separator name="electronic spin" >
    <i type="int" name="ISPIN">     2</i>
    <i type="logical" name="LNONCOLLINEAR"> F  </i>
    <v name="MAGMOM">      3.00000000</v>
    <i name="NUPDOWN">     -1.00000000</i>
    <i type="logical" name="LSORBIT"> F  </i>
    <v name="SAXIS">      0.00000000      0.00000000      1.00000000</v>
    <i type="logical" name="LSPIRAL"> F  </i>
    <v name="QSPIRAL">      0.00000000      0.00000000      0.00000000</v>
    <i type="logical" name="LZEROZ"> F  </i>
   </separator>
   <separator name="electronic exchange-correlation" >
    <i type="logical" name="LASPH"> F  </i>
    <i type="logical" name="LMETAGGA"> F  </i>
   </separator>
   <separator name="electronic convergence" >
    <i type="int" name="NELM">    60</i>
    <i type="int" name="NELMDL">    -5</i>
    <i type="int" name="NELMIN">     2</i>
    <i name="ENINI">    270.00000000</i>
    <separator name="electronic convergence detail" >
     <i type="logical" name="LDIAG"> T  </i>
     <i type="logical" name="LSUBROT"> F  </i>
     <i name="WEIMIN">      0.00000000</i>
     <i name="EBREAK">      0.00000208</i>
     <i name="DEPER">      0.30000000</i>
     <i type="int" name="NRMM">     4</i>
     <i name="TIME">      0.40000000</i>
    </separator>
   </separator>
   <separator name="electronic mixer" >
    <i name="AMIX">      0.40000000</i>
    <i name="BMIX">      1.00000000</i>
    <i name="AMIN">      0.10000000</i>
    <i name="AMIX_MAG">      1.60000000</i>
    <i name="BMIX_MAG">      1.00000000</i>
    <separator name="electronic mixer details" >
     <i type="int" name="IMIX">     4</i>
     <i type="logical" name="MIXFIRST"> F  </i>
     <i type="int" name="MAXMIX">   -45</i>
     <i name="WC">    100.00000000</i>
     <i type="int" name="INIMIX">     1</i>
     <i type="int" name="MIXPRE">     1</i>
     <i type="int" name="MREMOVE">     5</i>
    </separator>
   </separator>
   <separator name="electronic dipolcorrection" >
    <i type="logical" name="LDIPOL"> F  </i>
    <i type="logical" name="LMONO"> F  </i>
    <i type="int" name="IDIPOL">     0</i>
    <i name="EPSILON">      1.00000000</i>
    <v name="DIPOL">   -100.00000000   -100.00000000   -100.00000000</v>
    <i name="EFIELD">      0.00000000</i>
   </separator>
  </separator>
  <separator name="grids" >
   <i type="int" name="NGX">    10</i>
   <i type="int" name="NGY">    10</i>
   <i type="int" name="NGZ">    10</i>
   <i type="int" name="NGXF">    20</i>
   <i type="int" name="NGYF">    20</i>
   <i type="int" name="NGZF">    20</i>
   <i type="logical" name="ADDGRID"> F  </i>
  </separator>
  <separator name="ionic" >
   <i type="int" name="NSW">     0</i>
   <i type="int" name="IBRION">    -1</i>
   <i type="int" name="MDALGO">     0</i>
   <i type="int" name="ISIF">     2</i>
   <i name="PSTRESS">      0.00000000</i>
   <i name="EDIFFG">      0.00100000</i>
   <i type="int" name="NFREE">     0</i>
   <i name="POTIM">      0.50000000</i>
   <i name="SMASS">     -3.00000000</i>
   <i name="SCALEE">      1.00000000</i>
  </separator>
  <separator name="ionic md" >
   <i name="TEBEG">      0.00010000</i>
   <i name="TEEND">      0.00010000</i>
   <i type="int" name="NBLOCK">     1</i>
   <i type="int" name="KBLOCK">     1</i>
   <i type="int" name="NPACO">   256</i>
   <i name="APACO">     16.00000000</i>
  </separator>
  <separator name="symmetry" >
   <i type="int" name="ISYM">     2</i>
   <i name="SYMPREC">      0.00001000</i>
  </separator>
  <separator name="dos" >
   <i type="int" name="LORBIT">     0</i>
   <v name="RWIGS">     -1.00000000</v>
   <i type="int" name="NEDOS">   301</i>
   <i name="EMIN">     10.00000000</i>
   <i name="EMAX">    -10.00000000</i>
   <i name="EFERMI">      0.00000000</i>
  </separator>
  <separator name="writing" >
   <i type="int" name="NWRITE">     2</i>
   <i type="logical" name="LWAVE"> T  </i>
   <i type="logical" name="LDOWNSAMPLE"> F  </i>
   <i type="logical" name="LCHARG"> T  </i>
   <i type="logical" name="LPARD"> F  </i>
   <i type="logical" name="LVTOT"> F  </i>
   <i type="logical" name="LVHAR"> F  </i>
   <i type="logical" name="LELF"> F  </i>
   <i type="logical" name="LOPTICS"> F  </i>
   <v name="STM">      0.00000000      0.00000000      0.00000000      0.00000000      0.00000000      0.00000000      0.00000000</v>
  </separator>
  <separator name="performance" >
   <i type="int" name="NPAR">     4</i>
   <i type="int" name="NSIM">     4</i>
   <i type="int" name="NBLK">    -1</i>
   <i type="logical" name="LPLANE"> T  </i>
   <i type="logical" name="LSCALAPACK"> T  </i>
   <i type="logical" name="LSCAAWARE"> F  </i>
   <i type="logical" name="LSCALU"> F  </i>
   <i type="logical" name="LASYNC"> F  </i>
   <i type="logical" name="LORBITALREAL"> F  </i>
  </separator>
  <separator name="miscellaneous" >
   <i type="int" name="IDIOT">     3</i>
   <i type="int" name="ISPECIAL">     0</i>
   <i type="logical" name="LMUSIC"> F  </i>
   <v name="POMASS">     58.69000000</v>
   <v name="DARWINR">      0.00000000</v>
   <v name="DARWINV">      1.00000000</v>
   <i type="logical" name="LCORR"> T  </i>
  </separator>
  <i type="logical" name="GGA_COMPAT"> T  </i>
  <i type="logical" name="LBERRY"> F  </i>
  <i type="int" name="ICORELEVEL">     0</i>
  <i type="logical" name="LDAU"> F  </i>
  <i type="int" name="I_CONSTRAINED_M">     0</i>
  <separator name="electronic exchange-correlation" >
   <i type="string" name="GGA">--</i>
   <i type="int" name="VOSKOWN">     0</i>
   <i type="logical" name="LHFCALC"> F  </i>
   <i type="string" name="PRECFOCK"></i>
   <i type="logical" name="LSYMGRAD"> F  </i>
   <i type="logical" name="LHFONE"> F  </i>
   <i type="logical" name="LRHFCALC"> F  </i>
   <i type="logical" name="LTHOMAS"> F  </i>
   <i type="logical" name="LMODELHF"> F  </i>
   <i name="ENCUT4O">     -1.00000000</i>
   <i type="int" name="EXXOEP">     0</i>
   <i type="int" name="FOURORBIT">     0</i>
   <i name="AEXX">      0.00000000</i>
   <i name="HFALPHA">      0.00000000</i>
   <i name="MCALPHA">      0.00000000</i>
   <i name="ALDAX">      1.00000000</i>
   <i name="AGGAX">      1.00000000</i>
   <i name="ALDAC">      1.00000000</i>
   <i name="AGGAC">      1.00000000</i>
   <i type="int" name="NKREDX">     1</i>
   <i type="int" name="NKREDY">     1</i>
   <i type="int" name="NKREDZ">     1</i>
   <i type="logical" name="SHIFTRED"> F  </i>
   <i type="logical" name="ODDONLY"> F  </i>
   <i type="logical" name="EVENONLY"> F  </i>
   <i type="int" name="LMAXFOCK">     0</i>
   <i type="int" name="NMAXFOCKAE">     0</i>
   <i type="logical" name="LFOCKAEDFT"> F  </i>
   <i name="HFSCREEN">      0.00000000</i>
   <i name="HFSCREENC">      0.00000000</i>
   <i type="int" name="NBANDSGWLOW">     0</i>
  </separator>
  <separator name="vdW DFT" >
   <i type="logical" name="LUSE_VDW"> F  </i>
   <i name="Zab_VDW">     -0.84910000</i>
   <i name="PARAM1">      0.12340000</i>
   <i name="PARAM2">      1.00000000</i>
   <i name="PARAM3">      0.00000000</i>
  </separator>
  <separator name="model GW" >
   <i type="int" name="MODEL_GW">     0</i>
   <i name="MODEL_EPS0">      6.15954375</i>
   <i name="MODEL_ALPHA">      1.00000000</i>
  </separator>
  <separator name="linear response parameters" >
   <i type="logical" name="LEPSILON"> F  </i>
   <i type="logical" name="LRPA"> F  </i>
   <i type="logical" name="LNABLA"> F  </i>
   <i type="logical" name="LVEL"> F  </i>
   <i type="int" name="KINTER">     0</i>
   <i name="CSHIFT">      0.10000000</i>
   <i name="OMEGAMAX">     -1.00000000</i>
   <i name="DEG_THRESHOLD">      0.00200000</i>
   <i name="RTIME">     -0.10000000</i>
   <i name="WPLASMAI">      0.00000000</i>
   <v name="DFIELD">      0.00000000      0.00000000      0.00000000</v>
   <v name="WPLASMA">      0.00000000      0.00000000      0.00000000      0.00000000      0.00000000      0.00000000      0.00000000      0.00000000      0.00000000</v>
  </separator>
  <separator name="orbital magnetization" >
   <i type="logical" name="NUCIND"> F  </i>
   <v name="MAGPOS">      0.00000000      0.00000000      0.00000000</v>
   <i type="logical" name="LNICSALL"> T  </i>
   <i type="logical" name="ORBITALMAG"> F  </i>
   <i type="logical" name="LMAGBLOCH"> F  </i>
   <i type="logical" name="LCHIMAG"> F  </i>
   <i type="logical" name="LGAUGE"> T  </i>
   <i type="int" name="MAGATOM">     0</i>
   <v name="MAGDIPOL">      0.00000000      0.00000000      0.00000000</v>
   <v name="AVECCONST">      0.00000000      0.00000000      0.00000000</v>
  </separator>
  <separator name="response functions" >
   <i type="logical" name="LADDER"> F  </i>
   <i type="logical" name="LRPAFORCE"> F  </i>
   <i type="logical" name="LFXC"> F  </i>
   <i type="logical" name="LHARTREE"> T  </i>
   <i type="int" name="IBSE">     0</i>
   <v type="int" name="KPOINT">    -1     0     0     0</v>
   <i type="logical" name="LTCTE"> F  </i>
   <i type="logical" name="LTETE"> F  </i>
   <i type="logical" name="LTRIPLET"> F  </i>
   <i type="logical" name="LFXCEPS"> F  </i>
   <i type="logical" name="LFXHEG"> F  </i>
   <i type="int" name="NATURALO">     2</i>
   <i type="logical" name="L2ORDER"> F  </i>
   <i type="logical" name="LMP2LT"> F  </i>
   <i type="logical" name="LUSEW"> F  </i>
   <i name="ENCUTGW">     -2.00000000</i>
   <i name="ENCUTGWSOFT">     -2.00000000</i>
   <i name="ENCUTLF">     -1.00000000</i>
   <i type="int" name="LMAXMP2">    -1</i>
   <i name="SCISSOR">      0.00000000</i>
   <i type="int" name="NOMEGA">     0</i>
   <i type="int" name="NOMEGAR">     0</i>
   <i type="int" name="NBANDSGW">    -1</i>
   <i type="int" name="NBANDSO">    -1</i>
   <i type="int" name="NBANDSV">    -1</i>
   <i type="int" name="NELM">     1</i>
   <i type="int" name="NELMHF">     1</i>
   <i type="int" name="DIM">     3</i>
   <i type="int" name="ANTIRES">     0</i>
   <i name="OMEGAMAX">    -30.00000000</i>
   <i name="OMEGAMIN">    -30.00000000</i>
   <i name="OMEGATL">   -200.00000000</i>
   <i type="int" name="OMEGAGRID">   140</i>
   <i name="CSHIFT">     -0.10000000</i>
   <i type="logical" name="SELFENERGY"> F  </i>
   <i type="logical" name="LSPECTRAL"> F  </i>
   <i type="logical" name="LSPECTRALGW"> F  </i>
   <i type="logical" name="LSINGLES"> F  </i>
   <i type="logical" name="LFERMIGW"> F  </i>
   <i type="logical" name="ODDONLYGW"> F  </i>
   <i type="logical" name="EVENONLYGW"> F  </i>
   <i type="int" name="NKREDLFX">     1</i>
   <i type="int" name="NKREDLFY">     1</i>
   <i type="int" name="NKREDLFZ">     1</i>
   <i type="int" name="MAXMEM">  2800</i>
   <i type="int" name="TELESCOPE">     0</i>
   <i type="int" name="TAUPAR">     1</i>
   <i type="int" name="OMEGAPAR">    -1</i>
   <i name="LAMBDA">      1.00000000</i>
  </separator>
  <separator name="External order field" >
   <i name="OFIELD_KAPPA">      0.00000000</i>
   <v name="OFIELD_K">      0.00000000      0.00000000      0.00000000</v>
   <i name="OFIELD_Q6_NEAR">      0.00000000</i>
   <i name="OFIELD_Q6_FAR">      0.00000000</i>
   <i name="OFIELD_A">      0.00000000</i>
  </separator>
 </parameters>
 <atominfo>
  <atoms>       1 </atoms>
  <types>       1 </types>
  <array name="atoms" >
   <dimension dim="1">ion</dimension>
   <field type="string">element</field>
   <field type="int">atomtype</field>
   <set>
    <rc><c>Ni</c><c>   1</c></rc>
   </set>
  </array>
  <array name="atomtypes" >
   <dimension dim="1">type</dimension>
   <field type="int">atomspertype</field>
   <field type="string">element</field>
   <field>mass</field>
   <field>valence</field>
   <field type="string">pseudopotential</field>
   <set>
    <rc><c>   1</c><c>Ni</c><c>     58.69000000</c><c>     10.00000000</c><c>  PAW_PBE Ni 02Aug2007                  </c></rc>
   </set>
  </array>
 </atominfo>
 <structure name="initialpos" >
  <crystal>
   <varray name="basis" >
    <v>       0.00000000       1.72500000       1.72500000 </v>
    <v>       1.72500000       0.00000000       1.72500000 </v>
    <v>       1.72500000       1.72500000       0.00000000 </v>
   </varray>
   <i name="volume">     10.26590625 </i>
   <varray name="rec_basis" >
    <v>      -0.28985507       0.28985507       0.28985507 </v>
    <v>       0.28985507      -0.28985507       0.28985507 </v>
    <v>       0.28985507       0.28985507      -0.28985507 </v>
   </varray>
  </crystal>
  <varray name="positions" >
   <v>       0.00000000       0.00000000       0.00000000 </v>
  </varray>
 </structure>
 <calculation>
  <scstep>
   <time name="dav">    0.32    0.33</time>
   <time name="total">    0.33    0.34</time>
   <energy>
    <i name="alphaZ">     49.67842074 </i>
    <i name="ewald">   -956.82663836 </i>
    <i name="hartreedc">   -236.35294024 </i>
    <i name="XCdc">     32.91829952 </i>
    <i name="pawpsdc">    961.92645289 </i>
    <i name="pawaedc">  -1028.66799202 </i>
    <i name="eentropy">      0.00199205 </i>
    <i name="bandstr">    117.86813830 </i>
    <i name="atom">   1077.63607467 </i>
    <i name="e_fr_energy">     18.18180755 </i>
    <i name="e_wo_entrp">     18.17981550 </i>
    <i name="e_0_energy">     18.18114354 </i>
   </energy>
  </scstep>
  <scstep>
   <time name="dav">    0.31    0.31</time>
   <time name="total">    0.31    0.32</time>
   <energy>
    <i name="e_fr_energy">     -5.36240264 </i>
    <i name="e_wo_entrp">     -5.36104739 </i>
    <i name="e_0_energy">     -5.36195089 </i>
   </energy>
  </scstep>
  <scstep>
   <time name="dav">    0.33    0.33</time>
   <time name="total">    0.33    0.34</time>
   <energy>
    <i name="e_fr_energy">     -5.78854492 </i>
    <i name="e_wo_entrp">     -5.78721909 </i>
    <i name="e_0_energy">     -5.78810297 </i>
   </energy>
  </scstep>
  <scstep>
   <time name="dav">    0.33    0.33</time>
   <time name="total">    0.33    0.34</time>
   <energy>
    <i name="e_fr_energy">     -5.79066196 </i>
    <i name="e_wo_entrp">     -5.78933828 </i>
    <i name="e_0_energy">     -5.79022074 </i>
   </energy>
  </scstep>
  <scstep>
   <time name="dav">    0.31    0.32</time>
   <time name="total">    0.32    0.33</time>
   <energy>
    <i name="e_fr_energy">     -5.79068787 </i>
    <i name="e_wo_entrp">     -5.78936423 </i>
    <i name="e_0_energy">     -5.79024665 </i>
   </energy>
  </scstep>
  <scstep>
   <time name="dav">    0.34    0.35</time>
   <time name="total">    0.35    0.36</time>
   <energy>
    <i name="e_fr_energy">     -5.76078378 </i>
    <i name="e_wo_entrp">     -5.75627283 </i>
    <i name="e_0_energy">     -5.75928013 </i>
   </energy>
  </scstep>
  <scstep>
   <time name="dav">    0.34    0.34</time>
   <time name="total">    0.35    0.36</time>
   <energy>
    <i name="e_fr_energy">     -5.45667220 </i>
    <i name="e_wo_entrp">     -5.45544806 </i>
    <i name="e_0_energy">     -5.45626416 </i>
   </energy>
  </scstep>
  <scstep>
   <time name="dav">    0.33    0.34</time>
   <time name="total">    0.34    0.35</time>
   <energy>
    <i name="e_fr_energy">     -5.44488319 </i>
    <i name="e_wo_entrp">     -5.44345187 </i>
    <i name="e_0_energy">     -5.44440608 </i>
   </energy>
  </scstep>
  <scstep>
   <time name="dav">    0.35    0.36</time>
   <time name="total">    0.36    0.37</time>
   <energy>
    <i name="e_fr_energy">     -5.44158644 </i>
    <i name="e_wo_entrp">     -5.44002635 </i>
    <i name="e_0_energy">     -5.44106641 </i>
   </energy>
  </scstep>
  <scstep>
   <time name="dav">    0.28    0.29</time>
   <time name="total">    0.29    0.30</time>
   <energy>
    <i name="e_fr_energy">     -5.44075187 </i>
    <i name="e_wo_entrp">     -5.43914623 </i>
    <i name="e_0_energy">     -5.44021666 </i>
   </energy>
  </scstep>
  <scstep>
   <time name="dav">    0.22    0.23</time>
   <time name="total">    0.23    0.23</time>
   <energy>
    <i name="alphaZ">     49.67842074 </i>
    <i name="ewald">   -956.82663836 </i>
    <i name="hartreedc">   -215.36322220 </i>
    <i name="XCdc">     30.86964100 </i>
    <i name="pawpsdc">   1172.36817262 </i>
    <i name="pawaedc">  -1241.27934455 </i>
    <i name="eentropy">     -0.00156603 </i>
    <i name="bandstr">     77.47769463 </i>
    <i name="atom">   1077.63607467 </i>
    <i name="e_fr_energy">     -5.44076748 </i>
    <i name="e_wo_entrp">     -5.43920145 </i>
    <i name="e_0_energy">     -5.44024547 </i>
   </energy>
  </scstep>
  <structure>
   <crystal>
    <varray name="basis" >
     <v>       0.00000000       1.72500000       1.72500000 </v>
     <v>       1.72500000       0.00000000       1.72500000 </v>
     <v>       1.72500000       1.72500000       0.00000000 </v>
    </varray>
    <i name="volume">     10.26590625 </i>
    <varray name="rec_basis" >
     <v>      -0.28985507       0.28985507       0.28985507 </v>
     <v>       0.28985507      -0.28985507       0.28985507 </v>
     <v>       0.28985507       0.28985507      -0.28985507 </v>
    </varray>
   </crystal>
   <varray name="positions" >
    <v>       0.00000000       0.00000000       0.00000000 </v>
   </varray>
  </structure>
  <varray name="forces" >
   <v>       0.00000000      -0.00000000      -0.00000000 </v>
  </varray>
  <varray name="stress" >
   <v>      79.82493999       0.00000000      -0.00000000 </v>
   <v>      -0.00000000      79.82493999       0.00000000 </v>
   <v>      -0.00000000       0.00000000      79.82493999 </v>
  </varray>
  <energy>
   <i name="e_fr_energy">     -5.44076748 </i>
   <i name="e_wo_entrp">     -5.44024547 </i>
   <i name="e_0_energy">     -0.00156603 </i>
  </energy>
  <time name="totalsc">    3.71    3.79</time>
  <eigenvalues>
   <array>
    <dimension dim="1">band</dimension>
    <dimension dim="2">kpoint</dimension>
    <dimension dim="3">spin</dimension>
    <field>eigene</field>
    <field>occ</field>
    <set>
     <set comment="spin 1">
      <set comment="kpoint 1">
       <r>    0.9027    1.0000 </r>
       <r>    7.6139    1.0000 </r>
       <r>    7.6657    1.0000 </r>
       <r>    7.6657    1.0000 </r>
       <r>    8.8865    1.0000 </r>
       <r>    8.8865    1.0000 </r>
       <r>   34.2174    0.0000 </r>
       <r>   37.3729    0.0000 </r>
       <r>   38.5524    0.0000 </r>
       <r>   38.5524    0.0000 </r>
       <r>   42.3932    0.0000 </r>
       <r>   42.3932    0.0000 </r>
      </set>
      <set comment="kpoint 2">
       <r>    1.4382    1.0000 </r>
       <r>    7.4695    1.0000 </r>
       <r>    7.7760    1.0000 </r>
       <r>    7.7931    1.0000 </r>
       <r>    8.7804    1.0000 </r>
       <r>    8.9193    1.0000 </r>
       <r>   32.1870    0.0000 </r>
       <r>   34.6173    0.0000 </r>
       <r>   37.3382    0.0000 </r>
       <r>   39.2812    0.0000 </r>
       <r>   41.9623    0.0000 </r>
       <r>   42.6091    0.0000 </r>
      </set>
      <set comment="kpoint 3">
       <r>    2.6800    1.0000 </r>
       <r>    7.2652    1.0000 </r>
       <r>    7.8917    1.0000 </r>
       <r>    7.9240    1.0000 </r>
       <r>    8.7650    1.0000 </r>
       <r>    9.0499    1.0000 </r>
       <r>   27.0807    0.0000 </r>
       <r>   33.4832    0.0000 </r>
       <r>   36.7182    0.0000 </r>
       <r>   38.7850    0.0000 </r>
       <r>   41.5724    0.0000 </r>
       <r>   42.0458    0.0000 </r>
      </set>
      <set comment="kpoint 4">
       <r>    4.1978    1.0000 </r>
       <r>    7.4339    1.0000 </r>
       <r>    7.8001    1.0000 </r>
       <r>    7.8526    1.0000 </r>
       <r>    9.0755    1.0000 </r>
       <r>    9.4120    1.0000 </r>
       <r>   22.0841    0.0000 </r>
       <r>   32.8022    0.0000 </r>
       <r>   35.5836    0.0000 </r>
       <r>   38.0278    0.0000 </r>
       <r>   39.7107    0.0000 </r>
       <r>   41.5178    0.0000 </r>
      </set>
      <set comment="kpoint 5">
       <r>    5.0055    1.0000 </r>
       <r>    7.6553    1.0000 </r>
       <r>    7.7231    1.0000 </r>
       <r>    8.5460    1.0000 </r>
       <r>    9.4582    1.0000 </r>
       <r>    9.9747    1.0354 </r>
       <r>   17.9475    0.0000 </r>
       <r>   32.4556    0.0000 </r>
       <r>   34.8867    0.0000 </r>
       <r>   36.3868    0.0000 </r>
       <r>   39.2708    0.0000 </r>
       <r>   40.6888    0.0000 </r>
      </set>
      <set comment="kpoint 6">
       <r>    5.1189    1.0000 </r>
       <r>    7.6015    1.0000 </r>
       <r>    7.6884    1.0000 </r>
       <r>    9.0030    1.0000 </r>
       <r>    9.6334    1.0002 </r>
       <r>   10.4766   -0.0346 </r>
       <r>   16.4095    0.0000 </r>
       <r>   32.5029    0.0000 </r>
       <r>   35.0635    0.0000 </r>
       <r>   35.1529    0.0000 </r>
       <r>   39.8879    0.0000 </r>
       <r>   39.9461    0.0000 </r>
      </set>
      <set comment="kpoint 7">
       <r>    4.8482    1.0000 </r>
       <r>    7.6834    1.0000 </r>
       <r>    7.7736    1.0000 </r>
       <r>    8.0910    1.0000 </r>
       <r>    9.5144    1.0000 </r>
       <r>    9.6038    1.0001 </r>
       <r>   19.1736    0.0000 </r>
       <r>   32.9860    0.0000 </r>
       <r>   34.5490    0.0000 </r>
       <r>   36.4101    0.0000 </r>
       <r>   39.7785    0.0000 </r>
       <r>   41.2490    0.0000 </r>
      </set>
      <set comment="kpoint 8">
       <r>    3.7163    1.0000 </r>
       <r>    7.2784    1.0000 </r>
       <r>    7.8447    1.0000 </r>
       <r>    7.8988    1.0000 </r>
       <r>    9.0219    1.0000 </r>
       <r>    9.2062    1.0000 </r>
       <r>   23.6828    0.0000 </r>
       <r>   33.8138    0.0000 </r>
       <r>   34.7720    0.0000 </r>
       <r>   38.2826    0.0000 </r>
       <r>   40.0819    0.0000 </r>
       <r>   43.1194    0.0000 </r>
      </set>
      <set comment="kpoint 9">
       <r>    2.2025    1.0000 </r>
       <r>    7.3127    1.0000 </r>
       <r>    7.8872    1.0000 </r>
       <r>    7.8972    1.0000 </r>
       <r>    8.7439    1.0000 </r>
       <r>    8.9726    1.0000 </r>
       <r>   28.8417    0.0000 </r>
       <r>   34.6809    0.0000 </r>
       <r>   35.5874    0.0000 </r>
       <r>   39.3309    0.0000 </r>
       <r>   40.8743    0.0000 </r>
       <r>   44.8381    0.0000 </r>
      </set>
      <set comment="kpoint 10">
       <r>    1.1729    1.0000 </r>
       <r>    7.5213    1.0000 </r>
       <r>    7.7375    1.0000 </r>
       <r>    7.7415    1.0000 </r>
       <r>    8.7985    1.0000 </r>
       <r>    8.9261    1.0000 </r>
       <r>   33.4921    0.0000 </r>
       <r>   35.9700    0.0000 </r>
       <r>   36.9109    0.0000 </r>
       <r>   38.4578    0.0000 </r>
       <r>   42.4515    0.0000 </r>
       <r>   43.9356    0.0000 </r>
      </set>
      <set comment="kpoint 11">
       <r>    1.7005    1.0000 </r>
       <r>    7.3363    1.0000 </r>
       <r>    7.8872    1.0000 </r>
       <r>    7.8903    1.0000 </r>
       <r>    8.6395    1.0000 </r>
       <r>    9.0036    1.0000 </r>
       <r>   32.3807    0.0000 </r>
       <r>   34.6037    0.0000 </r>
       <r>   34.9721    0.0000 </r>
       <r>   37.0491    0.0000 </r>
       <r>   43.1259    0.0000 </r>
       <r>   44.4864    0.0000 </r>
      </set>
      <set comment="kpoint 12">
       <r>    2.6941    1.0000 </r>
       <r>    7.0928    1.0000 </r>
       <r>    7.9721    1.0000 </r>
       <r>    8.1030    1.0000 </r>
       <r>    8.5776    1.0000 </r>
       <r>    9.1443    1.0000 </r>
       <r>   29.1991    0.0000 </r>
       <r>   31.4632    0.0000 </r>
       <r>   35.2682    0.0000 </r>
       <r>   36.7517    0.0000 </r>
       <r>   41.2854    0.0000 </r>
       <r>   44.4204    0.0000 </r>
      </set>
      <set comment="kpoint 13">
       <r>    4.1448    1.0000 </r>
       <r>    6.9796    1.0000 </r>
       <r>    7.7466    1.0000 </r>
       <r>    8.1331    1.0000 </r>
       <r>    9.0163    1.0000 </r>
       <r>    9.5269    1.0000 </r>
       <r>   24.0625    0.0000 </r>
       <r>   30.6227    0.0000 </r>
       <r>   33.7186    0.0000 </r>
       <r>   36.2975    0.0000 </r>
       <r>   42.7390    0.0000 </r>
       <r>   42.9998    0.0000 </r>
      </set>
      <set comment="kpoint 14">
       <r>    5.2084    1.0000 </r>
       <r>    7.3456    1.0000 </r>
       <r>    7.6025    1.0000 </r>
       <r>    8.0146    1.0000 </r>
       <r>    9.4957    1.0000 </r>
       <r>   10.4793   -0.0343 </r>
       <r>   19.4921    0.0000 </r>
       <r>   30.3224    0.0000 </r>
       <r>   32.1112    0.0000 </r>
       <r>   35.3417    0.0000 </r>
       <r>   41.8795    0.0000 </r>
       <r>   44.2935    0.0000 </r>
      </set>
      <set comment="kpoint 15">
       <r>    5.4494    1.0000 </r>
       <r>    7.3349    1.0000 </r>
       <r>    7.9187    1.0000 </r>
       <r>    8.1132    1.0000 </r>
       <r>    9.6041    1.0001 </r>
       <r>   11.9303   -0.0000 </r>
       <r>   16.5295    0.0000 </r>
       <r>   29.9083    0.0000 </r>
       <r>   31.7037    0.0000 </r>
       <r>   35.1203    0.0000 </r>
       <r>   41.1967    0.0000 </r>
       <r>   43.9569    0.0000 </r>
      </set>
      <set comment="kpoint 16">
       <r>    5.3615    1.0000 </r>
       <r>    7.4158    1.0000 </r>
       <r>    7.8066    1.0000 </r>
       <r>    7.9643    1.0000 </r>
       <r>    9.3957    1.0000 </r>
       <r>   11.0887   -0.0000 </r>
       <r>   18.2268    0.0000 </r>
       <r>   29.2595    0.0000 </r>
       <r>   32.8304    0.0000 </r>
       <r>   35.8982    0.0000 </r>
       <r>   40.8223    0.0000 </r>
       <r>   43.6164    0.0000 </r>
      </set>
      <set comment="kpoint 17">
       <r>    4.6179    1.0000 </r>
       <r>    7.1212    1.0000 </r>
       <r>    7.6514    1.0000 </r>
       <r>    8.0813    1.0000 </r>
       <r>    8.9436    1.0000 </r>
       <r>    9.9425    1.0329 </r>
       <r>   22.4679    0.0000 </r>
       <r>   29.1877    0.0000 </r>
       <r>   34.6519    0.0000 </r>
       <r>   37.5911    0.0000 </r>
       <r>   40.7415    0.0000 </r>
       <r>   42.8823    0.0000 </r>
      </set>
      <set comment="kpoint 18">
       <r>    3.1564    1.0000 </r>
       <r>    7.0871    1.0000 </r>
       <r>    7.8773    1.0000 </r>
       <r>    8.1338    1.0000 </r>
       <r>    8.5739    1.0000 </r>
       <r>    9.3167    1.0000 </r>
       <r>   27.4665    0.0000 </r>
       <r>   29.7732    0.0000 </r>
       <r>   36.8545    0.0000 </r>
       <r>   38.3862    0.0000 </r>
       <r>   41.6633    0.0000 </r>
       <r>   42.2546    0.0000 </r>
      </set>
      <set comment="kpoint 19">
       <r>    1.9559    1.0000 </r>
       <r>    7.3190    1.0000 </r>
       <r>    7.8900    1.0000 </r>
       <r>    7.9038    1.0000 </r>
       <r>    8.6653    1.0000 </r>
       <r>    9.0060    1.0000 </r>
       <r>   30.6836    0.0000 </r>
       <r>   33.0253    0.0000 </r>
       <r>   36.6370    0.0000 </r>
       <r>   38.7827    0.0000 </r>
       <r>   41.8084    0.0000 </r>
       <r>   43.8157    0.0000 </r>
      </set>
      <set comment="kpoint 20">
       <r>    3.3669    1.0000 </r>
       <r>    6.7967    1.0000 </r>
       <r>    8.1358    1.0000 </r>
       <r>    8.3792    1.0000 </r>
       <r>    8.5507    1.0000 </r>
       <r>    9.2331    1.0000 </r>
       <r>   29.6719    0.0000 </r>
       <r>   31.2232    0.0000 </r>
       <r>   32.1668    0.0000 </r>
       <r>   33.3506    0.0000 </r>
       <r>   38.3071    0.0000 </r>
       <r>   48.4424    0.0000 </r>
      </set>
      <set comment="kpoint 21">
       <r>    4.4833    1.0000 </r>
       <r>    6.5521    1.0000 </r>
       <r>    7.8934    1.0000 </r>
       <r>    8.6443    1.0000 </r>
       <r>    9.0554    1.0000 </r>
       <r>    9.5488    1.0000 </r>
       <r>   26.5135    0.0000 </r>
       <r>   28.5549    0.0000 </r>
       <r>   30.4438    0.0000 </r>
       <r>   33.9928    0.0000 </r>
       <r>   38.3263    0.0000 </r>
       <r>   47.9811    0.0000 </r>
      </set>
      <set comment="kpoint 22">
       <r>    5.5015    1.0000 </r>
       <r>    6.5462    1.0000 </r>
       <r>    7.6128    1.0000 </r>
       <r>    8.5711    1.0000 </r>
       <r>    9.5575    1.0000 </r>
       <r>   10.8467   -0.0000 </r>
       <r>   21.7271    0.0000 </r>
       <r>   27.6492    0.0000 </r>
       <r>   28.6499    0.0000 </r>
       <r>   34.1442    0.0000 </r>
       <r>   41.6989    0.0000 </r>
       <r>   46.4614    0.0000 </r>
      </set>
      <set comment="kpoint 23">
       <r>    5.9249    1.0000 </r>
       <r>    6.7371    1.0000 </r>
       <r>    7.5653    1.0000 </r>
       <r>    8.4321    1.0000 </r>
       <r>    9.6202    1.0001 </r>
       <r>   13.1807   -0.0000 </r>
       <r>   17.7242    0.0000 </r>
       <r>   25.9902    0.0000 </r>
       <r>   28.9826    0.0000 </r>
       <r>   34.2553    0.0000 </r>
       <r>   44.3279    0.0000 </r>
       <r>   47.2202    0.0000 </r>
      </set>
      <set comment="kpoint 24">
       <r>    6.0506    1.0000 </r>
       <r>    6.8955    1.0000 </r>
       <r>    7.4331    1.0000 </r>
       <r>    8.3669    1.0000 </r>
       <r>    9.3571    1.0000 </r>
       <r>   13.3298   -0.0000 </r>
       <r>   17.7367    0.0000 </r>
       <r>   24.8080    0.0000 </r>
       <r>   30.3485    0.0000 </r>
       <r>   34.9756    0.0000 </r>
       <r>   43.4774    0.0000 </r>
       <r>   47.3950    0.0000 </r>
      </set>
      <set comment="kpoint 25">
       <r>    5.7392    1.0000 </r>
       <r>    6.9471    1.0000 </r>
       <r>    7.2414    1.0000 </r>
       <r>    8.4327    1.0000 </r>
       <r>    8.8869    1.0000 </r>
       <r>   11.3150   -0.0000 </r>
       <r>   21.7287    0.0000 </r>
       <r>   24.4196    0.0000 </r>
       <r>   32.3630    0.0000 </r>
       <r>   36.5514    0.0000 </r>
       <r>   42.0814    0.0000 </r>
       <r>   46.2446    0.0000 </r>
      </set>
      <set comment="kpoint 26">
       <r>    4.5572    1.0000 </r>
       <r>    6.9314    1.0000 </r>
       <r>    7.6275    1.0000 </r>
       <r>    8.3339    1.0000 </r>
       <r>    8.6296    1.0000 </r>
       <r>   10.0295    1.0168 </r>
       <r>   24.4425    0.0000 </r>
       <r>   26.8568    0.0000 </r>
       <r>   34.7357    0.0000 </r>
       <r>   38.5801    0.0000 </r>
       <r>   40.2065    0.0000 </r>
       <r>   44.1012    0.0000 </r>
      </set>
      <set comment="kpoint 27">
       <r>    3.3516    1.0000 </r>
       <r>    7.1506    1.0000 </r>
       <r>    7.8692    1.0000 </r>
       <r>    7.9996    1.0000 </r>
       <r>    8.7921    1.0000 </r>
       <r>    9.2565    1.0000 </r>
       <r>   25.4872    0.0000 </r>
       <r>   32.0269    0.0000 </r>
       <r>   35.6458    0.0000 </r>
       <r>   38.7435    0.0000 </r>
       <r>   40.6911    0.0000 </r>
       <r>   42.6032    0.0000 </r>
      </set>
      <set comment="kpoint 28">
       <r>    4.9578    1.0000 </r>
       <r>    6.2270    1.0000 </r>
       <r>    8.5384    1.0000 </r>
       <r>    9.0085    1.0000 </r>
       <r>    9.3952    1.0000 </r>
       <r>    9.4889    1.0000 </r>
       <r>   26.7602    0.0000 </r>
       <r>   27.3735    0.0000 </r>
       <r>   28.1291    0.0000 </r>
       <r>   31.8304    0.0000 </r>
       <r>   35.9347    0.0000 </r>
       <r>   52.8869    0.0000 </r>
      </set>
      <set comment="kpoint 29">
       <r>    5.3904    1.0000 </r>
       <r>    6.0819    1.0000 </r>
       <r>    8.4882    1.0000 </r>
       <r>    9.2428    1.0000 </r>
       <r>    9.5703    1.0000 </r>
       <r>   10.9990   -0.0000 </r>
       <r>   24.1676    0.0000 </r>
       <r>   24.7845    0.0000 </r>
       <r>   26.5219    0.0000 </r>
       <r>   32.9004    0.0000 </r>
       <r>   36.9794    0.0000 </r>
       <r>   51.1938    0.0000 </r>
      </set>
      <set comment="kpoint 30">
       <r>    5.7786    1.0000 </r>
       <r>    6.1801    1.0000 </r>
       <r>    8.0925    1.0000 </r>
       <r>    9.0579    1.0000 </r>
       <r>    9.6690    1.0004 </r>
       <r>   13.6699   -0.0000 </r>
       <r>   20.1635    0.0000 </r>
       <r>   22.5663    0.0000 </r>
       <r>   26.8062    0.0000 </r>
       <r>   33.4252    0.0000 </r>
       <r>   40.9886    0.0000 </r>
       <r>   49.2293    0.0000 </r>
      </set>
      <set comment="kpoint 31">
       <r>    6.1942    1.0000 </r>
       <r>    6.4196    1.0000 </r>
       <r>    7.5829    1.0000 </r>
       <r>    8.8515    1.0000 </r>
       <r>    9.4504    1.0000 </r>
       <r>   16.1519    0.0000 </r>
       <r>   17.2275    0.0000 </r>
       <r>   21.4246    0.0000 </r>
       <r>   28.1034    0.0000 </r>
       <r>   33.9740    0.0000 </r>
       <r>   46.1969    0.0000 </r>
       <r>   47.2857    0.0000 </r>
      </set>
      <set comment="kpoint 32">
       <r>    6.3097    1.0000 </r>
       <r>    6.7823    1.0000 </r>
       <r>    7.1642    1.0000 </r>
       <r>    8.5807    1.0000 </r>
       <r>    9.1850    1.0000 </r>
       <r>   13.4212   -0.0000 </r>
       <r>   19.2957    0.0000 </r>
       <r>   22.5943    0.0000 </r>
       <r>   30.1192    0.0000 </r>
       <r>   34.9768    0.0000 </r>
       <r>   44.4539    0.0000 </r>
       <r>   48.5842    0.0000 </r>
      </set>
      <set comment="kpoint 33">
       <r>    5.5649    1.0000 </r>
       <r>    7.2407    1.0000 </r>
       <r>    7.3530    1.0000 </r>
       <r>    8.1861    1.0000 </r>
       <r>    9.1455    1.0000 </r>
       <r>   11.2481   -0.0000 </r>
       <r>   19.8559    0.0000 </r>
       <r>   26.7437    0.0000 </r>
       <r>   32.5099    0.0000 </r>
       <r>   36.3132    0.0000 </r>
       <r>   41.5185    0.0000 </r>
       <r>   45.0101    0.0000 </r>
      </set>
      <set comment="kpoint 34">
       <r>    4.7200    1.0000 </r>
       <r>    7.5133    1.0000 </r>
       <r>    7.6804    1.0000 </r>
       <r>    7.8916    1.0000 </r>
       <r>    9.2522    1.0000 </r>
       <r>    9.7750    1.0039 </r>
       <r>   20.6860    0.0000 </r>
       <r>   31.5563    0.0000 </r>
       <r>   34.4111    0.0000 </r>
       <r>   36.7572    0.0000 </r>
       <r>   40.4602    0.0000 </r>
       <r>   42.3024    0.0000 </r>
      </set>
      <set comment="kpoint 35">
       <r>    5.2665    1.0000 </r>
       <r>    5.8380    1.0000 </r>
       <r>    9.4337    1.0000 </r>
       <r>    9.5271    1.0000 </r>
       <r>    9.6953    1.0007 </r>
       <r>   11.6217   -0.0000 </r>
       <r>   21.8617    0.0000 </r>
       <r>   25.3486    0.0000 </r>
       <r>   26.1801    0.0000 </r>
       <r>   31.3299    0.0000 </r>
       <r>   35.1767    0.0000 </r>
       <r>   55.2174    0.0000 </r>
      </set>
      <set comment="kpoint 36">
       <r>    5.3877    1.0000 </r>
       <r>    5.8474    1.0000 </r>
       <r>    9.0893    1.0000 </r>
       <r>    9.5171    1.0000 </r>
       <r>    9.7557    1.0027 </r>
       <r>   13.4803   -0.0000 </r>
       <r>   20.3033    0.0000 </r>
       <r>   23.4903    0.0000 </r>
       <r>   25.3803    0.0000 </r>
       <r>   32.4759    0.0000 </r>
       <r>   36.5608    0.0000 </r>
       <r>   53.4057    0.0000 </r>
      </set>
      <set comment="kpoint 37">
       <r>    5.7513    1.0000 </r>
       <r>    6.1066    1.0000 </r>
       <r>    8.2667    1.0000 </r>
       <r>    9.2033    1.0000 </r>
       <r>    9.6479    1.0002 </r>
       <r>   15.0525   -0.0000 </r>
       <r>   19.6161    0.0000 </r>
       <r>   20.9121    0.0000 </r>
       <r>   26.4619    0.0000 </r>
       <r>   33.3083    0.0000 </r>
       <r>   40.8605    0.0000 </r>
       <r>   50.1982    0.0000 </r>
      </set>
      <set comment="kpoint 38">
       <r>    6.1195    1.0000 </r>
       <r>    6.5176    1.0000 </r>
       <r>    7.5706    1.0000 </r>
       <r>    8.6703    1.0000 </r>
       <r>    9.5469    1.0000 </r>
       <r>   14.8742   -0.0000 </r>
       <r>   17.2195    0.0000 </r>
       <r>   23.4192    0.0000 </r>
       <r>   28.3946    0.0000 </r>
       <r>   34.0547    0.0000 </r>
       <r>   45.4906    0.0000 </r>
       <r>   47.1492    0.0000 </r>
      </set>
      <set comment="kpoint 39">
       <r>    5.7393    1.0000 </r>
       <r>    7.1003    1.0000 </r>
       <r>    7.7658    1.0000 </r>
       <r>    8.1248    1.0000 </r>
       <r>    9.5199    1.0000 </r>
       <r>   12.8913   -0.0000 </r>
       <r>   16.6775    0.0000 </r>
       <r>   27.3903    0.0000 </r>
       <r>   30.8253    0.0000 </r>
       <r>   35.0060    0.0000 </r>
       <r>   42.2941    0.0000 </r>
       <r>   45.8126    0.0000 </r>
      </set>
      <set comment="kpoint 40">
       <r>    5.2035    1.0000 </r>
       <r>    7.5322    1.0000 </r>
       <r>    7.7795    1.0000 </r>
       <r>    8.4392    1.0000 </r>
       <r>    9.5751    1.0000 </r>
       <r>   10.8071   -0.0001 </r>
       <r>   17.0375    0.0000 </r>
       <r>   31.5118    0.0000 </r>
       <r>   33.5335    0.0000 </r>
       <r>   35.4437    0.0000 </r>
       <r>   40.2508    0.0000 </r>
       <r>   41.8784    0.0000 </r>
      </set>
      <set comment="kpoint 41">
       <r>    5.2473    1.0000 </r>
       <r>    5.7535    1.0000 </r>
       <r>    9.6070    1.0001 </r>
       <r>    9.6293    1.0001 </r>
       <r>    9.7656    1.0033 </r>
       <r>   12.7501   -0.0000 </r>
       <r>   20.2362    0.0000 </r>
       <r>   24.9560    0.0000 </r>
       <r>   25.7611    0.0000 </r>
       <r>   31.2353    0.0000 </r>
       <r>   35.0676    0.0000 </r>
       <r>   55.5590    0.0000 </r>
      </set>
      <set comment="kpoint 42">
       <r>    5.4140    1.0000 </r>
       <r>    5.9280    1.0000 </r>
       <r>    8.8686    1.0000 </r>
       <r>    9.4457    1.0000 </r>
       <r>    9.6798    1.0005 </r>
       <r>   12.3254   -0.0000 </r>
       <r>   21.9735    0.0000 </r>
       <r>   23.8645    0.0000 </r>
       <r>   25.7666    0.0000 </r>
       <r>   32.6242    0.0000 </r>
       <r>   36.6893    0.0000 </r>
       <r>   52.5427    0.0000 </r>
      </set>
      <set comment="kpoint 43">
       <r>    5.7489    1.0000 </r>
       <r>    6.3331    1.0000 </r>
       <r>    7.8219    1.0000 </r>
       <r>    8.8289    1.0000 </r>
       <r>    9.6527    1.0002 </r>
       <r>   12.1250   -0.0000 </r>
       <r>   20.8412    0.0000 </r>
       <r>   25.0476    0.0000 </r>
       <r>   27.4919    0.0000 </r>
       <r>   33.6899    0.0000 </r>
       <r>   41.2654    0.0000 </r>
       <r>   47.8840    0.0000 </r>
      </set>
      <set comment="kpoint 44">
       <r>    5.6170    1.0000 </r>
       <r>    7.0346    1.0000 </r>
       <r>    7.5784    1.0000 </r>
       <r>    8.2014    1.0000 </r>
       <r>    9.6149    1.0001 </r>
       <r>   11.6565   -0.0000 </r>
       <r>   18.5000    0.0000 </r>
       <r>   28.6012    0.0000 </r>
       <r>   29.9897    0.0000 </r>
       <r>   34.6385    0.0000 </r>
       <r>   43.0960    0.0000 </r>
       <r>   46.5334    0.0000 </r>
      </set>
      <set comment="kpoint 45">
       <r>    5.2295    1.0000 </r>
       <r>    6.0002    1.0000 </r>
       <r>    9.0764    1.0000 </r>
       <r>    9.3049    1.0000 </r>
       <r>    9.6015    1.0001 </r>
       <r>   10.2972    0.1864 </r>
       <r>   24.2590    0.0000 </r>
       <r>   26.1118    0.0000 </r>
       <r>   26.9841    0.0000 </r>
       <r>   31.5168    0.0000 </r>
       <r>   35.4372    0.0000 </r>
       <r>   54.3649    0.0000 </r>
      </set>
      <set comment="kpoint 46">
       <r>    5.1344    1.0000 </r>
       <r>    6.2961    1.0000 </r>
       <r>    8.0806    1.0000 </r>
       <r>    8.9531    1.0000 </r>
       <r>    9.3903    1.0000 </r>
       <r>   10.0273    1.0183 </r>
       <r>   25.3608    0.0000 </r>
       <r>   27.0199    0.0000 </r>
       <r>   27.8391    0.0000 </r>
       <r>   33.3345    0.0000 </r>
       <r>   37.4949    0.0000 </r>
       <r>   49.6331    0.0000 </r>
      </set>
      <set comment="kpoint 47">
       <r>    4.9269    1.0000 </r>
       <r>    6.7731    1.0000 </r>
       <r>    7.6074    1.0000 </r>
       <r>    8.3299    1.0000 </r>
       <r>    9.3456    1.0000 </r>
       <r>    9.9808    1.0351 </r>
       <r>   22.8084    0.0000 </r>
       <r>   29.2827    0.0000 </r>
       <r>   31.0728    0.0000 </r>
       <r>   34.9107    0.0000 </r>
       <r>   42.2601    0.0000 </r>
       <r>   44.9327    0.0000 </r>
      </set>
      <set comment="kpoint 48">
       <r>    4.2886    1.0000 </r>
       <r>    6.5015    1.0000 </r>
       <r>    8.1781    1.0000 </r>
       <r>    8.6878    1.0000 </r>
       <r>    8.8909    1.0000 </r>
       <r>    9.3635    1.0000 </r>
       <r>   28.2731    0.0000 </r>
       <r>   29.5626    0.0000 </r>
       <r>   29.8871    0.0000 </r>
       <r>   32.3543    0.0000 </r>
       <r>   36.8166    0.0000 </r>
       <r>   50.7417    0.0000 </r>
      </set>
      <set comment="kpoint 49">
       <r>    3.5850    1.0000 </r>
       <r>    6.8276    1.0000 </r>
       <r>    7.9325    1.0000 </r>
       <r>    8.3548    1.0000 </r>
       <r>    8.7155    1.0000 </r>
       <r>    9.3190    1.0000 </r>
       <r>   27.7974    0.0000 </r>
       <r>   29.9734    0.0000 </r>
       <r>   33.2086    0.0000 </r>
       <r>   35.0009    0.0000 </r>
       <r>   39.5820    0.0000 </r>
       <r>   46.2177    0.0000 </r>
      </set>
      <set comment="kpoint 50">
       <r>    2.4545    1.0000 </r>
       <r>    7.0849    1.0000 </r>
       <r>    8.0769    1.0000 </r>
       <r>    8.1052    1.0000 </r>
       <r>    8.4755    1.0000 </r>
       <r>    9.1089    1.0000 </r>
       <r>   31.0749    0.0000 </r>
       <r>   33.0379    0.0000 </r>
       <r>   33.4236    0.0000 </r>
       <r>   35.2103    0.0000 </r>
       <r>   40.5853    0.0000 </r>
       <r>   46.2157    0.0000 </r>
      </set>
      <set comment="kpoint 51">
       <r>    1.6976    1.0000 </r>
       <r>    7.4327    1.0000 </r>
       <r>    7.8143    1.0000 </r>
       <r>    7.8143    1.0000 </r>
       <r>    8.8489    1.0000 </r>
       <r>    8.8489    1.0000 </r>
       <r>   30.5053    0.0000 </r>
       <r>   35.4538    0.0000 </r>
       <r>   37.5640    0.0000 </r>
       <r>   37.5640    0.0000 </r>
       <r>   42.9478    0.0000 </r>
       <r>   43.7839    0.0000 </r>
      </set>
      <set comment="kpoint 52">
       <r>    2.4525    1.0000 </r>
       <r>    7.2420    1.0000 </r>
       <r>    7.8969    1.0000 </r>
       <r>    7.9779    1.0000 </r>
       <r>    8.6204    1.0000 </r>
       <r>    9.1076    1.0000 </r>
       <r>   29.0212    0.0000 </r>
       <r>   31.3245    0.0000 </r>
       <r>   37.9287    0.0000 </r>
       <r>   40.0631    0.0000 </r>
       <r>   40.4535    0.0000 </r>
       <r>   42.3095    0.0000 </r>
      </set>
      <set comment="kpoint 53">
       <r>    3.8021    1.0000 </r>
       <r>    7.0352    1.0000 </r>
       <r>    7.7900    1.0000 </r>
       <r>    8.2109    1.0000 </r>
       <r>    8.5255    1.0000 </r>
       <r>    9.6210    1.0001 </r>
       <r>   25.8717    0.0000 </r>
       <r>   28.2324    0.0000 </r>
       <r>   37.2457    0.0000 </r>
       <r>   38.8403    0.0000 </r>
       <r>   40.1195    0.0000 </r>
       <r>   42.5631    0.0000 </r>
      </set>
      <set comment="kpoint 54">
       <r>    5.1162    1.0000 </r>
       <r>    7.2460    1.0000 </r>
       <r>    7.5290    1.0000 </r>
       <r>    8.0752    1.0000 </r>
       <r>    8.9730    1.0000 </r>
       <r>   10.4814   -0.0341 </r>
       <r>   21.0639    0.0000 </r>
       <r>   27.8736    0.0000 </r>
       <r>   35.1951    0.0000 </r>
       <r>   35.8782    0.0000 </r>
       <r>   42.0831    0.0000 </r>
       <r>   42.2363    0.0000 </r>
      </set>
      <set comment="kpoint 55">
       <r>    5.5341    1.0000 </r>
       <r>    7.3065    1.0000 </r>
       <r>    7.9037    1.0000 </r>
       <r>    7.9839    1.0000 </r>
       <r>    9.4273    1.0000 </r>
       <r>   11.9107   -0.0000 </r>
       <r>   17.2538    0.0000 </r>
       <r>   28.2400    0.0000 </r>
       <r>   33.4836    0.0000 </r>
       <r>   34.0040    0.0000 </r>
       <r>   42.6389    0.0000 </r>
       <r>   43.1547    0.0000 </r>
      </set>
      <set comment="kpoint 56">
       <r>    5.5091    1.0000 </r>
       <r>    7.2363    1.0000 </r>
       <r>    7.8616    1.0000 </r>
       <r>    8.0145    1.0000 </r>
       <r>    9.6536    1.0003 </r>
       <r>   11.8073   -0.0000 </r>
       <r>   17.2318    0.0000 </r>
       <r>   29.2950    0.0000 </r>
       <r>   31.9740    0.0000 </r>
       <r>   33.6682    0.0000 </r>
       <r>   43.6190    0.0000 </r>
       <r>   43.6556    0.0000 </r>
      </set>
      <set comment="kpoint 57">
       <r>    5.0609    1.0000 </r>
       <r>    7.0263    1.0000 </r>
       <r>    7.5925    1.0000 </r>
       <r>    8.1308    1.0000 </r>
       <r>    9.5741    1.0000 </r>
       <r>   10.0631    0.9807 </r>
       <r>   21.0251    0.0000 </r>
       <r>   30.8244    0.0000 </r>
       <r>   31.4403    0.0000 </r>
       <r>   34.1404    0.0000 </r>
       <r>   44.2311    0.0000 </r>
       <r>   44.8578    0.0000 </r>
      </set>
      <set comment="kpoint 58">
       <r>    3.7808    1.0000 </r>
       <r>    6.8781    1.0000 </r>
       <r>    7.8564    1.0000 </r>
       <r>    8.2118    1.0000 </r>
       <r>    8.9688    1.0000 </r>
       <r>    9.3078    1.0000 </r>
       <r>   25.8528    0.0000 </r>
       <r>   31.8226    0.0000 </r>
       <r>   32.3476    0.0000 </r>
       <r>   35.2557    0.0000 </r>
       <r>   41.0930    0.0000 </r>
       <r>   45.1494    0.0000 </r>
      </set>
      <set comment="kpoint 59">
       <r>    2.9198    1.0000 </r>
       <r>    7.1178    1.0000 </r>
       <r>    7.9348    1.0000 </r>
       <r>    8.0304    1.0000 </r>
       <r>    8.7282    1.0000 </r>
       <r>    9.1345    1.0000 </r>
       <r>   27.2762    0.0000 </r>
       <r>   33.6302    0.0000 </r>
       <r>   33.6466    0.0000 </r>
       <r>   37.8713    0.0000 </r>
       <r>   41.3312    0.0000 </r>
       <r>   43.9935    0.0000 </r>
      </set>
      <set comment="kpoint 60">
       <r>    3.9988    1.0000 </r>
       <r>    6.8795    1.0000 </r>
       <r>    7.7560    1.0000 </r>
       <r>    8.3489    1.0000 </r>
       <r>    8.7000    1.0000 </r>
       <r>    9.6040    1.0001 </r>
       <r>   26.0495    0.0000 </r>
       <r>   28.3653    0.0000 </r>
       <r>   34.0302    0.0000 </r>
       <r>   37.2247    0.0000 </r>
       <r>   41.0682    0.0000 </r>
       <r>   43.6513    0.0000 </r>
      </set>
      <set comment="kpoint 61">
       <r>    5.2969    1.0000 </r>
       <r>    6.7904    1.0000 </r>
       <r>    7.4000    1.0000 </r>
       <r>    8.5333    1.0000 </r>
       <r>    8.8789    1.0000 </r>
       <r>   10.6067   -0.0093 </r>
       <r>   23.1796    0.0000 </r>
       <r>   25.6656    0.0000 </r>
       <r>   31.5639    0.0000 </r>
       <r>   38.5241    0.0000 </r>
       <r>   40.1491    0.0000 </r>
       <r>   44.8527    0.0000 </r>
      </set>
      <set comment="kpoint 62">
       <r>    5.9354    1.0000 </r>
       <r>    6.9628    1.0000 </r>
       <r>    7.3122    1.0000 </r>
       <r>    8.3796    1.0000 </r>
       <r>    9.3494    1.0000 </r>
       <r>   12.3665   -0.0000 </r>
       <r>   18.8420    0.0000 </r>
       <r>   25.8084    0.0000 </r>
       <r>   29.4713    0.0000 </r>
       <r>   37.1556    0.0000 </r>
       <r>   41.1938    0.0000 </r>
       <r>   47.9444    0.0000 </r>
      </set>
      <set comment="kpoint 63">
       <r>    5.9783    1.0000 </r>
       <r>    6.8577    1.0000 </r>
       <r>    7.5380    1.0000 </r>
       <r>    8.3387    1.0000 </r>
       <r>    9.5494    1.0000 </r>
       <r>   13.6511   -0.0000 </r>
       <r>   16.8469    0.0000 </r>
       <r>   26.6448    0.0000 </r>
       <r>   28.1040    0.0000 </r>
       <r>   36.3804    0.0000 </r>
       <r>   41.8207    0.0000 </r>
       <r>   48.7602    0.0000 </r>
      </set>
      <set comment="kpoint 64">
       <r>    5.7450    1.0000 </r>
       <r>    6.7937    1.0000 </r>
       <r>    7.3734    1.0000 </r>
       <r>    8.4696    1.0000 </r>
       <r>    9.4347    1.0000 </r>
       <r>   11.5481   -0.0000 </r>
       <r>   20.1766    0.0000 </r>
       <r>   26.9309    0.0000 </r>
       <r>   28.7632    0.0000 </r>
       <r>   36.3010    0.0000 </r>
       <r>   42.1042    0.0000 </r>
       <r>   45.7719    0.0000 </r>
      </set>
      <set comment="kpoint 65">
       <r>    4.8424    1.0000 </r>
       <r>    6.6520    1.0000 </r>
       <r>    7.6114    1.0000 </r>
       <r>    8.6094    1.0000 </r>
       <r>    8.9766    1.0000 </r>
       <r>   10.0197    1.0232 </r>
       <r>   24.7825    0.0000 </r>
       <r>   27.0868    0.0000 </r>
       <r>   30.9453    0.0000 </r>
       <r>   36.3037    0.0000 </r>
       <r>   40.2552    0.0000 </r>
       <r>   45.0259    0.0000 </r>
      </set>
      <set comment="kpoint 66">
       <r>    4.6440    1.0000 </r>
       <r>    6.6231    1.0000 </r>
       <r>    7.7775    1.0000 </r>
       <r>    8.4441    1.0000 </r>
       <r>    9.4736    1.0000 </r>
       <r>    9.4796    1.0000 </r>
       <r>   24.5853    0.0000 </r>
       <r>   30.2110    0.0000 </r>
       <r>   30.2251    0.0000 </r>
       <r>   33.6370    0.0000 </r>
       <r>   40.1290    0.0000 </r>
       <r>   47.3945    0.0000 </r>
      </set>
      <set comment="kpoint 67">
       <r>    5.4548    1.0000 </r>
       <r>    6.4318    1.0000 </r>
       <r>    7.6302    1.0000 </r>
       <r>    8.8955    1.0000 </r>
       <r>    9.2616    1.0000 </r>
       <r>   10.7270   -0.0009 </r>
       <r>   23.6850    0.0000 </r>
       <r>   25.9607    0.0000 </r>
       <r>   27.9596    0.0000 </r>
       <r>   35.5955    0.0000 </r>
       <r>   39.6374    0.0000 </r>
       <r>   46.3741    0.0000 </r>
      </set>
      <set comment="kpoint 68">
       <r>    6.0393    1.0000 </r>
       <r>    6.4804    1.0000 </r>
       <r>    7.3565    1.0000 </r>
       <r>    8.9599    1.0000 </r>
       <r>    9.4143    1.0000 </r>
       <r>   12.7813   -0.0000 </r>
       <r>   21.2061    0.0000 </r>
       <r>   23.8319    0.0000 </r>
       <r>   25.6404    0.0000 </r>
       <r>   37.6269    0.0000 </r>
       <r>   41.0472    0.0000 </r>
       <r>   45.3085    0.0000 </r>
      </set>
      <set comment="kpoint 69">
       <r>    6.3554    1.0000 </r>
       <r>    6.5390    1.0000 </r>
       <r>    7.2254    1.0000 </r>
       <r>    8.7371    1.0000 </r>
       <r>    9.5748    1.0000 </r>
       <r>   15.5207   -0.0000 </r>
       <r>   17.5234    0.0000 </r>
       <r>   23.6157    0.0000 </r>
       <r>   24.8914    0.0000 </r>
       <r>   38.1792    0.0000 </r>
       <r>   42.2458    0.0000 </r>
       <r>   47.2430    0.0000 </r>
      </set>
      <set comment="kpoint 70">
       <r>    6.3574    1.0000 </r>
       <r>    6.7108    1.0000 </r>
       <r>    6.9847    1.0000 </r>
       <r>    8.7755    1.0000 </r>
       <r>    9.3965    1.0000 </r>
       <r>   13.7968   -0.0000 </r>
       <r>   19.7255    0.0000 </r>
       <r>   22.8233    0.0000 </r>
       <r>   26.3288    0.0000 </r>
       <r>   39.0645    0.0000 </r>
       <r>   41.0027    0.0000 </r>
       <r>   46.5654    0.0000 </r>
      </set>
      <set comment="kpoint 71">
       <r>    5.8423    1.0000 </r>
       <r>    6.6318    1.0000 </r>
       <r>    7.2600    1.0000 </r>
       <r>    8.7733    1.0000 </r>
       <r>    9.1611    1.0000 </r>
       <r>   11.4967   -0.0000 </r>
       <r>   22.0917    0.0000 </r>
       <r>   24.6679    0.0000 </r>
       <r>   28.4912    0.0000 </r>
       <r>   38.0784    0.0000 </r>
       <r>   40.5625    0.0000 </r>
       <r>   44.9737    0.0000 </r>
      </set>
      <set comment="kpoint 72">
       <r>    5.5219    1.0000 </r>
       <r>    6.1636    1.0000 </r>
       <r>    8.2340    1.0000 </r>
       <r>    8.9739    1.0000 </r>
       <r>    9.6933    1.0007 </r>
       <r>   11.4319   -0.0000 </r>
       <r>   22.5498    0.0000 </r>
       <r>   24.7253    0.0000 </r>
       <r>   27.7316    0.0000 </r>
       <r>   32.4924    0.0000 </r>
       <r>   38.8292    0.0000 </r>
       <r>   50.9721    0.0000 </r>
      </set>
      <set comment="kpoint 73">
       <r>    5.6798    1.0000 </r>
       <r>    6.1078    1.0000 </r>
       <r>    8.2061    1.0000 </r>
       <r>    9.2779    1.0000 </r>
       <r>    9.6423    1.0002 </r>
       <r>   13.2905   -0.0000 </r>
       <r>   21.9287    0.0000 </r>
       <r>   22.5344    0.0000 </r>
       <r>   24.7008    0.0000 </r>
       <r>   34.7533    0.0000 </r>
       <r>   38.9883    0.0000 </r>
       <r>   49.0606    0.0000 </r>
      </set>
      <set comment="kpoint 74">
       <r>    5.9352    1.0000 </r>
       <r>    6.3217    1.0000 </r>
       <r>    7.7634    1.0000 </r>
       <r>    9.0445    1.0000 </r>
       <r>    9.7498    1.0024 </r>
       <r>   15.8361    0.0000 </r>
       <r>   20.0787    0.0000 </r>
       <r>   20.9431    0.0000 </r>
       <r>   23.2801    0.0000 </r>
       <r>   37.1296    0.0000 </r>
       <r>   41.5439    0.0000 </r>
       <r>   46.5956    0.0000 </r>
      </set>
      <set comment="kpoint 75">
       <r>    6.2766    1.0000 </r>
       <r>    6.6195    1.0000 </r>
       <r>    7.1981    1.0000 </r>
       <r>    8.8171    1.0000 </r>
       <r>    9.6172    1.0001 </r>
       <r>   16.6718    0.0000 </r>
       <r>   17.7316    0.0000 </r>
       <r>   21.5989    0.0000 </r>
       <r>   24.5465    0.0000 </r>
       <r>   38.2704    0.0000 </r>
       <r>   43.3571    0.0000 </r>
       <r>   46.3010    0.0000 </r>
      </set>
      <set comment="kpoint 76">
       <r>    6.2256    1.0000 </r>
       <r>    6.6752    1.0000 </r>
       <r>    7.2693    1.0000 </r>
       <r>    8.5815    1.0000 </r>
       <r>    9.4922    1.0000 </r>
       <r>   13.8391   -0.0000 </r>
       <r>   18.0415    0.0000 </r>
       <r>   25.0346    0.0000 </r>
       <r>   26.6257    0.0000 </r>
       <r>   37.8451    0.0000 </r>
       <r>   41.4029    0.0000 </r>
       <r>   48.0194    0.0000 </r>
      </set>
      <set comment="kpoint 77">
       <r>    5.5178    1.0000 </r>
       <r>    5.9355    1.0000 </r>
       <r>    8.7852    1.0000 </r>
       <r>    9.3907    1.0000 </r>
       <r>    9.6964    1.0007 </r>
       <r>   14.0793   -0.0000 </r>
       <r>   20.3001    0.0000 </r>
       <r>   21.7584    0.0000 </r>
       <r>   26.5780    0.0000 </r>
       <r>   32.2076    0.0000 </r>
       <r>   38.3748    0.0000 </r>
       <r>   52.9581    0.0000 </r>
      </set>
      <set comment="kpoint 78">
       <r>    5.6394    1.0000 </r>
       <r>    6.0372    1.0000 </r>
       <r>    8.4160    1.0000 </r>
       <r>    9.3037    1.0000 </r>
       <r>    9.7513    1.0024 </r>
       <r>   14.5702   -0.0000 </r>
       <r>   20.4255    0.0000 </r>
       <r>   21.9162    0.0000 </r>
       <r>   24.3512    0.0000 </r>
       <r>   34.5834    0.0000 </r>
       <r>   38.8808    0.0000 </r>
       <r>   50.0206    0.0000 </r>
      </set>
      <set comment="kpoint 79">
       <r>    5.9991    1.0000 </r>
       <r>    6.3738    1.0000 </r>
       <r>    7.5925    1.0000 </r>
       <r>    9.0385    1.0000 </r>
       <r>    9.6243    1.0001 </r>
       <r>   14.3644   -0.0000 </r>
       <r>   20.5506    0.0000 </r>
       <r>   22.6200    0.0000 </r>
       <r>   23.7147    0.0000 </r>
       <r>   37.2962    0.0000 </r>
       <r>   41.3861    0.0000 </r>
       <r>   45.9564    0.0000 </r>
      </set>
      <set comment="kpoint 80">
       <r>    5.5453    1.0000 </r>
       <r>    6.0132    1.0000 </r>
       <r>    8.5848    1.0000 </r>
       <r>    9.2192    1.0000 </r>
       <r>    9.7217    1.0013 </r>
       <r>   12.8494   -0.0000 </r>
       <r>   21.6829    0.0000 </r>
       <r>   22.4680    0.0000 </r>
       <r>   26.9712    0.0000 </r>
       <r>   32.3070    0.0000 </r>
       <r>   38.5207    0.0000 </r>
       <r>   52.1829    0.0000 </r>
      </set>
      <set comment="kpoint 81">
       <r>    5.6818    1.0000 </r>
       <r>    6.2428    1.0000 </r>
       <r>    7.8843    1.0000 </r>
       <r>    9.1456    1.0000 </r>
       <r>    9.4733    1.0000 </r>
       <r>   11.8530   -0.0000 </r>
       <r>   22.7737    0.0000 </r>
       <r>   24.6153    0.0000 </r>
       <r>   25.5688    0.0000 </r>
       <r>   35.0754    0.0000 </r>
       <r>   39.2251    0.0000 </r>
       <r>   47.7351    0.0000 </r>
      </set>
      <set comment="kpoint 82">
       <r>    5.2716    1.0000 </r>
       <r>    6.3760    1.0000 </r>
       <r>    7.8943    1.0000 </r>
       <r>    8.7059    1.0000 </r>
       <r>    9.6068    1.0001 </r>
       <r>   10.2812    0.2405 </r>
       <r>   23.4774    0.0000 </r>
       <r>   27.4772    0.0000 </r>
       <r>   28.8278    0.0000 </r>
       <r>   32.8916    0.0000 </r>
       <r>   39.3543    0.0000 </r>
       <r>   49.6281    0.0000 </r>
      </set>
      <set comment="kpoint 83">
       <r>    3.1158    1.0000 </r>
       <r>    7.2907    1.0000 </r>
       <r>    7.8835    1.0000 </r>
       <r>    7.8835    1.0000 </r>
       <r>    8.9792    1.0000 </r>
       <r>    8.9792    1.0000 </r>
       <r>   25.2848    0.0000 </r>
       <r>   34.6364    0.0000 </r>
       <r>   36.7247    0.0000 </r>
       <r>   36.7247    0.0000 </r>
       <r>   42.4222    0.0000 </r>
       <r>   42.4222    0.0000 </r>
      </set>
      <set comment="kpoint 84">
       <r>    3.9440    1.0000 </r>
       <r>    7.1613    1.0000 </r>
       <r>    7.7979    1.0000 </r>
       <r>    8.0063    1.0000 </r>
       <r>    8.7981    1.0000 </r>
       <r>    9.5436    1.0000 </r>
       <r>   23.8839    0.0000 </r>
       <r>   30.5306    0.0000 </r>
       <r>   36.3841    0.0000 </r>
       <r>   38.9853    0.0000 </r>
       <r>   40.3848    0.0000 </r>
       <r>   40.9495    0.0000 </r>
      </set>
      <set comment="kpoint 85">
       <r>    5.1735    1.0000 </r>
       <r>    6.9603    1.0000 </r>
       <r>    7.4799    1.0000 </r>
       <r>    8.3230    1.0000 </r>
       <r>    8.6938    1.0000 </r>
       <r>   10.5741   -0.0148 </r>
       <r>   23.0047    0.0000 </r>
       <r>   25.5382    0.0000 </r>
       <r>   35.4530    0.0000 </r>
       <r>   35.7035    0.0000 </r>
       <r>   42.1754    0.0000 </r>
       <r>   44.0958    0.0000 </r>
      </set>
      <set comment="kpoint 86">
       <r>    6.0770    1.0000 </r>
       <r>    7.0412    1.0000 </r>
       <r>    7.0894    1.0000 </r>
       <r>    8.4424    1.0000 </r>
       <r>    8.9973    1.0000 </r>
       <r>   12.2230   -0.0000 </r>
       <r>   20.4291    0.0000 </r>
       <r>   23.3904    0.0000 </r>
       <r>   32.7671    0.0000 </r>
       <r>   34.0798    0.0000 </r>
       <r>   44.7786    0.0000 </r>
       <r>   45.7498    0.0000 </r>
      </set>
      <set comment="kpoint 87">
       <r>    6.1070    1.0000 </r>
       <r>    6.7222    1.0000 </r>
       <r>    7.5166    1.0000 </r>
       <r>    8.4819    1.0000 </r>
       <r>    9.4470    1.0000 </r>
       <r>   14.3672   -0.0000 </r>
       <r>   16.9850    0.0000 </r>
       <r>   24.0083    0.0000 </r>
       <r>   30.5128    0.0000 </r>
       <r>   33.2289    0.0000 </r>
       <r>   46.5763    0.0000 </r>
       <r>   46.6411    0.0000 </r>
      </set>
      <set comment="kpoint 88">
       <r>    5.8413    1.0000 </r>
       <r>    6.5178    1.0000 </r>
       <r>    7.6932    1.0000 </r>
       <r>    8.5866    1.0000 </r>
       <r>    9.6849    1.0006 </r>
       <r>   12.6056   -0.0000 </r>
       <r>   19.1140    0.0000 </r>
       <r>   25.4329    0.0000 </r>
       <r>   29.1444    0.0000 </r>
       <r>   32.9040    0.0000 </r>
       <r>   43.8089    0.0000 </r>
       <r>   47.8602    0.0000 </r>
      </set>
      <set comment="kpoint 89">
       <r>    4.4035    1.0000 </r>
       <r>    7.1977    1.0000 </r>
       <r>    7.7224    1.0000 </r>
       <r>    7.9790    1.0000 </r>
       <r>    9.3553    1.0000 </r>
       <r>    9.4127    1.0000 </r>
       <r>   22.2628    0.0000 </r>
       <r>   32.6704    0.0000 </r>
       <r>   32.9837    0.0000 </r>
       <r>   36.0703    0.0000 </r>
       <r>   41.9179    0.0000 </r>
       <r>   44.0471    0.0000 </r>
      </set>
      <set comment="kpoint 90">
       <r>    5.2583    1.0000 </r>
       <r>    7.0044    1.0000 </r>
       <r>    7.4578    1.0000 </r>
       <r>    8.2463    1.0000 </r>
       <r>    9.2079    1.0000 </r>
       <r>   10.5544   -0.0189 </r>
       <r>   21.2267    0.0000 </r>
       <r>   27.9883    0.0000 </r>
       <r>   31.7197    0.0000 </r>
       <r>   36.8331    0.0000 </r>
       <r>   41.3300    0.0000 </r>
       <r>   45.2089    0.0000 </r>
      </set>
      <set comment="kpoint 91">
       <r>    6.1686    1.0000 </r>
       <r>    6.8588    1.0000 </r>
       <r>    7.0145    1.0000 </r>
       <r>    8.6235    1.0000 </r>
       <r>    9.1389    1.0000 </r>
       <r>   12.3733   -0.0000 </r>
       <r>   20.6252    0.0000 </r>
       <r>   23.5169    0.0000 </r>
       <r>   29.2513    0.0000 </r>
       <r>   37.7462    0.0000 </r>
       <r>   41.4321    0.0000 </r>
       <r>   47.1572    0.0000 </r>
      </set>
      <set comment="kpoint 92">
       <r>    6.4805    1.0000 </r>
       <r>    6.5046    1.0000 </r>
       <r>    7.1977    1.0000 </r>
       <r>    8.7276    1.0000 </r>
       <r>    9.4071    1.0000 </r>
       <r>   14.9350   -0.0000 </r>
       <r>   18.3628    0.0000 </r>
       <r>   22.0096    0.0000 </r>
       <r>   27.2191    0.0000 </r>
       <r>   36.5142    0.0000 </r>
       <r>   43.8376    0.0000 </r>
       <r>   48.6068    0.0000 </r>
      </set>
      <set comment="kpoint 93">
       <r>    6.0686    1.0000 </r>
       <r>    6.3978    1.0000 </r>
       <r>    7.5921    1.0000 </r>
       <r>    8.8834    1.0000 </r>
       <r>    9.6083    1.0001 </r>
       <r>   14.6193   -0.0000 </r>
       <r>   18.6818    0.0000 </r>
       <r>   23.0179    0.0000 </r>
       <r>   25.8484    0.0000 </r>
       <r>   35.6841    0.0000 </r>
       <r>   43.3924    0.0000 </r>
       <r>   46.2456    0.0000 </r>
      </set>
      <set comment="kpoint 94">
       <r>    5.5621    1.0000 </r>
       <r>    6.7750    1.0000 </r>
       <r>    7.5787    1.0000 </r>
       <r>    8.3384    1.0000 </r>
       <r>    9.6686    1.0004 </r>
       <r>   11.1595   -0.0000 </r>
       <r>   19.9718    0.0000 </r>
       <r>   28.2033    0.0000 </r>
       <r>   30.1443    0.0000 </r>
       <r>   33.2894    0.0000 </r>
       <r>   44.1730    0.0000 </r>
       <r>   46.4791    0.0000 </r>
      </set>
      <set comment="kpoint 95">
       <r>    6.0073    1.0000 </r>
       <r>    6.5562    1.0000 </r>
       <r>    7.4416    1.0000 </r>
       <r>    8.6995    1.0000 </r>
       <r>    9.5575    1.0000 </r>
       <r>   12.9446   -0.0000 </r>
       <r>   19.3214    0.0000 </r>
       <r>   25.4440    0.0000 </r>
       <r>   26.5725    0.0000 </r>
       <r>   35.9221    0.0000 </r>
       <r>   42.8709    0.0000 </r>
       <r>   45.8267    0.0000 </r>
      </set>
      <set comment="kpoint 96">
       <r>    6.2545    1.0000 </r>
       <r>    6.7040    1.0000 </r>
       <r>    7.0844    1.0000 </r>
       <r>    8.8409    1.0000 </r>
       <r>    9.6174    1.0001 </r>
       <r>   15.5093   -0.0000 </r>
       <r>   19.0682    0.0000 </r>
       <r>   22.2524    0.0000 </r>
       <r>   23.7552    0.0000 </r>
       <r>   39.9004    0.0000 </r>
       <r>   41.3972    0.0000 </r>
       <r>   45.7354    0.0000 </r>
      </set>
      <set comment="kpoint 97">
       <r>    6.1539    1.0000 </r>
       <r>    6.7002    1.0000 </r>
       <r>    7.1876    1.0000 </r>
       <r>    8.8513    1.0000 </r>
       <r>    9.7493    1.0023 </r>
       <r>   17.1981    0.0000 </r>
       <r>   18.6818    0.0000 </r>
       <r>   21.1447    0.0000 </r>
       <r>   22.5092    0.0000 </r>
       <r>   39.9394    0.0000 </r>
       <r>   42.8426    0.0000 </r>
       <r>   44.5459    0.0000 </r>
      </set>
      <set comment="kpoint 98">
       <r>    5.9398    1.0000 </r>
       <r>    6.3309    1.0000 </r>
       <r>    7.8573    1.0000 </r>
       <r>    8.8389    1.0000 </r>
       <r>    9.6275    1.0001 </r>
       <r>   14.2898   -0.0000 </r>
       <r>   18.4633    0.0000 </r>
       <r>   22.8949    0.0000 </r>
       <r>   28.4576    0.0000 </r>
       <r>   32.7280    0.0000 </r>
       <r>   43.5747    0.0000 </r>
       <r>   49.2066    0.0000 </r>
      </set>
      <set comment="kpoint 99">
       <r>    6.0403    1.0000 </r>
       <r>    6.3420    1.0000 </r>
       <r>    7.7063    1.0000 </r>
       <r>    8.9786    1.0000 </r>
       <r>    9.6248    1.0001 </r>
       <r>   16.2167    0.0000 </r>
       <r>   18.2169    0.0000 </r>
       <r>   21.1181    0.0000 </r>
       <r>   25.5461    0.0000 </r>
       <r>   35.5647    0.0000 </r>
       <r>   43.5912    0.0000 </r>
       <r>   46.8100    0.0000 </r>
      </set>
      <set comment="kpoint 100">
       <r>    5.9472    1.0000 </r>
       <r>    6.2461    1.0000 </r>
       <r>    7.9690    1.0000 </r>
       <r>    9.0368    1.0000 </r>
       <r>    9.5321    1.0000 </r>
       <r>   15.8679    0.0000 </r>
       <r>   17.9659    0.0000 </r>
       <r>   21.0448    0.0000 </r>
       <r>   28.1078    0.0000 </r>
       <r>   32.6482    0.0000 </r>
       <r>   43.4555    0.0000 </r>
       <r>   50.1736    0.0000 </r>
      </set>
      <set comment="kpoint 101">
       <r>    4.5138    1.0000 </r>
       <r>    7.7737    1.0000 </r>
       <r>    7.7737    1.0000 </r>
       <r>    7.8271    1.0000 </r>
       <r>    9.3250    1.0000 </r>
       <r>    9.3250    1.0000 </r>
       <r>   20.5117    0.0000 </r>
       <r>   33.6497    0.0000 </r>
       <r>   36.2125    0.0000 </r>
       <r>   36.2125    0.0000 </r>
       <r>   40.3572    0.0000 </r>
       <r>   40.3572    0.0000 </r>
      </set>
      <set comment="kpoint 102">
       <r>    5.0455    1.0000 </r>
       <r>    7.6002    1.0000 </r>
       <r>    7.7884    1.0000 </r>
       <r>    7.8649    1.0000 </r>
       <r>    9.2428    1.0000 </r>
       <r>   10.2864    0.2222 </r>
       <r>   19.3427    0.0000 </r>
       <r>   30.3548    0.0000 </r>
       <r>   34.8517    0.0000 </r>
[...]
       <r>    40.4473     0.1922    10.2997 </r>
       <r>    40.6478     0.1782    10.3354 </r>
       <r>    40.8483     0.2008    10.3757 </r>
       <r>    41.0488     0.2782    10.4314 </r>
       <r>    41.2494     0.3591    10.5034 </r>
       <r>    41.4499     0.3809    10.5798 </r>
       <r>    41.6504     0.2748    10.6349 </r>
       <r>    41.8509     0.2827    10.6916 </r>
       <r>    42.0514     0.2399    10.7397 </r>
       <r>    42.2519     0.3022    10.8003 </r>
       <r>    42.4525     0.2845    10.8574 </r>
       <r>    42.6530     0.1364    10.8847 </r>
       <r>    42.8535     0.2058    10.9260 </r>
       <r>    43.0540     0.2218    10.9704 </r>
       <r>    43.2545     0.1275    10.9960 </r>
       <r>    43.4550     0.1404    11.0242 </r>
       <r>    43.6556     0.2461    11.0735 </r>
       <r>    43.8561     0.2134    11.1163 </r>
       <r>    44.0566     0.1923    11.1549 </r>
       <r>    44.2571     0.2033    11.1956 </r>
       <r>    44.4576     0.2121    11.2382 </r>
       <r>    44.6581     0.1139    11.2610 </r>
       <r>    44.8587     0.1119    11.2835 </r>
       <r>    45.0592     0.2493    11.3335 </r>
       <r>    45.2597     0.1727    11.3681 </r>
       <r>    45.4602     0.0890    11.3859 </r>
       <r>    45.6607     0.0647    11.3989 </r>
       <r>    45.8613     0.1941    11.4378 </r>
       <r>    46.0618     0.1079    11.4594 </r>
       <r>    46.2623     0.2138    11.5023 </r>
       <r>    46.4628     0.3028    11.5630 </r>
       <r>    46.6633     0.2299    11.6091 </r>
       <r>    46.8638     0.0794    11.6251 </r>
       <r>    47.0644     0.0331    11.6317 </r>
       <r>    47.2649     0.1956    11.6709 </r>
       <r>    47.4654     0.1584    11.7027 </r>
       <r>    47.6659     0.0361    11.7099 </r>
       <r>    47.8664     0.1496    11.7399 </r>
       <r>    48.0669     0.1909    11.7782 </r>
       <r>    48.2675     0.0323    11.7847 </r>
       <r>    48.4680     0.0212    11.7889 </r>
       <r>    48.6685     0.1090    11.8108 </r>
       <r>    48.8690     0.0709    11.8250 </r>
       <r>    49.0695     0.0407    11.8332 </r>
       <r>    49.2700     0.0851    11.8502 </r>
       <r>    49.4706     0.0488    11.8600 </r>
       <r>    49.6711     0.0964    11.8794 </r>
       <r>    49.8716     0.0368    11.8867 </r>
       <r>    50.0721     0.0470    11.8962 </r>
       <r>    50.2726     0.0846    11.9131 </r>
       <r>    50.4732     0.0163    11.9164 </r>
       <r>    50.6737     0.0042    11.9172 </r>
       <r>    50.8742     0.0248    11.9222 </r>
       <r>    51.0747     0.0307    11.9284 </r>
       <r>    51.2752     0.0478    11.9379 </r>
       <r>    51.4757     0.0122    11.9404 </r>
       <r>    51.6763    -0.0018    11.9400 </r>
       <r>    51.8768    -0.0009    11.9398 </r>
       <r>    52.0773     0.0041    11.9407 </r>
       <r>    52.2778     0.0203    11.9447 </r>
       <r>    52.4783     0.0215    11.9490 </r>
       <r>    52.6788     0.0401    11.9571 </r>
       <r>    52.8794     0.0255    11.9622 </r>
       <r>    53.0799     0.0360    11.9694 </r>
       <r>    53.2804     0.0080    11.9710 </r>
       <r>    53.4809     0.0425    11.9795 </r>
       <r>    53.6814     0.0142    11.9824 </r>
       <r>    53.8819    -0.0019    11.9820 </r>
       <r>    54.0825    -0.0010    11.9818 </r>
       <r>    54.2830     0.0064    11.9831 </r>
       <r>    54.4835     0.0219    11.9875 </r>
       <r>    54.6840     0.0032    11.9881 </r>
       <r>    54.8845    -0.0013    11.9879 </r>
       <r>    55.0851     0.0021    11.9883 </r>
       <r>    55.2856     0.0205    11.9924 </r>
       <r>    55.4861     0.0152    11.9955 </r>
       <r>    55.6866     0.0207    11.9996 </r>
       <r>    55.8871     0.0025    12.0001 </r>
       <r>    56.0876    -0.0006    12.0000 </r>
       <r>    56.2882    -0.0000    12.0000 </r>
       <r>    56.4887    -0.0000    12.0000 </r>
       <r>    56.6892    -0.0000    12.0000 </r>
       <r>    56.8897    -0.0000    12.0000 </r>
       <r>    57.0902     0.0000    12.0000 </r>
       <r>    57.2907     0.0000    12.0000 </r>
       <r>    57.4913     0.0000    12.0000 </r>
       <r>    57.6918     0.0000    12.0000 </r>
       <r>    57.8923     0.0000    12.0000 </r>
       <r>    58.0928     0.0000    12.0000 </r>
       <r>    58.2933     0.0000    12.0000 </r>
      </set>
      <set comment="spin 2">
       <r>    -1.8619     0.0000     0.0000 </r>
       <r>    -1.6614     0.0000     0.0000 </r>
       <r>    -1.4609     0.0000     0.0000 </r>
       <r>    -1.2603     0.0000     0.0000 </r>
       <r>    -1.0598     0.0000     0.0000 </r>
       <r>    -0.8593    -0.0000    -0.0000 </r>
       <r>    -0.6588    -0.0000    -0.0000 </r>
       <r>    -0.4583    -0.0000    -0.0000 </r>
       <r>    -0.2578    -0.0000    -0.0000 </r>
       <r>    -0.0572    -0.0000    -0.0000 </r>
       <r>     0.1433    -0.0000    -0.0000 </r>
       <r>     0.3438    -0.0000    -0.0000 </r>
       <r>     0.5443    -0.0002    -0.0000 </r>
       <r>     0.7448     0.0006     0.0001 </r>
       <r>     0.9453     0.0067     0.0014 </r>
       <r>     1.1459     0.0175     0.0049 </r>
       <r>     1.3464     0.0227     0.0095 </r>
       <r>     1.5469     0.0236     0.0142 </r>
       <r>     1.7474     0.0304     0.0203 </r>
       <r>     1.9479     0.0432     0.0290 </r>
       <r>     2.1485     0.0363     0.0362 </r>
       <r>     2.3490     0.0280     0.0419 </r>
       <r>     2.5495     0.0523     0.0523 </r>
       <r>     2.7500     0.0718     0.0667 </r>
       <r>     2.9505     0.0375     0.0743 </r>
       <r>     3.1510     0.0447     0.0832 </r>
       <r>     3.3516     0.0765     0.0986 </r>
       <r>     3.5521     0.0682     0.1123 </r>
       <r>     3.7526     0.0694     0.1262 </r>
       <r>     3.9531     0.0832     0.1428 </r>
       <r>     4.1536     0.0869     0.1603 </r>
       <r>     4.3541     0.0780     0.1759 </r>
       <r>     4.5547     0.0975     0.1955 </r>
       <r>     4.7552     0.1435     0.2242 </r>
       <r>     4.9557     0.1264     0.2496 </r>
       <r>     5.1562     0.1249     0.2746 </r>
       <r>     5.3567     0.2010     0.3149 </r>
       <r>     5.5572     0.3316     0.3814 </r>
       <r>     5.7578     0.4058     0.4628 </r>
       <r>     5.9583     0.4758     0.5582 </r>
       <r>     6.1588     0.5113     0.6607 </r>
       <r>     6.3593     0.4972     0.7604 </r>
       <r>     6.5598     0.7378     0.9083 </r>
       <r>     6.7604     0.8246     1.0737 </r>
       <r>     6.9609     0.8145     1.2370 </r>
       <r>     7.1614     0.7563     1.3886 </r>
       <r>     7.3619     0.7416     1.5374 </r>
       <r>     7.5624     0.7488     1.6875 </r>
       <r>     7.7629     0.9541     1.8788 </r>
       <r>     7.9635     1.0811     2.0956 </r>
       <r>     8.1640     1.1309     2.3224 </r>
       <r>     8.3645     1.3151     2.5861 </r>
       <r>     8.5650     1.3489     2.8565 </r>
       <r>     8.7655     1.2609     3.1094 </r>
       <r>     8.9660     0.9739     3.3047 </r>
       <r>     9.1666     0.9278     3.4907 </r>
       <r>     9.3671     1.1426     3.7198 </r>
       <r>     9.5676     1.2070     3.9618 </r>
       <r>     9.7681     1.0965     4.1817 </r>
       <r>     9.9686     0.9793     4.3781 </r>
       <r>    10.1691     1.2007     4.6188 </r>
       <r>    10.3697     1.7079     4.9613 </r>
       <r>    10.5702     1.2790     5.2177 </r>
       <r>    10.7707     0.4630     5.3106 </r>
       <r>    10.9712     0.1049     5.3316 </r>
       <r>    11.1717     0.1704     5.3658 </r>
       <r>    11.3723     0.2297     5.4118 </r>
       <r>    11.5728     0.1259     5.4371 </r>
       <r>    11.7733     0.1288     5.4629 </r>
       <r>    11.9738     0.1663     5.4962 </r>
       <r>    12.1743     0.1745     5.5312 </r>
       <r>    12.3748     0.1354     5.5584 </r>
       <r>    12.5754     0.1186     5.5822 </r>
       <r>    12.7759     0.1915     5.6206 </r>
       <r>    12.9764     0.1115     5.6429 </r>
       <r>    13.1769     0.0975     5.6625 </r>
       <r>    13.3774     0.1148     5.6855 </r>
       <r>    13.5779     0.1373     5.7130 </r>
       <r>    13.7785     0.1675     5.7466 </r>
       <r>    13.9790     0.1169     5.7701 </r>
       <r>    14.1795     0.1250     5.7951 </r>
       <r>    14.3800     0.0622     5.8076 </r>
       <r>    14.5805     0.0391     5.8154 </r>
       <r>    14.7810     0.1181     5.8391 </r>
       <r>    14.9816     0.1267     5.8645 </r>
       <r>    15.1821     0.1278     5.8902 </r>
       <r>    15.3826     0.0959     5.9094 </r>
       <r>    15.5831     0.0036     5.9101 </r>
       <r>    15.7836     0.0652     5.9232 </r>
       <r>    15.9842     0.0772     5.9386 </r>
       <r>    16.1847     0.0580     5.9503 </r>
       <r>    16.3852     0.0611     5.9625 </r>
       <r>    16.5857     0.0629     5.9751 </r>
       <r>    16.7862     0.0332     5.9818 </r>
       <r>    16.9867     0.1527     6.0124 </r>
       <r>    17.1873     0.1199     6.0365 </r>
       <r>    17.3878     0.1697     6.0705 </r>
       <r>    17.5883     0.2381     6.1182 </r>
       <r>    17.7888     0.1131     6.1409 </r>
       <r>    17.9893     0.1229     6.1656 </r>
       <r>    18.1898     0.1185     6.1893 </r>
       <r>    18.3904     0.1440     6.2182 </r>
       <r>    18.5909     0.1494     6.2481 </r>
       <r>    18.7914     0.1237     6.2729 </r>
       <r>    18.9919     0.1375     6.3005 </r>
       <r>    19.1924     0.0781     6.3162 </r>
       <r>    19.3930     0.0879     6.3338 </r>
       <r>    19.5935     0.1343     6.3607 </r>
       <r>    19.7940     0.1222     6.3852 </r>
       <r>    19.9945     0.0915     6.4036 </r>
       <r>    20.1950     0.0955     6.4227 </r>
       <r>    20.3955     0.1429     6.4514 </r>
       <r>    20.5961     0.1597     6.4834 </r>
       <r>    20.7966     0.1690     6.5173 </r>
       <r>    20.9971     0.1293     6.5433 </r>
       <r>    21.1976     0.1684     6.5770 </r>
       <r>    21.3981     0.2342     6.6240 </r>
       <r>    21.5986     0.1104     6.6461 </r>
       <r>    21.7992     0.0947     6.6651 </r>
       <r>    21.9997     0.2032     6.7059 </r>
       <r>    22.2002     0.2452     6.7551 </r>
       <r>    22.4007     0.1481     6.7847 </r>
       <r>    22.6012     0.1291     6.8106 </r>
       <r>    22.8017     0.2938     6.8695 </r>
       <r>    23.0023     0.2010     6.9098 </r>
       <r>    23.2028     0.1226     6.9344 </r>
       <r>    23.4033     0.1097     6.9564 </r>
       <r>    23.6038     0.1737     6.9912 </r>
       <r>    23.8043     0.2254     7.0364 </r>
       <r>    24.0049     0.2407     7.0847 </r>
       <r>    24.2054     0.1364     7.1121 </r>
       <r>    24.4059     0.1625     7.1446 </r>
       <r>    24.6064     0.1584     7.1764 </r>
       <r>    24.8069     0.2524     7.2270 </r>
       <r>    25.0074     0.2744     7.2820 </r>
       <r>    25.2080     0.1467     7.3114 </r>
       <r>    25.4085     0.0957     7.3306 </r>
       <r>    25.6090     0.2355     7.3778 </r>
       <r>    25.8095     0.3167     7.4413 </r>
       <r>    26.0100     0.2580     7.4931 </r>
       <r>    26.2105     0.1942     7.5320 </r>
       <r>    26.4111     0.0770     7.5474 </r>
       <r>    26.6116     0.1856     7.5847 </r>
       <r>    26.8121     0.2921     7.6432 </r>
       <r>    27.0126     0.2396     7.6913 </r>
       <r>    27.2131     0.1833     7.7280 </r>
       <r>    27.4136     0.1326     7.7546 </r>
       <r>    27.6142     0.2220     7.7991 </r>
       <r>    27.8147     0.1540     7.8300 </r>
       <r>    28.0152     0.1614     7.8624 </r>
       <r>    28.2157     0.2392     7.9103 </r>
       <r>    28.4162     0.2485     7.9602 </r>
       <r>    28.6168     0.2169     8.0036 </r>
       <r>    28.8173     0.1710     8.0379 </r>
       <r>    29.0178     0.1102     8.0600 </r>
       <r>    29.2183     0.1496     8.0900 </r>
       <r>    29.4188     0.2551     8.1412 </r>
       <r>    29.6193     0.0982     8.1609 </r>
       <r>    29.8199     0.0802     8.1770 </r>
       <r>    30.0204     0.1571     8.2085 </r>
       <r>    30.2209     0.2177     8.2521 </r>
       <r>    30.4214     0.2142     8.2950 </r>
       <r>    30.6219     0.1726     8.3297 </r>
       <r>    30.8224     0.1575     8.3613 </r>
       <r>    31.0230     0.1243     8.3862 </r>
       <r>    31.2235     0.1190     8.4100 </r>
       <r>    31.4240     0.1348     8.4371 </r>
       <r>    31.6245     0.2511     8.4874 </r>
       <r>    31.8250     0.1759     8.5227 </r>
       <r>    32.0255     0.1187     8.5465 </r>
       <r>    32.2261     0.1476     8.5761 </r>
       <r>    32.4266     0.2098     8.6182 </r>
       <r>    32.6271     0.2292     8.6641 </r>
       <r>    32.8276     0.2041     8.7051 </r>
       <r>    33.0281     0.2434     8.7539 </r>
       <r>    33.2287     0.2145     8.7969 </r>
       <r>    33.4292     0.2781     8.8527 </r>
       <r>    33.6297     0.2829     8.9094 </r>
       <r>    33.8302     0.2080     8.9511 </r>
       <r>    34.0307     0.1777     8.9867 </r>
       <r>    34.2312     0.2916     9.0452 </r>
       <r>    34.4318     0.1461     9.0745 </r>
       <r>    34.6323     0.1946     9.1135 </r>
       <r>    34.8328     0.2864     9.1709 </r>
       <r>    35.0333     0.3153     9.2342 </r>
       <r>    35.2338     0.3582     9.3060 </r>
       <r>    35.4343     0.2201     9.3501 </r>
       <r>    35.6349     0.2420     9.3987 </r>
       <r>    35.8354     0.2064     9.4400 </r>
       <r>    36.0359     0.1566     9.4715 </r>
       <r>    36.2364     0.1765     9.5068 </r>
       <r>    36.4369     0.3354     9.5741 </r>
       <r>    36.6374     0.3024     9.6347 </r>
       <r>    36.8380     0.2934     9.6936 </r>
       <r>    37.0385     0.2256     9.7388 </r>
       <r>    37.2390     0.2221     9.7833 </r>
       <r>    37.4395     0.1361     9.8106 </r>
       <r>    37.6400     0.1157     9.8338 </r>
       <r>    37.8406     0.1880     9.8715 </r>
       <r>    38.0411     0.1047     9.8925 </r>
       <r>    38.2416     0.1209     9.9168 </r>
       <r>    38.4421     0.2051     9.9579 </r>
       <r>    38.6426     0.2339    10.0048 </r>
       <r>    38.8431     0.1573    10.0363 </r>
       <r>    39.0437     0.1809    10.0726 </r>
       <r>    39.2442     0.1700    10.1067 </r>
       <r>    39.4447     0.1179    10.1303 </r>
       <r>    39.6452     0.0472    10.1398 </r>
       <r>    39.8457     0.1586    10.1716 </r>
       <r>    40.0462     0.2154    10.2148 </r>
       <r>    40.2468     0.1950    10.2539 </r>
       <r>    40.4473     0.1942    10.2928 </r>
       <r>    40.6478     0.1772    10.3284 </r>
       <r>    40.8483     0.1921    10.3669 </r>
       <r>    41.0488     0.2375    10.4145 </r>
       <r>    41.2494     0.3377    10.4822 </r>
       <r>    41.4499     0.4046    10.5634 </r>
       <r>    41.6504     0.3153    10.6266 </r>
       <r>    41.8509     0.2949    10.6857 </r>
       <r>    42.0514     0.2853    10.7429 </r>
       <r>    42.2519     0.2268    10.7884 </r>
       <r>    42.4525     0.2937    10.8473 </r>
       <r>    42.6530     0.1542    10.8782 </r>
       <r>    42.8535     0.2209    10.9225 </r>
       <r>    43.0540     0.2340    10.9695 </r>
       <r>    43.2545     0.1184    10.9932 </r>
       <r>    43.4550     0.1263    11.0185 </r>
       <r>    43.6556     0.2405    11.0668 </r>
       <r>    43.8561     0.2414    11.1152 </r>
       <r>    44.0566     0.1783    11.1509 </r>
       <r>    44.2571     0.2167    11.1944 </r>
       <r>    44.4576     0.2164    11.2377 </r>
       <r>    44.6581     0.1070    11.2592 </r>
       <r>    44.8587     0.0959    11.2784 </r>
       <r>    45.0592     0.2504    11.3286 </r>
       <r>    45.2597     0.1875    11.3662 </r>
       <r>    45.4602     0.0916    11.3846 </r>
       <r>    45.6607     0.0506    11.3948 </r>
       <r>    45.8613     0.1661    11.4281 </r>
       <r>    46.0618     0.1568    11.4595 </r>
       <r>    46.2623     0.2016    11.4999 </r>
       <r>    46.4628     0.3044    11.5610 </r>
       <r>    46.6633     0.2320    11.6075 </r>
       <r>    46.8638     0.0956    11.6267 </r>
       <r>    47.0644     0.0019    11.6270 </r>
       <r>    47.2649     0.1621    11.6595 </r>
       <r>    47.4654     0.2204    11.7037 </r>
       <r>    47.6659     0.0400    11.7117 </r>
       <r>    47.8664     0.1480    11.7414 </r>
       <r>    48.0669     0.1666    11.7748 </r>
       <r>    48.2675     0.0490    11.7846 </r>
       <r>    48.4680     0.0312    11.7909 </r>
       <r>    48.6685     0.0957    11.8101 </r>
       <r>    48.8690     0.0779    11.8257 </r>
       <r>    49.0695     0.0425    11.8342 </r>
       <r>    49.2700     0.0842    11.8511 </r>
       <r>    49.4706     0.0368    11.8585 </r>
       <r>    49.6711     0.1027    11.8791 </r>
       <r>    49.8716     0.0426    11.8876 </r>
       <r>    50.0721     0.0569    11.8990 </r>
       <r>    50.2726     0.0774    11.9145 </r>
       <r>    50.4732     0.0086    11.9163 </r>
       <r>    50.6737     0.0117    11.9186 </r>
       <r>    50.8742     0.0205    11.9227 </r>
       <r>    51.0747     0.0305    11.9289 </r>
       <r>    51.2752     0.0480    11.9385 </r>
       <r>    51.4757     0.0093    11.9403 </r>
       <r>    51.6763    -0.0017    11.9400 </r>
       <r>    51.8768    -0.0009    11.9398 </r>
       <r>    52.0773     0.0052    11.9409 </r>
       <r>    52.2778     0.0202    11.9449 </r>
       <r>    52.4783     0.0245    11.9498 </r>
       <r>    52.6788     0.0376    11.9574 </r>
       <r>    52.8794     0.0236    11.9621 </r>
       <r>    53.0799     0.0368    11.9695 </r>
       <r>    53.2804     0.0120    11.9719 </r>
       <r>    53.4809     0.0435    11.9806 </r>
       <r>    53.6814     0.0085    11.9823 </r>
       <r>    53.8819    -0.0016    11.9820 </r>
       <r>    54.0825    -0.0010    11.9818 </r>
       <r>    54.2830     0.0080    11.9834 </r>
       <r>    54.4835     0.0214    11.9877 </r>
       <r>    54.6840     0.0021    11.9881 </r>
       <r>    54.8845    -0.0012    11.9879 </r>
       <r>    55.0851     0.0028    11.9884 </r>
       <r>    55.2856     0.0209    11.9926 </r>
       <r>    55.4861     0.0155    11.9957 </r>
       <r>    55.6866     0.0202    11.9998 </r>
       <r>    55.8871     0.0018    12.0001 </r>
       <r>    56.0876    -0.0005    12.0000 </r>
       <r>    56.2882    -0.0000    12.0000 </r>
       <r>    56.4887    -0.0000    12.0000 </r>
       <r>    56.6892    -0.0000    12.0000 </r>
       <r>    56.8897    -0.0000    12.0000 </r>
       <r>    57.0902     0.0000    12.0000 </r>
       <r>    57.2907     0.0000    12.0000 </r>
       <r>    57.4913     0.0000    12.0000 </r>
       <r>    57.6918     0.0000    12.0000 </r>
       <r>    57.8923     0.0000    12.0000 </r>
       <r>    58.0928     0.0000    12.0000 </r>
       <r>    58.2933     0.0000    12.0000 </r>
      </set>
     </set>
    </array>
   </total>
  </dos>
 </calculation>
 <structure name="finalpos" >
  <crystal>
   <varray name="basis" >
    <v>       0.00000000       1.72500000       1.72500000 </v>
    <v>       1.72500000       0.00000000       1.72500000 </v>
    <v>       1.72500000       1.72500000       0.00000000 </v>
   </varray>
   <i name="volume">     10.26590625 </i>
   <varray name="rec_basis" >
    <v>      -0.28985507       0.28985507       0.28985507 </v>
    <v>       0.28985507      -0.28985507       0.28985507 </v>
    <v>       0.28985507       0.28985507      -0.28985507 </v>
   </varray>
  </crystal>
  <varray name="positions" >
   <v>       0.00000000       0.00000000       0.00000000 </v>
  </varray>
 </structure>
</modeling>
