FCC Au                                  
   4.30000000000000     
    -0.000000    0.471752    0.471752
     0.471752    0.000000    0.471752
     0.471752    0.471752    0.000000
   Au
     1
Direct
 -0.000000  0.000000 -0.000000
 
   24   24   24
 0.80801523136E+02 0.77745180435E+02 0.69845974356E+02 0.59801146082E+02 0.49638751062E+02
 0.39839018340E+02 0.30243902547E+02 0.21278932101E+02 0.14004112578E+02 0.91750439470E+01
 0.65505761151E+01 0.52338361038E+01 0.48243290571E+01 0.52338361038E+01 0.65505761151E+01
 0.91750439470E+01 0.14004112578E+02 0.21278932101E+02 0.30243902547E+02 0.39839018340E+02
 0.49638751062E+02 0.59801146082E+02 0.69845974356E+02 0.77745180435E+02 0.77745180435E+02
 0.72288649653E+02 0.63443989962E+02 0.53599165189E+02 0.43895800708E+02 0.34354394706E+02
 0.25097762041E+02 0.16989861361E+02 0.11047598170E+02 0.75185155664E+01 0.56930320092E+01
 0.48699383222E+01 0.48699454033E+01 0.56930433665E+01 0.75185135678E+01 0.11047579571E+02
 0.16989843001E+02 0.25097760654E+02 0.34354400955E+02 0.43895777777E+02 0.53599080179E+02
 0.63443852073E+02 0.72288517485E+02 0.77745125674E+02 0.69845974356E+02 0.63443989962E+02
 0.55035341607E+02 0.46082150501E+02 0.37004071726E+02 0.27928153432E+02 0.19526622478E+02
 0.12862037221E+02 0.85371328371E+01 0.61926891824E+01 0.49925990764E+01 0.46219094104E+01
 0.49926170450E+01 0.61927007582E+01 0.85371188142E+01 0.12862008641E+02 0.19526610393E+02
 0.27928170552E+02 0.37004086711E+02 0.46082107772E+02 0.55035214970E+02 0.63443820634E+02
 0.69845852640E+02 0.72288517485E+02 0.59801146082E+02 0.53599165189E+02 0.46082150501E+02
 0.37920507216E+02 0.29427517934E+02 0.21215693643E+02 0.14296861922E+02 0.94583096411E+01
 0.66613285206E+01 0.51555203854E+01 0.44778094168E+01 0.44778195485E+01 0.51555386295E+01
 0.66613323683E+01 0.94582928539E+01 0.14296844235E+02 0.21215701042E+02 0.29427552484E+02
 0.37920538550E+02 0.46082141165E+02 0.53599107766E+02 0.59801075905E+02 0.63443820634E+02
 0.63443852073E+02 0.49638751062E+02 0.43895800708E+02 0.37004071726E+02 0.29427517934E+02
 0.21806714365E+02 0.15086996921E+02 0.10103932403E+02 0.70345192499E+01 0.53130316357E+01
 0.44074940092E+01 0.41319896034E+01 0.44075026969E+01 0.53130408036E+01 0.70345201254E+01
 0.10103924290E+02 0.15086989392E+02 0.21806721122E+02 0.29427547299E+02 0.37004120930E+02
 0.43895857378E+02 0.49638799552E+02 0.53599107766E+02 0.55035214970E+02 0.53599080179E+02
 0.39839018340E+02 0.34354394706E+02 0.27928153432E+02 0.21215693643E+02 0.15086996921E+02
 0.10336190022E+02 0.72439557335E+01 0.54248678520E+01 0.43792437219E+01 0.39186469698E+01
 0.39186445753E+01 0.43792404408E+01 0.54248694997E+01 0.72439598543E+01 0.10336185334E+02
 0.15086976284E+02 0.21215668108E+02 0.27928150255E+02 0.34354436126E+02 0.39839097972E+02
 0.43895857378E+02 0.46082141165E+02 0.46082107772E+02 0.43895777777E+02 0.30243902547E+02
 0.25097762041E+02 0.19526622478E+02 0.14296861922E+02 0.10103932403E+02 0.72439557335E+01
 0.54650626380E+01 0.43704747378E+01 0.38041807984E+01 0.36332440861E+01 0.38041673592E+01
 0.43704634109E+01 0.54650653392E+01 0.72439638130E+01 0.10103922093E+02 0.14296818973E+02
 0.19526561341E+02 0.25097718134E+02 0.30243902080E+02 0.34354436126E+02 0.37004120930E+02
 0.37920538550E+02 0.37004086711E+02 0.34354400955E+02 0.21278932101E+02 0.16989861361E+02
 0.12862037221E+02 0.94583096411E+01 0.70345192499E+01 0.54248678520E+01 0.43704747378E+01
 0.37681773652E+01 0.35033479332E+01 0.35033399593E+01 0.37681621506E+01 0.43704692161E+01
 0.54248787561E+01 0.70345338550E+01 0.94583052736E+01 0.12862000937E+02 0.16989801472E+02
 0.21278871301E+02 0.25097718134E+02 0.27928150255E+02 0.29427547299E+02 0.29427552484E+02
 0.27928170552E+02 0.25097760654E+02 0.14004112578E+02 0.11047598170E+02 0.85371328371E+01
 0.66613285206E+01 0.53130316357E+01 0.43792437219E+01 0.38041807984E+01 0.35033479332E+01
 0.34110125097E+01 0.35033436486E+01 0.38041773994E+01 0.43792486479E+01 0.53130496350E+01
 0.66613568739E+01 0.85371600930E+01 0.11047608718E+02 0.14004095769E+02 0.16989801472E+02
 0.19526561341E+02 0.21215668108E+02 0.21806721122E+02 0.21215701042E+02 0.19526610393E+02
 0.16989843001E+02 0.91750439470E+01 0.75185155664E+01 0.61926891824E+01 0.51555203854E+01
 0.44074940092E+01 0.39186469698E+01 0.36332440861E+01 0.35033399593E+01 0.35033436486E+01
 0.36332506072E+01 0.39186493064E+01 0.44074946557E+01 0.51555336345E+01 0.61927283268E+01
 0.75185764541E+01 0.91751024931E+01 0.11047608718E+02 0.12862000937E+02 0.14296818973E+02
 0.15086976284E+02 0.15086989392E+02 0.14296844235E+02 0.12862008641E+02 0.11047579571E+02
 0.65505761151E+01 0.56930320092E+01 0.49925990764E+01 0.44778094168E+01 0.41319896034E+01
 0.39186445753E+01 0.38041673592E+01 0.37681621506E+01 0.38041773994E+01 0.39186493064E+01
 0.41319764427E+01 0.44777856997E+01 0.49925895132E+01 0.56930573553E+01 0.65506332291E+01
 0.75185764541E+01 0.85371600930E+01 0.94583052736E+01 0.10103922093E+02 0.10336185334E+02
 0.10103924290E+02 0.94582928539E+01 0.85371188142E+01 0.75185135678E+01 0.52338361038E+01
 0.48699383222E+01 0.46219094104E+01 0.44778195485E+01 0.44075026969E+01 0.43792404408E+01
 0.43704634109E+01 0.43704692161E+01 0.43792486479E+01 0.44074946557E+01 0.44777856997E+01
 0.46218601353E+01 0.48698972111E+01 0.52338220168E+01 0.56930573553E+01 0.61927283268E+01
 0.66613568739E+01 0.70345338550E+01 0.72439638130E+01 0.72439598543E+01 0.70345201254E+01
 0.66613323683E+01 0.61927007582E+01 0.56930433665E+01 0.48243290571E+01 0.48699454033E+01
 0.49926170450E+01 0.51555386295E+01 0.53130408036E+01 0.54248694997E+01 0.54650653392E+01
 0.54248787561E+01 0.53130496350E+01 0.51555336345E+01 0.49925895132E+01 0.48698972111E+01
 0.48242725392E+01 0.48698972111E+01 0.49925895132E+01 0.51555336345E+01 0.53130496350E+01
 0.54248787561E+01 0.54650653392E+01 0.54248694997E+01 0.53130408036E+01 0.51555386295E+01
 0.49926170450E+01 0.48699454033E+01 0.52338361038E+01 0.56930433665E+01 0.61927007582E+01
 0.66613323683E+01 0.70345201254E+01 0.72439598543E+01 0.72439638130E+01 0.70345338550E+01
 0.66613568739E+01 0.61927283268E+01 0.56930573553E+01 0.52338220168E+01 0.48698972111E+01
 0.46218601353E+01 0.44777856997E+01 0.44074946557E+01 0.43792486479E+01 0.43704692161E+01
 0.43704634109E+01 0.43792404408E+01 0.44075026969E+01 0.44778195485E+01 0.46219094104E+01
 0.48699383222E+01 0.65505761151E+01 0.75185135678E+01 0.85371188142E+01 0.94582928539E+01
 0.10103924290E+02 0.10336185334E+02 0.10103922093E+02 0.94583052736E+01 0.85371600930E+01
 0.75185764541E+01 0.65506332291E+01 0.56930573553E+01 0.49925895132E+01 0.44777856997E+01
 0.41319764427E+01 0.39186493064E+01 0.38041773994E+01 0.37681621506E+01 0.38041673592E+01
 0.39186445753E+01 0.41319896034E+01 0.44778094168E+01 0.49925990764E+01 0.56930320092E+01
 0.91750439470E+01 0.11047579571E+02 0.12862008641E+02 0.14296844235E+02 0.15086989392E+02
 0.15086976284E+02 0.14296818973E+02 0.12862000937E+02 0.11047608718E+02 0.91751024931E+01
 0.75185764541E+01 0.61927283268E+01 0.51555336345E+01 0.44074946557E+01 0.39186493064E+01
 0.36332506072E+01 0.35033436486E+01 0.35033399593E+01 0.36332440861E+01 0.39186469698E+01
 0.44074940092E+01 0.51555203854E+01 0.61926891824E+01 0.75185155664E+01 0.14004112578E+02
 0.16989843001E+02 0.19526610393E+02 0.21215701042E+02 0.21806721122E+02 0.21215668108E+02
 0.19526561341E+02 0.16989801472E+02 0.14004095769E+02 0.11047608718E+02 0.85371600930E+01
 0.66613568739E+01 0.53130496350E+01 0.43792486479E+01 0.38041773994E+01 0.35033436486E+01
 0.34110125097E+01 0.35033479332E+01 0.38041807984E+01 0.43792437219E+01 0.53130316357E+01
 0.66613285206E+01 0.85371328371E+01 0.11047598170E+02 0.21278932101E+02 0.25097760654E+02
 0.27928170552E+02 0.29427552484E+02 0.29427547299E+02 0.27928150255E+02 0.25097718134E+02
 0.21278871301E+02 0.16989801472E+02 0.12862000937E+02 0.94583052736E+01 0.70345338550E+01
 0.54248787561E+01 0.43704692161E+01 0.37681621506E+01 0.35033399593E+01 0.35033479332E+01
 0.37681773652E+01 0.43704747378E+01 0.54248678520E+01 0.70345192499E+01 0.94583096411E+01
 0.12862037221E+02 0.16989861361E+02 0.30243902547E+02 0.34354400955E+02 0.37004086711E+02
 0.37920538550E+02 0.37004120930E+02 0.34354436126E+02 0.30243902080E+02 0.25097718134E+02
 0.19526561341E+02 0.14296818973E+02 0.10103922093E+02 0.72439638130E+01 0.54650653392E+01
 0.43704634109E+01 0.38041673592E+01 0.36332440861E+01 0.38041807984E+01 0.43704747378E+01
 0.54650626380E+01 0.72439557335E+01 0.10103932403E+02 0.14296861922E+02 0.19526622478E+02
 0.25097762041E+02 0.39839018340E+02 0.43895777777E+02 0.46082107772E+02 0.46082141165E+02
 0.43895857378E+02 0.39839097972E+02 0.34354436126E+02 0.27928150255E+02 0.21215668108E+02
 0.15086976284E+02 0.10336185334E+02 0.72439598543E+01 0.54248694997E+01 0.43792404408E+01
 0.39186445753E+01 0.39186469698E+01 0.43792437219E+01 0.54248678520E+01 0.72439557335E+01
 0.10336190022E+02 0.15086996921E+02 0.21215693643E+02 0.27928153432E+02 0.34354394706E+02
 0.49638751062E+02 0.53599080179E+02 0.55035214970E+02 0.53599107766E+02 0.49638799552E+02
 0.43895857378E+02 0.37004120930E+02 0.29427547299E+02 0.21806721122E+02 0.15086989392E+02
 0.10103924290E+02 0.70345201254E+01 0.53130408036E+01 0.44075026969E+01 0.41319896034E+01
 0.44074940092E+01 0.53130316357E+01 0.70345192499E+01 0.10103932403E+02 0.15086996921E+02
 0.21806714365E+02 0.29427517934E+02 0.37004071726E+02 0.43895800708E+02 0.59801146082E+02
 0.63443852073E+02 0.63443820634E+02 0.59801075905E+02 0.53599107766E+02 0.46082141165E+02
 0.37920538550E+02 0.29427552484E+02 0.21215701042E+02 0.14296844235E+02 0.94582928539E+01
 0.66613323683E+01 0.51555386295E+01 0.44778195485E+01 0.44778094168E+01 0.51555203854E+01
 0.66613285206E+01 0.94583096411E+01 0.14296861922E+02 0.21215693643E+02 0.29427517934E+02
 0.37920507216E+02 0.46082150501E+02 0.53599165189E+02 0.69845974356E+02 0.72288517485E+02
 0.69845852640E+02 0.63443820634E+02 0.55035214970E+02 0.46082107772E+02 0.37004086711E+02
 0.27928170552E+02 0.19526610393E+02 0.12862008641E+02 0.85371188142E+01 0.61927007582E+01
 0.49926170450E+01 0.46219094104E+01 0.49925990764E+01 0.61926891824E+01 0.85371328371E+01
 0.12862037221E+02 0.19526622478E+02 0.27928153432E+02 0.37004071726E+02 0.46082150501E+02
 0.55035341607E+02 0.63443989962E+02 0.77745180435E+02 0.77745125674E+02 0.72288517485E+02
 0.63443852073E+02 0.53599080179E+02 0.43895777777E+02 0.34354400955E+02 0.25097760654E+02
 0.16989843001E+02 0.11047579571E+02 0.75185135678E+01 0.56930433665E+01 0.48699454033E+01
 0.48699383222E+01 0.56930320092E+01 0.75185155664E+01 0.11047598170E+02 0.16989861361E+02
 0.25097762041E+02 0.34354394706E+02 0.43895800708E+02 0.53599165189E+02 0.63443989962E+02
 0.72288649653E+02 0.77745180435E+02 0.72288649653E+02 0.63443989962E+02 0.53599165189E+02
 0.43895800708E+02 0.34354394706E+02 0.25097762041E+02 0.16989861361E+02 0.11047598170E+02
 0.75185155664E+01 0.56930320092E+01 0.48699383222E+01 0.48699454033E+01 0.56930433665E+01
 0.75185135678E+01 0.11047579571E+02 0.16989843001E+02 0.25097760654E+02 0.34354400955E+02
 0.43895777777E+02 0.53599080179E+02 0.63443852073E+02 0.72288517485E+02 0.77745125674E+02
 0.72288649653E+02 0.65404973209E+02 0.56474150307E+02 0.47143240443E+02 0.37851102523E+02
 0.28629479269E+02 0.20066334805E+02 0.13219940754E+02 0.87417782939E+01 0.63125746256E+01
 0.50762825996E+01 0.46935056600E+01 0.50763033244E+01 0.63125869763E+01 0.87417597646E+01
 0.13219905287E+02 0.20066319332E+02 0.28629496547E+02 0.37851110839E+02 0.47143170202E+02
 0.56473971781E+02 0.65404743211E+02 0.72288486591E+02 0.74929189203E+02 0.63443989962E+02
 0.56474150307E+02 0.48287661519E+02 0.39688834513E+02 0.30898310435E+02 0.22381490418E+02
 0.15109269455E+02 0.99423484675E+01 0.69313451005E+01 0.53326316489E+01 0.46111116435E+01
 0.46111258827E+01 0.53326558573E+01 0.69313458979E+01 0.99423190349E+01 0.15109242137E+02
 0.22381501911E+02 0.30898353441E+02 0.39688849651E+02 0.48287586841E+02 0.56473986645E+02
 0.63443818199E+02 0.67616449894E+02 0.67616523357E+02 0.53599165189E+02 0.47143240443E+02
 0.39688834513E+02 0.31678673407E+02 0.23616312419E+02 0.16387453822E+02 0.10907276073E+02
 0.74796853785E+01 0.55883131489E+01 0.45964688527E+01 0.42933994325E+01 0.45964872965E+01
 0.55883280002E+01 0.74796780054E+01 0.10907254617E+02 0.16387448197E+02 0.23616343877E+02
 0.31678729129E+02 0.39688874735E+02 0.47143233973E+02 0.53599119926E+02 0.58210333353E+02
 0.59914853951E+02 0.58210375354E+02 0.43895800708E+02 0.37851102523E+02 0.30898310435E+02
 0.23616312419E+02 0.16838199958E+02 0.11444790841E+02 0.78635263365E+01 0.57917500508E+01
 0.46152889423E+01 0.40939552526E+01 0.40939593916E+01 0.46152974859E+01 0.57917547116E+01
 0.78635218291E+01 0.11444780633E+02 0.16838195840E+02 0.23616327897E+02 0.30898352203E+02
 0.37851165327E+02 0.43895868420E+02 0.48509355022E+02 0.51064548588E+02 0.51064529113E+02
 0.48509303021E+02 0.34354394706E+02 0.28629479269E+02 0.22381490418E+02 0.16387453822E+02
 0.11444790841E+02 0.80019100488E+01 0.59036795859E+01 0.46383533629E+01 0.39800382088E+01
 0.37812358235E+01 0.39800324083E+01 0.46383495963E+01 0.59036821362E+01 0.80019110070E+01
 0.11444776552E+02 0.16387422151E+02 0.22381460583E+02 0.28629480543E+02 0.34354440590E+02
 0.38960679880E+02 0.41976929972E+02 0.43032890289E+02 0.41976876893E+02 0.38960608905E+02
 0.25097762041E+02 0.20066334805E+02 0.15109269455E+02 0.10907276073E+02 0.78635263365E+01
 0.59036795859E+01 0.46479335984E+01 0.39284559022E+01 0.36132128811E+01 0.36132047881E+01
 0.39284408761E+01 0.46479285233E+01 0.59036880812E+01 0.78635308450E+01 0.10907253110E+02
 0.15109214039E+02 0.20066269339E+02 0.25097719168E+02 0.29516621089E+02 0.32779881105E+02
 0.34511991687E+02 0.34511981174E+02 0.32779863987E+02 0.29516626473E+02 0.16989861361E+02
 0.13219940754E+02 0.99423484675E+01 0.74796853785E+01 0.57917500508E+01 0.46383533629E+01
 0.39284559022E+01 0.35604654799E+01 0.34484831772E+01 0.35604541978E+01 0.39284462436E+01
 0.46383581192E+01 0.57917681455E+01 0.74797003480E+01 0.99423407580E+01 0.13219902908E+02
 0.16989803202E+02 0.20710440296E+02 0.23819943676E+02 0.25871393990E+02 0.26586583457E+02
 0.25871416491E+02 0.23819987991E+02 0.20710499574E+02 0.11047598170E+02 0.87417782939E+01
 0.69313451005E+01 0.55883131489E+01 0.46152889423E+01 0.39800382088E+01 0.36132128811E+01
 0.34484831772E+01 0.34484822238E+01 0.36132111678E+01 0.39800396052E+01 0.46152996411E+01
 0.55883378779E+01 0.69313810353E+01 0.87418122075E+01 0.11047611903E+02 0.13620105782E+02
 0.16066348932E+02 0.17971438926E+02 0.19010849193E+02 0.19010867122E+02 0.17971481544E+02
 0.16066390462E+02 0.13620123055E+02 0.75185155664E+01 0.63125746256E+01 0.53326316489E+01
 0.45964688527E+01 0.40939552526E+01 0.37812358235E+01 0.36132047881E+01 0.35604541978E+01
 0.36132111678E+01 0.37812397792E+01 0.40939517839E+01 0.45964672226E+01 0.53326501299E+01
 0.63126224193E+01 0.75185796093E+01 0.89529262276E+01 0.10479720889E+02 0.11850603579E+02
 0.12802531966E+02 0.13143100722E+02 0.12802550204E+02 0.11850616575E+02 0.10479703413E+02
 0.89528746297E+01 0.56930320092E+01 0.50762825996E+01 0.46111116435E+01 0.42933994325E+01
 0.40939593916E+01 0.39800324083E+01 0.39284408761E+01 0.39284462436E+01 0.39800396052E+01
 0.40939517839E+01 0.42933725173E+01 0.46110819725E+01 0.50762756382E+01 0.56930598032E+01
 0.64223379768E+01 0.72023258102E+01 0.79647453674E+01 0.85862367300E+01 0.89372149599E+01
 0.89372166368E+01 0.85862334790E+01 0.79647221654E+01 0.72022801160E+01 0.64222879941E+01
 0.48699383222E+01 0.46935056600E+01 0.46111258827E+01 0.45964872965E+01 0.46152974859E+01
 0.46383495963E+01 0.46479285233E+01 0.46383581192E+01 0.46152996411E+01 0.45964672226E+01
 0.46110819725E+01 0.46934535478E+01 0.48698994406E+01 0.51440561586E+01 0.54889285955E+01
 0.58515651623E+01 0.61685618184E+01 0.63854780610E+01 0.64631344530E+01 0.63854721568E+01
 0.61685491962E+01 0.58515494853E+01 0.54889210502E+01 0.51440699011E+01 0.48699454033E+01
 0.50763033244E+01 0.53326558573E+01 0.55883280002E+01 0.57917547116E+01 0.59036821362E+01
 0.59036880812E+01 0.57917681455E+01 0.55883378779E+01 0.53326501299E+01 0.50762756382E+01
 0.48698994406E+01 0.47474539963E+01 0.47156656276E+01 0.47547817438E+01 0.48293354390E+01
 0.49023220104E+01 0.49459005101E+01 0.49458961366E+01 0.49023142790E+01 0.48293366850E+01
 0.47548024447E+01 0.47157067159E+01 0.47475053803E+01 0.56930433665E+01 0.63125869763E+01
 0.69313458979E+01 0.74796780054E+01 0.78635218291E+01 0.80019110070E+01 0.78635308450E+01
 0.74797003480E+01 0.69313810353E+01 0.63126224193E+01 0.56930598032E+01 0.51440561586E+01
 0.47156656276E+01 0.44181255997E+01 0.42315914962E+01 0.41248776596E+01 0.40711968527E+01
 0.40549019160E+01 0.40711867665E+01 0.41248730338E+01 0.42316076859E+01 0.44181613411E+01
 0.47157015883E+01 0.51440699011E+01 0.75185135678E+01 0.87417597646E+01 0.99423190349E+01
 0.10907254617E+02 0.11444780633E+02 0.11444776552E+02 0.10907253110E+02 0.99423407580E+01
 0.87418122075E+01 0.75185796093E+01 0.64223379768E+01 0.54889285955E+01 0.47547817438E+01
 0.42315914962E+01 0.38895372016E+01 0.36877143137E+01 0.35945973355E+01 0.35945904239E+01
 0.36877021980E+01 0.38895356903E+01 0.42316040914E+01 0.47547917321E+01 0.54889124472E+01
 0.64222879941E+01 0.11047579571E+02 0.13219905287E+02 0.15109242137E+02 0.16387448197E+02
 0.16838195840E+02 0.16387422151E+02 0.15109214039E+02 0.13219902908E+02 0.11047611903E+02
 0.89529262276E+01 0.72023258102E+01 0.58515651623E+01 0.48293354390E+01 0.41248776596E+01
 0.36877143137E+01 0.34552608144E+01 0.33829547801E+01 0.34552556431E+01 0.36877097001E+01
 0.41248759557E+01 0.48293287477E+01 0.58515406990E+01 0.72022802733E+01 0.89528746297E+01
 0.16989843001E+02 0.20066319332E+02 0.22381501911E+02 0.23616343877E+02 0.23616327897E+02
 0.22381460583E+02 0.20066269339E+02 0.16989803202E+02 0.13620105782E+02 0.10479720889E+02
 0.79647453674E+01 0.61685618184E+01 0.49023220104E+01 0.40711968527E+01 0.35945973355E+01
 0.33829547801E+01 0.33829587509E+01 0.35946053566E+01 0.40712001698E+01 0.49023137741E+01
 0.61685430654E+01 0.79647260443E+01 0.10479714934E+02 0.13620123055E+02 0.25097760654E+02
 0.28629496547E+02 0.30898353441E+02 0.31678729129E+02 0.30898352203E+02 0.28629480543E+02
 0.25097719168E+02 0.20710440296E+02 0.16066348932E+02 0.11850603579E+02 0.85862367300E+01
 0.63854780610E+01 0.49459005101E+01 0.40549019160E+01 0.35945904239E+01 0.34552556431E+01
 0.35946053566E+01 0.40549159658E+01 0.49458992396E+01 0.63854652362E+01 0.85862332661E+01
 0.11850628781E+02 0.16066401921E+02 0.20710499574E+02 0.34354400955E+02 0.37851110839E+02
 0.39688849651E+02 0.39688874735E+02 0.37851165327E+02 0.34354440590E+02 0.29516621089E+02
 0.23819943676E+02 0.17971438926E+02 0.12802531966E+02 0.89372149599E+01 0.64631344530E+01
 0.49458961366E+01 0.40711867665E+01 0.36877021980E+01 0.36877097001E+01 0.40712001698E+01
 0.49458992396E+01 0.64631248361E+01 0.89372105749E+01 0.12802553769E+02 0.17971485882E+02
 0.23819986878E+02 0.29516626473E+02 0.43895777777E+02 0.47143170202E+02 0.48287586841E+02
 0.47143233973E+02 0.43895868420E+02 0.38960679880E+02 0.32779881105E+02 0.25871393990E+02
 0.19010849193E+02 0.13143100722E+02 0.89372166368E+01 0.63854721568E+01 0.49023142790E+01
 0.41248730338E+01 0.38895356903E+01 0.41248759557E+01 0.49023137741E+01 0.63854652362E+01
 0.89372105749E+01 0.13143106542E+02 0.19010866248E+02 0.25871402449E+02 0.32779854236E+02
 0.38960608905E+02 0.53599080179E+02 0.56473971781E+02 0.56473986645E+02 0.53599119926E+02
 0.48509355022E+02 0.41976929972E+02 0.34511991687E+02 0.26586583457E+02 0.19010867122E+02
 0.12802550204E+02 0.85862334790E+01 0.61685491962E+01 0.48293366850E+01 0.42316076859E+01
 0.42316040914E+01 0.48293287477E+01 0.61685430654E+01 0.85862332661E+01 0.12802553769E+02
 0.19010866248E+02 0.26586568525E+02 0.34511957863E+02 0.41976881101E+02 0.48509303021E+02
 0.63443852073E+02 0.65404743211E+02 0.63443818199E+02 0.58210333353E+02 0.51064548588E+02
 0.43032890289E+02 0.34511981174E+02 0.25871416491E+02 0.17971481544E+02 0.11850616575E+02
 0.79647221654E+01 0.58515494853E+01 0.47548024447E+01 0.44181613411E+01 0.47547917321E+01
 0.58515406990E+01 0.79647260443E+01 0.11850628781E+02 0.17971485882E+02 0.25871402449E+02
 0.34511957863E+02 0.43032881045E+02 0.51064569405E+02 0.58210375354E+02 0.72288517485E+02
 0.72288486591E+02 0.67616449894E+02 0.59914853951E+02 0.51064529113E+02 0.41976876893E+02
 0.32779863987E+02 0.23819987991E+02 0.16066390462E+02 0.10479703413E+02 0.72022801160E+01
 0.54889210502E+01 0.47157067159E+01 0.47157015883E+01 0.54889124472E+01 0.72022802733E+01
 0.10479714934E+02 0.16066401921E+02 0.23819986878E+02 0.32779854236E+02 0.41976881101E+02
 0.51064569405E+02 0.59914927537E+02 0.67616523357E+02 0.77745125674E+02 0.74929189203E+02
 0.67616523357E+02 0.58210375354E+02 0.48509303021E+02 0.38960608905E+02 0.29516626473E+02
 0.20710499574E+02 0.13620123055E+02 0.89528746297E+01 0.64222879941E+01 0.51440699011E+01
 0.47475053803E+01 0.51440699011E+01 0.64222879941E+01 0.89528746297E+01 0.13620123055E+02
 0.20710499574E+02 0.29516626473E+02 0.38960608905E+02 0.48509303021E+02 0.58210375354E+02
 0.67616523357E+02 0.74929189203E+02 0.69845974356E+02 0.63443989962E+02 0.55035341607E+02
 0.46082150501E+02 0.37004071726E+02 0.27928153432E+02 0.19526622478E+02 0.12862037221E+02
 0.85371328371E+01 0.61926891824E+01 0.49925990764E+01 0.46219094104E+01 0.49926170450E+01
 0.61927007582E+01 0.85371188142E+01 0.12862008641E+02 0.19526610393E+02 0.27928170552E+02
 0.37004086711E+02 0.46082107772E+02 0.55035214970E+02 0.63443820634E+02 0.69845852640E+02
 0.72288517485E+02 0.63443989962E+02 0.56474150307E+02 0.48287661519E+02 0.39688834513E+02
 0.30898310435E+02 0.22381490418E+02 0.15109269455E+02 0.99423484675E+01 0.69313451005E+01
 0.53326316489E+01 0.46111116435E+01 0.46111258827E+01 0.53326558573E+01 0.69313458979E+01
 0.99423190349E+01 0.15109242137E+02 0.22381501911E+02 0.30898353441E+02 0.39688849651E+02
 0.48287586841E+02 0.56473986645E+02 0.63443818199E+02 0.67616449894E+02 0.67616523357E+02
 0.55035341607E+02 0.48287661519E+02 0.40611335596E+02 0.32446211298E+02 0.24239201318E+02
 0.16842912791E+02 0.11193326641E+02 0.76386911274E+01 0.56852599105E+01 0.46630151030E+01
 0.43501343368E+01 0.46630372538E+01 0.56852765989E+01 0.76386800035E+01 0.11193299901E+02
 0.16842908632E+02 0.24239242943E+02 0.32446275195E+02 0.40611365247E+02 0.48287618529E+02
 0.55035246709E+02 0.59914849766E+02 0.61730112155E+02 0.59914927537E+02 0.46082150501E+02
 0.39688834513E+02 0.32446211298E+02 0.24881064469E+02 0.17781370627E+02 0.12055971211E+02
 0.82083573562E+01 0.59908239418E+01 0.47437163695E+01 0.41889133262E+01 0.41889219538E+01
 0.47437327650E+01 0.59908300515E+01 0.82083471127E+01 0.12055959944E+02 0.17781382871E+02
 0.24881111245E+02 0.32446278701E+02 0.39688894656E+02 0.46082184183E+02 0.51064578840E+02
 0.53869490665E+02 0.53869490321E+02 0.51064569405E+02 0.37004071726E+02 0.30898310435E+02
 0.24239201318E+02 0.17781370627E+02 0.12363328162E+02 0.85278900815E+01 0.61972829272E+01
 0.48187554491E+01 0.40978027168E+01 0.38797854701E+01 0.40978059376E+01 0.48187603035E+01
 0.61972859769E+01 0.85278877049E+01 0.12363320950E+02 0.17781367203E+02 0.24239216306E+02
 0.30898355036E+02 0.37004142472E+02 0.41976956231E+02 0.45287452749E+02 0.46459472780E+02
 0.45287404031E+02 0.41976881101E+02 0.27928153432E+02 0.22381490418E+02 0.16842912791E+02
 0.12055971211E+02 0.85278900815E+01 0.62704693236E+01 0.48626689370E+01 0.40522835380E+01
 0.36972600909E+01 0.36972551732E+01 0.40522751662E+01 0.48626680721E+01 0.62704763561E+01
 0.85278907592E+01 0.12055950498E+02 0.16842873699E+02 0.22381457329E+02 0.27928153248E+02
 0.32779891086E+02 0.36377993070E+02 0.38301122307E+02 0.38301100674E+02 0.36377945349E+02
 0.32779854236E+02 0.19526622478E+02 0.15109269455E+02 0.11193326641E+02 0.82083573562E+01
 0.61972829272E+01 0.48626689370E+01 0.40384947482E+01 0.36128583938E+01 0.34839353075E+01
 0.36128454954E+01 0.40384837916E+01 0.48626728919E+01 0.61972968081E+01 0.82083599057E+01
 0.11193299260E+02 0.15109214365E+02 0.19526562363E+02 0.23819946145E+02 0.27377749381E+02
 0.29718666334E+02 0.30534763257E+02 0.29718666281E+02 0.27377763743E+02 0.23819986878E+02
 0.12862037221E+02 0.99423484675E+01 0.76386911274E+01 0.59908239418E+01 0.48187554491E+01
 0.40522835380E+01 0.36128583938E+01 0.34174705437E+01 0.34174657614E+01 0.36128494573E+01
 0.40522818308E+01 0.48187678958E+01 0.59908457652E+01 0.76387077548E+01 0.99423449694E+01
 0.12862007972E+02 0.16066353855E+02 0.19067413001E+02 0.21380341529E+02 0.22635303019E+02
 0.22635317241E+02 0.21380380166E+02 0.19067464534E+02 0.16066401921E+02 0.85371328371E+01
 0.69313451005E+01 0.56852599105E+01 0.47437163695E+01 0.40978027168E+01 0.36972600909E+01
 0.34839353075E+01 0.34174657614E+01 0.34839363399E+01 0.36972612238E+01 0.40978060083E+01
 0.47437286025E+01 0.56852874041E+01 0.69313848870E+01 0.85371695294E+01 0.10479729200E+02
 0.12532463449E+02 0.14354294305E+02 0.15607896096E+02 0.16054285719E+02 0.15607923839E+02
 0.14354329114E+02 0.12532479735E+02 0.10479714934E+02 0.61926891824E+01 0.53326316489E+01
 0.46630151030E+01 0.41889133262E+01 0.38797854701E+01 0.36972551732E+01 0.36128454954E+01
 0.36128494573E+01 0.36972612238E+01 0.38797836176E+01 0.41889035853E+01 0.46630120072E+01
 0.53326523045E+01 0.61927355191E+01 0.72023335351E+01 0.83312518836E+01 0.94527188648E+01
 0.10366571144E+02 0.10880916517E+02 0.10880924589E+02 0.10366584166E+02 0.94527141081E+01
 0.83312173006E+01 0.72022802733E+01 0.49925990764E+01 0.46111116435E+01 0.43501343368E+01
 0.41889219538E+01 0.40978059376E+01 0.40522751662E+01 0.40384837916E+01 0.40522818308E+01
 0.40978060083E+01 0.41889035853E+01 0.43501015886E+01 0.46110838732E+01 0.49925951173E+01
 0.54889344488E+01 0.60576404253E+01 0.66289379864E+01 0.71354192985E+01 0.74918523312E+01
 0.76208864926E+01 0.74918540304E+01 0.71354124352E+01 0.66289149467E+01 0.60576082452E+01
 0.54889124472E+01 0.46219094104E+01 0.46111258827E+01 0.46630372538E+01 0.47437327650E+01
 0.48187603035E+01 0.48626680721E+01 0.48626728919E+01 0.48187678958E+01 0.47437286025E+01
 0.46630120072E+01 0.46110838732E+01 0.46218657261E+01 0.47156710524E+01 0.48888909124E+01
 0.51125102853E+01 0.53407639366E+01 0.55252633727E+01 0.56277742675E+01 0.56277731476E+01
 0.55252597219E+01 0.53407588922E+01 0.51125094767E+01 0.48889031667E+01 0.47157015883E+01
 0.49926170450E+01 0.53326558573E+01 0.56852765989E+01 0.59908300515E+01 0.61972859769E+01
 0.62704763561E+01 0.61972968081E+01 0.59908457652E+01 0.56852874041E+01 0.53326523045E+01
 0.49925951173E+01 0.47156710524E+01 0.45288102057E+01 0.44306947256E+01 0.43987951048E+01
 0.44026440305E+01 0.44157925006E+01 0.44219330509E+01 0.44157867089E+01 0.44026409257E+01
 0.43988049798E+01 0.44307214886E+01 0.45288477741E+01 0.47157067159E+01 0.61927007582E+01
 0.69313458979E+01 0.76386800035E+01 0.82083471127E+01 0.85278877049E+01 0.85278907592E+01
 0.82083599057E+01 0.76387077548E+01 0.69313848870E+01 0.61927355191E+01 0.54889344488E+01
 0.48888909124E+01 0.44306947256E+01 0.41120191800E+01 0.39072224543E+01 0.37873131422E+01
 0.37319793295E+01 0.37319726509E+01 0.37873011635E+01 0.39072211701E+01 0.41120359353E+01
 0.44307193335E+01 0.48889031667E+01 0.54889210502E+01 0.85371188142E+01 0.99423190349E+01
 0.11193299901E+02 0.12055959944E+02 0.12363320950E+02 0.12055950498E+02 0.11193299260E+02
 0.99423449694E+01 0.85371695294E+01 0.72023335351E+01 0.60576404253E+01 0.51125102853E+01
 0.43987951048E+01 0.39072224543E+01 0.35976271996E+01 0.34292585173E+01 0.33759856023E+01
 0.34292464969E+01 0.35976162487E+01 0.39072234982E+01 0.43988027090E+01 0.51125053107E+01
 0.60576082452E+01 0.72022801160E+01 0.12862008641E+02 0.15109242137E+02 0.16842908632E+02
 0.17781382871E+02 0.17781367203E+02 0.16842873699E+02 0.15109214365E+02 0.12862007972E+02
 0.10479729200E+02 0.83312518836E+01 0.66289379864E+01 0.53407639366E+01 0.44026440305E+01
 0.37873131422E+01 0.34292585173E+01 0.32672535489E+01 0.32672514616E+01 0.34292549927E+01
 0.37873121634E+01 0.44026434115E+01 0.53407546175E+01 0.66289131101E+01 0.83312173006E+01
 0.10479703413E+02 0.19526610393E+02 0.22381501911E+02 0.24239242943E+02 0.24881111245E+02
 0.24239216306E+02 0.22381457329E+02 0.19526562363E+02 0.16066353855E+02 0.12532463449E+02
 0.94527188648E+01 0.71354192985E+01 0.55252633727E+01 0.44157925006E+01 0.37319793295E+01
 0.33759856023E+01 0.32672514616E+01 0.33759944462E+01 0.37319892848E+01 0.44157945397E+01
 0.55252549477E+01 0.71354073865E+01 0.94527160018E+01 0.12532479735E+02 0.16066390462E+02
 0.27928170552E+02 0.30898353441E+02 0.32446275195E+02 0.32446278701E+02 0.30898355036E+02
 0.27928153248E+02 0.23819946145E+02 0.19067413001E+02 0.14354294305E+02 0.10366571144E+02
 0.74918523312E+01 0.56277742675E+01 0.44219330509E+01 0.37319726509E+01 0.34292464969E+01
 0.34292549927E+01 0.37319892848E+01 0.44219408020E+01 0.56277667769E+01 0.74918425247E+01
 0.10366580175E+02 0.14354331117E+02 0.19067464534E+02 0.23819987991E+02 0.37004086711E+02
 0.39688849651E+02 0.40611365247E+02 0.39688894656E+02 0.37004142472E+02 0.32779891086E+02
 0.27377749381E+02 0.21380341529E+02 0.15607896096E+02 0.10880916517E+02 0.76208864926E+01
 0.56277731476E+01 0.44157867089E+01 0.37873011635E+01 0.35976162487E+01 0.37873121634E+01
 0.44157945397E+01 0.56277667769E+01 0.76208731649E+01 0.10880916613E+02 0.15607920956E+02
 0.21380376901E+02 0.27377763743E+02 0.32779863987E+02 0.46082107772E+02 0.48287586841E+02
 0.48287618529E+02 0.46082184183E+02 0.41976956231E+02 0.36377993070E+02 0.29718666334E+02
 0.22635303019E+02 0.16054285719E+02 0.10880924589E+02 0.74918540304E+01 0.55252597219E+01
 0.44026409257E+01 0.39072211701E+01 0.39072234982E+01 0.44026434115E+01 0.55252549477E+01
 0.74918425247E+01 0.10880916613E+02 0.16054289555E+02 0.22635311188E+02 0.29718656158E+02