   1   1   1   0
  0.1987675E+02  0.3040559E-09  0.3040559E-09  0.3040559E-09  0.5000000E-15
  1.000000000000000E-004
  CAR 
 FCC Au                                  
     34.10443675     -6.55558972 3001      2.57741315      1.00000000
     -6.556  0.0000E+00  0.0000E+00
     -6.542  0.0000E+00  0.0000E+00
     -6.528  0.0000E+00  0.0000E+00
     -6.515  0.0000E+00  0.0000E+00
     -6.501  0.0000E+00  0.0000E+00
     -6.488  0.0000E+00  0.0000E+00
     -6.474  0.0000E+00  0.0000E+00
     -6.461  0.0000E+00  0.0000E+00
     -6.447  0.0000E+00  0.0000E+00
     -6.434  0.0000E+00  0.0000E+00
     -6.420  0.0000E+00  0.0000E+00
     -6.407  0.0000E+00  0.0000E+00
     -6.393  0.0000E+00  0.0000E+00
     -6.379  0.0000E+00  0.0000E+00
     -6.366  0.0000E+00  0.0000E+00
     -6.352  0.0000E+00  0.0000E+00
     -6.339  0.0000E+00  0.0000E+00
     -6.325  0.0000E+00  0.0000E+00
     -6.312  0.0000E+00  0.0000E+00
     -6.298  0.0000E+00  0.0000E+00
     -6.285  0.0000E+00  0.0000E+00
     -6.271  0.0000E+00  0.0000E+00
     -6.257  0.0000E+00  0.0000E+00
     -6.244  0.0000E+00  0.0000E+00
     -6.230  0.0000E+00  0.0000E+00
     -6.217  0.0000E+00  0.0000E+00
     -6.203  0.0000E+00  0.0000E+00
     -6.190  0.0000E+00  0.0000E+00
     -6.176  0.0000E+00  0.0000E+00
     -6.163 -0.7680E-29 -0.1041E-30
     -6.149 -0.1484E-28 -0.3053E-30
     -6.135 -0.4292E-28 -0.8870E-30
     -6.122 -0.1230E-27 -0.2553E-29
     -6.108 -0.4042E-27 -0.8032E-29
     -6.095 -0.1114E-26 -0.2313E-28
     -6.081 -0.3158E-26 -0.6593E-28
     -6.068 -0.8852E-26 -0.1859E-27
     -6.054 -0.2426E-25 -0.5148E-27
     -6.041 -0.6618E-25 -0.1412E-26
     -6.027 -0.1788E-24 -0.3835E-26
     -6.013 -0.4787E-24 -0.1032E-25
     -6.000 -0.1270E-23 -0.2754E-25
     -5.986 -0.3339E-23 -0.7279E-25
     -5.973 -0.8698E-23 -0.1907E-24
     -5.959 -0.2245E-22 -0.4950E-24
     -5.946 -0.5745E-22 -0.1274E-23
     -5.932 -0.1456E-21 -0.3248E-23
     -5.919 -0.3659E-21 -0.8207E-23
     -5.905 -0.9112E-21 -0.2056E-22
     -5.891 -0.2248E-20 -0.5103E-22
     -5.878 -0.5498E-20 -0.1255E-21
     -5.864 -0.1332E-19 -0.3061E-21
     -5.851 -0.3200E-19 -0.7399E-21
     -5.837 -0.7617E-19 -0.1772E-20
     -5.824 -0.1797E-18 -0.4208E-20
     -5.810 -0.4201E-18 -0.9902E-20
     -5.797 -0.9735E-18 -0.2310E-19
     -5.783 -0.2236E-17 -0.5339E-19
     -5.769 -0.5088E-17 -0.1224E-18
     -5.756 -0.1148E-16 -0.2779E-18
     -5.742 -0.2566E-16 -0.6257E-18
     -5.729 -0.5481E-16 -0.1369E-17
     -5.715 -0.1228E-15 -0.3034E-17
     -5.702 -0.2657E-15 -0.6635E-17
     -5.688 -0.5702E-15 -0.1436E-16
     -5.675 -0.1222E-14 -0.3092E-16
     -5.661 -0.2569E-14 -0.6574E-16
     -5.648 -0.5413E-14 -0.1391E-15
     -5.634 -0.1126E-13 -0.2918E-15
     -5.620 -0.2321E-13 -0.6064E-15
     -5.607 -0.4743E-13 -0.1249E-14
     -5.593 -0.9618E-13 -0.2553E-14
     -5.580 -0.1931E-12 -0.5170E-14
     -5.566 -0.3845E-12 -0.1038E-13
     -5.553 -0.7590E-12 -0.2067E-13
     -5.539 -0.1485E-11 -0.4079E-13
     -5.526 -0.2879E-11 -0.7982E-13
     -5.512 -0.5535E-11 -0.1548E-12
     -5.498 -0.1055E-10 -0.2978E-12
     -5.485 -0.1992E-10 -0.5678E-12
     -5.471 -0.3730E-10 -0.1073E-11
     -5.458 -0.6923E-10 -0.2012E-11
     -5.444 -0.1274E-09 -0.3738E-11
     -5.431 -0.2323E-09 -0.6887E-11
     -5.417 -0.4200E-09 -0.1258E-10
     -5.404 -0.7528E-09 -0.2278E-10
     -5.390 -0.1338E-08 -0.4091E-10
     -5.376 -0.2356E-08 -0.7284E-10
     -5.363 -0.4113E-08 -0.1286E-09
     -5.349 -0.7120E-08 -0.2251E-09
     -5.336 -0.1222E-07 -0.3907E-09
     -5.322 -0.2078E-07 -0.6723E-09
     -5.309 -0.3504E-07 -0.1147E-08
     -5.295 -0.5857E-07 -0.1941E-08
     -5.282 -0.9705E-07 -0.3256E-08
     -5.268 -0.1594E-06 -0.5417E-08
     -5.254 -0.2596E-06 -0.8935E-08
     -5.241 -0.4190E-06 -0.1461E-07
     -5.227 -0.6705E-06 -0.2370E-07
     -5.214 -0.1064E-05 -0.3812E-07
     -5.200 -0.1672E-05 -0.6078E-07
     -5.187 -0.2607E-05 -0.9612E-07
     -5.173 -0.4028E-05 -0.1507E-06
     -5.160 -0.6170E-05 -0.2343E-06
     -5.146 -0.9367E-05 -0.3613E-06
     -5.132 -0.1410E-04 -0.5523E-06
     -5.119 -0.2103E-04 -0.8374E-06
     -5.105 -0.3109E-04 -0.1259E-05
     -5.092 -0.4557E-04 -0.1876E-05
     -5.078 -0.6620E-04 -0.2774E-05
     -5.065 -0.9532E-04 -0.4066E-05
     -5.051 -0.1360E-03 -0.5909E-05
     -5.038 -0.1924E-03 -0.8517E-05
     -5.024 -0.2697E-03 -0.1217E-04
     -5.011 -0.3746E-03 -0.1725E-04
     -4.997 -0.5157E-03 -0.2424E-04
     -4.983 -0.7034E-03 -0.3377E-04
     -4.970 -0.9508E-03 -0.4666E-04
     -4.956 -0.1273E-02 -0.6391E-04
     -4.943 -0.1690E-02 -0.8681E-04
     -4.929 -0.2221E-02 -0.1169E-03
     -4.916 -0.2892E-02 -0.1561E-03
     -4.902 -0.3730E-02 -0.2067E-03
     -4.889 -0.4764E-02 -0.2712E-03
     -4.875 -0.6026E-02 -0.3529E-03
     -4.861 -0.7545E-02 -0.4552E-03
     -4.848 -0.9353E-02 -0.5819E-03
     -4.834 -0.1147E-01 -0.7374E-03
     -4.821 -0.1392E-01 -0.9261E-03
     -4.807 -0.1671E-01 -0.1153E-02
     -4.794 -0.1983E-01 -0.1421E-02
     -4.780 -0.2326E-01 -0.1737E-02
     -4.767 -0.2693E-01 -0.2102E-02
     -4.753 -0.3077E-01 -0.2519E-02
     -4.739 -0.3467E-01 -0.2989E-02
     -4.726 -0.3846E-01 -0.3510E-02
     -4.712 -0.4194E-01 -0.4078E-02
     -4.699 -0.4486E-01 -0.4686E-02
     -4.685 -0.4692E-01 -0.5322E-02
     -4.672 -0.4776E-01 -0.5970E-02
     -4.658 -0.4698E-01 -0.6606E-02
     -4.645 -0.4413E-01 -0.7204E-02
     -4.631 -0.3874E-01 -0.7729E-02
     -4.617 -0.3028E-01 -0.8140E-02
     -4.604 -0.1824E-01 -0.8387E-02
     -4.590 -0.2067E-02 -0.8415E-02
     -4.577  0.1875E-01 -0.8161E-02
     -4.563  0.4470E-01 -0.7555E-02
     -4.550  0.7624E-01 -0.6522E-02
     -4.536  0.1137E+00 -0.4980E-02
     -4.523  0.1575E+00 -0.2845E-02
     -4.509  0.2079E+00 -0.2776E-04
     -4.495  0.2648E+00  0.3562E-02
     -4.482  0.3285E+00  0.8014E-02
     -4.468  0.3988E+00  0.1342E-01
     -4.455  0.4756E+00  0.1986E-01
     -4.441  0.5587E+00  0.2744E-01
     -4.428  0.6477E+00  0.3621E-01
     -4.414  0.7423E+00  0.4628E-01
     -4.401  0.8423E+00  0.5769E-01
     -4.387  0.9470E+00  0.7053E-01
     -4.374  0.1056E+01  0.8484E-01
     -4.360  0.1170E+01  0.1007E+00
     -4.346  0.1287E+01  0.1181E+00
     -4.333  0.1407E+01  0.1372E+00
     -4.319  0.1531E+01  0.1579E+00
     -4.306  0.1657E+01  0.1804E+00
     -4.292  0.1787E+01  0.2046E+00
     -4.279  0.1919E+01  0.2306E+00
     -4.265  0.2053E+01  0.2585E+00
     -4.252  0.2190E+01  0.2881E+00
     -4.238  0.2328E+01  0.3197E+00
     -4.224  0.2468E+01  0.3531E+00
     -4.211  0.2609E+01  0.3885E+00
     -4.197  0.2750E+01  0.4258E+00
     -4.184  0.2891E+01  0.4650E+00
     -4.170  0.3031E+01  0.5060E+00
     -4.157  0.3168E+01  0.5490E+00
     -4.143  0.3303E+01  0.5937E+00
     -4.130  0.3433E+01  0.6403E+00
     -4.116  0.3558E+01  0.6885E+00
     -4.102  0.3676E+01  0.7383E+00
     -4.089  0.3786E+01  0.7896E+00
     -4.075  0.3887E+01  0.8423E+00
     -4.062  0.3979E+01  0.8962E+00
     -4.048  0.4059E+01  0.9512E+00
     -4.035  0.4129E+01  0.1007E+01
     -4.021  0.4186E+01  0.1064E+01
     -4.008  0.4231E+01  0.1121E+01
     -3.994  0.4263E+01  0.1179E+01
     -3.980  0.4283E+01  0.1237E+01
     -3.967  0.4291E+01  0.1295E+01
     -3.953  0.4286E+01  0.1353E+01
     -3.940  0.4270E+01  0.1411E+01
     -3.926  0.4243E+01  0.1469E+01
     -3.913  0.4206E+01  0.1526E+01
     -3.899  0.4159E+01  0.1582E+01
     -3.886  0.4104E+01  0.1638E+01
     -3.872  0.4041E+01  0.1692E+01
     -3.858  0.3971E+01  0.1746E+01
     -3.845  0.3895E+01  0.1799E+01
     -3.831  0.3815E+01  0.1851E+01
     -3.818  0.3733E+01  0.1901E+01
     -3.804  0.3649E+01  0.1951E+01
     -3.791  0.3565E+01  0.1999E+01
     -3.777  0.3483E+01  0.2046E+01
     -3.764  0.3406E+01  0.2093E+01
     -3.750  0.3335E+01  0.2138E+01
     -3.736  0.3271E+01  0.2182E+01
     -3.723  0.3218E+01  0.2226E+01
     -3.709  0.3177E+01  0.2269E+01
     -3.696  0.3149E+01  0.2311E+01
     -3.682  0.3136E+01  0.2354E+01
     -3.669  0.3140E+01  0.2397E+01
     -3.655  0.3160E+01  0.2439E+01
     -3.642  0.3196E+01  0.2483E+01
     -3.628  0.3248E+01  0.2527E+01
     -3.615  0.3316E+01  0.2572E+01
     -3.601  0.3397E+01  0.2618E+01
     -3.587  0.3489E+01  0.2665E+01
     -3.574  0.3590E+01  0.2714E+01
     -3.560  0.3696E+01  0.2764E+01
     -3.547  0.3805E+01  0.2815E+01
     -3.533  0.3913E+01  0.2868E+01
     -3.520  0.4016E+01  0.2923E+01
     -3.506  0.4111E+01  0.2978E+01
     -3.493  0.4197E+01  0.3035E+01
     -3.479  0.4269E+01  0.3093E+01
     -3.465  0.4326E+01  0.3152E+01
     -3.452  0.4366E+01  0.3211E+01
     -3.438  0.4390E+01  0.3270E+01
     -3.425  0.4397E+01  0.3330E+01
     -3.411  0.4388E+01  0.3390E+01
     -3.398  0.4364E+01  0.3449E+01
     -3.384  0.4326E+01  0.3507E+01
     -3.371  0.4278E+01  0.3565E+01
     -3.357  0.4222E+01  0.3623E+01
     -3.343  0.4160E+01  0.3679E+01
     -3.330  0.4096E+01  0.3734E+01
     -3.316  0.4032E+01  0.3789E+01
     -3.303  0.3971E+01  0.3843E+01
     -3.289  0.3915E+01  0.3896E+01
     -3.276  0.3867E+01  0.3948E+01
     -3.262  0.3827E+01  0.4000E+01
     -3.249  0.3798E+01  0.4052E+01
     -3.235  0.3779E+01  0.4103E+01
     -3.221  0.3771E+01  0.4154E+01
     -3.208  0.3774E+01  0.4205E+01
     -3.194  0.3786E+01  0.4256E+01
     -3.181  0.3807E+01  0.4308E+01
     -3.167  0.3835E+01  0.4360E+01
     -3.154  0.3869E+01  0.4412E+01
     -3.140  0.3906E+01  0.4465E+01
     -3.127  0.3944E+01  0.4519E+01
     -3.113  0.3982E+01  0.4573E+01
     -3.099  0.4017E+01  0.4627E+01
     -3.086  0.4047E+01  0.4682E+01
     -3.072  0.4071E+01  0.4737E+01
     -3.059  0.4086E+01  0.4793E+01
     -3.045  0.4093E+01  0.4848E+01
     -3.032  0.4089E+01  0.4904E+01
     -3.018  0.4074E+01  0.4959E+01
     -3.005  0.4049E+01  0.5014E+01
     -2.991  0.4013E+01  0.5068E+01
     -2.978  0.3968E+01  0.5122E+01
     -2.964  0.3913E+01  0.5175E+01
     -2.950  0.3851E+01  0.5227E+01
     -2.937  0.3783E+01  0.5278E+01
     -2.923  0.3712E+01  0.5329E+01
     -2.910  0.3638E+01  0.5378E+01
     -2.896  0.3564E+01  0.5426E+01
     -2.883  0.3493E+01  0.5474E+01
     -2.869  0.3427E+01  0.5520E+01
     -2.856  0.3368E+01  0.5566E+01
     -2.842  0.3317E+01  0.5611E+01
     -2.828  0.3277E+01  0.5655E+01
     -2.815  0.3248E+01  0.5699E+01
     -2.801  0.3233E+01  0.5743E+01
     -2.788  0.3231E+01  0.5787E+01
     -2.774  0.3242E+01  0.5831E+01
     -2.761  0.3267E+01  0.5875E+01
     -2.747  0.3304E+01  0.5920E+01
     -2.734  0.3353E+01  0.5965E+01
     -2.720  0.3412E+01  0.6011E+01
     -2.706  0.3480E+01  0.6059E+01
     -2.693  0.3554E+01  0.6107E+01
     -2.679  0.3633E+01  0.6156E+01
     -2.666  0.3714E+01  0.6206E+01
     -2.652  0.3796E+01  0.6258E+01
     -2.639  0.3876E+01  0.6310E+01
     -2.625  0.3952E+01  0.6364E+01
     -2.612  0.4024E+01  0.6418E+01
     -2.598  0.4089E+01  0.6474E+01
     -2.584  0.4147E+01  0.6530E+01
     -2.571  0.4196E+01  0.6587E+01
     -2.557  0.4237E+01  0.6644E+01
     -2.544  0.4269E+01  0.6702E+01
     -2.530  0.4292E+01  0.6760E+01
     -2.517  0.4305E+01  0.6819E+01
     -2.503  0.4310E+01  0.6877E+01
     -2.490  0.4306E+01  0.6935E+01
     -2.476  0.4295E+01  0.6994E+01
     -2.462  0.4276E+01  0.7052E+01
     -2.449  0.4250E+01  0.7109E+01
     -2.435  0.4218E+01  0.7166E+01
     -2.422  0.4180E+01  0.7223E+01
     -2.408  0.4137E+01  0.7279E+01
     -2.395  0.4090E+01  0.7335E+01
     -2.381  0.4039E+01  0.7389E+01
     -2.368  0.3985E+01  0.7443E+01
     -2.354  0.3928E+01  0.7497E+01
     -2.341  0.3870E+01  0.7549E+01
     -2.327  0.3812E+01  0.7601E+01
     -2.313  0.3753E+01  0.7652E+01
     -2.300  0.3695E+01  0.7702E+01
     -2.286  0.3639E+01  0.7751E+01
     -2.273  0.3584E+01  0.7800E+01
     -2.259  0.3533E+01  0.7847E+01
     -2.246  0.3484E+01  0.7895E+01
     -2.232  0.3439E+01  0.7941E+01
     -2.219  0.3399E+01  0.7987E+01
     -2.205  0.3363E+01  0.8033E+01
     -2.191  0.3332E+01  0.8078E+01
     -2.178  0.3307E+01  0.8123E+01
     -2.164  0.3289E+01  0.8167E+01
     -2.151  0.3276E+01  0.8212E+01
     -2.137  0.3271E+01  0.8256E+01
     -2.124  0.3274E+01  0.8301E+01
     -2.110  0.3285E+01  0.8345E+01
     -2.097  0.3304E+01  0.8390E+01
     -2.083  0.3333E+01  0.8435E+01
     -2.069  0.3371E+01  0.8481E+01
     -2.056  0.3418E+01  0.8527E+01
     -2.042  0.3476E+01  0.8574E+01
     -2.029  0.3542E+01  0.8622E+01
     -2.015  0.3617E+01  0.8671E+01
     -2.002  0.3699E+01  0.8721E+01
     -1.988  0.3788E+01  0.8773E+01
     -1.975  0.3882E+01  0.8825E+01
     -1.961  0.3978E+01  0.8879E+01
     -1.947  0.4075E+01  0.8934E+01
     -1.934  0.4169E+01  0.8991E+01
     -1.920  0.4258E+01  0.9049E+01
     -1.907  0.4338E+01  0.9107E+01
     -1.893  0.4407E+01  0.9167E+01
     -1.880  0.4462E+01  0.9228E+01
     -1.866  0.4499E+01  0.9289E+01
     -1.853  0.4516E+01  0.9350E+01
     -1.839  0.4511E+01  0.9411E+01
     -1.825  0.4482E+01  0.9472E+01
     -1.812  0.4429E+01  0.9532E+01
     -1.798  0.4349E+01  0.9591E+01
     -1.785  0.4245E+01  0.9648E+01
     -1.771  0.4115E+01  0.9704E+01
     -1.758  0.3962E+01  0.9758E+01
     -1.744  0.3788E+01  0.9809E+01
     -1.731  0.3595E+01  0.9858E+01
     -1.717  0.3385E+01  0.9904E+01
     -1.703  0.3163E+01  0.9946E+01
     -1.690  0.2931E+01  0.9986E+01
     -1.676  0.2693E+01  0.1002E+02
     -1.663  0.2452E+01  0.1006E+02
     -1.649  0.2212E+01  0.1009E+02
     -1.636  0.1976E+01  0.1011E+02
     -1.622  0.1747E+01  0.1014E+02
     -1.609  0.1528E+01  0.1016E+02
     -1.595  0.1321E+01  0.1017E+02
     -1.582  0.1128E+01  0.1019E+02
     -1.568  0.9507E+00  0.1020E+02
     -1.554  0.7896E+00  0.1021E+02
     -1.541  0.6457E+00  0.1022E+02
     -1.527  0.5191E+00  0.1023E+02
     -1.514  0.4097E+00  0.1024E+02
     -1.500  0.3169E+00  0.1024E+02
     -1.487  0.2401E+00  0.1024E+02
     -1.473  0.1780E+00  0.1025E+02
     -1.460  0.1295E+00  0.1025E+02
     -1.446  0.9306E-01  0.1025E+02
     -1.432  0.6731E-01  0.1025E+02
     -1.419  0.5066E-01  0.1025E+02
     -1.405  0.4158E-01  0.1025E+02
     -1.392  0.3860E-01  0.1025E+02
     -1.378  0.4034E-01  0.1025E+02
     -1.365  0.4552E-01  0.1025E+02
     -1.351  0.5305E-01  0.1025E+02
     -1.338  0.6196E-01  0.1025E+02
     -1.324  0.7147E-01  0.1025E+02
     -1.310  0.8097E-01  0.1026E+02
     -1.297  0.9000E-01  0.1026E+02
     -1.283  0.9825E-01  0.1026E+02
     -1.270  0.1056E+00  0.1026E+02
     -1.256  0.1119E+00  0.1026E+02
     -1.243  0.1172E+00  0.1026E+02
     -1.229  0.1216E+00  0.1026E+02
     -1.216  0.1253E+00  0.1027E+02
     -1.202  0.1284E+00  0.1027E+02
     -1.188  0.1311E+00  0.1027E+02
     -1.175  0.1336E+00  0.1027E+02
     -1.161  0.1360E+00  0.1027E+02
     -1.148  0.1384E+00  0.1028E+02
     -1.134  0.1409E+00  0.1028E+02
     -1.121  0.1435E+00  0.1028E+02
     -1.107  0.1464E+00  0.1028E+02
     -1.094  0.1493E+00  0.1028E+02
     -1.080  0.1524E+00  0.1029E+02
     -1.066  0.1554E+00  0.1029E+02
     -1.053  0.1584E+00  0.1029E+02
     -1.039  0.1611E+00  0.1029E+02
     -1.026  0.1635E+00  0.1029E+02
     -1.012  0.1655E+00  0.1030E+02
     -0.999  0.1670E+00  0.1030E+02
     -0.985  0.1679E+00  0.1030E+02
     -0.972  0.1681E+00  0.1030E+02
     -0.958  0.1676E+00  0.1031E+02
     -0.945  0.1665E+00  0.1031E+02
     -0.931  0.1648E+00  0.1031E+02
     -0.917  0.1625E+00  0.1031E+02
     -0.904  0.1598E+00  0.1031E+02
     -0.890  0.1568E+00  0.1032E+02
     -0.877  0.1537E+00  0.1032E+02
     -0.863  0.1507E+00  0.1032E+02
     -0.850  0.1478E+00  0.1032E+02
     -0.836  0.1453E+00  0.1032E+02
     -0.823  0.1434E+00  0.1033E+02
     -0.809  0.1421E+00  0.1033E+02
     -0.795  0.1415E+00  0.1033E+02
     -0.782  0.1418E+00  0.1033E+02
     -0.768  0.1429E+00  0.1033E+02
     -0.755  0.1449E+00  0.1034E+02
     -0.741  0.1475E+00  0.1034E+02
     -0.728  0.1508E+00  0.1034E+02
     -0.714  0.1546E+00  0.1034E+02
     -0.701  0.1588E+00  0.1034E+02
     -0.687  0.1630E+00  0.1035E+02
     -0.673  0.1673E+00  0.1035E+02
     -0.660  0.1713E+00  0.1035E+02
     -0.646  0.1749E+00  0.1035E+02
     -0.633  0.1780E+00  0.1036E+02
     -0.619  0.1804E+00  0.1036E+02
     -0.606  0.1821E+00  0.1036E+02
     -0.592  0.1830E+00  0.1036E+02
     -0.579  0.1831E+00  0.1037E+02
     -0.565  0.1825E+00  0.1037E+02
     -0.551  0.1812E+00  0.1037E+02
     -0.538  0.1794E+00  0.1037E+02
     -0.524  0.1770E+00  0.1038E+02
     -0.511  0.1744E+00  0.1038E+02
     -0.497  0.1715E+00  0.1038E+02
     -0.484  0.1686E+00  0.1038E+02
     -0.470  0.1658E+00  0.1038E+02
     -0.457  0.1631E+00  0.1039E+02
     -0.443  0.1607E+00  0.1039E+02
     -0.429  0.1586E+00  0.1039E+02
     -0.416  0.1570E+00  0.1039E+02
     -0.402  0.1558E+00  0.1040E+02
     -0.389  0.1551E+00  0.1040E+02
     -0.375  0.1549E+00  0.1040E+02
     -0.362  0.1551E+00  0.1040E+02
     -0.348  0.1559E+00  0.1040E+02
     -0.335  0.1571E+00  0.1041E+02
     -0.321  0.1587E+00  0.1041E+02
     -0.307  0.1606E+00  0.1041E+02
     -0.294  0.1628E+00  0.1041E+02
     -0.280  0.1652E+00  0.1041E+02
     -0.267  0.1678E+00  0.1042E+02
     -0.253  0.1704E+00  0.1042E+02
     -0.240  0.1730E+00  0.1042E+02
     -0.226  0.1755E+00  0.1042E+02
     -0.213  0.1779E+00  0.1043E+02
     -0.199  0.1799E+00  0.1043E+02
     -0.186  0.1815E+00  0.1043E+02
     -0.172  0.1828E+00  0.1043E+02
     -0.158  0.1836E+00  0.1044E+02
     -0.145  0.1838E+00  0.1044E+02
     -0.131  0.1836E+00  0.1044E+02
     -0.118  0.1829E+00  0.1044E+02
     -0.104  0.1818E+00  0.1045E+02
     -0.091  0.1803E+00  0.1045E+02
     -0.077  0.1785E+00  0.1045E+02
     -0.064  0.1766E+00  0.1045E+02
     -0.050  0.1746E+00  0.1046E+02
     -0.036  0.1727E+00  0.1046E+02
     -0.023  0.1709E+00  0.1046E+02
     -0.009  0.1695E+00  0.1046E+02
      0.004  0.1685E+00  0.1046E+02
      0.018  0.1679E+00  0.1047E+02
      0.031  0.1680E+00  0.1047E+02
      0.045  0.1686E+00  0.1047E+02
      0.058  0.1698E+00  0.1047E+02
      0.072  0.1715E+00  0.1048E+02
      0.086  0.1737E+00  0.1048E+02
      0.099  0.1764E+00  0.1048E+02
      0.113  0.1793E+00  0.1048E+02
      0.126  0.1824E+00  0.1049E+02
      0.140  0.1855E+00  0.1049E+02
      0.153  0.1885E+00  0.1049E+02
      0.167  0.1913E+00  0.1049E+02
      0.180  0.1938E+00  0.1050E+02
      0.194  0.1958E+00  0.1050E+02
      0.208  0.1972E+00  0.1050E+02
      0.221  0.1981E+00  0.1050E+02
      0.235  0.1984E+00  0.1051E+02
      0.248  0.1980E+00  0.1051E+02
      0.262  0.1971E+00  0.1051E+02
      0.275  0.1957E+00  0.1052E+02
      0.289  0.1939E+00  0.1052E+02
      0.302  0.1917E+00  0.1052E+02
      0.316  0.1893E+00  0.1052E+02
      0.330  0.1867E+00  0.1053E+02
      0.343  0.1841E+00  0.1053E+02
      0.357  0.1816E+00  0.1053E+02
      0.370  0.1793E+00  0.1053E+02
      0.384  0.1771E+00  0.1054E+02
      0.397  0.1753E+00  0.1054E+02
      0.411  0.1738E+00  0.1054E+02
      0.424  0.1726E+00  0.1054E+02
      0.438  0.1719E+00  0.1054E+02
      0.451  0.1715E+00  0.1055E+02
      0.465  0.1715E+00  0.1055E+02
      0.479  0.1719E+00  0.1055E+02
      0.492  0.1727E+00  0.1055E+02
      0.506  0.1739E+00  0.1056E+02
      0.519  0.1754E+00  0.1056E+02
      0.533  0.1773E+00  0.1056E+02
      0.546  0.1794E+00  0.1056E+02
      0.560  0.1819E+00  0.1057E+02
      0.573  0.1846E+00  0.1057E+02
      0.587  0.1875E+00  0.1057E+02
      0.601  0.1906E+00  0.1057E+02
      0.614  0.1937E+00  0.1058E+02
      0.628  0.1969E+00  0.1058E+02
      0.641  0.2001E+00  0.1058E+02
      0.655  0.2031E+00  0.1058E+02
      0.668  0.2058E+00  0.1059E+02
      0.682  0.2083E+00  0.1059E+02
      0.695  0.2104E+00  0.1059E+02
      0.709  0.2120E+00  0.1060E+02
      0.723  0.2131E+00  0.1060E+02
      0.736  0.2136E+00  0.1060E+02
      0.750  0.2136E+00  0.1060E+02
      0.763  0.2130E+00  0.1061E+02
      0.777  0.2119E+00  0.1061E+02
      0.790  0.2103E+00  0.1061E+02
      0.804  0.2082E+00  0.1062E+02
      0.817  0.2059E+00  0.1062E+02
      0.831  0.2032E+00  0.1062E+02
      0.845  0.2005E+00  0.1062E+02
      0.858  0.1978E+00  0.1063E+02
      0.872  0.1951E+00  0.1063E+02
      0.885  0.1927E+00  0.1063E+02
      0.899  0.1905E+00  0.1063E+02
      0.912  0.1887E+00  0.1064E+02
      0.926  0.1874E+00  0.1064E+02
      0.939  0.1865E+00  0.1064E+02
      0.953  0.1861E+00  0.1064E+02
      0.967  0.1862E+00  0.1065E+02
      0.980  0.1868E+00  0.1065E+02
      0.994  0.1878E+00  0.1065E+02
      1.007  0.1893E+00  0.1065E+02
      1.021  0.1910E+00  0.1066E+02
      1.034  0.1929E+00  0.1066E+02
      1.048  0.1950E+00  0.1066E+02
      1.061  0.1971E+00  0.1067E+02
      1.075  0.1992E+00  0.1067E+02
      1.088  0.2012E+00  0.1067E+02
      1.102  0.2031E+00  0.1067E+02
      1.116  0.2047E+00  0.1068E+02
      1.129  0.2060E+00  0.1068E+02
      1.143  0.2071E+00  0.1068E+02
      1.156  0.2079E+00  0.1068E+02
      1.170  0.2085E+00  0.1069E+02
      1.183  0.2088E+00  0.1069E+02
      1.197  0.2090E+00  0.1069E+02
      1.210  0.2090E+00  0.1070E+02
      1.224  0.2089E+00  0.1070E+02
      1.238  0.2087E+00  0.1070E+02
      1.251  0.2086E+00  0.1070E+02
      1.265  0.2084E+00  0.1071E+02
      1.278  0.2083E+00  0.1071E+02
      1.292  0.2082E+00  0.1071E+02
      1.305  0.2082E+00  0.1072E+02
      1.319  0.2082E+00  0.1072E+02
      1.332  0.2082E+00  0.1072E+02
      1.346  0.2083E+00  0.1072E+02
      1.360  0.2084E+00  0.1073E+02
      1.373  0.2085E+00  0.1073E+02
      1.387  0.2087E+00  0.1073E+02
      1.400  0.2088E+00  0.1074E+02
      1.414  0.2090E+00  0.1074E+02
      1.427  0.2092E+00  0.1074E+02
      1.441  0.2095E+00  0.1074E+02
      1.454  0.2098E+00  0.1075E+02
      1.468  0.2103E+00  0.1075E+02
      1.482  0.2108E+00  0.1075E+02
      1.495  0.2115E+00  0.1076E+02
      1.509  0.2123E+00  0.1076E+02
      1.522  0.2132E+00  0.1076E+02
      1.536  0.2143E+00  0.1076E+02
      1.549  0.2154E+00  0.1077E+02
      1.563  0.2167E+00  0.1077E+02
      1.576  0.2179E+00  0.1077E+02
      1.590  0.2193E+00  0.1078E+02
      1.604  0.2206E+00  0.1078E+02
      1.617  0.2218E+00  0.1078E+02
      1.631  0.2230E+00  0.1078E+02
      1.644  0.2241E+00  0.1079E+02
      1.658  0.2251E+00  0.1079E+02
      1.671  0.2259E+00  0.1079E+02
      1.685  0.2265E+00  0.1080E+02
      1.698  0.2269E+00  0.1080E+02
      1.712  0.2271E+00  0.1080E+02
      1.726  0.2270E+00  0.1081E+02
      1.739  0.2266E+00  0.1081E+02
      1.753  0.2260E+00  0.1081E+02
      1.766  0.2251E+00  0.1082E+02
      1.780  0.2239E+00  0.1082E+02
      1.793  0.2224E+00  0.1082E+02
      1.807  0.2207E+00  0.1082E+02
      1.820  0.2189E+00  0.1083E+02
      1.834  0.2169E+00  0.1083E+02
      1.847  0.2148E+00  0.1083E+02
      1.861  0.2127E+00  0.1084E+02
      1.875  0.2107E+00  0.1084E+02
      1.888  0.2088E+00  0.1084E+02
      1.902  0.2072E+00  0.1084E+02
      1.915  0.2058E+00  0.1085E+02
      1.929  0.2049E+00  0.1085E+02
      1.942  0.2044E+00  0.1085E+02
      1.956  0.2043E+00  0.1086E+02
      1.969  0.2048E+00  0.1086E+02
      1.983  0.2058E+00  0.1086E+02
      1.997  0.2072E+00  0.1086E+02
      2.010  0.2092E+00  0.1087E+02
      2.024  0.2116E+00  0.1087E+02
      2.037  0.2143E+00  0.1087E+02
      2.051  0.2173E+00  0.1088E+02
      2.064  0.2205E+00  0.1088E+02
      2.078  0.2238E+00  0.1088E+02
      2.091  0.2272E+00  0.1088E+02
      2.105  0.2306E+00  0.1089E+02
      2.119  0.2338E+00  0.1089E+02
      2.132  0.2369E+00  0.1089E+02
      2.146  0.2397E+00  0.1090E+02
      2.159  0.2423E+00  0.1090E+02
      2.173  0.2445E+00  0.1090E+02
      2.186  0.2464E+00  0.1091E+02
      2.200  0.2479E+00  0.1091E+02
      2.213  0.2490E+00  0.1091E+02
      2.227  0.2497E+00  0.1092E+02
      2.241  0.2499E+00  0.1092E+02
      2.254  0.2498E+00  0.1092E+02
      2.268  0.2492E+00  0.1093E+02
      2.281  0.2483E+00  0.1093E+02
      2.295  0.2470E+00  0.1093E+02
      2.308  0.2455E+00  0.1094E+02
      2.322  0.2436E+00  0.1094E+02
      2.335  0.2415E+00  0.1094E+02
      2.349  0.2393E+00  0.1095E+02
      2.363  0.2369E+00  0.1095E+02
      2.376  0.2346E+00  0.1095E+02
      2.390  0.2324E+00  0.1096E+02
      2.403  0.2303E+00  0.1096E+02
      2.417  0.2285E+00  0.1096E+02
      2.430  0.2269E+00  0.1097E+02
      2.444  0.2257E+00  0.1097E+02
      2.457  0.2249E+00  0.1097E+02
      2.471  0.2245E+00  0.1098E+02
      2.484  0.2245E+00  0.1098E+02
      2.498  0.2249E+00  0.1098E+02
      2.512  0.2256E+00  0.1098E+02
      2.525  0.2266E+00  0.1099E+02
      2.539  0.2278E+00  0.1099E+02
      2.552  0.2292E+00  0.1099E+02
      2.566  0.2306E+00  0.1100E+02
      2.579  0.2321E+00  0.1100E+02
      2.593  0.2335E+00  0.1100E+02
      2.606  0.2348E+00  0.1101E+02
      2.620  0.2360E+00  0.1101E+02
      2.634  0.2371E+00  0.1101E+02
      2.647  0.2381E+00  0.1102E+02
      2.661  0.2390E+00  0.1102E+02
      2.674  0.2397E+00  0.1102E+02
      2.688  0.2405E+00  0.1103E+02
      2.701  0.2413E+00  0.1103E+02
      2.715  0.2421E+00  0.1103E+02
      2.728  0.2430E+00  0.1104E+02
      2.742  0.2439E+00  0.1104E+02
      2.756  0.2449E+00  0.1104E+02
      2.769  0.2460E+00  0.1105E+02
      2.783  0.2472E+00  0.1105E+02
      2.796  0.2483E+00  0.1105E+02
      2.810  0.2493E+00  0.1106E+02
      2.823  0.2503E+00  0.1106E+02
      2.837  0.2511E+00  0.1106E+02
      2.850  0.2516E+00  0.1107E+02
      2.864  0.2520E+00  0.1107E+02
      2.878  0.2520E+00  0.1107E+02
      2.891  0.2517E+00  0.1108E+02
      2.905  0.2512E+00  0.1108E+02
      2.918  0.2504E+00  0.1108E+02
      2.932  0.2495E+00  0.1109E+02
      2.945  0.2483E+00  0.1109E+02
      2.959  0.2472E+00  0.1109E+02
      2.972  0.2460E+00  0.1110E+02
      2.986  0.2449E+00  0.1110E+02
      3.000  0.2441E+00  0.1110E+02
      3.013  0.2435E+00  0.1111E+02
      3.027  0.2432E+00  0.1111E+02
      3.040  0.2434E+00  0.1111E+02
      3.054  0.2439E+00  0.1112E+02
      3.067  0.2450E+00  0.1112E+02
      3.081  0.2464E+00  0.1112E+02
      3.094  0.2483E+00  0.1113E+02
      3.108  0.2506E+00  0.1113E+02
      3.121  0.2532E+00  0.1113E+02
      3.135  0.2561E+00  0.1114E+02
      3.149  0.2591E+00  0.1114E+02
      3.162  0.2621E+00  0.1114E+02
      3.176  0.2652E+00  0.1115E+02
      3.189  0.2680E+00  0.1115E+02
      3.203  0.2707E+00  0.1115E+02
      3.216  0.2730E+00  0.1116E+02
      3.230  0.2749E+00  0.1116E+02
      3.243  0.2763E+00  0.1117E+02
      3.257  0.2772E+00  0.1117E+02
      3.271  0.2775E+00  0.1117E+02
      3.284  0.2772E+00  0.1118E+02
      3.298  0.2764E+00  0.1118E+02
      3.311  0.2750E+00  0.1118E+02
      3.325  0.2731E+00  0.1119E+02
      3.338  0.2708E+00  0.1119E+02
      3.352  0.2681E+00  0.1120E+02
      3.365  0.2651E+00  0.1120E+02
      3.379  0.2619E+00  0.1120E+02
      3.393  0.2587E+00  0.1121E+02
      3.406  0.2554E+00  0.1121E+02
      3.420  0.2523E+00  0.1121E+02
      3.433  0.2495E+00  0.1122E+02
      3.447  0.2469E+00  0.1122E+02
      3.460  0.2449E+00  0.1122E+02
      3.474  0.2433E+00  0.1123E+02
      3.487  0.2423E+00  0.1123E+02
      3.501  0.2420E+00  0.1123E+02
      3.515  0.2424E+00  0.1124E+02
      3.528  0.2435E+00  0.1124E+02
      3.542  0.2452E+00  0.1124E+02
      3.555  0.2476E+00  0.1125E+02
      3.569  0.2506E+00  0.1125E+02
      3.582  0.2540E+00  0.1125E+02
      3.596  0.2579E+00  0.1126E+02
      3.609  0.2620E+00  0.1126E+02
      3.623  0.2663E+00  0.1126E+02
      3.637  0.2705E+00  0.1127E+02
      3.650  0.2746E+00  0.1127E+02
      3.664  0.2785E+00  0.1128E+02
      3.677  0.2819E+00  0.1128E+02
      3.691  0.2848E+00  0.1128E+02
      3.704  0.2872E+00  0.1129E+02
      3.718  0.2890E+00  0.1129E+02
      3.731  0.2902E+00  0.1129E+02
      3.745  0.2908E+00  0.1130E+02
      3.759  0.2909E+00  0.1130E+02
      3.772  0.2905E+00  0.1131E+02
      3.786  0.2898E+00  0.1131E+02
      3.799  0.2889E+00  0.1131E+02
      3.813  0.2879E+00  0.1132E+02
      3.826  0.2868E+00  0.1132E+02
      3.840  0.2859E+00  0.1133E+02
      3.853  0.2851E+00  0.1133E+02
      3.867  0.2845E+00  0.1133E+02
      3.880  0.2842E+00  0.1134E+02
      3.894  0.2840E+00  0.1134E+02
      3.908  0.2840E+00  0.1135E+02
      3.921  0.2841E+00  0.1135E+02
      3.935  0.2842E+00  0.1135E+02
      3.948  0.2843E+00  0.1136E+02
      3.962  0.2841E+00  0.1136E+02
      3.975  0.2837E+00  0.1136E+02
      3.989  0.2829E+00  0.1137E+02
      4.002  0.2818E+00  0.1137E+02
      4.016  0.2803E+00  0.1138E+02
      4.030  0.2785E+00  0.1138E+02
      4.043  0.2763E+00  0.1138E+02
      4.057  0.2738E+00  0.1139E+02
      4.070  0.2712E+00  0.1139E+02
      4.084  0.2687E+00  0.1139E+02
      4.097  0.2662E+00  0.1140E+02
      4.111  0.2640E+00  0.1140E+02
      4.124  0.2621E+00  0.1141E+02
      4.138  0.2608E+00  0.1141E+02
      4.152  0.2600E+00  0.1141E+02
      4.165  0.2598E+00  0.1142E+02
      4.179  0.2603E+00  0.1142E+02
      4.192  0.2613E+00  0.1142E+02
      4.206  0.2630E+00  0.1143E+02
      4.219  0.2651E+00  0.1143E+02
      4.233  0.2675E+00  0.1143E+02
      4.246  0.2702E+00  0.1144E+02
      4.260  0.2730E+00  0.1144E+02
      4.274  0.2757E+00  0.1144E+02
      4.287  0.2783E+00  0.1145E+02
      4.301  0.2805E+00  0.1145E+02
      4.314  0.2823E+00  0.1146E+02
      4.328  0.2836E+00  0.1146E+02
      4.341  0.2844E+00  0.1146E+02
      4.355  0.2846E+00  0.1147E+02
      4.368  0.2844E+00  0.1147E+02
      4.382  0.2838E+00  0.1148E+02
      4.396  0.2830E+00  0.1148E+02
      4.409  0.2819E+00  0.1148E+02
      4.423  0.2809E+00  0.1149E+02
      4.436  0.2800E+00  0.1149E+02
      4.450  0.2794E+00  0.1149E+02
      4.463  0.2792E+00  0.1150E+02
      4.477  0.2796E+00  0.1150E+02
      4.490  0.2806E+00  0.1151E+02
      4.504  0.2824E+00  0.1151E+02
      4.517  0.2849E+00  0.1151E+02
      4.531  0.2882E+00  0.1152E+02
      4.545  0.2922E+00  0.1152E+02
      4.558  0.2968E+00  0.1153E+02
      4.572  0.3019E+00  0.1153E+02
      4.585  0.3075E+00  0.1153E+02
      4.599  0.3134E+00  0.1154E+02
      4.612  0.3194E+00  0.1154E+02
      4.626  0.3253E+00  0.1155E+02