    1    1    1    1
  0.1987675E+02  0.3040559E-09  0.3040559E-09  0.3040559E-09  0.5000000E-15
  1.000000000000000E-004
  CAR 
 FCC Au                                  
     11    770     12
 
  0.2500000E-01  0.2500000E-01  0.2500000E-01  0.2500000E-03
    1       -4.555590   1.000000
    2       -3.381015   1.000000
    3       -3.373498   1.000000
    4       -3.373498   1.000000
    5       -2.514265   1.000000
    6       -2.514265   1.000000
    7       19.326992   0.000000
    8       21.848719   0.000000
    9       22.052125   0.000000
   10       22.052125   0.000000
   11       26.659014   0.000000
   12       28.062157   0.000000
 
  0.7500000E-01  0.2500000E-01  0.2500000E-01  0.7500000E-03
    1       -4.456895   1.000000
    2       -3.397433   1.000000
    3       -3.351390   1.000000
    4       -3.339246   1.000000
    5       -2.533688   1.000000
    6       -2.508876   1.000000
    7       19.338642   0.000000
    8       21.076998   0.000000
    9       21.823785   0.000000
   10       22.230726   0.000000
   11       26.729649   0.000000
   12       27.872307   0.000000
 
  0.1250000E+00  0.2500000E-01  0.2500000E-01  0.7500000E-03
    1       -4.236033   1.000000
    2       -3.402143   1.000000
    3       -3.296137   1.000000
    4       -3.273549   1.000000
    5       -2.550601   1.000000
    6       -2.499806   1.000000
    7       18.873499   0.000000
    8       20.024700   0.000000
    9       21.732180   0.000000
   10       22.427161   0.000000
   11       25.895225   0.000000
   12       27.522973   0.000000
 
  0.1750000E+00  0.2500000E-01  0.2500000E-01  0.7500000E-03
    1       -4.018203   1.000000
    2       -3.297530   1.000000
    3       -3.228764   1.000000
    4       -3.173918   1.000000
    5       -2.554814   1.000000
    6       -2.469003   1.000000
    7       17.162438   0.000000
    8       19.938042   0.000000
    9       21.646174   0.000000
   10       22.569991   0.000000
   11       25.054632   0.000000
   12       26.735137   0.000000
 
  0.2250000E+00  0.2500000E-01  0.2500000E-01  0.7500000E-03
    1       -3.983725   1.000000
    2       -3.196890   1.000000
    3       -3.185553   1.000000
    4       -2.787733   1.000000
    5       -2.509513   1.000000
    6       -2.376164   1.000000
    7       15.163017   0.000000
    8       19.916364   0.000000
    9       21.457844   0.000000
   10       22.530361   0.000000
   11       24.610360   0.000000
   12       26.008850   0.000000
 
  0.2750000E+00  0.2500000E-01  0.2500000E-01  0.7500000E-03
    1       -4.061762   1.000000
    2       -3.195010   1.000000
    3       -3.188989   1.000000
    4       -2.398001   1.000000
    5       -2.362665   1.000000
    6       -1.935839   1.000000
    7       13.123012   0.000000
    8       19.743812   0.000000
    9       21.095403   0.000000
   10       22.183053   0.000000
   11       24.672915   0.000000
   12       25.602804   0.000000
 
  0.3250000E+00  0.2500000E-01  0.2500000E-01  0.7500000E-03
    1       -4.168828   1.000000
    2       -3.232261   1.000000
    3       -3.229102   1.000000
    4       -2.239890   1.000000
    5       -2.174220   1.000000
    6       -1.023013   1.000000
    7       11.104055   0.000000
    8       19.458405   0.000000
    9       20.627048   0.000000
   10       21.581740   0.000000
   11       25.073846   0.000000
   12       25.509889   0.000000
 
  0.3750000E+00  0.2500000E-01  0.2500000E-01  0.7500000E-03
    1       -4.270159   1.000000
    2       -3.281858   1.000000
    3       -3.279108   1.000000
    4       -2.070215   1.000000
    5       -2.012078   1.000000
    6        0.087116   1.000000
    7        9.146851   0.000000
    8       19.155198   0.000000
    9       20.178486   0.000000
   10       20.924742   0.000000
   11       25.518159   0.000000
   12       25.567913   0.000000
 
  0.4250000E+00  0.2500000E-01  0.2500000E-01  0.7500000E-03
    1       -4.352131   1.000000
    2       -3.326980   1.000000
    3       -3.322628   1.000000
    4       -1.926219   1.000000
    5       -1.887354   1.000000
    6        1.352654   1.000000
    7        7.279901  -0.000000
    8       18.907351   0.000000
    9       19.840295   0.000000
   10       20.357350   0.000000
   11       25.658185   0.000000
   12       25.764323   0.000000
 
  0.4750000E+00  0.2500000E-01  0.2500000E-01  0.7500000E-03
    1       -4.404806   1.000000
    2       -3.357126   1.000000
    3       -3.348334   1.000000
    4       -1.827478   1.000000
    5       -1.812411   1.000000
    6        2.745576   0.000235
    7        5.538932  -0.000000
    8       18.756931   0.000000
    9       19.673452   0.000000
   10       19.959002   0.000000
   11       25.745439   0.000000
   12       25.824246   0.000000
 
 -0.4750000E+00  0.2500000E-01  0.2500000E-01  0.7500000E-03
    1       -4.417485   1.000000
    2       -3.365325   1.000000
    3       -3.352678   1.000000
    4       -1.802057   1.000000
    5       -1.779538   1.000000
    6        3.620317  -0.000000
    7        4.577765  -0.000000
    8       18.722146   0.000000
    9       19.713259   0.000000
   10       19.766153   0.000000
   11       25.805196   0.000000
   12       25.821966   0.000000
 
 -0.4250000E+00  0.2500000E-01  0.2500000E-01  0.7500000E-03
    1       -4.392494   1.000000
    2       -3.353896   1.000000
    3       -3.336781   1.000000
    4       -1.870521   1.000000
    5       -1.813843   1.000000
    6        2.270620   1.026115
    7        6.099813  -0.000000
    8       18.807178   0.000000
    9       19.784269   0.000000
   10       19.969194   0.000000
   11       25.751858   0.000000
   12       25.832497   0.000000
 
 -0.3750000E+00  0.2500000E-01  0.2500000E-01  0.7500000E-03
    1       -4.326953   1.000000
    2       -3.320765   1.000000
    3       -3.301544   1.000000
    4       -1.989210   1.000000
    5       -1.901722   1.000000
    6        0.914941   1.000000
    7        7.890639  -0.000000
    8       19.006159   0.000000
    9       19.992124   0.000000
   10       20.426644   0.000000
   11       25.620762   0.000000
   12       25.859606   0.000000
 
 -0.3250000E+00  0.2500000E-01  0.2500000E-01  0.7500000E-03
    1       -4.238843   1.000000
    2       -3.273279   1.000000
    3       -3.253952   1.000000
    4       -2.149820   1.000000
    5       -2.038278   1.000000
    6       -0.302849   1.000000
    7        9.789993   0.000000
    8       19.294045   0.000000
    9       20.341847   0.000000
   10       21.037972   0.000000
   11       25.339269   0.000000
   12       25.906806   0.000000
 
 -0.2750000E+00  0.2500000E-01  0.2500000E-01  0.7500000E-03
    1       -4.132927   1.000000
    2       -3.223809   1.000000
    3       -3.206249   1.000000
    4       -2.329576   1.000000
    5       -2.194446   1.000000
    6       -1.357449   1.000000
    7       11.772070   0.000000
    8       19.617949   0.000000
    9       20.759576   0.000000
   10       21.721161   0.000000
   11       24.883768   0.000000
   12       25.884017   0.000000
 
 -0.2250000E+00  0.2500000E-01  0.2500000E-01  0.7500000E-03
    1       -4.032330   1.000000
    2       -3.194732   1.000000
    3       -3.176639   1.000000
    4       -2.525967   1.000000
    5       -2.338772   1.000000
    6       -2.197284   1.000000
    7       13.800438   0.000000
    8       19.882856   0.000000
    9       21.158425   0.000000
   10       22.316176   0.000000
   11       24.531564   0.000000
   12       26.033373   0.000000
 
 -0.1750000E+00  0.2500000E-01  0.2500000E-01  0.7500000E-03
    1       -3.976150   1.000000
    2       -3.217395   1.000000
    3       -3.185811   1.000000
    4       -2.965832   1.000000
    5       -2.509997   1.000000
    6       -2.438719   1.000000
    7       15.840005   0.000000
    8       19.994307   0.000000
    9       21.467887   0.000000
   10       22.575832   0.000000
   11       24.652951   0.000000
   12       26.480525   0.000000
 
 -0.1250000E+00  0.2500000E-01  0.2500000E-01  0.7500000E-03
    1       -4.075721   1.000000
    2       -3.356662   1.000000
    3       -3.238919   1.000000
    4       -3.224565   1.000000
    5       -2.553568   1.000000
    6       -2.487344   1.000000
    7       17.794382   0.000000
    8       19.966869   0.000000
    9       21.663498   0.000000
   10       22.481878   0.000000
   11       25.325859   0.000000
   12       27.091547   0.000000
 
 -0.7500000E-01  0.2500000E-01  0.2500000E-01  0.7500000E-03
    1       -4.318617   1.000000
    2       -3.408564   1.000000
    3       -3.307366   1.000000
    4       -3.304414   1.000000
    5       -2.544983   1.000000
    6       -2.504921   1.000000
    7       19.187155   0.000000
    8       20.286330   0.000000
    9       21.795220   0.000000
   10       22.268082   0.000000
   11       26.278471   0.000000
   12       27.608992   0.000000
 
 -0.2500000E-01  0.2500000E-01  0.2500000E-01  0.7500000E-03
    1       -4.505540   1.000000
    2       -3.394611   1.000000
    3       -3.357436   1.000000
    4       -3.356266   1.000000
    5       -2.529973   1.000000
    6       -2.506089   1.000000
    7       19.341454   0.000000
    8       21.519245   0.000000
    9       21.910949   0.000000
   10       22.054039   0.000000
   11       26.878981   0.000000
   12       27.882721   0.000000
 
  0.7500000E-01  0.7500000E-01  0.2500000E-01  0.7500000E-03
    1       -4.406873   1.000000
    2       -3.424385   1.000000
    3       -3.321972   1.000000
    4       -3.321935   1.000000
    5       -2.557154   1.000000
    6       -2.489909   1.000000
    7       19.368193   0.000000
    8       21.092430   0.000000
    9       21.631329   0.000000
   10       21.889397   0.000000
   11       27.030751   0.000000
   12       27.667130   0.000000
 
  0.1250000E+00  0.7500000E-01  0.2500000E-01  0.1500000E-02
    1       -4.222358   1.000000
    2       -3.459691   1.000000
    3       -3.270628   1.000000
    4       -3.250143   1.000000
    5       -2.587897   1.000000
    6       -2.469658   1.000000
    7       19.273927   0.000000
    8       20.072907   0.000000
    9       21.256069   0.000000
   10       22.130230   0.000000
   11       26.119921   0.000000
   12       27.583047   0.000000
 
  0.1750000E+00  0.7500000E-01  0.2500000E-01  0.1500000E-02
    1       -3.981951   1.000000
    2       -3.452771   1.000000
    3       -3.199061   1.000000
    4       -3.149527   1.000000
    5       -2.600416   1.000000
    6       -2.429623   1.000000
    7       17.879447   0.000000
    8       19.682109   0.000000
    9       21.044166   0.000000
   10       22.625363   0.000000
   11       24.850968   0.000000
   12       27.122788   0.000000
 
  0.2250000E+00  0.7500000E-01  0.2500000E-01  0.1500000E-02
    1       -3.900230   1.000000
    2       -3.297711   1.000000
    3       -3.141323   1.000000
    4       -2.996014   1.000000
    5       -2.507720   1.000000
    6       -2.328082   1.000000
    7       15.911473   0.000000
    8       19.590623   0.000000
    9       20.843604   0.000000
   10       23.214189   0.000000
   11       23.725709   0.000000
   12       26.538686   0.000000
 
  0.2750000E+00  0.7500000E-01  0.2500000E-01  0.1500000E-02
    1       -3.971870   1.000000
    2       -3.214997   1.000000
    3       -3.129410   1.000000
    4       -2.765968   1.000000
    5       -2.317154   1.000000
    6       -1.941419   1.000000
    7       13.871187   0.000000
    8       19.412227   0.000000
    9       20.543020   0.000000
   10       22.656024   0.000000
   11       23.985099   0.000000
   12       26.135168   0.000000
 
  0.3250000E+00  0.7500000E-01  0.2500000E-01  0.1500000E-02
    1       -4.079349   1.000000
    2       -3.240211   1.000000
    3       -3.157982   1.000000
    4       -2.542105   1.000000
    5       -2.152900   1.000000
    6       -1.153074   1.000000
    7       11.843045   0.000000
    8       19.178021   0.000000
    9       20.138412   0.000000
   10       21.727724   0.000000
   11       24.762710   0.000000
   12       25.960165   0.000000
 
  0.3750000E+00  0.7500000E-01  0.2500000E-01  0.1500000E-02
    1       -4.186040   1.000000
    2       -3.291984   1.000000
    3       -3.204207   1.000000
    4       -2.326078   1.000000
    5       -1.997903   1.000000
    6       -0.128491   1.000000
    7        9.865593   0.000000
    8       18.947723   0.000000
    9       19.714541   0.000000
   10       20.886258   0.000000
   11       25.488235   0.000000
   12       25.933803   0.000000
 
  0.4250000E+00  0.7500000E-01  0.2500000E-01  0.1500000E-02
    1       -4.274250   1.000000
    2       -3.342968   1.000000
    3       -3.251485   1.000000
    4       -2.136276   1.000000
    5       -1.874556   1.000000
    6        1.070396   1.000000
    7        7.971599  -0.000000
    8       18.771114   0.000000
    9       19.351996   0.000000
   10       20.189287   0.000000
   11       25.913049   0.000000
   12       26.035498   0.000000
 
  0.4750000E+00  0.7500000E-01  0.2500000E-01  0.1500000E-02
    1       -4.337889   1.000000
    2       -3.377132   1.000000
    3       -3.288205   1.000000
    4       -1.993523   1.000000
    5       -1.801687   1.000000
    6        2.418097   0.989168
    7        6.184319  -0.000000
    8       18.660656   0.000000
    9       19.092628   0.000000
   10       19.726440   0.000000
   11       25.944513   0.000000
   12       26.233831   0.000000
 
 -0.4750000E+00  0.7500000E-01  0.2500000E-01  0.1500000E-02
    1       -4.361897   1.000000
    2       -3.389681   1.000000
    3       -3.306462   1.000000
    4       -1.916129   1.000000
    5       -1.786897   1.000000
    6        3.805078  -0.000000
    7        4.623616  -0.000000
    8       18.553949   0.000000
    9       18.996501   0.000000
   10       19.600512   0.000000
   11       25.923383   0.000000
   12       26.265540   0.000000
 
 -0.4250000E+00  0.7500000E-01  0.2500000E-01  0.1500000E-02
    1       -4.348615   1.000000
    2       -3.379944   1.000000
    3       -3.301603   1.000000
    4       -1.925416   1.000000
    5       -1.825905   1.000000
    6        2.893253  -0.024029
    7        5.624680  -0.000000
    8       18.446119   0.000000
    9       19.093848   0.000000
   10       19.821672   0.000000
   11       25.859779   0.000000
   12       26.162852   0.000000
 
 -0.3750000E+00  0.7500000E-01  0.2500000E-01  0.1500000E-02
    1       -4.295423   1.000000
    2       -3.348734   1.000000
    3       -3.275373   1.000000
    4       -2.029879   1.000000
    5       -1.897732   1.000000
    6        1.505885   1.000000
    7        7.366884  -0.000000
    8       18.431328   0.000000
    9       19.345313   0.000000
   10       20.328119   0.000000
   11       25.732948   0.000000
   12       25.925617   0.000000
 
 -0.3250000E+00  0.7500000E-01  0.2500000E-01  0.1500000E-02
    1       -4.213074   1.000000
    2       -3.302247   1.000000
    3       -3.233003   1.000000
    4       -2.197428   1.000000
    5       -2.022216   1.000000
    6        0.260740   1.000000
    7        9.227517   0.000000
    8       18.527665   0.000000
    9       19.736209   0.000000
   10       21.047185   0.000000
   11       25.373750   0.000000
   12       25.673187   0.000000
 
 -0.2750000E+00  0.7500000E-01  0.2500000E-01  0.1500000E-02
    1       -4.110385   1.000000
    2       -3.252603   1.000000
    3       -3.183519   1.000000
    4       -2.395253   1.000000
    5       -2.189904   1.000000
    6       -0.815296   1.000000
    7       11.178613   0.000000
    8       18.708751   0.000000
    9       20.242423   0.000000
   10       21.901957   0.000000
   11       24.769338   0.000000
   12       25.510069   0.000000
 
 -0.2250000E+00  0.7500000E-01  0.2500000E-01  0.1500000E-02
    1       -3.998608   1.000000
    2       -3.221313   1.000000
    3       -3.143843   1.000000
    4       -2.607645   1.000000
    5       -2.381980   1.000000
    6       -1.667739   1.000000
    7       13.192333   0.000000
    8       18.932538   0.000000
    9       20.784970   0.000000
   10       22.771262   0.000000
   11       24.141777   0.000000
   12       25.477197   0.000000
 
 -0.1750000E+00  0.7500000E-01  0.2500000E-01  0.1500000E-02
    1       -3.908667   1.000000
    2       -3.259776   1.000000
    3       -3.142250   1.000000
    4       -2.872078   1.000000
    5       -2.550446   1.000000
    6       -2.183648   1.000000
    7       15.229924   0.000000
    8       19.151524   0.000000
    9       21.177957   0.000000
   10       23.412135   0.000000
   11       23.744599   0.000000
   12       25.836971   0.000000
 
 -0.1250000E+00  0.7500000E-01  0.2500000E-01  0.1500000E-02
    1       -3.926130   1.000000
    2       -3.411369   1.000000
    3       -3.193912   1.000000
    4       -3.093599   1.000000
    5       -2.608957   1.000000
    6       -2.387485   1.000000
    7       17.232743   0.000000
    8       19.329502   0.000000
    9       21.275478   0.000000
   10       23.118580   0.000000
   11       24.414355   0.000000
   12       26.686503   0.000000
 
 -0.7500000E-01  0.7500000E-01  0.2500000E-01  0.1500000E-02
    1       -4.143592   1.000000
    2       -3.454026   1.000000
    3       -3.266755   1.000000
    4       -3.214002   1.000000
    5       -2.589388   1.000000
    6       -2.461984   1.000000
    7       18.976353   0.000000
    8       19.538303   0.000000
    9       21.284719   0.000000
   10       22.684253   0.000000
   11       25.454900   0.000000
   12       27.706200   0.000000
 
 -0.2500000E-01  0.7500000E-01  0.2500000E-01  0.1500000E-02
    1       -4.361210   1.000000
    2       -3.419158   1.000000
    3       -3.321546   1.000000
    4       -3.303376   1.000000
    5       -2.554124   1.000000
    6       -2.494898   1.000000
    7       19.326537   0.000000
    8       20.572722   0.000000
    9       21.590638   0.000000
   10       22.274611   0.000000
   11       26.484504   0.000000
   12       27.713160   0.000000
 
  0.1250000E+00  0.1250000E+00  0.2500000E-01  0.7500000E-03
    1       -4.081752   1.000000
    2       -3.522183   1.000000
    3       -3.199755   1.000000
    4       -3.199753   1.000000
    5       -2.632822   1.000000
    6       -2.434981   1.000000
    7       19.423274   0.000000
    8       20.157946   0.000000
    9       20.715693   0.000000
   10       21.193296   0.000000
   11       25.632359   0.000000
   12       27.551535   0.000000
 
  0.1750000E+00  0.1250000E+00  0.2500000E-01  0.1500000E-02
    1       -3.856702   1.000000
    2       -3.577548   1.000000
    3       -3.121003   1.000000
    4       -3.108951   1.000000
    5       -2.633673   1.000000
    6       -2.389815   1.000000
    7       18.694223   0.000000
    8       19.354999   0.000000
    9       20.480531   0.000000
   10       21.459381   0.000000
   11       24.281764   0.000000
   12       27.381996   0.000000
 
  0.2250000E+00  0.1250000E+00  0.2500000E-01  0.1500000E-02
    1       -3.763793   1.000000
    2       -3.478925   1.000000
    3       -3.061031   1.000000
    4       -3.047165   1.000000
    5       -2.467757   1.000000
    6       -2.292152   1.000000
    7       16.749149   0.000000
    8       19.095637   0.000000
    9       20.320078   0.000000
   10       22.175254   0.000000
   11       23.111405   0.000000
   12       27.131142   0.000000
 
  0.2750000E+00  0.1250000E+00  0.2500000E-01  0.1500000E-02
    1       -3.852402   1.000000
    2       -3.247298   1.000000
    3       -3.085346   1.000000
    4       -3.013489   1.000000
    5       -2.265959   1.000000
    6       -1.882355   1.000000
    7       14.708051   0.000000
    8       18.790797   0.000000
    9       20.124885   0.000000
   10       21.678769   0.000000
   11       23.516820   0.000000
   12       26.890871   0.000000
 
  0.3250000E+00  0.1250000E+00  0.2500000E-01  0.1500000E-02
    1       -3.961688   1.000000
    2       -3.219796   1.000000
    3       -3.038042   1.000000
    4       -2.925445   1.000000
    5       -2.114795   1.000000
    6       -1.127815   1.000000
    7       12.669208   0.000000
    8       18.502409   0.000000
    9       19.817423   0.000000
   10       20.753897   0.000000
   11       24.671389   0.000000
   12       26.708648   0.000000
 
  0.3750000E+00  0.1250000E+00  0.2500000E-01  0.1500000E-02
    1       -4.065067   1.000000
    2       -3.294916   1.000000
    3       -3.072074   1.000000
    4       -2.693944   1.000000
    5       -1.967820   1.000000
    6       -0.163850   1.000000
    7       10.679333   0.000000
    8       18.280521   0.000000
    9       19.317876   0.000000
   10       20.062557   0.000000
   11       25.896742   0.000000
   12       26.580618   0.000000
 
  0.4250000E+00  0.1250000E+00  0.2500000E-01  0.1500000E-02
    1       -4.152062   1.000000
    2       -3.362901   1.000000
    3       -3.119104   1.000000
    4       -2.475224   1.000000
    5       -1.848579   1.000000
    6        0.972540   1.000000
    7        8.767555   0.000000
    8       18.163141   0.000000
    9       18.656260   0.000000
   10       19.658407   0.000000
   11       26.482065   0.000000
   12       26.820971   0.000000
 
  0.4750000E+00  0.1250000E+00  0.2500000E-01  0.1500000E-02
    1       -4.214277   1.000000
    2       -3.411490   1.000000
    3       -3.163259   1.000000
    4       -2.286129   1.000000
    5       -1.787017   1.000000
    6        2.264747   1.024763
    7        6.956770  -0.000000
    8       17.990107   0.000000
    9       18.213477   0.000000
   10       19.442798   0.000000
   11       26.387265   0.000000
   12       27.034504   0.000000
 
 -0.4750000E+00  0.1250000E+00  0.2500000E-01  0.1500000E-02
    1       -4.243629   1.000000
    2       -3.434888   1.000000
    3       -3.192979   1.000000
    4       -2.161307   1.000000
    5       -1.785326   1.000000
    6        3.697467  -0.000000
    7        5.268728  -0.000000
    8       17.472553   0.000000
    9       18.388905   0.000000
   10       19.396734   0.000000
   11       26.269139   0.000000
   12       26.956815   0.000000
 
 -0.4250000E+00  0.1250000E+00  0.2500000E-01  0.1500000E-02
    1       -4.236097   1.000000
    2       -3.432019   1.000000
    3       -3.202039   1.000000
    4       -2.109756   1.000000
    5       -1.849108   1.000000
    6        3.681260  -0.000000
    7        5.295629  -0.000000
    8       17.101401   0.000000
    9       18.711320   0.000000
   10       19.566075   0.000000
   11       26.091096   0.000000
   12       26.779207   0.000000
 
 -0.3750000E+00  0.1250000E+00  0.2500000E-01  0.1500000E-02
    1       -4.190210   1.000000
    2       -3.404690   1.000000
    3       -3.188854   1.000000
    4       -2.147923   1.000000
    5       -1.957372   1.000000
    6        2.266136   1.025084
    7        6.989721  -0.000000
    8       16.895987   0.000000
    9       19.109961   0.000000
   10       20.019614   0.000000
   11       25.799991   0.000000
   12       26.543568   0.000000
 
 -0.3250000E+00  0.1250000E+00  0.2500000E-01  0.1500000E-02
    1       -4.114391   1.000000
    2       -3.361105   1.000000
    3       -3.154474   1.000000
    4       -2.279844   1.000000
    5       -2.093160   1.000000
    6        1.000405   1.000000
    7        8.798939   0.000000
    8       16.848272   0.000000
    9       19.568207   0.000000
   10       20.762675   0.000000
   11       25.299855   0.000000
   12       26.283936   0.000000
 
 -0.2750000E+00  0.1250000E+00  0.2500000E-01  0.1500000E-02
    1       -4.013465   1.000000
    2       -3.312174   1.000000
    3       -3.106459   1.000000
    4       -2.475106   1.000000
    5       -2.264722   1.000000
    6       -0.097228   1.000000
    7       10.702697   0.000000
    8       16.934210   0.000000
    9       20.129357   0.000000
   10       21.710381   0.000000
   11       24.623011   0.000000
   12       25.987940   0.000000
 
 -0.2250000E+00  0.1250000E+00  0.2500000E-01  0.1500000E-02
    1       -3.896531   1.000000
    2       -3.287656   1.000000
    3       -3.058387   1.000000
    4       -2.686676   1.000000
    5       -2.459000   1.000000
    6       -1.006113   1.000000
    7       12.675123   0.000000
    8       17.125512   0.000000
    9       20.809259   0.000000
   10       22.688954   0.000000
   11       23.972161   0.000000
   12       25.612133   0.000000
 
 -0.1750000E+00  0.1250000E+00  0.2500000E-01  0.1500000E-02
    1       -3.777129   1.000000
    2       -3.349083   1.000000
    3       -3.043123   1.000000
    4       -2.870393   1.000000
    5       -2.618767   1.000000
    6       -1.696609   1.000000
    7       14.678087   0.000000
    8       17.404210   0.000000
    9       21.514588   0.000000
   10       22.866303   0.000000
   11       24.186615   0.000000
   12       25.265497   0.000000
 
 -0.1250000E+00  0.1250000E+00  0.2500000E-01  0.1500000E-02
    1       -3.707317   1.000000
    2       -3.512618   1.000000
    3       -3.102871   1.000000
    4       -2.982891   1.000000
    5       -2.668970   1.000000
    6       -2.141903   1.000000
    7       16.621797   0.000000
    8       17.787316   0.000000
    9       21.651654   0.000000
   10       23.069525   0.000000
   11       24.153571   0.000000
   12       25.886278   0.000000
 
 -0.7500000E-01  0.1250000E+00  0.2500000E-01  0.1500000E-02
    1       -3.899587   1.000000
    2       -3.492104   1.000000
    3       -3.193237   1.000000
    4       -3.095993   1.000000
    5       -2.631533   1.000000
    6       -2.372781   1.000000
    7       17.904058   0.000000
    8       18.727279   0.000000
    9       21.317049   0.000000
   10       23.193162   0.000000
   11       24.390116   0.000000
   12       26.918400   0.000000
 
 -0.2500000E-01  0.1250000E+00  0.2500000E-01  0.1500000E-02
    1       -4.119753   1.000000
    2       -3.419102   1.000000
    3       -3.256706   1.000000
    4       -3.219988   1.000000
    5       -2.575235   1.000000
    6       -2.472401   1.000000
    7       18.413229   0.000000
    8       19.846444   0.000000
    9       21.437630   0.000000
   10       22.600067   0.000000
   11       25.427508   0.000000
   12       27.305652   0.000000
 
  0.1750000E+00  0.1750000E+00  0.2500000E-01  0.7500000E-03
    1       -3.695744   1.000000
    2       -3.662166   1.000000
    3       -3.025579   1.000000
    4       -3.022505   1.000000
    5       -2.614388   1.000000
    6       -2.354012   1.000000
    7       18.903717   0.000000
    8       19.480741   0.000000
    9       19.717915   0.000000
   10       20.361620   0.000000
   11       22.981803   0.000000
   12       27.889439   0.000000
 
  0.2250000E+00  0.1750000E+00  0.2500000E-01  0.1500000E-02
    1       -3.740273   1.000000
    2       -3.551686   1.000000
    3       -2.981711   1.000000
    4       -2.917602   1.000000
    5       -2.394823   1.000000
    6       -2.268096   1.000000
    7       17.631218   0.000000
    8       18.478340   0.000000
    9       20.066986   0.000000
   10       20.725573   0.000000
   11       21.702586   0.000000
   12       27.896231   0.000000
 
  0.2750000E+00  0.1750000E+00  0.2500000E-01  0.1500000E-02
    1       -3.822644   1.000000
    2       -3.427444   1.000000
    3       -3.022414   1.000000
    4       -2.854903   1.000000
    5       -2.225299   1.000000
    6       -1.799492   1.000000
    7       15.607894   0.000000
    8       18.018260   0.000000
    9       19.938993   0.000000
   10       20.408103   0.000000
   11       22.030695   0.000000
   12       27.777903   0.000000
 
  0.3250000E+00  0.1750000E+00  0.2500000E-01  0.1500000E-02
    1       -3.911301   1.000000
    2       -3.318865   1.000000
    3       -3.059577   1.000000
    4       -2.843959   1.000000
    5       -2.088969   1.000000
    6       -1.038386   1.000000
    7       13.561445   0.000000
    8       17.645964   0.000000
    9       19.283802   0.000000
   10       19.870378   0.000000
   11       23.362544   0.000000
   12       27.620843   0.000000
 
  0.3750000E+00  0.1750000E+00  0.2500000E-01  0.1500000E-02
    1       -3.991576   1.000000
    2       -3.307587   1.000000
    3       -2.990453   1.000000
    4       -2.857431   1.000000
    5       -1.943907   1.000000
    6       -0.097435   1.000000
    7       11.564541   0.000000
    8       17.382071   0.000000
    9       18.333285   0.000000
   10       19.705720   0.000000
   11       24.847940   0.000000
   12       27.454978   0.000000
 
  0.4250000E+00  0.1750000E+00  0.2500000E-01  0.1500000E-02
    1       -4.057739   1.000000
    2       -3.367579   1.000000
    3       -2.947028   1.000000
    4       -2.776392   1.000000
    5       -1.829557   1.000000
    6        0.999322   1.000000
    7        9.645493   0.000000
    8       17.185803   0.000000
    9       17.539126   0.000000
   10       19.547891   0.000000
   11       26.422668   0.000000
   12       27.316240   0.000000
 
  0.4750000E+00  0.1750000E+00  0.2500000E-01  0.1500000E-02
    1       -4.100910   1.000000
    2       -3.426519   1.000000
    3       -2.984565   1.000000
    4       -2.611147   1.000000
    5       -1.768423   1.000000
    6        2.242720   1.019718
    7        7.829023  -0.000000
    8       16.611402   0.000000
    9       17.401275   0.000000
   10       19.429180   0.000000
   11       27.038152   0.000000
   12       27.894469   0.000000
 
 -0.4750000E+00  0.1750000E+00  0.2500000E-01  0.1500000E-02
    1       -4.112908   1.000000
    2       -3.465399   1.000000
    3       -3.021181   1.000000
    4       -2.466916   1.000000
    5       -1.774762   1.000000
    6        3.624636  -0.000000
    7        6.133519  -0.000000
    8       15.987914   0.000000
    9       17.628739   0.000000
   10       19.395471   0.000000
   11       26.854344   0.000000