       N       E                     dE             d eps       ncg     rms          rms(c)
DAV:   1    -0.800385553564E+01   -0.80039E+01   -0.20052E-07 14144   0.356E-03
DAV:   2    -0.800385553980E+01   -0.41538E-08   -0.42682E-08 11980   0.171E-03
   1 F= -.80038555E+01 E0= -.80038695E+01  d E =0.419661E-04
