 vasp.5.4.4.18Apr17-6-g9f103f2a35 (build Jul 01 2019 03:25:34) complex          
  
 executed on             LinuxIFC date 2020.07.08  01:24:08
 running on    4 total cores
 distrk:  each k-point on    4 cores,    1 groups
 distr:  one band on NCORES_PER_BAND=   1 cores,    4 groups


--------------------------------------------------------------------------------------------------------


 INCAR:
 POTCAR:   PAW Au 04Feb1998                       
 POTCAR:   PAW Au 04Feb1998                       
   VRHFIN =Au: s1d10                                                            
   LEXCH  = CA                                                                  
   EATOM  =   929.4667 eV,   68.3139 Ry                                         
                                                                                
   TITEL  = PAW Au 04Feb1998                                                    
   LULTRA =        F    use ultrasoft PP ?                                      
   IUNSCR =        1    unscreen: 0-lin 1-nonlin 2-no                           
   RPACOR =    2.330    partial core radius                                     
   POMASS =  196.966; ZVAL   =   11.000    mass and valenz                      
   RCORE  =    2.500    outmost cutoff radius                                   
   RWIGS  =    2.840; RWIGS  =    1.503    wigner-seitz radius (au A)           
   ENMAX  =  229.869; ENMIN  =  172.402 eV                                      
   RCLOC  =    1.964    cutoff for local pot                                    
   LCOR   =        T    correct aug charges                                     
   LPAW   =        T    paw PP                                                  
   EAUG   =  356.670                                                            
   DEXC   =    -.020                                                            
   RMAX   =    3.041    core radius for proj-oper                               
   RDEP   =    2.598    core radius for depl-charge                             
   QCUT   =   -4.110; QGAM   =    8.221    optimization parameters              
                                                                                
   Description                                                                  
     l     E      TYP  RCUT    TYP  RCUT                                        
     2   .000     23  2.500                                                     
     2   .000     23  2.500                                                     
     0   .000     23  2.500                                                     
     0   .000     23  2.500                                                     
     1  -.200     23  2.500                                                     
     1   .000     23  2.500                                                     
     3   .000      7   .000                                                     
  local pseudopotential read in
  partial core-charges read in
  atomic valenz-charges read in
  non local Contribution for L=           2  read in
    real space projection operators read in
  non local Contribution for L=           2  read in
    real space projection operators read in
  non local Contribution for L=           0  read in
    real space projection operators read in
  non local Contribution for L=           0  read in
    real space projection operators read in
  non local Contribution for L=           1  read in
    real space projection operators read in
  non local Contribution for L=           1  read in
    real space projection operators read in
    PAW grid and wavefunctions read in
 
   number of l-projection  operators is LMAX  =           6
   number of lm-projection operators is LMMAX =          18
 
 PAW Au 04Feb1998                       :
 energy of atom  1       EATOM= -929.4667
 kinetic energy error for atom=    0.0704 (will be added to EATOM!!)
 
 
 POSCAR: Au bulk FCC                             
  positions in direct lattice
  No initial velocities read in
 exchange correlation table for  LEXCH =        2
   RHO(1)=    0.500       N(1)  =     2000
   RHO(2)=  100.500       N(2)  =     4000
 


--------------------------------------------------------------------------------------------------------


 ion  position               nearest neighbor table
   1  0.000  0.000  0.000-
 
  LATTYP: Found a face centered cubic cell.
 ALAT       =     4.3000000000
  
  Lattice vectors:
  
 A1 = (   0.0000000000,   2.1500000000,   2.1500000000)
 A2 = (   2.1500000000,   0.0000000000,   2.1500000000)
 A3 = (   2.1500000000,   2.1500000000,   0.0000000000)


Analysis of symmetry for initial positions (statically):
=====================================================================
 Subroutine PRICEL returns:
 Original cell was already a primitive cell.
 

 Routine SETGRP: Setting up the symmetry group for a 
 face centered cubic supercell.


 Subroutine GETGRP returns: Found 48 space group operations
 (whereof 48 operations were pure point group operations)
 out of a pool of 48 trial point group operations.


The static configuration has the point symmetry O_h .


Analysis of symmetry for dynamics (positions and initial velocities):
=====================================================================
 Subroutine PRICEL returns:
 Original cell was already a primitive cell.
 

 Routine SETGRP: Setting up the symmetry group for a 
 face centered cubic supercell.


 Subroutine GETGRP returns: Found 48 space group operations
 (whereof 48 operations were pure point group operations)
 out of a pool of 48 trial point group operations.


The dynamic configuration has the point symmetry O_h .


 Subroutine INISYM returns: Found 48 space group operations
 (whereof 48 operations are pure point group operations),
 and found     1 'primitive' translations

 
 
 KPOINTS: 20x20x20                                

Automatic generation of k-mesh.
Space group operators:
 irot       det(A)        alpha          n_x          n_y          n_z        tau_x        tau_y        tau_z
    1     1.000000     0.000000     1.000000     0.000000     0.000000     0.000000     0.000000     0.000000
    2    -1.000000     0.000000     1.000000     0.000000     0.000000     0.000000     0.000000     0.000000
    3     1.000000   120.000000    -0.577350    -0.577350    -0.577350     0.000000     0.000000     0.000000
    4    -1.000000   120.000000    -0.577350    -0.577350    -0.577350     0.000000     0.000000     0.000000
    5     1.000000   120.000000     0.577350     0.577350     0.577350     0.000000     0.000000     0.000000
    6    -1.000000   120.000000     0.577350     0.577350     0.577350     0.000000     0.000000     0.000000
    7     1.000000    90.000000     0.000000     0.000000    -1.000000     0.000000     0.000000     0.000000
    8    -1.000000    90.000000     0.000000     0.000000    -1.000000     0.000000     0.000000     0.000000
    9     1.000000   180.000000     0.000000     0.707107     0.707107     0.000000     0.000000     0.000000
   10    -1.000000   180.000000     0.000000     0.707107     0.707107     0.000000     0.000000     0.000000
   11     1.000000    90.000000     0.000000     1.000000     0.000000     0.000000     0.000000     0.000000
   12    -1.000000    90.000000     0.000000     1.000000     0.000000     0.000000     0.000000     0.000000
   13     1.000000   180.000000     0.000000     0.000000     1.000000     0.000000     0.000000     0.000000
   14    -1.000000   180.000000     0.000000     0.000000     1.000000     0.000000     0.000000     0.000000
   15     1.000000   120.000000    -0.577350     0.577350     0.577350     0.000000     0.000000     0.000000
   16    -1.000000   120.000000    -0.577350     0.577350     0.577350     0.000000     0.000000     0.000000
   17     1.000000   120.000000    -0.577350     0.577350    -0.577350     0.000000     0.000000     0.000000
   18    -1.000000   120.000000    -0.577350     0.577350    -0.577350     0.000000     0.000000     0.000000
   19     1.000000    90.000000     0.000000     0.000000     1.000000     0.000000     0.000000     0.000000
   20    -1.000000    90.000000     0.000000     0.000000     1.000000     0.000000     0.000000     0.000000
   21     1.000000    90.000000    -1.000000     0.000000     0.000000     0.000000     0.000000     0.000000
   22    -1.000000    90.000000    -1.000000     0.000000     0.000000     0.000000     0.000000     0.000000
   23     1.000000   180.000000     0.707107     0.000000     0.707107     0.000000     0.000000     0.000000
   24    -1.000000   180.000000     0.707107     0.000000     0.707107     0.000000     0.000000     0.000000
   25     1.000000   120.000000     0.577350    -0.577350     0.577350     0.000000     0.000000     0.000000
   26    -1.000000   120.000000     0.577350    -0.577350     0.577350     0.000000     0.000000     0.000000
   27     1.000000   120.000000    -0.577350    -0.577350     0.577350     0.000000     0.000000     0.000000
   28    -1.000000   120.000000    -0.577350    -0.577350     0.577350     0.000000     0.000000     0.000000
   29     1.000000   180.000000     1.000000     0.000000     0.000000     0.000000     0.000000     0.000000
   30    -1.000000   180.000000     1.000000     0.000000     0.000000     0.000000     0.000000     0.000000
   31     1.000000    90.000000     0.000000    -1.000000     0.000000     0.000000     0.000000     0.000000
   32    -1.000000    90.000000     0.000000    -1.000000     0.000000     0.000000     0.000000     0.000000
   33     1.000000   180.000000     0.707107     0.707107     0.000000     0.000000     0.000000     0.000000
   34    -1.000000   180.000000     0.707107     0.707107     0.000000     0.000000     0.000000     0.000000
   35     1.000000    90.000000     1.000000     0.000000     0.000000     0.000000     0.000000     0.000000
   36    -1.000000    90.000000     1.000000     0.000000     0.000000     0.000000     0.000000     0.000000
   37     1.000000   120.000000     0.577350    -0.577350    -0.577350     0.000000     0.000000     0.000000
   38    -1.000000   120.000000     0.577350    -0.577350    -0.577350     0.000000     0.000000     0.000000
   39     1.000000   180.000000     0.000000     1.000000     0.000000     0.000000     0.000000     0.000000
   40    -1.000000   180.000000     0.000000     1.000000     0.000000     0.000000     0.000000     0.000000
   41     1.000000   120.000000     0.577350     0.577350    -0.577350     0.000000     0.000000     0.000000
   42    -1.000000   120.000000     0.577350     0.577350    -0.577350     0.000000     0.000000     0.000000
   43     1.000000   180.000000     0.000000    -0.707107     0.707107     0.000000     0.000000     0.000000
   44    -1.000000   180.000000     0.000000    -0.707107     0.707107     0.000000     0.000000     0.000000
   45     1.000000   180.000000     0.707107    -0.707107     0.000000     0.000000     0.000000     0.000000
   46    -1.000000   180.000000     0.707107    -0.707107     0.000000     0.000000     0.000000     0.000000
   47     1.000000   180.000000     0.707107     0.000000    -0.707107     0.000000     0.000000     0.000000
   48    -1.000000   180.000000     0.707107     0.000000    -0.707107     0.000000     0.000000     0.000000
 
 Subroutine IBZKPT returns following result:
 ===========================================
 
 Found    770 irreducible k-points:
 
 Following reciprocal coordinates:
            Coordinates               Weight
  0.025000  0.025000  0.025000     96.000000
  0.075000  0.025000  0.025000    288.000000
  0.125000  0.025000  0.025000    288.000000
  0.175000  0.025000  0.025000    288.000000
  0.225000  0.025000  0.025000    288.000000
  0.275000  0.025000  0.025000    288.000000
  0.325000  0.025000  0.025000    288.000000
  0.375000  0.025000  0.025000    288.000000
  0.425000  0.025000  0.025000    288.000000
  0.475000  0.025000  0.025000    288.000000
 -0.475000  0.025000  0.025000    288.000000
 -0.425000  0.025000  0.025000    288.000000
 -0.375000  0.025000  0.025000    288.000000
 -0.325000  0.025000  0.025000    288.000000
 -0.275000  0.025000  0.025000    288.000000
 -0.225000  0.025000  0.025000    288.000000
 -0.175000  0.025000  0.025000    288.000000
 -0.125000  0.025000  0.025000    288.000000
 -0.075000  0.025000  0.025000    288.000000
 -0.025000  0.025000  0.025000    288.000000
  0.075000  0.075000  0.025000    288.000000
  0.125000  0.075000  0.025000    576.000000
  0.175000  0.075000  0.025000    576.000000
  0.225000  0.075000  0.025000    576.000000
  0.275000  0.075000  0.025000    576.000000
  0.325000  0.075000  0.025000    576.000000
  0.375000  0.075000  0.025000    576.000000
  0.425000  0.075000  0.025000    576.000000
  0.475000  0.075000  0.025000    576.000000
 -0.475000  0.075000  0.025000    576.000000
 -0.425000  0.075000  0.025000    576.000000
 -0.375000  0.075000  0.025000    576.000000
 -0.325000  0.075000  0.025000    576.000000
 -0.275000  0.075000  0.025000    576.000000
 -0.225000  0.075000  0.025000    576.000000
 -0.175000  0.075000  0.025000    576.000000
 -0.125000  0.075000  0.025000    576.000000
 -0.075000  0.075000  0.025000    576.000000
 -0.025000  0.075000  0.025000    576.000000
  0.125000  0.125000  0.025000    288.000000
  0.175000  0.125000  0.025000    576.000000
  0.225000  0.125000  0.025000    576.000000
  0.275000  0.125000  0.025000    576.000000
  0.325000  0.125000  0.025000    576.000000
  0.375000  0.125000  0.025000    576.000000
  0.425000  0.125000  0.025000    576.000000
  0.475000  0.125000  0.025000    576.000000
 -0.475000  0.125000  0.025000    576.000000
 -0.425000  0.125000  0.025000    576.000000
 -0.375000  0.125000  0.025000    576.000000
 -0.325000  0.125000  0.025000    576.000000
 -0.275000  0.125000  0.025000    576.000000
 -0.225000  0.125000  0.025000    576.000000
 -0.175000  0.125000  0.025000    576.000000
 -0.125000  0.125000  0.025000    576.000000
 -0.075000  0.125000  0.025000    576.000000
 -0.025000  0.125000  0.025000    576.000000
  0.175000  0.175000  0.025000    288.000000
  0.225000  0.175000  0.025000    576.000000
  0.275000  0.175000  0.025000    576.000000
  0.325000  0.175000  0.025000    576.000000
  0.375000  0.175000  0.025000    576.000000
  0.425000  0.175000  0.025000    576.000000
  0.475000  0.175000  0.025000    576.000000
 -0.475000  0.175000  0.025000    576.000000
 -0.425000  0.175000  0.025000    576.000000
 -0.375000  0.175000  0.025000    576.000000
 -0.325000  0.175000  0.025000    576.000000
 -0.275000  0.175000  0.025000    576.000000
 -0.225000  0.175000  0.025000    576.000000
 -0.175000  0.175000  0.025000    576.000000
 -0.125000  0.175000  0.025000    576.000000
 -0.075000  0.175000  0.025000    576.000000
 -0.025000  0.175000  0.025000    576.000000
  0.225000  0.225000  0.025000    288.000000
  0.275000  0.225000  0.025000    576.000000
  0.325000  0.225000  0.025000    576.000000
  0.375000  0.225000  0.025000    576.000000
  0.425000  0.225000  0.025000    576.000000
  0.475000  0.225000  0.025000    576.000000
 -0.475000  0.225000  0.025000    576.000000
 -0.425000  0.225000  0.025000    576.000000
 -0.375000  0.225000  0.025000    576.000000
 -0.325000  0.225000  0.025000    576.000000
 -0.275000  0.225000  0.025000    576.000000
 -0.225000  0.225000  0.025000    576.000000
 -0.175000  0.225000  0.025000    576.000000
 -0.125000  0.225000  0.025000    576.000000
 -0.075000  0.225000  0.025000    576.000000
 -0.025000  0.225000  0.025000    576.000000
  0.275000  0.275000  0.025000    288.000000
  0.325000  0.275000  0.025000    576.000000
  0.375000  0.275000  0.025000    576.000000
  0.425000  0.275000  0.025000    576.000000
  0.475000  0.275000  0.025000    576.000000
 -0.475000  0.275000  0.025000    576.000000
 -0.425000  0.275000  0.025000    576.000000
 -0.375000  0.275000  0.025000    576.000000
 -0.325000  0.275000  0.025000    576.000000
 -0.275000  0.275000  0.025000    576.000000
 -0.225000  0.275000  0.025000    576.000000
 -0.175000  0.275000  0.025000    576.000000
 -0.125000  0.275000  0.025000    576.000000
 -0.075000  0.275000  0.025000    576.000000
 -0.025000  0.275000  0.025000    576.000000
  0.325000  0.325000  0.025000    288.000000
  0.375000  0.325000  0.025000    576.000000
  0.425000  0.325000  0.025000    576.000000
  0.475000  0.325000  0.025000    576.000000
 -0.475000  0.325000  0.025000    576.000000
 -0.425000  0.325000  0.025000    576.000000
 -0.375000  0.325000  0.025000    576.000000
 -0.325000  0.325000  0.025000    576.000000
 -0.275000  0.325000  0.025000    576.000000
 -0.225000  0.325000  0.025000    576.000000
 -0.175000  0.325000  0.025000    576.000000
 -0.125000  0.325000  0.025000    576.000000
 -0.075000  0.325000  0.025000    576.000000
 -0.025000  0.325000  0.025000    576.000000
  0.375000  0.375000  0.025000    288.000000
  0.425000  0.375000  0.025000    576.000000
  0.475000  0.375000  0.025000    576.000000
 -0.475000  0.375000  0.025000    576.000000
 -0.425000  0.375000  0.025000    576.000000
 -0.375000  0.375000  0.025000    576.000000
 -0.325000  0.375000  0.025000    576.000000
 -0.275000  0.375000  0.025000    576.000000
 -0.225000  0.375000  0.025000    576.000000
 -0.175000  0.375000  0.025000    576.000000
 -0.125000  0.375000  0.025000    576.000000
 -0.075000  0.375000  0.025000    576.000000
 -0.025000  0.375000  0.025000    576.000000
  0.425000  0.425000  0.025000    288.000000
  0.475000  0.425000  0.025000    576.000000
 -0.475000  0.425000  0.025000    576.000000
 -0.425000  0.425000  0.025000    576.000000
 -0.375000  0.425000  0.025000    576.000000
 -0.325000  0.425000  0.025000    576.000000
 -0.275000  0.425000  0.025000    576.000000
 -0.225000  0.425000  0.025000    576.000000
 -0.175000  0.425000  0.025000    576.000000
 -0.125000  0.425000  0.025000    576.000000
 -0.075000  0.425000  0.025000    576.000000
 -0.025000  0.425000  0.025000    576.000000
  0.475000  0.475000  0.025000    288.000000
 -0.475000  0.475000  0.025000    576.000000
 -0.425000  0.475000  0.025000    576.000000
 -0.375000  0.475000  0.025000    576.000000
 -0.325000  0.475000  0.025000    576.000000
 -0.275000  0.475000  0.025000    576.000000
 -0.225000  0.475000  0.025000    576.000000
 -0.175000  0.475000  0.025000    576.000000
 -0.125000  0.475000  0.025000    576.000000
 -0.075000  0.475000  0.025000    576.000000
 -0.025000  0.475000  0.025000    576.000000
 -0.475000 -0.475000  0.025000    288.000000
 -0.425000 -0.475000  0.025000    576.000000
 -0.375000 -0.475000  0.025000    576.000000
 -0.325000 -0.475000  0.025000    576.000000
 -0.275000 -0.475000  0.025000    576.000000
 -0.225000 -0.475000  0.025000    576.000000
 -0.175000 -0.475000  0.025000    576.000000
 -0.125000 -0.475000  0.025000    576.000000
 -0.075000 -0.475000  0.025000    576.000000
 -0.425000 -0.425000  0.025000    288.000000
 -0.375000 -0.425000  0.025000    576.000000
 -0.325000 -0.425000  0.025000    576.000000
 -0.275000 -0.425000  0.025000    576.000000
 -0.225000 -0.425000  0.025000    576.000000
 -0.175000 -0.425000  0.025000    576.000000
 -0.125000 -0.425000  0.025000    576.000000
 -0.075000 -0.425000  0.025000    576.000000
 -0.375000 -0.375000  0.025000    288.000000
 -0.325000 -0.375000  0.025000    576.000000
 -0.275000 -0.375000  0.025000    576.000000
 -0.225000 -0.375000  0.025000    576.000000
 -0.175000 -0.375000  0.025000    576.000000
 -0.125000 -0.375000  0.025000    576.000000
 -0.075000 -0.375000  0.025000    576.000000
 -0.325000 -0.325000  0.025000    288.000000
 -0.275000 -0.325000  0.025000    576.000000
 -0.225000 -0.325000  0.025000    576.000000
 -0.175000 -0.325000  0.025000    576.000000
 -0.125000 -0.325000  0.025000    576.000000
 -0.075000 -0.325000  0.025000    576.000000
 -0.275000 -0.275000  0.025000    288.000000
 -0.225000 -0.275000  0.025000    576.000000
 -0.175000 -0.275000  0.025000    576.000000
 -0.125000 -0.275000  0.025000    576.000000
 -0.075000 -0.275000  0.025000    576.000000
 -0.225000 -0.225000  0.025000    288.000000
 -0.175000 -0.225000  0.025000    576.000000
 -0.125000 -0.225000  0.025000    576.000000
 -0.075000 -0.225000  0.025000    576.000000
 -0.175000 -0.175000  0.025000    288.000000
 -0.125000 -0.175000  0.025000    576.000000
 -0.075000 -0.175000  0.025000    576.000000
 -0.125000 -0.125000  0.025000    288.000000
 -0.075000 -0.125000  0.025000    576.000000
 -0.075000 -0.075000  0.025000    288.000000
  0.075000  0.075000  0.075000     96.000000
  0.125000  0.075000  0.075000    288.000000
  0.175000  0.075000  0.075000    288.000000
  0.225000  0.075000  0.075000    288.000000
  0.275000  0.075000  0.075000    288.000000
  0.325000  0.075000  0.075000    288.000000
  0.375000  0.075000  0.075000    288.000000
  0.425000  0.075000  0.075000    288.000000
  0.475000  0.075000  0.075000    288.000000
 -0.475000  0.075000  0.075000    288.000000
 -0.425000  0.075000  0.075000    288.000000
 -0.375000  0.075000  0.075000    288.000000
 -0.325000  0.075000  0.075000    288.000000
 -0.275000  0.075000  0.075000    288.000000
 -0.225000  0.075000  0.075000    288.000000
 -0.175000  0.075000  0.075000    288.000000
 -0.125000  0.075000  0.075000    288.000000
 -0.075000  0.075000  0.075000    288.000000
  0.125000  0.125000  0.075000    288.000000
  0.175000  0.125000  0.075000    576.000000
  0.225000  0.125000  0.075000    576.000000
  0.275000  0.125000  0.075000    576.000000
  0.325000  0.125000  0.075000    576.000000
  0.375000  0.125000  0.075000    576.000000
  0.425000  0.125000  0.075000    576.000000
  0.475000  0.125000  0.075000    576.000000
 -0.475000  0.125000  0.075000    576.000000
 -0.425000  0.125000  0.075000    576.000000
 -0.375000  0.125000  0.075000    576.000000
 -0.325000  0.125000  0.075000    576.000000
 -0.275000  0.125000  0.075000    576.000000
 -0.225000  0.125000  0.075000    576.000000
 -0.175000  0.125000  0.075000    576.000000
 -0.125000  0.125000  0.075000    576.000000
 -0.075000  0.125000  0.075000    576.000000
  0.175000  0.175000  0.075000    288.000000
  0.225000  0.175000  0.075000    576.000000
  0.275000  0.175000  0.075000    576.000000
  0.325000  0.175000  0.075000    576.000000
  0.375000  0.175000  0.075000    576.000000
  0.425000  0.175000  0.075000    576.000000
  0.475000  0.175000  0.075000    576.000000
 -0.475000  0.175000  0.075000    576.000000
 -0.425000  0.175000  0.075000    576.000000
 -0.375000  0.175000  0.075000    576.000000
 -0.325000  0.175000  0.075000    576.000000
 -0.275000  0.175000  0.075000    576.000000
 -0.225000  0.175000  0.075000    576.000000
 -0.175000  0.175000  0.075000    576.000000
 -0.125000  0.175000  0.075000    576.000000
 -0.075000  0.175000  0.075000    576.000000
  0.225000  0.225000  0.075000    288.000000
  0.275000  0.225000  0.075000    576.000000
  0.325000  0.225000  0.075000    576.000000
  0.375000  0.225000  0.075000    576.000000
  0.425000  0.225000  0.075000    576.000000
  0.475000  0.225000  0.075000    576.000000
 -0.475000  0.225000  0.075000    576.000000
 -0.425000  0.225000  0.075000    576.000000
 -0.375000  0.225000  0.075000    576.000000
 -0.325000  0.225000  0.075000    576.000000
 -0.275000  0.225000  0.075000    576.000000
 -0.225000  0.225000  0.075000    576.000000
 -0.175000  0.225000  0.075000    576.000000
 -0.125000  0.225000  0.075000    576.000000
 -0.075000  0.225000  0.075000    576.000000
  0.275000  0.275000  0.075000    288.000000
  0.325000  0.275000  0.075000    576.000000
  0.375000  0.275000  0.075000    576.000000
  0.425000  0.275000  0.075000    576.000000
  0.475000  0.275000  0.075000    576.000000
 -0.475000  0.275000  0.075000    576.000000
 -0.425000  0.275000  0.075000    576.000000
 -0.375000  0.275000  0.075000    576.000000
 -0.325000  0.275000  0.075000    576.000000
 -0.275000  0.275000  0.075000    576.000000
 -0.225000  0.275000  0.075000    576.000000
 -0.175000  0.275000  0.075000    576.000000
 -0.125000  0.275000  0.075000    576.000000
 -0.075000  0.275000  0.075000    576.000000
  0.325000  0.325000  0.075000    288.000000
  0.375000  0.325000  0.075000    576.000000
  0.425000  0.325000  0.075000    576.000000
  0.475000  0.325000  0.075000    576.000000
 -0.475000  0.325000  0.075000    576.000000
 -0.425000  0.325000  0.075000    576.000000
 -0.375000  0.325000  0.075000    576.000000
 -0.325000  0.325000  0.075000    576.000000
 -0.275000  0.325000  0.075000    576.000000
 -0.225000  0.325000  0.075000    576.000000
 -0.175000  0.325000  0.075000    576.000000
 -0.125000  0.325000  0.075000    576.000000
 -0.075000  0.325000  0.075000    576.000000
  0.375000  0.375000  0.075000    288.000000
  0.425000  0.375000  0.075000    576.000000
  0.475000  0.375000  0.075000    576.000000
 -0.475000  0.375000  0.075000    576.000000
 -0.425000  0.375000  0.075000    576.000000
 -0.375000  0.375000  0.075000    576.000000
 -0.325000  0.375000  0.075000    576.000000
 -0.275000  0.375000  0.075000    576.000000
 -0.225000  0.375000  0.075000    576.000000
 -0.175000  0.375000  0.075000    576.000000
 -0.125000  0.375000  0.075000    576.000000
 -0.075000  0.375000  0.075000    576.000000
  0.425000  0.425000  0.075000    288.000000
  0.475000  0.425000  0.075000    576.000000
 -0.475000  0.425000  0.075000    576.000000
 -0.425000  0.425000  0.075000    576.000000
 -0.375000  0.425000  0.075000    576.000000
 -0.325000  0.425000  0.075000    576.000000
 -0.275000  0.425000  0.075000    576.000000
 -0.225000  0.425000  0.075000    576.000000
 -0.175000  0.425000  0.075000    576.000000
 -0.125000  0.425000  0.075000    576.000000
 -0.075000  0.425000  0.075000    576.000000
  0.475000  0.475000  0.075000    288.000000
 -0.475000  0.475000  0.075000    576.000000
 -0.425000  0.475000  0.075000    576.000000
 -0.375000  0.475000  0.075000    576.000000
 -0.325000  0.475000  0.075000    576.000000
 -0.275000  0.475000  0.075000    576.000000
 -0.225000  0.475000  0.075000    576.000000
 -0.175000  0.475000  0.075000    576.000000
 -0.125000  0.475000  0.075000    576.000000
 -0.075000  0.475000  0.075000    576.000000
 -0.475000 -0.475000  0.075000    288.000000
 -0.425000 -0.475000  0.075000    576.000000
 -0.375000 -0.475000  0.075000    576.000000
 -0.325000 -0.475000  0.075000    576.000000
 -0.275000 -0.475000  0.075000    576.000000
 -0.225000 -0.475000  0.075000    576.000000
 -0.175000 -0.475000  0.075000    576.000000
 -0.125000 -0.475000  0.075000    576.000000
 -0.425000 -0.425000  0.075000    288.000000
 -0.375000 -0.425000  0.075000    576.000000
 -0.325000 -0.425000  0.075000    576.000000
 -0.275000 -0.425000  0.075000    576.000000
 -0.225000 -0.425000  0.075000    576.000000
 -0.175000 -0.425000  0.075000    576.000000
 -0.125000 -0.425000  0.075000    576.000000
 -0.375000 -0.375000  0.075000    288.000000
 -0.325000 -0.375000  0.075000    576.000000
 -0.275000 -0.375000  0.075000    576.000000
 -0.225000 -0.375000  0.075000    576.000000
 -0.175000 -0.375000  0.075000    576.000000
 -0.125000 -0.375000  0.075000    576.000000
 -0.325000 -0.325000  0.075000    288.000000
 -0.275000 -0.325000  0.075000    576.000000
 -0.225000 -0.325000  0.075000    576.000000
 -0.175000 -0.325000  0.075000    576.000000
 -0.125000 -0.325000  0.075000    576.000000
 -0.275000 -0.275000  0.075000    288.000000
 -0.225000 -0.275000  0.075000    576.000000
 -0.175000 -0.275000  0.075000    576.000000
 -0.125000 -0.275000  0.075000    576.000000
 -0.225000 -0.225000  0.075000    288.000000
 -0.175000 -0.225000  0.075000    576.000000
 -0.125000 -0.225000  0.075000    576.000000
 -0.175000 -0.175000  0.075000    288.000000
 -0.125000 -0.175000  0.075000    576.000000
 -0.125000 -0.125000  0.075000    288.000000
  0.125000  0.125000  0.125000     96.000000
  0.175000  0.125000  0.125000    288.000000
  0.225000  0.125000  0.125000    288.000000
  0.275000  0.125000  0.125000    288.000000
  0.325000  0.125000  0.125000    288.000000
  0.375000  0.125000  0.125000    288.000000
  0.425000  0.125000  0.125000    288.000000
  0.475000  0.125000  0.125000    288.000000
 -0.475000  0.125000  0.125000    288.000000
 -0.425000  0.125000  0.125000    288.000000
 -0.375000  0.125000  0.125000    288.000000
 -0.325000  0.125000  0.125000    288.000000
 -0.275000  0.125000  0.125000    288.000000
 -0.225000  0.125000  0.125000    288.000000
 -0.175000  0.125000  0.125000    288.000000
 -0.125000  0.125000  0.125000    288.000000
  0.175000  0.175000  0.125000    288.000000
  0.225000  0.175000  0.125000    576.000000
  0.275000  0.175000  0.125000    576.000000
  0.325000  0.175000  0.125000    576.000000
  0.375000  0.175000  0.125000    576.000000
  0.425000  0.175000  0.125000    576.000000
  0.475000  0.175000  0.125000    576.000000
 -0.475000  0.175000  0.125000    576.000000
 -0.425000  0.175000  0.125000    576.000000
 -0.375000  0.175000  0.125000    576.000000
 -0.325000  0.175000  0.125000    576.000000
 -0.275000  0.175000  0.125000    576.000000
 -0.225000  0.175000  0.125000    576.000000
 -0.175000  0.175000  0.125000    576.000000
 -0.125000  0.175000  0.125000    576.000000
  0.225000  0.225000  0.125000    288.000000
  0.275000  0.225000  0.125000    576.000000
  0.325000  0.225000  0.125000    576.000000
  0.375000  0.225000  0.125000    576.000000
  0.425000  0.225000  0.125000    576.000000
  0.475000  0.225000  0.125000    576.000000
 -0.475000  0.225000  0.125000    576.000000
 -0.425000  0.225000  0.125000    576.000000
 -0.375000  0.225000  0.125000    576.000000
 -0.325000  0.225000  0.125000    576.000000
 -0.275000  0.225000  0.125000    576.000000
 -0.225000  0.225000  0.125000    576.000000
 -0.175000  0.225000  0.125000    576.000000
 -0.125000  0.225000  0.125000    576.000000
  0.275000  0.275000  0.125000    288.000000
  0.325000  0.275000  0.125000    576.000000
  0.375000  0.275000  0.125000    576.000000
  0.425000  0.275000  0.125000    576.000000
  0.475000  0.275000  0.125000    576.000000
 -0.475000  0.275000  0.125000    576.000000
 -0.425000  0.275000  0.125000    576.000000
 -0.375000  0.275000  0.125000    576.000000
 -0.325000  0.275000  0.125000    576.000000
 -0.275000  0.275000  0.125000    576.000000
 -0.225000  0.275000  0.125000    576.000000
 -0.175000  0.275000  0.125000    576.000000
 -0.125000  0.275000  0.125000    576.000000
  0.325000  0.325000  0.125000    288.000000
  0.375000  0.325000  0.125000    576.000000
  0.425000  0.325000  0.125000    576.000000
  0.475000  0.325000  0.125000    576.000000
 -0.475000  0.325000  0.125000    576.000000
 -0.425000  0.325000  0.125000    576.000000
 -0.375000  0.325000  0.125000    576.000000
 -0.325000  0.325000  0.125000    576.000000
 -0.275000  0.325000  0.125000    576.000000
 -0.225000  0.325000  0.125000    576.000000
 -0.175000  0.325000  0.125000    576.000000
 -0.125000  0.325000  0.125000    576.000000
  0.375000  0.375000  0.125000    288.000000
  0.425000  0.375000  0.125000    576.000000
  0.475000  0.375000  0.125000    576.000000
 -0.475000  0.375000  0.125000    576.000000
 -0.425000  0.375000  0.125000    576.000000
 -0.375000  0.375000  0.125000    576.000000
 -0.325000  0.375000  0.125000    576.000000
 -0.275000  0.375000  0.125000    576.000000
 -0.225000  0.375000  0.125000    576.000000
 -0.175000  0.375000  0.125000    576.000000
 -0.125000  0.375000  0.125000    576.000000
  0.425000  0.425000  0.125000    288.000000
  0.475000  0.425000  0.125000    576.000000
 -0.475000  0.425000  0.125000    576.000000
 -0.425000  0.425000  0.125000    576.000000
 -0.375000  0.425000  0.125000    576.000000
 -0.325000  0.425000  0.125000    576.000000
 -0.275000  0.425000  0.125000    576.000000
 -0.225000  0.425000  0.125000    576.000000
 -0.175000  0.425000  0.125000    576.000000
 -0.125000  0.425000  0.125000    576.000000
  0.475000  0.475000  0.125000    288.000000
 -0.475000  0.475000  0.125000    576.000000
 -0.425000  0.475000  0.125000    576.000000
 -0.375000  0.475000  0.125000    576.000000
 -0.325000  0.475000  0.125000    576.000000
 -0.275000  0.475000  0.125000    576.000000
 -0.225000  0.475000  0.125000    576.000000
 -0.175000  0.475000  0.125000    576.000000
 -0.125000  0.475000  0.125000    576.000000
 -0.475000 -0.475000  0.125000    288.000000
 -0.425000 -0.475000  0.125000    576.000000
 -0.375000 -0.475000  0.125000    576.000000
 -0.325000 -0.475000  0.125000    576.000000
 -0.275000 -0.475000  0.125000    576.000000
 -0.225000 -0.475000  0.125000    576.000000
 -0.175000 -0.475000  0.125000    576.000000
 -0.425000 -0.425000  0.125000    288.000000
 -0.375000 -0.425000  0.125000    576.000000
 -0.325000 -0.425000  0.125000    576.000000
 -0.275000 -0.425000  0.125000    576.000000
 -0.225000 -0.425000  0.125000    576.000000
 -0.175000 -0.425000  0.125000    576.000000
 -0.375000 -0.375000  0.125000    288.000000
 -0.325000 -0.375000  0.125000    576.000000
 -0.275000 -0.375000  0.125000    576.000000
 -0.225000 -0.375000  0.125000    576.000000
 -0.175000 -0.375000  0.125000    576.000000
 -0.325000 -0.325000  0.125000    288.000000
 -0.275000 -0.325000  0.125000    576.000000
 -0.225000 -0.325000  0.125000    576.000000
 -0.175000 -0.325000  0.125000    576.000000
 -0.275000 -0.275000  0.125000    288.000000
 -0.225000 -0.275000  0.125000    576.000000
 -0.175000 -0.275000  0.125000    576.000000
 -0.225000 -0.225000  0.125000    288.000000
 -0.175000 -0.225000  0.125000    576.000000
 -0.175000 -0.175000  0.125000    288.000000
  0.175000  0.175000  0.175000     96.000000
  0.225000  0.175000  0.175000    288.000000
  0.275000  0.175000  0.175000    288.000000
  0.325000  0.175000  0.175000    288.000000
  0.375000  0.175000  0.175000    288.000000
  0.425000  0.175000  0.175000    288.000000
  0.475000  0.175000  0.175000    288.000000
 -0.475000  0.175000  0.175000    288.000000
 -0.425000  0.175000  0.175000    288.000000
 -0.375000  0.175000  0.175000    288.000000
 -0.325000  0.175000  0.175000    288.000000
 -0.275000  0.175000  0.175000    288.000000
 -0.225000  0.175000  0.175000    288.000000
 -0.175000  0.175000  0.175000    288.000000
  0.225000  0.225000  0.175000    288.000000
  0.275000  0.225000  0.175000    576.000000
  0.325000  0.225000  0.175000    576.000000
  0.375000  0.225000  0.175000    576.000000
  0.425000  0.225000  0.175000    576.000000
  0.475000  0.225000  0.175000    576.000000
 -0.475000  0.225000  0.175000    576.000000
 -0.425000  0.225000  0.175000    576.000000
 -0.375000  0.225000  0.175000    576.000000
 -0.325000  0.225000  0.175000    576.000000
 -0.275000  0.225000  0.175000    576.000000
 -0.225000  0.225000  0.175000    576.000000
 -0.175000  0.225000  0.175000    576.000000
  0.275000  0.275000  0.175000    288.000000
  0.325000  0.275000  0.175000    576.000000
  0.375000  0.275000  0.175000    576.000000
  0.425000  0.275000  0.175000    576.000000
  0.475000  0.275000  0.175000    576.000000
 -0.475000  0.275000  0.175000    576.000000
 -0.425000  0.275000  0.175000    576.000000
 -0.375000  0.275000  0.175000    576.000000
 -0.325000  0.275000  0.175000    576.000000
 -0.275000  0.275000  0.175000    576.000000
 -0.225000  0.275000  0.175000    576.000000
 -0.175000  0.275000  0.175000    576.000000
  0.325000  0.325000  0.175000    288.000000
  0.375000  0.325000  0.175000    576.000000
  0.425000  0.325000  0.175000    576.000000
  0.475000  0.325000  0.175000    576.000000
 -0.475000  0.325000  0.175000    576.000000
 -0.425000  0.325000  0.175000    576.000000
 -0.375000  0.325000  0.175000    576.000000
 -0.325000  0.325000  0.175000    576.000000
 -0.275000  0.325000  0.175000    576.000000
 -0.225000  0.325000  0.175000    576.000000
 -0.175000  0.325000  0.175000    576.000000
  0.375000  0.375000  0.175000    288.000000
  0.425000  0.375000  0.175000    576.000000
  0.475000  0.375000  0.175000    576.000000
 -0.475000  0.375000  0.175000    576.000000
 -0.425000  0.375000  0.175000    576.000000
 -0.375000  0.375000  0.175000    576.000000
 -0.325000  0.375000  0.175000    576.000000
 -0.275000  0.375000  0.175000    576.000000
 -0.225000  0.375000  0.175000    576.000000
 -0.175000  0.375000  0.175000    576.000000
  0.425000  0.425000  0.175000    288.000000
  0.475000  0.425000  0.175000    576.000000
 -0.475000  0.425000  0.175000    576.000000
 -0.425000  0.425000  0.175000    576.000000
 -0.375000  0.425000  0.175000    576.000000
 -0.325000  0.425000  0.175000    576.000000
 -0.275000  0.425000  0.175000    576.000000
 -0.225000  0.425000  0.175000    576.000000
 -0.175000  0.425000  0.175000    576.000000
  0.475000  0.475000  0.175000    288.000000
 -0.475000  0.475000  0.175000    576.000000
 -0.425000  0.475000  0.175000    576.000000
 -0.375000  0.475000  0.175000    576.000000
 -0.325000  0.475000  0.175000    576.000000
 -0.275000  0.475000  0.175000    576.000000
 -0.225000  0.475000  0.175000    576.000000
 -0.175000  0.475000  0.175000    576.000000
 -0.475000 -0.475000  0.175000    288.000000
 -0.425000 -0.475000  0.175000    576.000000
 -0.375000 -0.475000  0.175000    576.000000
 -0.325000 -0.475000  0.175000    576.000000
 -0.275000 -0.475000  0.175000    576.000000
 -0.225000 -0.475000  0.175000    576.000000
 -0.425000 -0.425000  0.175000    288.000000
 -0.375000 -0.425000  0.175000    576.000000
 -0.325000 -0.425000  0.175000    576.000000
 -0.275000 -0.425000  0.175000    576.000000
 -0.225000 -0.425000  0.175000    576.000000
 -0.375000 -0.375000  0.175000    288.000000
 -0.325000 -0.375000  0.175000    576.000000
 -0.275000 -0.375000  0.175000    576.000000
 -0.225000 -0.375000  0.175000    576.000000
 -0.325000 -0.325000  0.175000    288.000000
 -0.275000 -0.325000  0.175000    576.000000
 -0.225000 -0.325000  0.175000    576.000000
 -0.275000 -0.275000  0.175000    288.000000
 -0.225000 -0.275000  0.175000    576.000000
 -0.225000 -0.225000  0.175000    288.000000
  0.225000  0.225000  0.225000     96.000000
  0.275000  0.225000  0.225000    288.000000
  0.325000  0.225000  0.225000    288.000000
  0.375000  0.225000  0.225000    288.000000
  0.425000  0.225000  0.225000    288.000000
  0.475000  0.225000  0.225000    288.000000
 -0.475000  0.225000  0.225000    288.000000
 -0.425000  0.225000  0.225000    288.000000
 -0.375000  0.225000  0.225000    288.000000
 -0.325000  0.225000  0.225000    288.000000
 -0.275000  0.225000  0.225000    288.000000
 -0.225000  0.225000  0.225000    288.000000
  0.275000  0.275000  0.225000    288.000000
  0.325000  0.275000  0.225000    576.000000
  0.375000  0.275000  0.225000    576.000000
  0.425000  0.275000  0.225000    576.000000
  0.475000  0.275000  0.225000    576.000000
 -0.475000  0.275000  0.225000    576.000000
 -0.425000  0.275000  0.225000    576.000000
 -0.375000  0.275000  0.225000    576.000000
 -0.325000  0.275000  0.225000    576.000000
 -0.275000  0.275000  0.225000    576.000000
 -0.225000  0.275000  0.225000    576.000000
  0.325000  0.325000  0.225000    288.000000
  0.375000  0.325000  0.225000    576.000000
  0.425000  0.325000  0.225000    576.000000
  0.475000  0.325000  0.225000    576.000000
 -0.475000  0.325000  0.225000    576.000000
 -0.425000  0.325000  0.225000    576.000000
 -0.375000  0.325000  0.225000    576.000000
 -0.325000  0.325000  0.225000    576.000000
 -0.275000  0.325000  0.225000    576.000000
 -0.225000  0.325000  0.225000    576.000000
  0.375000  0.375000  0.225000    288.000000
  0.425000  0.375000  0.225000    576.000000
  0.475000  0.375000  0.225000    576.000000
 -0.475000  0.375000  0.225000    576.000000
 -0.425000  0.375000  0.225000    576.000000
 -0.375000  0.375000  0.225000    576.000000
 -0.325000  0.375000  0.225000    576.000000
 -0.275000  0.375000  0.225000    576.000000
 -0.225000  0.375000  0.225000    576.000000
  0.425000  0.425000  0.225000    288.000000
  0.475000  0.425000  0.225000    576.000000
 -0.475000  0.425000  0.225000    576.000000
 -0.425000  0.425000  0.225000    576.000000
 -0.375000  0.425000  0.225000    576.000000
 -0.325000  0.425000  0.225000    576.000000
 -0.275000  0.425000  0.225000    576.000000
 -0.225000  0.425000  0.225000    576.000000
  0.475000  0.475000  0.225000    288.000000
 -0.475000  0.475000  0.225000    576.000000
 -0.425000  0.475000  0.225000    576.000000
 -0.375000  0.475000  0.225000    576.000000
 -0.325000  0.475000  0.225000    576.000000
 -0.275000  0.475000  0.225000    576.000000
 -0.225000  0.475000  0.225000    576.000000
 -0.475000 -0.475000  0.225000    288.000000
 -0.425000 -0.475000  0.225000    576.000000
 -0.375000 -0.475000  0.225000    576.000000
 -0.325000 -0.475000  0.225000    576.000000
 -0.275000 -0.475000  0.225000    576.000000
 -0.425000 -0.425000  0.225000    288.000000
 -0.375000 -0.425000  0.225000    576.000000
 -0.325000 -0.425000  0.225000    576.000000
 -0.275000 -0.425000  0.225000    576.000000
 -0.375000 -0.375000  0.225000    288.000000
 -0.325000 -0.375000  0.225000    576.000000
 -0.275000 -0.375000  0.225000    576.000000
 -0.325000 -0.325000  0.225000    288.000000
 -0.275000 -0.325000  0.225000    576.000000
 -0.275000 -0.275000  0.225000    288.000000
  0.275000  0.275000  0.275000     96.000000
  0.325000  0.275000  0.275000    288.000000
  0.375000  0.275000  0.275000    288.000000
  0.425000  0.275000  0.275000    288.000000
  0.475000  0.275000  0.275000    288.000000
 -0.475000  0.275000  0.275000    288.000000
 -0.425000  0.275000  0.275000    288.000000
 -0.375000  0.275000  0.275000    288.000000
 -0.325000  0.275000  0.275000    288.000000
 -0.275000  0.275000  0.275000    288.000000
  0.325000  0.325000  0.275000    288.000000
  0.375000  0.325000  0.275000    576.000000
  0.425000  0.325000  0.275000    576.000000
  0.475000  0.325000  0.275000    576.000000
 -0.475000  0.325000  0.275000    576.000000
 -0.425000  0.325000  0.275000    576.000000
 -0.375000  0.325000  0.275000    576.000000
 -0.325000  0.325000  0.275000    576.000000
 -0.275000  0.325000  0.275000    576.000000
  0.375000  0.375000  0.275000    288.000000
  0.425000  0.375000  0.275000    576.000000
  0.475000  0.375000  0.275000    576.000000
 -0.475000  0.375000  0.275000    576.000000
 -0.425000  0.375000  0.275000    576.000000
 -0.375000  0.375000  0.275000    576.000000
 -0.325000  0.375000  0.275000    576.000000
 -0.275000  0.375000  0.275000    576.000000
  0.425000  0.425000  0.275000    288.000000
  0.475000  0.425000  0.275000    576.000000
 -0.475000  0.425000  0.275000    576.000000
 -0.425000  0.425000  0.275000    576.000000
 -0.375000  0.425000  0.275000    576.000000
 -0.325000  0.425000  0.275000    576.000000
 -0.275000  0.425000  0.275000    576.000000
  0.475000  0.475000  0.275000    288.000000
 -0.475000  0.475000  0.275000    576.000000
 -0.425000  0.475000  0.275000    576.000000
 -0.375000  0.475000  0.275000    576.000000
 -0.325000  0.475000  0.275000    576.000000
 -0.275000  0.475000  0.275000    576.000000
 -0.475000 -0.475000  0.275000    288.000000
 -0.425000 -0.475000  0.275000    576.000000
 -0.375000 -0.475000  0.275000    576.000000
 -0.325000 -0.475000  0.275000    576.000000
 -0.425000 -0.425000  0.275000    288.000000
 -0.375000 -0.425000  0.275000    576.000000
 -0.325000 -0.425000  0.275000    576.000000
 -0.375000 -0.375000  0.275000    288.000000
 -0.325000 -0.375000  0.275000    576.000000
 -0.325000 -0.325000  0.275000    288.000000
  0.325000  0.325000  0.325000     96.000000
  0.375000  0.325000  0.325000    288.000000
  0.425000  0.325000  0.325000    288.000000
  0.475000  0.325000  0.325000    288.000000
 -0.475000  0.325000  0.325000    288.000000
 -0.425000  0.325000  0.325000    288.000000
 -0.375000  0.325000  0.325000    288.000000
 -0.325000  0.325000  0.325000    288.000000
  0.375000  0.375000  0.325000    288.000000
  0.425000  0.375000  0.325000    576.000000
  0.475000  0.375000  0.325000    576.000000
 -0.475000  0.375000  0.325000    576.000000
 -0.425000  0.375000  0.325000    576.000000
 -0.375000  0.375000  0.325000    576.000000
 -0.325000  0.375000  0.325000    576.000000
  0.425000  0.425000  0.325000    288.000000
  0.475000  0.425000  0.325000    576.000000
 -0.475000  0.425000  0.325000    576.000000
 -0.425000  0.425000  0.325000    576.000000
 -0.375000  0.425000  0.325000    576.000000
 -0.325000  0.425000  0.325000    576.000000
  0.475000  0.475000  0.325000    288.000000
 -0.475000  0.475000  0.325000    576.000000
 -0.425000  0.475000  0.325000    576.000000
 -0.375000  0.475000  0.325000    576.000000
 -0.325000  0.475000  0.325000    576.000000
 -0.475000 -0.475000  0.325000    288.000000
 -0.425000 -0.475000  0.325000    576.000000
 -0.375000 -0.475000  0.325000    576.000000
 -0.425000 -0.425000  0.325000    288.000000
 -0.375000 -0.425000  0.325000    576.000000
 -0.375000 -0.375000  0.325000    288.000000
  0.375000  0.375000  0.375000     96.000000
  0.425000  0.375000  0.375000    288.000000
  0.475000  0.375000  0.375000    288.000000
 -0.475000  0.375000  0.375000    288.000000
 -0.425000  0.375000  0.375000    288.000000
 -0.375000  0.375000  0.375000    288.000000
  0.425000  0.425000  0.375000    288.000000
  0.475000  0.425000  0.375000    576.000000
 -0.475000  0.425000  0.375000    576.000000
 -0.425000  0.425000  0.375000    576.000000
 -0.375000  0.425000  0.375000    576.000000
  0.475000  0.475000  0.375000    288.000000
 -0.475000  0.475000  0.375000    576.000000
 -0.425000  0.475000  0.375000    576.000000
 -0.375000  0.475000  0.375000    576.000000
 -0.475000 -0.475000  0.375000    288.000000
 -0.425000 -0.475000  0.375000    576.000000
 -0.425000 -0.425000  0.375000    288.000000
  0.425000  0.425000  0.425000     96.000000
  0.475000  0.425000  0.425000    288.000000
 -0.475000  0.425000  0.425000    288.000000
 -0.425000  0.425000  0.425000    288.000000
  0.475000  0.475000  0.425000    288.000000
 -0.475000  0.475000  0.425000    576.000000
 -0.425000  0.475000  0.425000    576.000000
 -0.475000 -0.475000  0.425000    288.000000
  0.475000  0.475000  0.475000     96.000000
 -0.475000  0.475000  0.475000    288.000000
 
 Following cartesian coordinates:
            Coordinates               Weight
  0.025000  0.025000  0.025000     96.000000
 -0.025000  0.075000  0.075000    288.000000
 -0.075000  0.125000  0.125000    288.000000
 -0.125000  0.175000  0.175000    288.000000
 -0.175000  0.225000  0.225000    288.000000
 -0.225000  0.275000  0.275000    288.000000
 -0.275000  0.325000  0.325000    288.000000
 -0.325000  0.375000  0.375000    288.000000
 -0.375000  0.425000  0.425000    288.000000
 -0.425000  0.475000  0.475000    288.000000
  0.525000 -0.475000 -0.475000    288.000000
  0.475000 -0.425000 -0.425000    288.000000
  0.425000 -0.375000 -0.375000    288.000000
  0.375000 -0.325000 -0.325000    288.000000
  0.325000 -0.275000 -0.275000    288.000000
  0.275000 -0.225000 -0.225000    288.000000
  0.225000 -0.175000 -0.175000    288.000000
  0.175000 -0.125000 -0.125000    288.000000
  0.125000 -0.075000 -0.075000    288.000000
  0.075000 -0.025000 -0.025000    288.000000
  0.025000  0.025000  0.125000    288.000000
 -0.025000  0.075000  0.175000    576.000000
 -0.075000  0.125000  0.225000    576.000000
 -0.125000  0.175000  0.275000    576.000000
 -0.175000  0.225000  0.325000    576.000000
 -0.225000  0.275000  0.375000    576.000000
 -0.275000  0.325000  0.425000    576.000000
 -0.325000  0.375000  0.475000    576.000000
 -0.375000  0.425000  0.525000    576.000000
  0.575000 -0.525000 -0.425000    576.000000
  0.525000 -0.475000 -0.375000    576.000000
  0.475000 -0.425000 -0.325000    576.000000
  0.425000 -0.375000 -0.275000    576.000000
  0.375000 -0.325000 -0.225000    576.000000
  0.325000 -0.275000 -0.175000    576.000000
  0.275000 -0.225000 -0.125000    576.000000
  0.225000 -0.175000 -0.075000    576.000000
  0.175000 -0.125000 -0.025000    576.000000
  0.125000 -0.075000  0.025000    576.000000
  0.025000  0.025000  0.225000    288.000000
 -0.025000  0.075000  0.275000    576.000000
 -0.075000  0.125000  0.325000    576.000000
 -0.125000  0.175000  0.375000    576.000000
 -0.175000  0.225000  0.425000    576.000000
 -0.225000  0.275000  0.475000    576.000000
 -0.275000  0.325000  0.525000    576.000000
 -0.325000  0.375000  0.575000    576.000000
  0.625000 -0.575000 -0.375000    576.000000
  0.575000 -0.525000 -0.325000    576.000000
  0.525000 -0.475000 -0.275000    576.000000
  0.475000 -0.425000 -0.225000    576.000000
  0.425000 -0.375000 -0.175000    576.000000
  0.375000 -0.325000 -0.125000    576.000000
  0.325000 -0.275000 -0.075000    576.000000
  0.275000 -0.225000 -0.025000    576.000000
  0.225000 -0.175000  0.025000    576.000000
  0.175000 -0.125000  0.075000    576.000000
  0.025000  0.025000  0.325000    288.000000
 -0.025000  0.075000  0.375000    576.000000
 -0.075000  0.125000  0.425000    576.000000
 -0.125000  0.175000  0.475000    576.000000
 -0.175000  0.225000  0.525000    576.000000
 -0.225000  0.275000  0.575000    576.000000
 -0.275000  0.325000  0.625000    576.000000
  0.675000 -0.625000 -0.325000    576.000000
  0.625000 -0.575000 -0.275000    576.000000
  0.575000 -0.525000 -0.225000    576.000000
  0.525000 -0.475000 -0.175000    576.000000
  0.475000 -0.425000 -0.125000    576.000000
  0.425000 -0.375000 -0.075000    576.000000
  0.375000 -0.325000 -0.025000    576.000000
  0.325000 -0.275000  0.025000    576.000000
  0.275000 -0.225000  0.075000    576.000000
  0.225000 -0.175000  0.125000    576.000000
  0.025000  0.025000  0.425000    288.000000
 -0.025000  0.075000  0.475000    576.000000
 -0.075000  0.125000  0.525000    576.000000
 -0.125000  0.175000  0.575000    576.000000
 -0.175000  0.225000  0.625000    576.000000
 -0.225000  0.275000  0.675000    576.000000
  0.725000 -0.675000 -0.275000    576.000000
  0.675000 -0.625000 -0.225000    576.000000
  0.625000 -0.575000 -0.175000    576.000000
  0.575000 -0.525000 -0.125000    576.000000
  0.525000 -0.475000 -0.075000    576.000000
  0.475000 -0.425000 -0.025000    576.000000
  0.425000 -0.375000  0.025000    576.000000
  0.375000 -0.325000  0.075000    576.000000
  0.325000 -0.275000  0.125000    576.000000
  0.275000 -0.225000  0.175000    576.000000
  0.025000  0.025000  0.525000    288.000000
 -0.025000  0.075000  0.575000    576.000000
 -0.075000  0.125000  0.625000    576.000000
 -0.125000  0.175000  0.675000    576.000000
 -0.175000  0.225000  0.725000    576.000000
  0.775000 -0.725000 -0.225000    576.000000
  0.725000 -0.675000 -0.175000    576.000000
  0.675000 -0.625000 -0.125000    576.000000
  0.625000 -0.575000 -0.075000    576.000000
  0.575000 -0.525000 -0.025000    576.000000
  0.525000 -0.475000  0.025000    576.000000
  0.475000 -0.425000  0.075000    576.000000
  0.425000 -0.375000  0.125000    576.000000
  0.375000 -0.325000  0.175000    576.000000
  0.325000 -0.275000  0.225000    576.000000
  0.025000  0.025000  0.625000    288.000000
 -0.025000  0.075000  0.675000    576.000000
 -0.075000  0.125000  0.725000    576.000000
 -0.125000  0.175000  0.775000    576.000000
  0.825000 -0.775000 -0.175000    576.000000
  0.775000 -0.725000 -0.125000    576.000000
  0.725000 -0.675000 -0.075000    576.000000
  0.675000 -0.625000 -0.025000    576.000000
  0.625000 -0.575000  0.025000    576.000000
  0.575000 -0.525000  0.075000    576.000000
  0.525000 -0.475000  0.125000    576.000000
  0.475000 -0.425000  0.175000    576.000000
  0.425000 -0.375000  0.225000    576.000000
  0.375000 -0.325000  0.275000    576.000000
  0.025000  0.025000  0.725000    288.000000
 -0.025000  0.075000  0.775000    576.000000
 -0.075000  0.125000  0.825000    576.000000
  0.875000 -0.825000 -0.125000    576.000000
  0.825000 -0.775000 -0.075000    576.000000
  0.775000 -0.725000 -0.025000    576.000000
  0.725000 -0.675000  0.025000    576.000000
  0.675000 -0.625000  0.075000    576.000000
  0.625000 -0.575000  0.125000    576.000000
  0.575000 -0.525000  0.175000    576.000000
  0.525000 -0.475000  0.225000    576.000000
  0.475000 -0.425000  0.275000    576.000000
  0.425000 -0.375000  0.325000    576.000000
  0.025000  0.025000  0.825000    288.000000
 -0.025000  0.075000  0.875000    576.000000
  0.925000 -0.875000 -0.075000    576.000000
  0.875000 -0.825000 -0.025000    576.000000
  0.825000 -0.775000  0.025000    576.000000
  0.775000 -0.725000  0.075000    576.000000
  0.725000 -0.675000  0.125000    576.000000
  0.675000 -0.625000  0.175000    576.000000
  0.625000 -0.575000  0.225000    576.000000
  0.575000 -0.525000  0.275000    576.000000
  0.525000 -0.475000  0.325000    576.000000
  0.475000 -0.425000  0.375000    576.000000
  0.025000  0.025000  0.925000    288.000000
  0.975000 -0.925000 -0.025000    576.000000
  0.925000 -0.875000  0.025000    576.000000
  0.875000 -0.825000  0.075000    576.000000
  0.825000 -0.775000  0.125000    576.000000
  0.775000 -0.725000  0.175000    576.000000
  0.725000 -0.675000  0.225000    576.000000
  0.675000 -0.625000  0.275000    576.000000
  0.625000 -0.575000  0.325000    576.000000
  0.575000 -0.525000  0.375000    576.000000
  0.525000 -0.475000  0.425000    576.000000
  0.025000  0.025000 -0.975000    288.000000
 -0.025000  0.075000 -0.925000    576.000000
 -0.075000  0.125000 -0.875000    576.000000
 -0.125000  0.175000 -0.825000    576.000000
 -0.175000  0.225000 -0.775000    576.000000
 -0.225000  0.275000 -0.725000    576.000000
 -0.275000  0.325000 -0.675000    576.000000
 -0.325000  0.375000 -0.625000    576.000000
 -0.375000  0.425000 -0.575000    576.000000
  0.025000  0.025000 -0.875000    288.000000
 -0.025000  0.075000 -0.825000    576.000000
 -0.075000  0.125000 -0.775000    576.000000
 -0.125000  0.175000 -0.725000    576.000000
 -0.175000  0.225000 -0.675000    576.000000
 -0.225000  0.275000 -0.625000    576.000000
 -0.275000  0.325000 -0.575000    576.000000
 -0.325000  0.375000 -0.525000    576.000000
  0.025000  0.025000 -0.775000    288.000000
 -0.025000  0.075000 -0.725000    576.000000
 -0.075000  0.125000 -0.675000    576.000000
 -0.125000  0.175000 -0.625000    576.000000
 -0.175000  0.225000 -0.575000    576.000000
 -0.225000  0.275000 -0.525000    576.000000
 -0.275000  0.325000 -0.475000    576.000000
  0.025000  0.025000 -0.675000    288.000000
 -0.025000  0.075000 -0.625000    576.000000
 -0.075000  0.125000 -0.575000    576.000000
 -0.125000  0.175000 -0.525000    576.000000
 -0.175000  0.225000 -0.475000    576.000000
 -0.225000  0.275000 -0.425000    576.000000
  0.025000  0.025000 -0.575000    288.000000
 -0.025000  0.075000 -0.525000    576.000000
 -0.075000  0.125000 -0.475000    576.000000
 -0.125000  0.175000 -0.425000    576.000000
 -0.175000  0.225000 -0.375000    576.000000
  0.025000  0.025000 -0.475000    288.000000
 -0.025000  0.075000 -0.425000    576.000000
 -0.075000  0.125000 -0.375000    576.000000
 -0.125000  0.175000 -0.325000    576.000000
  0.025000  0.025000 -0.375000    288.000000
 -0.025000  0.075000 -0.325000    576.000000
 -0.075000  0.125000 -0.275000    576.000000
  0.025000  0.025000 -0.275000    288.000000
 -0.025000  0.075000 -0.225000    576.000000
  0.025000  0.025000 -0.175000    288.000000
  0.075000  0.075000  0.075000     96.000000
  0.025000  0.125000  0.125000    288.000000
 -0.025000  0.175000  0.175000    288.000000
 -0.075000  0.225000  0.225000    288.000000
 -0.125000  0.275000  0.275000    288.000000
 -0.175000  0.325000  0.325000    288.000000
 -0.225000  0.375000  0.375000    288.000000
 -0.275000  0.425000  0.425000    288.000000
 -0.325000  0.475000  0.475000    288.000000
  0.625000 -0.475000 -0.475000    288.000000
  0.575000 -0.425000 -0.425000    288.000000
  0.525000 -0.375000 -0.375000    288.000000
  0.475000 -0.325000 -0.325000    288.000000
  0.425000 -0.275000 -0.275000    288.000000
  0.375000 -0.225000 -0.225000    288.000000
  0.325000 -0.175000 -0.175000    288.000000
  0.275000 -0.125000 -0.125000    288.000000
  0.225000 -0.075000 -0.075000    288.000000
  0.075000  0.075000  0.175000    288.000000
  0.025000  0.125000  0.225000    576.000000
 -0.025000  0.175000  0.275000    576.000000
 -0.075000  0.225000  0.325000    576.000000
 -0.125000  0.275000  0.375000    576.000000
 -0.175000  0.325000  0.425000    576.000000
 -0.225000  0.375000  0.475000    576.000000
 -0.275000  0.425000  0.525000    576.000000
  0.675000 -0.525000 -0.425000    576.000000
  0.625000 -0.475000 -0.375000    576.000000
  0.575000 -0.425000 -0.325000    576.000000
  0.525000 -0.375000 -0.275000    576.000000
  0.475000 -0.325000 -0.225000    576.000000
  0.425000 -0.275000 -0.175000    576.000000
  0.375000 -0.225000 -0.125000    576.000000
  0.325000 -0.175000 -0.075000    576.000000
  0.275000 -0.125000 -0.025000    576.000000
  0.075000  0.075000  0.275000    288.000000
  0.025000  0.125000  0.325000    576.000000
 -0.025000  0.175000  0.375000    576.000000
 -0.075000  0.225000  0.425000    576.000000
 -0.125000  0.275000  0.475000    576.000000
 -0.175000  0.325000  0.525000    576.000000
 -0.225000  0.375000  0.575000    576.000000
  0.725000 -0.575000 -0.375000    576.000000
  0.675000 -0.525000 -0.325000    576.000000
  0.625000 -0.475000 -0.275000    576.000000
  0.575000 -0.425000 -0.225000    576.000000
  0.525000 -0.375000 -0.175000    576.000000
  0.475000 -0.325000 -0.125000    576.000000
  0.425000 -0.275000 -0.075000    576.000000
  0.375000 -0.225000 -0.025000    576.000000
  0.325000 -0.175000  0.025000    576.000000
  0.075000  0.075000  0.375000    288.000000
  0.025000  0.125000  0.425000    576.000000
 -0.025000  0.175000  0.475000    576.000000
 -0.075000  0.225000  0.525000    576.000000
 -0.125000  0.275000  0.575000    576.000000
 -0.175000  0.325000  0.625000    576.000000
  0.775000 -0.625000 -0.325000    576.000000
  0.725000 -0.575000 -0.275000    576.000000
  0.675000 -0.525000 -0.225000    576.000000
  0.625000 -0.475000 -0.175000    576.000000
  0.575000 -0.425000 -0.125000    576.000000
  0.525000 -0.375000 -0.075000    576.000000
  0.475000 -0.325000 -0.025000    576.000000
  0.425000 -0.275000  0.025000    576.000000
  0.375000 -0.225000  0.075000    576.000000
  0.075000  0.075000  0.475000    288.000000
  0.025000  0.125000  0.525000    576.000000
 -0.025000  0.175000  0.575000    576.000000
 -0.075000  0.225000  0.625000    576.000000
 -0.125000  0.275000  0.675000    576.000000
  0.825000 -0.675000 -0.275000    576.000000
  0.775000 -0.625000 -0.225000    576.000000
  0.725000 -0.575000 -0.175000    576.000000
  0.675000 -0.525000 -0.125000    576.000000
  0.625000 -0.475000 -0.075000    576.000000
  0.575000 -0.425000 -0.025000    576.000000
  0.525000 -0.375000  0.025000    576.000000
  0.475000 -0.325000  0.075000    576.000000
  0.425000 -0.275000  0.125000    576.000000
  0.075000  0.075000  0.575000    288.000000
  0.025000  0.125000  0.625000    576.000000
 -0.025000  0.175000  0.675000    576.000000
 -0.075000  0.225000  0.725000    576.000000
  0.875000 -0.725000 -0.225000    576.000000
  0.825000 -0.675000 -0.175000    576.000000
  0.775000 -0.625000 -0.125000    576.000000
  0.725000 -0.575000 -0.075000    576.000000
  0.675000 -0.525000 -0.025000    576.000000
  0.625000 -0.475000  0.025000    576.000000
  0.575000 -0.425000  0.075000    576.000000
  0.525000 -0.375000  0.125000    576.000000
  0.475000 -0.325000  0.175000    576.000000
  0.075000  0.075000  0.675000    288.000000
  0.025000  0.125000  0.725000    576.000000
 -0.025000  0.175000  0.775000    576.000000
  0.925000 -0.775000 -0.175000    576.000000
  0.875000 -0.725000 -0.125000    576.000000
  0.825000 -0.675000 -0.075000    576.000000
  0.775000 -0.625000 -0.025000    576.000000
  0.725000 -0.575000  0.025000    576.000000
  0.675000 -0.525000  0.075000    576.000000
  0.625000 -0.475000  0.125000    576.000000
  0.575000 -0.425000  0.175000    576.000000
  0.525000 -0.375000  0.225000    576.000000
  0.075000  0.075000  0.775000    288.000000
  0.025000  0.125000  0.825000    576.000000
  0.975000 -0.825000 -0.125000    576.000000
  0.925000 -0.775000 -0.075000    576.000000
  0.875000 -0.725000 -0.025000    576.000000
  0.825000 -0.675000  0.025000    576.000000
  0.775000 -0.625000  0.075000    576.000000
  0.725000 -0.575000  0.125000    576.000000
  0.675000 -0.525000  0.175000    576.000000
  0.625000 -0.475000  0.225000    576.000000
  0.575000 -0.425000  0.275000    576.000000
  0.075000  0.075000  0.875000    288.000000
  1.025000 -0.875000 -0.075000    576.000000
  0.975000 -0.825000 -0.025000    576.000000
  0.925000 -0.775000  0.025000    576.000000
  0.875000 -0.725000  0.075000    576.000000
  0.825000 -0.675000  0.125000    576.000000
  0.775000 -0.625000  0.175000    576.000000
  0.725000 -0.575000  0.225000    576.000000
  0.675000 -0.525000  0.275000    576.000000
  0.625000 -0.475000  0.325000    576.000000
  0.075000  0.075000 -1.025000    288.000000
  0.025000  0.125000 -0.975000    576.000000
 -0.025000  0.175000 -0.925000    576.000000
 -0.075000  0.225000 -0.875000    576.000000
 -0.125000  0.275000 -0.825000    576.000000
 -0.175000  0.325000 -0.775000    576.000000
 -0.225000  0.375000 -0.725000    576.000000
 -0.275000  0.425000 -0.675000    576.000000
  0.075000  0.075000 -0.925000    288.000000
  0.025000  0.125000 -0.875000    576.000000
 -0.025000  0.175000 -0.825000    576.000000
 -0.075000  0.225000 -0.775000    576.000000
 -0.125000  0.275000 -0.725000    576.000000
 -0.175000  0.325000 -0.675000    576.000000
 -0.225000  0.375000 -0.625000    576.000000
  0.075000  0.075000 -0.825000    288.000000
  0.025000  0.125000 -0.775000    576.000000
 -0.025000  0.175000 -0.725000    576.000000
 -0.075000  0.225000 -0.675000    576.000000
 -0.125000  0.275000 -0.625000    576.000000
 -0.175000  0.325000 -0.575000    576.000000
  0.075000  0.075000 -0.725000    288.000000
  0.025000  0.125000 -0.675000    576.000000
 -0.025000  0.175000 -0.625000    576.000000
 -0.075000  0.225000 -0.575000    576.000000
 -0.125000  0.275000 -0.525000    576.000000
  0.075000  0.075000 -0.625000    288.000000
  0.025000  0.125000 -0.575000    576.000000
 -0.025000  0.175000 -0.525000    576.000000
 -0.075000  0.225000 -0.475000    576.000000
  0.075000  0.075000 -0.525000    288.000000
  0.025000  0.125000 -0.475000    576.000000
 -0.025000  0.175000 -0.425000    576.000000
  0.075000  0.075000 -0.425000    288.000000
  0.025000  0.125000 -0.375000    576.000000
  0.075000  0.075000 -0.325000    288.000000
  0.125000  0.125000  0.125000     96.000000
  0.075000  0.175000  0.175000    288.000000
  0.025000  0.225000  0.225000    288.000000
 -0.025000  0.275000  0.275000    288.000000
 -0.075000  0.325000  0.325000    288.000000
 -0.125000  0.375000  0.375000    288.000000
 -0.175000  0.425000  0.425000    288.000000
 -0.225000  0.475000  0.475000    288.000000
  0.725000 -0.475000 -0.475000    288.000000
  0.675000 -0.425000 -0.425000    288.000000
  0.625000 -0.375000 -0.375000    288.000000
  0.575000 -0.325000 -0.325000    288.000000
  0.525000 -0.275000 -0.275000    288.000000
  0.475000 -0.225000 -0.225000    288.000000
  0.425000 -0.175000 -0.175000    288.000000
  0.375000 -0.125000 -0.125000    288.000000
  0.125000  0.125000  0.225000    288.000000
  0.075000  0.175000  0.275000    576.000000
  0.025000  0.225000  0.325000    576.000000
 -0.025000  0.275000  0.375000    576.000000
 -0.075000  0.325000  0.425000    576.000000
 -0.125000  0.375000  0.475000    576.000000
 -0.175000  0.425000  0.525000    576.000000
  0.775000 -0.525000 -0.425000    576.000000
  0.725000 -0.475000 -0.375000    576.000000
  0.675000 -0.425000 -0.325000    576.000000
  0.625000 -0.375000 -0.275000    576.000000
  0.575000 -0.325000 -0.225000    576.000000
  0.525000 -0.275000 -0.175000    576.000000
  0.475000 -0.225000 -0.125000    576.000000
  0.425000 -0.175000 -0.075000    576.000000
  0.125000  0.125000  0.325000    288.000000
  0.075000  0.175000  0.375000    576.000000
  0.025000  0.225000  0.425000    576.000000
 -0.025000  0.275000  0.475000    576.000000
 -0.075000  0.325000  0.525000    576.000000
 -0.125000  0.375000  0.575000    576.000000
  0.825000 -0.575000 -0.375000    576.000000
  0.775000 -0.525000 -0.325000    576.000000
  0.725000 -0.475000 -0.275000    576.000000
  0.675000 -0.425000 -0.225000    576.000000
  0.625000 -0.375000 -0.175000    576.000000
  0.575000 -0.325000 -0.125000    576.000000
  0.525000 -0.275000 -0.075000    576.000000
  0.475000 -0.225000 -0.025000    576.000000
  0.125000  0.125000  0.425000    288.000000
  0.075000  0.175000  0.475000    576.000000
  0.025000  0.225000  0.525000    576.000000
 -0.025000  0.275000  0.575000    576.000000
 -0.075000  0.325000  0.625000    576.000000
  0.875000 -0.625000 -0.325000    576.000000
  0.825000 -0.575000 -0.275000    576.000000
  0.775000 -0.525000 -0.225000    576.000000
  0.725000 -0.475000 -0.175000    576.000000
  0.675000 -0.425000 -0.125000    576.000000
  0.625000 -0.375000 -0.075000    576.000000
  0.575000 -0.325000 -0.025000    576.000000
  0.525000 -0.275000  0.025000    576.000000
  0.125000  0.125000  0.525000    288.000000
  0.075000  0.175000  0.575000    576.000000
  0.025000  0.225000  0.625000    576.000000
 -0.025000  0.275000  0.675000    576.000000
  0.925000 -0.675000 -0.275000    576.000000
  0.875000 -0.625000 -0.225000    576.000000
  0.825000 -0.575000 -0.175000    576.000000
  0.775000 -0.525000 -0.125000    576.000000
  0.725000 -0.475000 -0.075000    576.000000
  0.675000 -0.425000 -0.025000    576.000000
  0.625000 -0.375000  0.025000    576.000000
  0.575000 -0.325000  0.075000    576.000000
  0.125000  0.125000  0.625000    288.000000
  0.075000  0.175000  0.675000    576.000000
  0.025000  0.225000  0.725000    576.000000
  0.975000 -0.725000 -0.225000    576.000000
  0.925000 -0.675000 -0.175000    576.000000
  0.875000 -0.625000 -0.125000    576.000000
  0.825000 -0.575000 -0.075000    576.000000
  0.775000 -0.525000 -0.025000    576.000000
  0.725000 -0.475000  0.025000    576.000000
  0.675000 -0.425000  0.075000    576.000000
  0.625000 -0.375000  0.125000    576.000000
  0.125000  0.125000  0.725000    288.000000
  0.075000  0.175000  0.775000    576.000000
  1.025000 -0.775000 -0.175000    576.000000
  0.975000 -0.725000 -0.125000    576.000000
  0.925000 -0.675000 -0.075000    576.000000
  0.875000 -0.625000 -0.025000    576.000000
  0.825000 -0.575000  0.025000    576.000000
  0.775000 -0.525000  0.075000    576.000000
  0.725000 -0.475000  0.125000    576.000000
  0.675000 -0.425000  0.175000    576.000000
  0.125000  0.125000  0.825000    288.000000
  1.075000 -0.825000 -0.125000    576.000000
  1.025000 -0.775000 -0.075000    576.000000
  0.975000 -0.725000 -0.025000    576.000000
  0.925000 -0.675000  0.025000    576.000000
  0.875000 -0.625000  0.075000    576.000000
  0.825000 -0.575000  0.125000    576.000000
  0.775000 -0.525000  0.175000    576.000000
  0.725000 -0.475000  0.225000    576.000000
  0.125000  0.125000 -1.075000    288.000000
  0.075000  0.175000 -1.025000    576.000000
  0.025000  0.225000 -0.975000    576.000000
 -0.025000  0.275000 -0.925000    576.000000
 -0.075000  0.325000 -0.875000    576.000000
 -0.125000  0.375000 -0.825000    576.000000
 -0.175000  0.425000 -0.775000    576.000000
  0.125000  0.125000 -0.975000    288.000000
  0.075000  0.175000 -0.925000    576.000000
  0.025000  0.225000 -0.875000    576.000000
 -0.025000  0.275000 -0.825000    576.000000
 -0.075000  0.325000 -0.775000    576.000000
 -0.125000  0.375000 -0.725000    576.000000
  0.125000  0.125000 -0.875000    288.000000
  0.075000  0.175000 -0.825000    576.000000
  0.025000  0.225000 -0.775000    576.000000
 -0.025000  0.275000 -0.725000    576.000000
 -0.075000  0.325000 -0.675000    576.000000
  0.125000  0.125000 -0.775000    288.000000
  0.075000  0.175000 -0.725000    576.000000
  0.025000  0.225000 -0.675000    576.000000
 -0.025000  0.275000 -0.625000    576.000000
  0.125000  0.125000 -0.675000    288.000000
  0.075000  0.175000 -0.625000    576.000000
  0.025000  0.225000 -0.575000    576.000000
  0.125000  0.125000 -0.575000    288.000000
  0.075000  0.175000 -0.525000    576.000000
  0.125000  0.125000 -0.475000    288.000000
  0.175000  0.175000  0.175000     96.000000
  0.125000  0.225000  0.225000    288.000000
  0.075000  0.275000  0.275000    288.000000
  0.025000  0.325000  0.325000    288.000000
 -0.025000  0.375000  0.375000    288.000000
 -0.075000  0.425000  0.425000    288.000000
 -0.125000  0.475000  0.475000    288.000000
  0.825000 -0.475000 -0.475000    288.000000
  0.775000 -0.425000 -0.425000    288.000000
  0.725000 -0.375000 -0.375000    288.000000
  0.675000 -0.325000 -0.325000    288.000000
  0.625000 -0.275000 -0.275000    288.000000
  0.575000 -0.225000 -0.225000    288.000000
  0.525000 -0.175000 -0.175000    288.000000
  0.175000  0.175000  0.275000    288.000000
  0.125000  0.225000  0.325000    576.000000
  0.075000  0.275000  0.375000    576.000000
  0.025000  0.325000  0.425000    576.000000
 -0.025000  0.375000  0.475000    576.000000
 -0.075000  0.425000  0.525000    576.000000
  0.875000 -0.525000 -0.425000    576.000000
  0.825000 -0.475000 -0.375000    576.000000
  0.775000 -0.425000 -0.325000    576.000000
  0.725000 -0.375000 -0.275000    576.000000
  0.675000 -0.325000 -0.225000    576.000000
  0.625000 -0.275000 -0.175000    576.000000
  0.575000 -0.225000 -0.125000    576.000000
  0.175000  0.175000  0.375000    288.000000
  0.125000  0.225000  0.425000    576.000000
  0.075000  0.275000  0.475000    576.000000
  0.025000  0.325000  0.525000    576.000000
 -0.025000  0.375000  0.575000    576.000000
  0.925000 -0.575000 -0.375000    576.000000
  0.875000 -0.525000 -0.325000    576.000000
  0.825000 -0.475000 -0.275000    576.000000
  0.775000 -0.425000 -0.225000    576.000000
  0.725000 -0.375000 -0.175000    576.000000
  0.675000 -0.325000 -0.125000    576.000000
  0.625000 -0.275000 -0.075000    576.000000
  0.175000  0.175000  0.475000    288.000000
  0.125000  0.225000  0.525000    576.000000
  0.075000  0.275000  0.575000    576.000000
  0.025000  0.325000  0.625000    576.000000
  0.975000 -0.625000 -0.325000    576.000000
  0.925000 -0.575000 -0.275000    576.000000
  0.875000 -0.525000 -0.225000    576.000000
  0.825000 -0.475000 -0.175000    576.000000
  0.775000 -0.425000 -0.125000    576.000000
  0.725000 -0.375000 -0.075000    576.000000
  0.675000 -0.325000 -0.025000    576.000000
  0.175000  0.175000  0.575000    288.000000
  0.125000  0.225000  0.625000    576.000000
  0.075000  0.275000  0.675000    576.000000
  1.025000 -0.675000 -0.275000    576.000000
  0.975000 -0.625000 -0.225000    576.000000
  0.925000 -0.575000 -0.175000    576.000000
  0.875000 -0.525000 -0.125000    576.000000
  0.825000 -0.475000 -0.075000    576.000000
  0.775000 -0.425000 -0.025000    576.000000
  0.725000 -0.375000  0.025000    576.000000
  0.175000  0.175000  0.675000    288.000000
  0.125000  0.225000  0.725000    576.000000
  1.075000 -0.725000 -0.225000    576.000000
  1.025000 -0.675000 -0.175000    576.000000
  0.975000 -0.625000 -0.125000    576.000000
  0.925000 -0.575000 -0.075000    576.000000
  0.875000 -0.525000 -0.025000    576.000000
  0.825000 -0.475000  0.025000    576.000000
  0.775000 -0.425000  0.075000    576.000000
  0.175000  0.175000  0.775000    288.000000
  1.125000 -0.775000 -0.175000    576.000000
  1.075000 -0.725000 -0.125000    576.000000
  1.025000 -0.675000 -0.075000    576.000000
  0.975000 -0.625000 -0.025000    576.000000
  0.925000 -0.575000  0.025000    576.000000
  0.875000 -0.525000  0.075000    576.000000
  0.825000 -0.475000  0.125000    576.000000
  0.175000  0.175000 -1.125000    288.000000
  0.125000  0.225000 -1.075000    576.000000
  0.075000  0.275000 -1.025000    576.000000
  0.025000  0.325000 -0.975000    576.000000
 -0.025000  0.375000 -0.925000    576.000000
 -0.075000  0.425000 -0.875000    576.000000
  0.175000  0.175000 -1.025000    288.000000
  0.125000  0.225000 -0.975000    576.000000
  0.075000  0.275000 -0.925000    576.000000
  0.025000  0.325000 -0.875000    576.000000
 -0.025000  0.375000 -0.825000    576.000000
  0.175000  0.175000 -0.925000    288.000000
  0.125000  0.225000 -0.875000    576.000000
  0.075000  0.275000 -0.825000    576.000000
  0.025000  0.325000 -0.775000    576.000000
  0.175000  0.175000 -0.825000    288.000000
  0.125000  0.225000 -0.775000    576.000000
  0.075000  0.275000 -0.725000    576.000000
  0.175000  0.175000 -0.725000    288.000000
  0.125000  0.225000 -0.675000    576.000000
  0.175000  0.175000 -0.625000    288.000000
  0.225000  0.225000  0.225000     96.000000
  0.175000  0.275000  0.275000    288.000000
  0.125000  0.325000  0.325000    288.000000
  0.075000  0.375000  0.375000    288.000000
  0.025000  0.425000  0.425000    288.000000
 -0.025000  0.475000  0.475000    288.000000
  0.925000 -0.475000 -0.475000    288.000000
  0.875000 -0.425000 -0.425000    288.000000
  0.825000 -0.375000 -0.375000    288.000000
  0.775000 -0.325000 -0.325000    288.000000
  0.725000 -0.275000 -0.275000    288.000000
  0.675000 -0.225000 -0.225000    288.000000
  0.225000  0.225000  0.325000    288.000000
  0.175000  0.275000  0.375000    576.000000
  0.125000  0.325000  0.425000    576.000000
  0.075000  0.375000  0.475000    576.000000
  0.025000  0.425000  0.525000    576.000000
  0.975000 -0.525000 -0.425000    576.000000
  0.925000 -0.475000 -0.375000    576.000000
  0.875000 -0.425000 -0.325000    576.000000
  0.825000 -0.375000 -0.275000    576.000000
  0.775000 -0.325000 -0.225000    576.000000
  0.725000 -0.275000 -0.175000    576.000000
  0.225000  0.225000  0.425000    288.000000
  0.175000  0.275000  0.475000    576.000000
  0.125000  0.325000  0.525000    576.000000
  0.075000  0.375000  0.575000    576.000000
  1.025000 -0.575000 -0.375000    576.000000
  0.975000 -0.525000 -0.325000    576.000000
  0.925000 -0.475000 -0.275000    576.000000
  0.875000 -0.425000 -0.225000    576.000000
  0.825000 -0.375000 -0.175000    576.000000
  0.775000 -0.325000 -0.125000    576.000000
  0.225000  0.225000  0.525000    288.000000
  0.175000  0.275000  0.575000    576.000000
  0.125000  0.325000  0.625000    576.000000
  1.075000 -0.625000 -0.325000    576.000000
  1.025000 -0.575000 -0.275000    576.000000
  0.975000 -0.525000 -0.225000    576.000000
  0.925000 -0.475000 -0.175000    576.000000
  0.875000 -0.425000 -0.125000    576.000000
  0.825000 -0.375000 -0.075000    576.000000
  0.225000  0.225000  0.625000    288.000000
  0.175000  0.275000  0.675000    576.000000
  1.125000 -0.675000 -0.275000    576.000000
  1.075000 -0.625000 -0.225000    576.000000
  1.025000 -0.575000 -0.175000    576.000000
  0.975000 -0.525000 -0.125000    576.000000
  0.925000 -0.475000 -0.075000    576.000000
  0.875000 -0.425000 -0.025000    576.000000
  0.225000  0.225000  0.725000    288.000000
  1.175000 -0.725000 -0.225000    576.000000
  1.125000 -0.675000 -0.175000    576.000000
  1.075000 -0.625000 -0.125000    576.000000
  1.025000 -0.575000 -0.075000    576.000000
  0.975000 -0.525000 -0.025000    576.000000
  0.925000 -0.475000  0.025000    576.000000
  0.225000  0.225000 -1.175000    288.000000
  0.175000  0.275000 -1.125000    576.000000
  0.125000  0.325000 -1.075000    576.000000
  0.075000  0.375000 -1.025000    576.000000
  0.025000  0.425000 -0.975000    576.000000
  0.225000  0.225000 -1.075000    288.000000
  0.175000  0.275000 -1.025000    576.000000
  0.125000  0.325000 -0.975000    576.000000
  0.075000  0.375000 -0.925000    576.000000
  0.225000  0.225000 -0.975000    288.000000
  0.175000  0.275000 -0.925000    576.000000
  0.125000  0.325000 -0.875000    576.000000
  0.225000  0.225000 -0.875000    288.000000
  0.175000  0.275000 -0.825000    576.000000
  0.225000  0.225000 -0.775000    288.000000
  0.275000  0.275000  0.275000     96.000000
  0.225000  0.325000  0.325000    288.000000
  0.175000  0.375000  0.375000    288.000000
  0.125000  0.425000  0.425000    288.000000
  0.075000  0.475000  0.475000    288.000000
  1.025000 -0.475000 -0.475000    288.000000
  0.975000 -0.425000 -0.425000    288.000000
  0.925000 -0.375000 -0.375000    288.000000
  0.875000 -0.325000 -0.325000    288.000000
  0.825000 -0.275000 -0.275000    288.000000
  0.275000  0.275000  0.375000    288.000000
  0.225000  0.325000  0.425000    576.000000
  0.175000  0.375000  0.475000    576.000000
  0.125000  0.425000  0.525000    576.000000
  1.075000 -0.525000 -0.425000    576.000000
  1.025000 -0.475000 -0.375000    576.000000
  0.975000 -0.425000 -0.325000    576.000000
  0.925000 -0.375000 -0.275000    576.000000
  0.875000 -0.325000 -0.225000    576.000000
  0.275000  0.275000  0.475000    288.000000
  0.225000  0.325000  0.525000    576.000000
  0.175000  0.375000  0.575000    576.000000
  1.125000 -0.575000 -0.375000    576.000000
  1.075000 -0.525000 -0.325000    576.000000
  1.025000 -0.475000 -0.275000    576.000000
  0.975000 -0.425000 -0.225000    576.000000
  0.925000 -0.375000 -0.175000    576.000000
  0.275000  0.275000  0.575000    288.000000
  0.225000  0.325000  0.625000    576.000000
  1.175000 -0.625000 -0.325000    576.000000
  1.125000 -0.575000 -0.275000    576.000000
  1.075000 -0.525000 -0.225000    576.000000
  1.025000 -0.475000 -0.175000    576.000000
  0.975000 -0.425000 -0.125000    576.000000
  0.275000  0.275000  0.675000    288.000000
  1.225000 -0.675000 -0.275000    576.000000
  1.175000 -0.625000 -0.225000    576.000000
  1.125000 -0.575000 -0.175000    576.000000
  1.075000 -0.525000 -0.125000    576.000000
  1.025000 -0.475000 -0.075000    576.000000
  0.275000  0.275000 -1.225000    288.000000
  0.225000  0.325000 -1.175000    576.000000
  0.175000  0.375000 -1.125000    576.000000
  0.125000  0.425000 -1.075000    576.000000
  0.275000  0.275000 -1.125000    288.000000
  0.225000  0.325000 -1.075000    576.000000
  0.175000  0.375000 -1.025000    576.000000
  0.275000  0.275000 -1.025000    288.000000
  0.225000  0.325000 -0.975000    576.000000
  0.275000  0.275000 -0.925000    288.000000
  0.325000  0.325000  0.325000     96.000000
  0.275000  0.375000  0.375000    288.000000
  0.225000  0.425000  0.425000    288.000000
  0.175000  0.475000  0.475000    288.000000
  1.125000 -0.475000 -0.475000    288.000000
  1.075000 -0.425000 -0.425000    288.000000
  1.025000 -0.375000 -0.375000    288.000000
  0.975000 -0.325000 -0.325000    288.000000
  0.325000  0.325000  0.425000    288.000000
  0.275000  0.375000  0.475000    576.000000
  0.225000  0.425000  0.525000    576.000000
  1.175000 -0.525000 -0.425000    576.000000
  1.125000 -0.475000 -0.375000    576.000000
  1.075000 -0.425000 -0.325000    576.000000
  1.025000 -0.375000 -0.275000    576.000000
  0.325000  0.325000  0.525000    288.000000
  0.275000  0.375000  0.575000    576.000000
  1.225000 -0.575000 -0.375000    576.000000
  1.175000 -0.525000 -0.325000    576.000000
  1.125000 -0.475000 -0.275000    576.000000
  1.075000 -0.425000 -0.225000    576.000000
  0.325000  0.325000  0.625000    288.000000
  1.275000 -0.625000 -0.325000    576.000000
  1.225000 -0.575000 -0.275000    576.000000
  1.175000 -0.525000 -0.225000    576.000000
  1.125000 -0.475000 -0.175000    576.000000
  0.325000  0.325000 -1.275000    288.000000
  0.275000  0.375000 -1.225000    576.000000
  0.225000  0.425000 -1.175000    576.000000
  0.325000  0.325000 -1.175000    288.000000
  0.275000  0.375000 -1.125000    576.000000
  0.325000  0.325000 -1.075000    288.000000
  0.375000  0.375000  0.375000     96.000000
  0.325000  0.425000  0.425000    288.000000
  0.275000  0.475000  0.475000    288.000000
  1.225000 -0.475000 -0.475000    288.000000
  1.175000 -0.425000 -0.425000    288.000000
  1.125000 -0.375000 -0.375000    288.000000
  0.375000  0.375000  0.475000    288.000000
[...]
  band No.  band energies     occupation 
      1      -3.9405      2.00000
      2      -3.4683      2.00000
      3      -2.7774      2.00000
      4      -2.7236      2.00000
      5      -1.9225      2.00000
      6       4.5956     -0.00000
      7       6.4819     -0.00000
      8      13.1350      0.00000
      9      16.8966      0.00000
     10      20.1295      0.00000
     11      26.7463      0.00000
     12      28.8796      0.00000

 k-point   754 :       0.4750    0.4750    0.3750
  band No.  band energies     occupation 
      1      -4.2645      2.00000
      2      -3.4073      2.00000
      3      -3.2129      2.00000
      4      -2.1631      2.00000
      5      -1.7696      2.00000
      6       2.6228      0.62671
      7       6.3080     -0.00000
      8      18.1567      0.00000
      9      18.8072      0.00000
     10      19.1159      0.00000
     11      26.5225      0.00000
     12      26.5700      0.00000

 k-point   755 :      -0.4750    0.4750    0.3750
  band No.  band energies     occupation 
      1      -4.1840      2.00000
      2      -3.4527      2.00000
      3      -3.1307      2.00000
      4      -2.2772      2.00000
      5      -1.7962      2.00000
      6       3.3443     -0.00000
      7       5.9243     -0.00000
      8      17.1694      0.00000
      9      17.6811      0.00000
     10      19.7699      0.00000
     11      26.1137      0.00000
     12      27.5062      0.00000

 k-point   756 :      -0.4250    0.4750    0.3750
  band No.  band energies     occupation 
      1      -4.0439      2.00000
      2      -3.5261      2.00000
      3      -2.9865      2.00000
      4      -2.4592      2.00000
      5      -1.8414      2.00000
      6       4.1651     -0.00000
      7       5.7294     -0.00000
      8      15.6997      0.00000
      9      16.7398      0.00000
     10      20.4500      0.00000
     11      25.8279      0.00000
     12      28.5128      0.00000

 k-point   757 :      -0.3750    0.4750    0.3750
  band No.  band energies     occupation 
      1      -3.9005      2.00000
      2      -3.5820      2.00000
      3      -2.7987      2.00000
      4      -2.6963      2.00000
      5      -1.8588      2.00000
      6       4.9065     -0.00000
      7       5.8652     -0.00000
      8      14.0974      0.00000
      9      15.8928      0.00000
     10      20.9464      0.00000
     11      25.9019      0.00000
     12      29.5241      0.00000

 k-point   758 :      -0.4750   -0.4750    0.3750
  band No.  band energies     occupation 
      1      -4.1492      2.00000
      2      -3.4610      2.00000
      3      -3.0821      2.00000
      4      -2.3565      2.00000
      5      -1.7855      2.00000
      6       3.9924     -0.00000
      7       5.4858     -0.00000
      8      16.2408      0.00000
      9      18.2166      0.00000
     10      19.1344      0.00000
     11      26.9827      0.00000
     12      27.1502      0.00000

 k-point   759 :      -0.4250   -0.4750    0.3750
  band No.  band energies     occupation 
      1      -4.0524      2.00000
      2      -3.5025      2.00000
      3      -2.9690      2.00000
      4      -2.4913      2.00000
      5      -1.8275      2.00000
      6       4.7075     -0.00000
      7       5.2823     -0.00000
      8      15.1952      0.00000
      9      17.2009      0.00000
     10      19.9065      0.00000
     11      26.4219      0.00000
     12      28.2717      0.00000

 k-point   760 :      -0.4250   -0.4250    0.3750
  band No.  band energies     occupation 
      1      -4.0219      2.00000
      2      -3.4666      2.00000
      3      -2.9064      2.00000
      4      -2.5708      2.00000
      5      -1.8738      2.00000
      6       4.7618     -0.00000
      7       5.6298     -0.00000
      8      14.1625      0.00000
      9      17.7952      0.00000
     10      19.3107      0.00000
     11      27.3488      0.00000
     12      27.7609      0.00000

 k-point   761 :       0.4250    0.4250    0.4250
  band No.  band energies     occupation 
      1      -4.3855      2.00000
      2      -3.3384      2.00000
      3      -3.3384      2.00000
      4      -1.8643      2.00000
      5      -1.8643      2.00000
      6       1.7784      2.00000
      7       6.6668     -0.00000
      8      18.8707      0.00000
      9      20.0652      0.00000
     10      20.0652      0.00000
     11      25.7152      0.00000
     12      25.7153      0.00000

 k-point   762 :       0.4750    0.4250    0.4250
  band No.  band energies     occupation 
      1      -4.3636      2.00000
      2      -3.3588      2.00000
      3      -3.3206      2.00000
      4      -1.8775      2.00000
      5      -1.8676      2.00000
      6       2.3455      2.06948
      7       6.1445     -0.00000
      8      18.6301      0.00000
      9      19.3551      0.00000
     10      20.0635      0.00000
     11      25.8108      0.00000
     12      25.8752      0.00000

 k-point   763 :      -0.4750    0.4250    0.4250
  band No.  band energies     occupation 
      1      -4.2675      2.00000
      2      -3.4080      2.00000
      3      -3.2393      2.00000
      4      -2.0330      2.00000
      5      -1.8852      2.00000
      6       3.0920     -0.00166
      7       5.7658     -0.00000
      8      17.4156      0.00000
      9      19.1595      0.00000
     10      19.5625      0.00000
     11      26.1161      0.00000
     12      26.2983      0.00000

 k-point   764 :      -0.4250    0.4250    0.4250
  band No.  band energies     occupation 
      1      -4.1263      2.00000
      2      -3.4638      2.00000
      3      -3.0978      2.00000
      4      -2.2858      2.00000
      5      -1.8835      2.00000
      6       3.9485     -0.00000
      7       5.5577     -0.00000
      8      15.8123      0.00000
      9      18.7484      0.00000
     10      19.2166      0.00000
     11      26.6020      0.00000
     12      27.0013      0.00000

 k-point   765 :       0.4750    0.4750    0.4250
  band No.  band energies     occupation 
      1      -4.3772      2.00000
      2      -3.3727      2.00000
      3      -3.3193      2.00000
      4      -1.9096      2.00000
      5      -1.7817      2.00000
      6       2.8216     -0.07091
      7       5.5790     -0.00000
      8      18.7277      0.00000
      9      19.5222      0.00000
     10      19.5589      0.00000
     11      25.9774      0.00000
     12      25.9946      0.00000

 k-point   766 :      -0.4750    0.4750    0.4250
  band No.  band energies     occupation 
      1      -4.3132      2.00000
      2      -3.4068      2.00000
      3      -3.2647      2.00000
      4      -2.0062      2.00000
      5      -1.8061      2.00000
      6       3.4927     -0.00000
      7       5.1526     -0.00000
      8      18.2570      0.00000
      9      18.5346      0.00000
     10      19.6922      0.00000
     11      25.8955      0.00000
     12      26.6107      0.00000

 k-point   767 :      -0.4250    0.4750    0.4250
  band No.  band energies     occupation 
      1      -4.1877      2.00000
      2      -3.4618      2.00000
      3      -3.1444      2.00000
      4      -2.2137      2.00000
      5      -1.8268      2.00000
      6       4.3189     -0.00000
      7       4.8713     -0.00000
      8      16.7937      0.00000
      9      17.9386      0.00000
     10      19.8145      0.00000
     11      26.0023      0.00000
     12      27.4032      0.00000

 k-point   768 :      -0.4750   -0.4750    0.4250
  band No.  band energies     occupation 
      1      -4.2852      2.00000
      2      -3.4201      2.00000
      3      -3.2374      2.00000
      4      -2.0640      2.00000
      5      -1.7936      2.00000
      6       4.0600     -0.00000
      7       4.7008     -0.00000
      8      17.7088      0.00000
      9      19.0595      0.00000
     10      19.0761      0.00000
     11      26.3883      0.00000
     12      26.4356      0.00000

 k-point   769 :       0.4750    0.4750    0.4750
  band No.  band energies     occupation 
      1      -4.4228      2.00000
      2      -3.3583      2.00000
      3      -3.3583      2.00000
      4      -1.7887      2.00000
      5      -1.7887      2.00000
      6       3.1898     -0.00013
      7       4.9977     -0.00000
      8      18.7457      0.00000
      9      19.8585      0.00000
     10      19.8585      0.00000
     11      25.7474      0.00000
     12      25.7474      0.00000

 k-point   770 :      -0.4750    0.4750    0.4750
  band No.  band energies     occupation 
      1      -4.3892      2.00000
      2      -3.3767      2.00000
      3      -3.3318      2.00000
      4      -1.8563      2.00000
      5      -1.7955      2.00000
      6       3.7133     -0.00000
      7       4.6013     -0.00000
      8      18.6369      0.00000
      9      19.3334      0.00000
     10      19.6851      0.00000
     11      25.9121      0.00000
     12      25.9865      0.00000


--------------------------------------------------------------------------------------------------------


 soft charge-density along one line, spin component           1
         0         1         2         3         4         5         6         7         8         9
 total charge-density along one line
 
 pseudopotential strength for first ion, spin component:           1
-12.600   0.000   0.000   0.000  -0.000   0.000   0.000   0.000  -0.000   0.000   0.310   0.000  -0.000   0.000   0.000   0.000
  0.000   0.000 -12.600   0.000   0.000   0.000   0.000   0.000  -0.000   0.000  -0.000   0.000   0.310   0.000  -0.000   0.000
 -0.000   0.000   0.000   0.000 -12.596   0.000   0.000   0.000   0.000   0.000   0.000   0.000  -0.000   0.000   0.310   0.000
  0.000   0.000   0.000   0.000   0.000   0.000 -12.600   0.000   0.000   0.000  -0.000   0.000  -0.000   0.000  -0.000   0.000
 -0.000   0.000  -0.000   0.000   0.000   0.000   0.000   0.000 -12.596   0.000   0.000   0.000   0.000   0.000  -0.000   0.000
  0.310   0.000  -0.000   0.000   0.000   0.000  -0.000   0.000   0.000   0.000   0.228   0.000   0.000   0.000  -0.000   0.000
 -0.000   0.000   0.310   0.000  -0.000   0.000  -0.000   0.000   0.000   0.000   0.000   0.000   0.228   0.000   0.000   0.000
  0.000   0.000  -0.000   0.000   0.310   0.000  -0.000   0.000  -0.000   0.000  -0.000   0.000   0.000   0.000   0.228   0.000
 -0.000   0.000  -0.000   0.000  -0.000   0.000   0.310   0.000  -0.000   0.000   0.000   0.000   0.000   0.000   0.000   0.000
  0.000   0.000   0.000   0.000  -0.000   0.000  -0.000   0.000   0.310   0.000  -0.000   0.000  -0.000   0.000   0.000   0.000
 -0.000   0.000  -0.000   0.000   0.000   0.000  -0.000   0.000   0.000   0.000  -0.000   0.000  -0.000   0.000  -0.000   0.000
  0.000   0.000   0.000   0.000  -0.000   0.000   0.000   0.000  -0.000   0.000  -0.000   0.000  -0.000   0.000   0.000   0.000
  0.000   0.000   0.000   0.000   0.000   0.000  -0.000   0.000   0.000   0.000  -0.000   0.000  -0.000   0.000  -0.000   0.000
 -0.000   0.000  -0.000   0.000   0.000   0.000   0.000   0.000   0.000   0.000   0.000   0.000   0.000   0.000  -0.000   0.000
 -0.000   0.000  -0.000   0.000  -0.000   0.000   0.000   0.000   0.000   0.000   0.000   0.000   0.000   0.000   0.000   0.000
 -0.000   0.000  -0.000   0.000  -0.000   0.000   0.000   0.000  -0.000   0.000   0.000   0.000   0.000   0.000   0.000   0.000
  0.000   0.000   0.000   0.000  -0.000   0.000  -0.000   0.000  -0.000   0.000  -0.000   0.000  -0.000   0.000   0.000   0.000
  0.000   0.000   0.000   0.000   0.000   0.000  -0.000   0.000  -0.000   0.000  -0.000   0.000  -0.000   0.000  -0.000   0.000
 total augmentation occupancy for first ion, spin component:           1
  2.000   0.000   0.000   0.000   0.000   0.000   0.000   0.000   0.000   0.000   0.000   0.000   0.000   0.000   0.000   0.000
  0.000   2.000   0.000   0.000   0.000   0.000   0.000   0.000   0.000   0.000   0.000   0.000   0.000   0.000   0.000   0.000
  0.000   0.000   2.000   0.000   0.000   0.000   0.000   0.000   0.000   0.000   0.000   0.000   0.000   0.000   0.000   0.000
  0.000   0.000   0.000   2.000   0.000   0.000   0.000   0.000   0.000   0.000   0.000   0.000   0.000   0.000   0.000   0.000
  0.000   0.000   0.000   0.000   2.000   0.000   0.000   0.000   0.000   0.000   0.000   0.000   0.000   0.000   0.000   0.000
  0.000   0.000   0.000   0.000   0.000   0.000   0.000   0.000   0.000   0.000   0.000   0.000   0.000   0.000   0.000   0.000
  0.000   0.000   0.000   0.000   0.000   0.000   0.000   0.000   0.000   0.000   0.000   0.000   0.000   0.000   0.000   0.000
  0.000   0.000   0.000   0.000   0.000   0.000   0.000   0.000   0.000   0.000   0.000   0.000   0.000   0.000   0.000   0.000
  0.000   0.000   0.000   0.000   0.000   0.000   0.000   0.000   0.000   0.000   0.000   0.000   0.000   0.000   0.000   0.000
  0.000   0.000   0.000   0.000   0.000   0.000   0.000   0.000   0.000   0.000   0.000   0.000   0.000   0.000   0.000   0.000
  0.000   0.000   0.000   0.000   0.000   0.000   0.000   0.000   0.000   0.000   1.000   0.000   0.000   0.000   0.000   0.000
  0.000   0.000   0.000   0.000   0.000   0.000   0.000   0.000   0.000   0.000   0.000   0.000   0.000   0.000   0.000   0.000
  0.000   0.000   0.000   0.000   0.000   0.000   0.000   0.000   0.000   0.000   0.000   0.000   0.000   0.000   0.000   0.000
  0.000   0.000   0.000   0.000   0.000   0.000   0.000   0.000   0.000   0.000   0.000   0.000   0.000   0.000   0.000   0.000
  0.000   0.000   0.000   0.000   0.000   0.000   0.000   0.000   0.000   0.000   0.000   0.000   0.000   0.000   0.000   0.000
  0.000   0.000   0.000   0.000   0.000   0.000   0.000   0.000   0.000   0.000   0.000   0.000   0.000   0.000   0.000   0.000
  0.000   0.000   0.000   0.000   0.000   0.000   0.000   0.000   0.000   0.000   0.000   0.000   0.000   0.000   0.000   0.000
  0.000   0.000   0.000   0.000   0.000   0.000   0.000   0.000   0.000   0.000   0.000   0.000   0.000   0.000   0.000   0.000


------------------------ aborting loop because EDIFF is reached ----------------------------------------


    CHARGE:  cpu time    0.0193: real time    0.0426
    FORLOC:  cpu time    0.0002: real time    0.0003
    FORNL :  cpu time    0.0568: real time    0.1130
    STRESS:  cpu time    0.3855: real time    0.7716
    FORCOR:  cpu time    0.0031: real time    0.0091
    FORHAR:  cpu time    0.0007: real time    0.0007
    OFIELD:  cpu time    0.0001: real time    0.0000

  FORCE on cell =-STRESS in cart. coord.  units (eV):
  Direction    XX          YY          ZZ          XY          YZ          ZX
  --------------------------------------------------------------------------------------
  Alpha Z    92.46378    92.46378    92.46378
  Ewald    -309.63356  -309.63356  -309.63356     0.00000    -0.00000     0.00000
  Hartree    58.47555    58.47555    58.47555     0.00000     0.00000     0.00000
  E(xc)     -45.58174   -45.58174   -45.58174     0.00004     0.00004     0.00004
  Local      90.05112    90.05112    90.05112     0.00052     0.00052     0.00052
  n-local   -54.94495   -53.08644   -55.44289     0.57153    -0.51185    -0.00730
  augment    58.69245    58.69245    58.69245    -0.00003    -0.00003    -0.00003
  Kinetic   156.66604   156.51121   158.63612    -0.70044     0.74367    -0.00866
  Fock        0.00000     0.00000     0.00000     0.00000     0.00000     0.00000
  -------------------------------------------------------------------------------------
  Total      47.24730    47.24730    47.24730    -0.00000    -0.00000     0.00000
  in kB    3808.39671  3808.39671  3808.39671    -0.00000    -0.00000     0.00000
  external pressure =     3808.40 kB  Pullay stress =        0.00 kB


 VOLUME and BASIS-vectors are now :
 -----------------------------------------------------------------------------
  energy-cutoff  :      230.00
  volume of cell :       19.88
      direct lattice vectors                 reciprocal lattice vectors
     0.000000000  2.150000000  2.150000000    -0.232558140  0.232558140  0.232558140
     2.150000000  0.000000000  2.150000000     0.232558140 -0.232558140  0.232558140
     2.150000000  2.150000000  0.000000000     0.232558140  0.232558140 -0.232558140

  length of vectors
     3.040559159  3.040559159  3.040559159     0.402802513  0.402802513  0.402802513


 FORCES acting on ions
    electron-ion (+dipol)            ewald-force                    non-local-force                 convergence-correction
 -----------------------------------------------------------------------------------------------
   0.225E-14 0.575E-15 0.209E-15   0.229E-15 0.993E-15 0.227E-14   0.000E+00 0.000E+00 0.000E+00   -.307E-14 0.182E-15 -.768E-14
 -----------------------------------------------------------------------------------------------
   0.225E-14 0.575E-15 0.209E-15   0.229E-15 0.993E-15 0.227E-14   0.000E+00 0.000E+00 0.000E+00   -.307E-14 0.182E-15 -.768E-14
 
 
 POSITION                                       TOTAL-FORCE (eV/Angst)
 -----------------------------------------------------------------------------------
      0.00000      0.00000      0.00000        -0.000000     -0.000000      0.000000
 -----------------------------------------------------------------------------------
    total drift:                               -0.000000      0.000000     -0.000000


--------------------------------------------------------------------------------------------------------



  FREE ENERGIE OF THE ION-ELECTRON SYSTEM (eV)
  ---------------------------------------------------
  free  energy   TOTEN  =        -8.00385554 eV

  energy  without entropy=       -8.00389751  energy(sigma->0) =       -8.00386953
 


--------------------------------------------------------------------------------------------------------


    POTLOK:  cpu time    0.0023: real time    0.0029


--------------------------------------------------------------------------------------------------------


 writing wavefunctions
     LOOP+:  cpu time    3.9963: real time    8.2364
    4ORBIT:  cpu time    0.0000: real time    0.0000

volume of typ            1:    71.6 %
 
total charge     
 
# of ion       s       p       d       tot
------------------------------------------
    1        0.513   0.201   9.315  10.029
 
orbital moment (x)
 
# of ion     s             p             d             tot
-----------------------------------------------------------------
    1     0.000000E+00 -0.218312E-08  0.101531E-07  0.796997E-08
 
orbital moment (y)
 
# of ion     s             p             d             tot
-----------------------------------------------------------------
    1     0.000000E+00  0.189685E-08  0.269826E-08  0.459511E-08
 
orbital moment (z)
 
# of ion     s             p             d             tot
-----------------------------------------------------------------
    1     0.000000E+00 -0.200820E-08  0.916805E-08  0.715985E-08
 

 total amount of memory used by VASP MPI-rank0    56754. kBytes
=======================================================================

   base      :      30000. kBytes
   nonl-proj :      19074. kBytes
   fftplans  :        238. kBytes
   grid      :        331. kBytes
   one-center:         15. kBytes
   wavefun   :       7096. kBytes
 
  
  
 General timing and accounting informations for this job:
 ========================================================
  
                  Total CPU time used (sec):       14.120
                            User time (sec):       12.622
                          System time (sec):        1.498
                         Elapsed time (sec):       28.686
  
                   Maximum memory used (kb):       86496.
                   Average memory used (kb):           0.
  
                          Minor page faults:        28849
                          Major page faults:            0
                 Voluntary context switches:         5312
