PROCAR new format
# of k-points:  770         # of bands:   12         # of ions:    1

 k-point     1 :    0.02500000 0.02500000 0.02500000     weight = 0.00025000

band     1 # energy   -4.55558972 # occ.  2.00000000
 
ion      s      p      d    tot
    1  0.608  0.001  0.000  0.608
 
band     2 # energy   -3.38101487 # occ.  2.00000000
 
ion      s      p      d    tot
    1  0.000  0.000  0.947  0.947
 
band     3 # energy   -3.37349809 # occ.  2.00000000
 
ion      s      p      d    tot
    1  0.000  0.000  0.947  0.947
 
band     4 # energy   -3.37349809 # occ.  2.00000000
 
ion      s      p      d    tot
    1  0.000  0.000  0.947  0.947
 
band     5 # energy   -2.51426520 # occ.  2.00000000
 
ion      s      p      d    tot
    1  0.000  0.000  0.968  0.968
 
band     6 # energy   -2.51426520 # occ.  2.00000000
 
ion      s      p      d    tot
    1  0.000  0.000  0.968  0.968
 
band     7 # energy   19.32699185 # occ.  0.00000000
 
ion      s      p      d    tot
    1  0.000  0.000  0.003  0.003
 
band     8 # energy   21.84871934 # occ.  0.00000000
 
ion      s      p      d    tot
    1  0.005  0.311  0.007  0.324
 
band     9 # energy   22.05212495 # occ.  0.00000000
 
ion      s      p      d    tot
    1  0.000  0.318  0.003  0.321
 
band    10 # energy   22.05212495 # occ.  0.00000000
 
ion      s      p      d    tot
    1  0.000  0.318  0.003  0.321
 
band    11 # energy   26.65901444 # occ.  0.00000000
 
ion      s      p      d    tot
    1  0.091  0.019  0.005  0.115
 
band    12 # energy   28.06215716 # occ.  0.00000000
 
ion      s      p      d    tot
    1  0.001  0.016  0.504  0.522
 

 k-point     2 :    0.07500000 0.02500000 0.02500000     weight = 0.00075000

band     1 # energy   -4.45689547 # occ.  2.00000000
 
ion      s      p      d    tot
    1  0.602  0.005  0.002  0.610
 
band     2 # energy   -3.39743250 # occ.  2.00000000
 
ion      s      p      d    tot
    1  0.000  0.001  0.945  0.946
 
band     3 # energy   -3.35139019 # occ.  2.00000000
 
ion      s      p      d    tot
    1  0.000  0.000  0.948  0.948
 
band     4 # energy   -3.33924648 # occ.  2.00000000
 
ion      s      p      d    tot
    1  0.001  0.000  0.946  0.947
 
band     5 # energy   -2.53368845 # occ.  2.00000000
 
ion      s      p      d    tot
    1  0.000  0.000  0.967  0.967
 
band     6 # energy   -2.50887578 # occ.  2.00000000
 
ion      s      p      d    tot
    1  0.000  0.000  0.967  0.967
 
band     7 # energy   19.33864242 # occ.  0.00000000
 
ion      s      p      d    tot
    1  0.000  0.006  0.024  0.030
 
band     8 # energy   21.07699819 # occ.  0.00000000
 
ion      s      p      d    tot
    1  0.025  0.295  0.025  0.345
 
band     9 # energy   21.82378491 # occ.  0.00000000
 
ion      s      p      d    tot
    1  0.000  0.336  0.024  0.360
 
band    10 # energy   22.23072600 # occ.  0.00000000
 
ion      s      p      d    tot
    1  0.000  0.320  0.007  0.327
 
band    11 # energy   26.72964888 # occ.  0.00000000
 
ion      s      p      d    tot
    1  0.028  0.133  0.128  0.289
 
band    12 # energy   27.87230738 # occ.  0.00000000
 
ion      s      p      d    tot
    1  0.003  0.058  0.365  0.426
 

 k-point     3 :    0.12500000 0.02500000 0.02500000     weight = 0.00075000

band     1 # energy   -4.23603332 # occ.  2.00000000
 
ion      s      p      d    tot
    1  0.570  0.014  0.038  0.622
 
band     2 # energy   -3.40214308 # occ.  2.00000000
 
ion      s      p      d    tot
    1  0.016  0.004  0.913  0.933
 
band     3 # energy   -3.29613677 # occ.  2.00000000
 
ion      s      p      d    tot
    1  0.000  0.000  0.948  0.948
 
band     4 # energy   -3.27354920 # occ.  2.00000000
 
ion      s      p      d    tot
    1  0.006  0.002  0.937  0.945
 
band     5 # energy   -2.55060111 # occ.  2.00000000
 
ion      s      p      d    tot
    1  0.000  0.000  0.965  0.965
 
band     6 # energy   -2.49980595 # occ.  2.00000000
 
ion      s      p      d    tot
    1  0.001  0.000  0.965  0.966
 
band     7 # energy   18.87349856 # occ.  0.00000000
 
ion      s      p      d    tot
    1  0.022  0.170  0.099  0.290
 
band     8 # energy   20.02469962 # occ.  0.00000000
 
ion      s      p      d    tot
    1  0.030  0.143  0.009  0.181
 
band     9 # energy   21.73218040 # occ.  0.00000000
 
ion      s      p      d    tot
    1  0.000  0.357  0.051  0.408
 
band    10 # energy   22.42716146 # occ.  0.00000000
 
ion      s      p      d    tot
    1  0.000  0.340  0.032  0.371
 
band    11 # energy   25.89522493 # occ.  0.00000000
 
ion      s      p      d    tot
    1  0.000  0.199  0.109  0.308
 
band    12 # energy   27.52297324 # occ.  0.00000000
 
ion      s      p      d    tot
    1  0.000  0.090  0.234  0.325
 

 k-point     4 :    0.17500000 0.02500000 0.02500000     weight = 0.00075000

band     1 # energy   -4.01820329 # occ.  2.00000000
 
ion      s      p      d    tot
    1  0.419  0.015  0.267  0.702
 
band     2 # energy   -3.29753008 # occ.  2.00000000
 
ion      s      p      d    tot
    1  0.086  0.012  0.793  0.891
 
band     3 # energy   -3.22876359 # occ.  2.00000000
 
ion      s      p      d    tot
    1  0.000  0.000  0.949  0.949
 
band     4 # energy   -3.17391844 # occ.  2.00000000
 
ion      s      p      d    tot
    1  0.068  0.011  0.827  0.905
 
band     5 # energy   -2.55481351 # occ.  2.00000000
 
ion      s      p      d    tot
    1  0.000  0.000  0.963  0.963
 
band     6 # energy   -2.46900320 # occ.  2.00000000
 
ion      s      p      d    tot
    1  0.003  0.001  0.959  0.963
 
band     7 # energy   17.16243796 # occ.  0.00000000
 
ion      s      p      d    tot
    1  0.064  0.295  0.121  0.479
 
band     8 # energy   19.93804224 # occ.  0.00000000
 
ion      s      p      d    tot
    1  0.017  0.040  0.038  0.095
 
band     9 # energy   21.64617351 # occ.  0.00000000
 
ion      s      p      d    tot
    1  0.000  0.386  0.079  0.465
 
band    10 # energy   22.56999060 # occ.  0.00000000
 
ion      s      p      d    tot
    1  0.000  0.386  0.069  0.455
 
band    11 # energy   25.05463234 # occ.  0.00000000
 
ion      s      p      d    tot
    1  0.006  0.199  0.042  0.247
 
band    12 # energy   26.73513665 # occ.  0.00000000
 
ion      s      p      d    tot
    1  0.000  0.150  0.199  0.348
 

 k-point     5 :    0.22500000 0.02500000 0.02500000     weight = 0.00075000

band     1 # energy   -3.98372535 # occ.  2.00000000
 
ion      s      p      d    tot
    1  0.228  0.008  0.571  0.806
 
band     2 # energy   -3.19688992 # occ.  2.00000000
 
ion      s      p      d    tot
    1  0.007  0.002  0.935  0.944
 
band     3 # energy   -3.18555302 # occ.  2.00000000
 
ion      s      p      d    tot
    1  0.000  0.000  0.949  0.949
 
band     4 # energy   -2.78773297 # occ.  2.00000000
 
ion      s      p      d    tot
    1  0.286  0.050  0.426  0.762
 
band     5 # energy   -2.50951329 # occ.  2.00000000
 
ion      s      p      d    tot
    1  0.000  0.000  0.962  0.962
 
band     6 # energy   -2.37616356 # occ.  2.00000000
 
ion      s      p      d    tot
    1  0.032  0.006  0.907  0.945
 
band     7 # energy   15.16301656 # occ.  0.00000000
 
ion      s      p      d    tot
    1  0.098  0.325  0.127  0.549
 
band     8 # energy   19.91636397 # occ.  0.00000000
 
ion      s      p      d    tot
    1  0.013  0.035  0.063  0.111
 
band     9 # energy   21.45784413 # occ.  0.00000000
 
ion      s      p      d    tot
    1  0.000  0.419  0.097  0.515
 
band    10 # energy   22.53036134 # occ.  0.00000000
 
ion      s      p      d    tot
    1  0.000  0.460  0.101  0.561
 
band    11 # energy   24.61035980 # occ.  0.00000000
 
ion      s      p      d    tot
    1  0.021  0.169  0.018  0.209
 
band    12 # energy   26.00885037 # occ.  0.00000000
 
ion      s      p      d    tot
    1  0.000  0.097  0.173  0.271
 

 k-point     6 :    0.27500000 0.02500000 0.02500000     weight = 0.00075000

band     1 # energy   -4.06176243 # occ.  2.00000000
 
ion      s      p      d    tot
    1  0.150  0.004  0.693  0.846
 
band     2 # energy   -3.19500950 # occ.  2.00000000
 
ion      s      p      d    tot
    1  0.001  0.001  0.945  0.947
 
band     3 # energy   -3.18898884 # occ.  2.00000000
 
ion      s      p      d    tot
    1  0.000  0.000  0.948  0.948
 
band     4 # energy   -2.39800071 # occ.  2.00000000
 
ion      s      p      d    tot
    1  0.000  0.001  0.962  0.963
 
band     5 # energy   -2.36266549 # occ.  2.00000000
 
ion      s      p      d    tot
    1  0.056  0.015  0.851  0.922
 
band     6 # energy   -1.93583934 # occ.  2.00000000
 
ion      s      p      d    tot
    1  0.318  0.078  0.340  0.737
 
band     7 # energy   13.12301204 # occ.  0.00000000
 
ion      s      p      d    tot
    1  0.133  0.333  0.128  0.593
 
band     8 # energy   19.74381192 # occ.  0.00000000
 
ion      s      p      d    tot
    1  0.009  0.041  0.064  0.114
 
band     9 # energy   21.09540292 # occ.  0.00000000
 
ion      s      p      d    tot
    1  0.001  0.452  0.092  0.544
 
band    10 # energy   22.18305340 # occ.  0.00000000
 
ion      s      p      d    tot
    1  0.000  0.526  0.097  0.623
 
band    11 # energy   24.67291511 # occ.  0.00000000
 
ion      s      p      d    tot
    1  0.041  0.126  0.053  0.220
 
band    12 # energy   25.60280432 # occ.  0.00000000
 
ion      s      p      d    tot
    1  0.000  0.034  0.219  0.252
 

 k-point     7 :    0.32500000 0.02500000 0.02500000     weight = 0.00075000

band     1 # energy   -4.16882787 # occ.  2.00000000
 
ion      s      p      d    tot
    1  0.118  0.002  0.740  0.860
 
band     2 # energy   -3.23226113 # occ.  2.00000000
 
ion      s      p      d    tot
    1  0.000  0.001  0.945  0.946
 
band     3 # energy   -3.22910203 # occ.  2.00000000
 
ion      s      p      d    tot
    1  0.000  0.000  0.946  0.946
 
band     4 # energy   -2.23989002 # occ.  2.00000000
 
ion      s      p      d    tot
    1  0.000  0.001  0.965  0.966
 
band     5 # energy   -2.17421970 # occ.  2.00000000
 
ion      s      p      d    tot
    1  0.009  0.004  0.947  0.960
 
band     6 # energy   -1.02301346 # occ.  2.00000000
 
ion      s      p      d    tot
    1  0.365  0.127  0.189  0.681
 
band     7 # energy   11.10405526 # occ.  0.00000000
 
ion      s      p      d    tot
    1  0.170  0.326  0.127  0.624
 
band     8 # energy   19.45840478 # occ.  0.00000000
 
ion      s      p      d    tot
    1  0.005  0.041  0.048  0.095
 
band     9 # energy   20.62704799 # occ.  0.00000000
 
ion      s      p      d    tot
    1  0.002  0.480  0.071  0.554
 
band    10 # energy   21.58174018 # occ.  0.00000000
 
ion      s      p      d    tot
    1  0.000  0.550  0.069  0.618
 
band    11 # energy   25.07384626 # occ.  0.00000000
 
ion      s      p      d    tot
    1  0.061  0.079  0.134  0.274
 
band    12 # energy   25.50988949 # occ.  0.00000000
 
ion      s      p      d    tot
    1  0.000  0.006  0.300  0.306
 

 k-point     8 :    0.37500000 0.02500000 0.02500000     weight = 0.00075000

band     1 # energy   -4.27015867 # occ.  2.00000000
 
ion      s      p      d    tot
    1  0.103  0.001  0.761  0.866
 
band     2 # energy   -3.28185753 # occ.  2.00000000
 
ion      s      p      d    tot
    1  0.000  0.000  0.944  0.944
 
band     3 # energy   -3.27910763 # occ.  2.00000000
 
ion      s      p      d    tot
    1  0.000  0.000  0.945  0.945
 
band     4 # energy   -2.07021467 # occ.  2.00000000
 
ion      s      p      d    tot
    1  0.000  0.001  0.969  0.970
 
band     5 # energy   -2.01207799 # occ.  2.00000000
 
ion      s      p      d    tot
    1  0.003  0.002  0.963  0.968
 
band     6 # energy    0.08711600 # occ.  2.00000000
 
ion      s      p      d    tot
    1  0.347  0.171  0.145  0.663
 
band     7 # energy    9.14685097 # occ.  0.00000000
 
ion      s      p      d    tot
    1  0.212  0.308  0.126  0.646
 
band     8 # energy   19.15519825 # occ.  0.00000000
 
ion      s      p      d    tot
    1  0.003  0.036  0.030  0.069
 
band     9 # energy   20.17848613 # occ.  0.00000000
 
ion      s      p      d    tot
    1  0.003  0.502  0.048  0.553
 
band    10 # energy   20.92474157 # occ.  0.00000000
 
ion      s      p      d    tot
    1  0.000  0.551  0.039  0.590
 
band    11 # energy   25.51815874 # occ.  0.00000000
 
ion      s      p      d    tot
    1  0.059  0.032  0.253  0.344
 
band    12 # energy   25.56791290 # occ.  0.00000000
 
ion      s      p      d    tot
    1  0.000  0.000  0.377  0.377
 

 k-point     9 :    0.42500000 0.02500000 0.02500000     weight = 0.00075000

band     1 # energy   -4.35213090 # occ.  2.00000000
 
ion      s      p      d    tot
    1  0.095  0.001  0.772  0.868
 
band     2 # energy   -3.32698035 # occ.  2.00000000
 
ion      s      p      d    tot
    1  0.000  0.000  0.943  0.943
 
band     3 # energy   -3.32262782 # occ.  2.00000000
 
ion      s      p      d    tot
    1  0.000  0.000  0.943  0.943
 
band     4 # energy   -1.92621949 # occ.  2.00000000
 
ion      s      p      d    tot
    1  0.000  0.000  0.973  0.974
 
band     5 # energy   -1.88735405 # occ.  2.00000000
 
ion      s      p      d    tot
    1  0.001  0.002  0.971  0.973
 
band     6 # energy    1.35265365 # occ.  2.00000000
 
ion      s      p      d    tot
    1  0.309  0.221  0.119  0.649
 
band     7 # energy    7.27990141 # occ. -0.00000000
 
ion      s      p      d    tot
    1  0.262  0.274  0.129  0.665
 
band     8 # energy   18.90735069 # occ.  0.00000000
 
ion      s      p      d    tot
    1  0.001  0.029  0.016  0.046
 
band     9 # energy   19.84029511 # occ.  0.00000000
 
ion      s      p      d    tot
    1  0.004  0.518  0.027  0.548
 
band    10 # energy   20.35734967 # occ.  0.00000000
 
ion      s      p      d    tot
    1  0.000  0.547  0.017  0.564
 
band    11 # energy   25.65818475 # occ.  0.00000000
 
ion      s      p      d    tot
    1  0.000  0.000  0.431  0.432
 
band    12 # energy   25.76432335 # occ.  0.00000000
 
ion      s      p      d    tot
    1  0.024  0.006  0.373  0.403
 

 k-point    10 :    0.47500000 0.02500000 0.02500000     weight = 0.00075000

band     1 # energy   -4.40480577 # occ.  2.00000000
 
ion      s      p      d    tot
    1  0.092  0.000  0.778  0.869
 
band     2 # energy   -3.35712596 # occ.  2.00000000
 
ion      s      p      d    tot
    1  0.000  0.000  0.942  0.942
 
band     3 # energy   -3.34833359 # occ.  2.00000000
 
ion      s      p      d    tot
    1  0.000  0.000  0.942  0.942
 
band     4 # energy   -1.82747775 # occ.  2.00000000
 
ion      s      p      d    tot
    1  0.000  0.000  0.976  0.977
 
band     5 # energy   -1.81241145 # occ.  2.00000000
 
ion      s      p      d    tot
    1  0.000  0.001  0.974  0.976
 
band     6 # energy    2.74557640 # occ.  0.00046944
 
ion      s      p      d    tot
    1  0.234  0.297  0.090  0.621
 
band     7 # energy    5.53893238 # occ. -0.00000000
 
ion      s      p      d    tot
    1  0.342  0.207  0.147  0.696
 
band     8 # energy   18.75693074 # occ.  0.00000000
 
ion      s      p      d    tot
    1  0.000  0.022  0.008  0.030
 
band     9 # energy   19.67345223 # occ.  0.00000000
 
ion      s      p      d    tot
    1  0.004  0.529  0.013  0.545
 
band    10 # energy   19.95900198 # occ.  0.00000000
 
ion      s      p      d    tot
    1  0.000  0.544  0.005  0.549
 
band    11 # energy   25.74543890 # occ.  0.00000000
 
ion      s      p      d    tot
    1  0.000  0.001  0.458  0.459
 
band    12 # energy   25.82424572 # occ.  0.00000000
 
ion      s      p      d    tot
    1  0.006  0.002  0.434  0.442
 

 k-point    11 :   -0.47500000 0.02500000 0.02500000     weight = 0.00075000

band     1 # energy   -4.41748498 # occ.  2.00000000
 
ion      s      p      d    tot
    1  0.091  0.000  0.779  0.870
 
band     2 # energy   -3.36532456 # occ.  2.00000000
 
ion      s      p      d    tot
    1  0.000  0.000  0.942  0.942
 
band     3 # energy   -3.35267799 # occ.  2.00000000
 
ion      s      p      d    tot
    1  0.000  0.000  0.942  0.942
 
band     4 # energy   -1.80205654 # occ.  2.00000000
 
ion      s      p      d    tot
    1  0.000  0.001  0.975  0.976
 
band     5 # energy   -1.77953766 # occ.  2.00000000
 
ion      s      p      d    tot
    1  0.000  0.000  0.978  0.978
 
band     6 # energy    3.62031748 # occ. -0.00000000
 
ion      s      p      d    tot
    1  0.053  0.460  0.023  0.536
 
band     7 # energy    4.57776489 # occ. -0.00000000
 
ion      s      p      d    tot
    1  0.524  0.047  0.211  0.782
 
band     8 # energy   18.72214633 # occ.  0.00000000
 
ion      s      p      d    tot
    1  0.000  0.018  0.005  0.023
 
band     9 # energy   19.71325885 # occ.  0.00000000
 
ion      s      p      d    tot
    1  0.004  0.535  0.008  0.547
 
band    10 # energy   19.76615322 # occ.  0.00000000
 
ion      s      p      d    tot
    1  0.000  0.541  0.004  0.546
 
band    11 # energy   25.80519566 # occ.  0.00000000
 
ion      s      p      d    tot
    1  0.000  0.002  0.457  0.459
 
band    12 # energy   25.82196586 # occ.  0.00000000
 
ion      s      p      d    tot
    1  0.001  0.001  0.457  0.459
 

 k-point    12 :   -0.42500000 0.02500000 0.02500000     weight = 0.00075000

band     1 # energy   -4.39249430 # occ.  2.00000000
 
ion      s      p      d    tot
    1  0.092  0.000  0.776  0.869
 
band     2 # energy   -3.35389631 # occ.  2.00000000
 
ion      s      p      d    tot
    1  0.000  0.000  0.942  0.942
 
band     3 # energy   -3.33678140 # occ.  2.00000000
 
ion      s      p      d    tot
    1  0.000  0.000  0.942  0.943
 
band     4 # energy   -1.87052121 # occ.  2.00000000
 
ion      s      p      d    tot
    1  0.000  0.001  0.972  0.974
 
band     5 # energy   -1.81384294 # occ.  2.00000000
 
ion      s      p      d    tot
    1  0.000  0.000  0.977  0.977
 
band     6 # energy    2.27061992 # occ.  2.05222980
 
ion      s      p      d    tot
    1  0.267  0.265  0.102  0.634
 
band     7 # energy    6.09981291 # occ. -0.00000000
 
ion      s      p      d    tot
    1  0.307  0.237  0.138  0.682
 
band     8 # energy   18.80717806 # occ.  0.00000000
 
ion      s      p      d    tot
    1  0.000  0.017  0.008  0.024
 
band     9 # energy   19.78426895 # occ.  0.00000000
 
ion      s      p      d    tot
    1  0.000  0.538  0.016  0.554
 
band    10 # energy   19.96919356 # occ.  0.00000000
 
ion      s      p      d    tot
    1  0.005  0.538  0.013  0.555
 
band    11 # energy   25.75185850 # occ.  0.00000000
 
ion      s      p      d    tot
    1  0.000  0.001  0.447  0.449
 
band    12 # energy   25.83249696 # occ.  0.00000000
 
ion      s      p      d    tot
    1  0.000  0.004  0.428  0.432
 

 k-point    13 :   -0.37500000 0.02500000 0.02500000     weight = 0.00075000

band     1 # energy   -4.32695278 # occ.  2.00000000
 
ion      s      p      d    tot
    1  0.097  0.001  0.769  0.867
 
band     2 # energy   -3.32076508 # occ.  2.00000000
 
ion      s      p      d    tot
    1  0.000  0.000  0.943  0.943
 
band     3 # energy   -3.30154383 # occ.  2.00000000
 
ion      s      p      d    tot
    1  0.000  0.000  0.943  0.944
 
band     4 # energy   -1.98921036 # occ.  2.00000000
 
ion      s      p      d    tot
    1  0.001  0.002  0.967  0.970
 
band     5 # energy   -1.90172191 # occ.  2.00000000
 
ion      s      p      d    tot
    1  0.000  0.000  0.974  0.975
 
band     6 # energy    0.91494127 # occ.  2.00000000
 
ion      s      p      d    tot
    1  0.324  0.204  0.127  0.654
 
band     7 # energy    7.89063869 # occ. -0.00000000
 
ion      s      p      d    tot
    1  0.244  0.287  0.128  0.659
 
band     8 # energy   19.00615902 # occ.  0.00000000
 
ion      s      p      d    tot
    1  0.001  0.016  0.015  0.033
 
band     9 # energy   19.99212407 # occ.  0.00000000
 
ion      s      p      d    tot
    1  0.000  0.534  0.037  0.572
 
band    10 # energy   20.42664424 # occ.  0.00000000
 
ion      s      p      d    tot
    1  0.005  0.539  0.027  0.571
 
band    11 # energy   25.62076172 # occ.  0.00000000
 
ion      s      p      d    tot
    1  0.008  0.004  0.399  0.410
 
band    12 # energy   25.85960638 # occ.  0.00000000
 
ion      s      p      d    tot
    1  0.000  0.007  0.374  0.381
 

 k-point    14 :   -0.32500000 0.02500000 0.02500000     weight = 0.00075000

band     1 # energy   -4.23884316 # occ.  2.00000000
 
ion      s      p      d    tot
    1  0.107  0.001  0.756  0.864
 
band     2 # energy   -3.27327896 # occ.  2.00000000
 
ion      s      p      d    tot
    1  0.000  0.000  0.945  0.945
 
band     3 # energy   -3.25395217 # occ.  2.00000000
 
ion      s      p      d    tot
    1  0.000  0.000  0.945  0.945
 
band     4 # energy   -2.14981971 # occ.  2.00000000
 
ion      s      p      d    tot
    1  0.004  0.003  0.958  0.964
 
band     5 # energy   -2.03827850 # occ.  2.00000000
 
ion      s      p      d    tot
    1  0.000  0.001  0.971  0.971
 
band     6 # energy   -0.30284949 # occ.  2.00000000
 
ion      s      p      d    tot
    1  0.356  0.156  0.155  0.668
 
band     7 # energy    9.78999279 # occ.  0.00000000
 
ion      s      p      d    tot
    1  0.198  0.315  0.126  0.639
 
band     8 # energy   19.29404515 # occ.  0.00000000
 
ion      s      p      d    tot
    1  0.003  0.015  0.029  0.047
 
band     9 # energy   20.34184729 # occ.  0.00000000
 
ion      s      p      d    tot
    1  0.000  0.526  0.067  0.592
 
band    10 # energy   21.03797178 # occ.  0.00000000
 
ion      s      p      d    tot
    1  0.005  0.538  0.048  0.592
 
band    11 # energy   25.33926918 # occ.  0.00000000
 
ion      s      p      d    tot
    1  0.035  0.029  0.276  0.341
 
band    12 # energy   25.90680569 # occ.  0.00000000
 
ion      s      p      d    tot
    1  0.000  0.015  0.300  0.315
 

 k-point    15 :   -0.27500000 0.02500000 0.02500000     weight = 0.00075000

band     1 # energy   -4.13292719 # occ.  2.00000000
 
ion      s      p      d    tot
    1  0.126  0.002  0.729  0.857
 
band     2 # energy   -3.22380901 # occ.  2.00000000
 
ion      s      p      d    tot
    1  0.000  0.000  0.946  0.947
 
band     3 # energy   -3.20624895 # occ.  2.00000000
 
ion      s      p      d    tot
    1  0.000  0.001  0.946  0.947
 
band     4 # energy   -2.32957648 # occ.  2.00000000
 
ion      s      p      d    tot
    1  0.012  0.005  0.938  0.955
 
band     5 # energy   -2.19444558 # occ.  2.00000000
 
ion      s      p      d    tot
    1  0.000  0.001  0.967  0.968
 
band     6 # energy   -1.35744921 # occ.  2.00000000
 
ion      s      p      d    tot
    1  0.366  0.114  0.208  0.688
 
band     7 # energy   11.77207038 # occ.  0.00000000
 
ion      s      p      d    tot
    1  0.157  0.330  0.127  0.615
 
band     8 # energy   19.61794923 # occ.  0.00000000
 
ion      s      p      d    tot
    1  0.006  0.013  0.045  0.063
 
band     9 # energy   20.75957611 # occ.  0.00000000
 
ion      s      p      d    tot
    1  0.000  0.508  0.096  0.604
 
band    10 # energy   21.72116056 # occ.  0.00000000
 
ion      s      p      d    tot
    1  0.005  0.531  0.073  0.609
 
band    11 # energy   24.88376778 # occ.  0.00000000
 
ion      s      p      d    tot
    1  0.043  0.079  0.141  0.262
 
band    12 # energy   25.88401679 # occ.  0.00000000
 
ion      s      p      d    tot
    1  0.024  0.062  0.192  0.279
 

 k-point    16 :   -0.22500000 0.02500000 0.02500000     weight = 0.00075000

band     1 # energy   -4.03232974 # occ.  2.00000000
 
ion      s      p      d    tot
    1  0.167  0.005  0.666  0.838
 
band     2 # energy   -3.19473237 # occ.  2.00000000
 
ion      s      p      d    tot
    1  0.002  0.000  0.945  0.947
 
band     3 # energy   -3.17663929 # occ.  2.00000000
 
ion      s      p      d    tot
    1  0.000  0.001  0.948  0.948
 
band     4 # energy   -2.52596747 # occ.  2.00000000
 
ion      s      p      d    tot
    1  0.087  0.020  0.790  0.897
 
band     5 # energy   -2.33877241 # occ.  2.00000000
 
ion      s      p      d    tot
    1  0.000  0.001  0.965  0.966
 
band     6 # energy   -2.19728433 # occ.  2.00000000
 
ion      s      p      d    tot
    1  0.279  0.061  0.429  0.769
 
band     7 # energy   13.80043760 # occ.  0.00000000
 
ion      s      p      d    tot
    1  0.120  0.332  0.128  0.581
 
band     8 # energy   19.88285562 # occ.  0.00000000
 
ion      s      p      d    tot
    1  0.010  0.009  0.057  0.076
 
band     9 # energy   21.15842542 # occ.  0.00000000
 
ion      s      p      d    tot
    1  0.000  0.478  0.114  0.592
 
band    10 # energy   22.31617596 # occ.  0.00000000
 
ion      s      p      d    tot
    1  0.003  0.502  0.092  0.597
 
band    11 # energy   24.53156397 # occ.  0.00000000
 
ion      s      p      d    tot
    1  0.030  0.125  0.058  0.213
 
band    12 # energy   26.03337330 # occ.  0.00000000
 
ion      s      p      d    tot
    1  0.007  0.087  0.151  0.245
 

 k-point    17 :   -0.17500000 0.02500000 0.02500000     weight = 0.00075000

band     1 # energy   -3.97614985 # occ.  2.00000000
 
ion      s      p      d    tot
    1  0.277  0.010  0.493  0.780
 
band     2 # energy   -3.21739515 # occ.  2.00000000
 
ion      s      p      d    tot
    1  0.018  0.003  0.917  0.938
 
band     3 # energy   -3.18581072 # occ.  2.00000000
 
ion      s      p      d    tot
    1  0.000  0.001  0.948  0.949
 
band     4 # energy   -2.96583194 # occ.  2.00000000
 
ion      s      p      d    tot
    1  0.249  0.040  0.499  0.787
 
band     5 # energy   -2.50999680 # occ.  2.00000000
 
ion      s      p      d    tot
    1  0.018  0.003  0.930  0.951
 
band     6 # energy   -2.43871949 # occ.  2.00000000
 
ion      s      p      d    tot
    1  0.000  0.000  0.964  0.965
 
band     7 # energy   15.84000491 # occ.  0.00000000
 
ion      s      p      d    tot
    1  0.086  0.318  0.126  0.530
 
band     8 # energy   19.99430685 # occ.  0.00000000
 
ion      s      p      d    tot
    1  0.014  0.013  0.050  0.077
 
band     9 # energy   21.46788694 # occ.  0.00000000
 
ion      s      p      d    tot
    1  0.000  0.436  0.109  0.545
 
band    10 # energy   22.57583243 # occ.  0.00000000
 
ion      s      p      d    tot
    1  0.001  0.426  0.083  0.510
 
band    11 # energy   24.65295123 # occ.  0.00000000
 
ion      s      p      d    tot
    1  0.015  0.185  0.032  0.232
 
band    12 # energy   26.48052475 # occ.  0.00000000
 
ion      s      p      d    tot
    1  0.001  0.130  0.143  0.274
 

 k-point    18 :   -0.12500000 0.02500000 0.02500000     weight = 0.00075000

band     1 # energy   -4.07572076 # occ.  2.00000000
 
ion      s      p      d    tot
    1  0.489  0.017  0.158  0.664
 
band     2 # energy   -3.35666193 # occ.  2.00000000
 
ion      s      p      d    tot
    1  0.065  0.010  0.828  0.903
 
band     3 # energy   -3.23891893 # occ.  2.00000000
 
ion      s      p      d    tot
    1  0.000  0.001  0.948  0.949
 
band     4 # energy   -3.22456458 # occ.  2.00000000
 
ion      s      p      d    tot
    1  0.026  0.004  0.902  0.932
 
band     5 # energy   -2.55356823 # occ.  2.00000000
 
ion      s      p      d    tot
    1  0.002  0.000  0.960  0.962
 
band     6 # energy   -2.48734381 # occ.  2.00000000
 
ion      s      p      d    tot
    1  0.000  0.000  0.965  0.966
 
band     7 # energy   17.79438209 # occ.  0.00000000
 
ion      s      p      d    tot
    1  0.052  0.274  0.117  0.443
 
band     8 # energy   19.96686904 # occ.  0.00000000
 
ion      s      p      d    tot
    1  0.019  0.043  0.021  0.083
 
band     9 # energy   21.66349849 # occ.  0.00000000
 
ion      s      p      d    tot
    1  0.000  0.391  0.082  0.473
 
band    10 # energy   22.48187827 # occ.  0.00000000
 
ion      s      p      d    tot
    1  0.001  0.359  0.050  0.410
 
band    11 # energy   25.32585866 # occ.  0.00000000
 
ion      s      p      d    tot
    1  0.003  0.217  0.064  0.285
 
band    12 # energy   27.09154702 # occ.  0.00000000
 
ion      s      p      d    tot
    1  0.000  0.093  0.188  0.281
 

 k-point    19 :   -0.07500000 0.02500000 0.02500000     weight = 0.00075000

band     1 # energy   -4.31861678 # occ.  2.00000000
 
ion      s      p      d    tot
    1  0.587  0.011  0.016  0.615
 
band     2 # energy   -3.40856362 # occ.  2.00000000
 
ion      s      p      d    tot
    1  0.006  0.002  0.932  0.940
 
band     3 # energy   -3.30736582 # occ.  2.00000000
 
ion      s      p      d    tot
    1  0.003  0.001  0.943  0.946
 
band     4 # energy   -3.30441405 # occ.  2.00000000
 
ion      s      p      d    tot
    1  0.000  0.001  0.947  0.948
 
band     5 # energy   -2.54498283 # occ.  2.00000000
 
ion      s      p      d    tot
    1  0.000  0.000  0.964  0.965
 
band     6 # energy   -2.50492105 # occ.  2.00000000
 
ion      s      p      d    tot
    1  0.000  0.000  0.967  0.967
 
band     7 # energy   19.18715478 # occ.  0.00000000
 
ion      s      p      d    tot
    1  0.007  0.076  0.071  0.154
 
band     8 # energy   20.28633000 # occ.  0.00000000
 
ion      s      p      d    tot
    1  0.035  0.228  0.014  0.276
 
band     9 # energy   21.79521983 # occ.  0.00000000
 
ion      s      p      d    tot
    1  0.000  0.355  0.046  0.401
 
band    10 # energy   22.26808166 # occ.  0.00000000
 
ion      s      p      d    tot
    1  0.001  0.327  0.022  0.350
 
band    11 # energy   26.27847071 # occ.  0.00000000
 
ion      s      p      d    tot
    1  0.002  0.198  0.127  0.327
 
band    12 # energy   27.60899241 # occ.  0.00000000
 
ion      s      p      d    tot
    1  0.001  0.081  0.307  0.389
 

 k-point    20 :   -0.02500000 0.02500000 0.02500000     weight = 0.00075000

band     1 # energy   -4.50554001 # occ.  2.00000000
 
ion      s      p      d    tot
    1  0.605  0.003  0.001  0.609
 
band     2 # energy   -3.39461119 # occ.  2.00000000
 
ion      s      p      d    tot
    1  0.000  0.000  0.946  0.946
 