BCC W                                   
   2.95000000000000     
    -0.500000    0.500000    0.500000
     0.500000   -0.500000    0.500000
     0.500000    0.500000   -0.500000
   W 
     1
Direct
  0.000000  0.000000  0.000000
 
   20   20   20
  11.857      11.368      10.334      9.5612      9.3581      9.2993      8.8296      7.9025      6.9435      6.3348    
  6.1335      6.3348      6.9435      7.9025      8.8296      9.2993      9.3581      9.5612      10.334      11.368    
  11.368      11.189      10.303      9.4420      9.1094      9.0900      8.8144      8.0515      7.1042      6.3993    
  6.0818      6.1487      6.5966      7.4224      8.3731      9.0037      9.1617      9.2403      9.7605      10.692    
  10.334      10.303      9.6074      8.7809      8.3671      8.3520      8.2656      7.7673      6.9899      6.3094    
  5.9329      5.8844      6.1779      6.8006      7.6523      8.3898      8.7397      8.8462      9.1335      9.7605    
  9.5612      9.4420      8.7809      7.9433      7.4214      7.3348      7.3571      7.1229      6.6059      6.0632    
  5.7057      5.5913      5.7651      6.2018      6.8821      7.6398      8.2189      8.5566      8.8462      9.2403    
  9.3581      9.1094      8.3671      7.4214      6.7102      6.4372      6.4222      6.3420      6.0638      5.7068    
  5.4303      5.3077      5.3981      5.7063      6.2067      6.8785      7.5924      8.2189      8.7397      9.1617    
  9.2993      9.0900      8.3520      7.3348      6.4372      5.9208      5.7406      5.6626      5.5181      5.3167    
  5.1419      5.0552      5.1062      5.3168      5.6841      6.2039      6.8785      7.6398      8.3898      9.0037    
  8.8296      8.8144      8.2656      7.3571      6.4222      5.7406      5.3747      5.2010      5.0785      4.9626    
  4.8723      4.8399      4.8889      5.0346      5.2970      5.6841      6.2067      6.8821      7.6523      8.3731    
  7.9025      8.0515      7.7673      7.1229      6.3420      5.6626      5.2010      4.9311      4.7746      4.6831    
  4.6440      4.6598      4.7273      4.8469      5.0346      5.3168      5.7063      6.2018      6.8006      7.4224    
  6.9435      7.1042      6.9899      6.6059      6.0638      5.5181      5.0785      4.7746      4.5868      4.4905    
  4.4710      4.5143      4.6036      4.7273      4.8889      5.1062      5.3981      5.7651      6.1779      6.5966    
  6.3348      6.3993      6.3094      6.0632      5.7068      5.3167      4.9626      4.6831      4.4905      4.3856    
  4.3626      4.4105      4.5143      4.6598      4.8399      5.0552      5.3077      5.5913      5.8844      6.1487    
  6.1335      6.0818      5.9329      5.7057      5.4303      5.1419      4.8723      4.6440      4.4710      4.3626    
  4.3257      4.3626      4.4710      4.6440      4.8723      5.1419      5.4303      5.7057      5.9329      6.0818    
  6.3348      6.1487      5.8844      5.5913      5.3077      5.0552      4.8399      4.6598      4.5143      4.4105    
  4.3626      4.3856      4.4905      4.6831      4.9626      5.3167      5.7068      6.0632      6.3094      6.3993    
  6.9435      6.5966      6.1779      5.7651      5.3981      5.1062      4.8889      4.7273      4.6036      4.5143    
  4.4710      4.4905      4.5868      4.7746      5.0785      5.5181      6.0638      6.6059      6.9899      7.1042    
  7.9025      7.4224      6.8006      6.2018      5.7063      5.3168      5.0346      4.8469      4.7273      4.6598    
  4.6440      4.6831      4.7746      4.9311      5.2010      5.6626      6.3420      7.1229      7.7673      8.0515    
  8.8296      8.3731      7.6523      6.8821      6.2067      5.6841      5.2970      5.0346      4.8889      4.8399    
  4.8723      4.9626      5.0785      5.2010      5.3747      5.7406      6.4222      7.3571      8.2656      8.8144    
  9.2993      9.0037      8.3898      7.6398      6.8785      6.2039      5.6841      5.3168      5.1062      5.0552    
  5.1419      5.3167      5.5181      5.6626      5.7406      5.9208      6.4372      7.3348      8.3520      9.0900    
  9.3581      9.1617      8.7397      8.2189      7.5924      6.8785      6.2067      5.7063      5.3981      5.3077    
  5.4303      5.7068      6.0638      6.3420      6.4222      6.4372      6.7102      7.4214      8.3671      9.1094    
  9.5612      9.2403      8.8462      8.5566      8.2189      7.6398      6.8821      6.2018      5.7651      5.5913    
  5.7057      6.0632      6.6059      7.1229      7.3571      7.3348      7.4214      7.9433      8.7809      9.4420    
  10.334      9.7605      9.1335      8.8462      8.7397      8.3898      7.6523      6.8006      6.1779      5.8844    
  5.9329      6.3094      6.9899      7.7673      8.2656      8.3520      8.3671      8.7809      9.6074      10.303    
  11.368      10.692      9.7605      9.2403      9.1617      9.0037      8.3731      7.4224      6.5966      6.1487    
  6.0818      6.3993      7.1042      8.0515      8.8144      9.0900      9.1094      9.4420      10.303      11.189    
  11.368      11.189      10.303      9.4420      9.1094      9.0900      8.8144      8.0515      7.1042      6.3993    
  6.0818      6.1487      6.5966      7.4224      8.3731      9.0037      9.1617      9.2403      9.7605      10.692    
  11.189      11.366      10.689      9.7576      9.2384      9.1608      9.0036      8.3733      7.4226      6.5967    
  6.1488      6.0818      6.3992      7.1042      8.0516      8.8148      9.0910      9.1112      9.4442      10.304    
  10.303      10.689      10.301      9.4871      8.8912      8.7416      8.6767      8.2493      7.4439      6.6258    
  6.1038      5.9241      6.1038      6.6257      7.4438      8.2492      8.6771      8.7428      8.8934      9.4897    
  9.4420      9.7576      9.4871      8.7808      8.1525      7.9204      7.8994      7.6824      7.1231      6.4471    
  5.9440      5.7050      5.7689      6.1259      6.7541      7.5128      8.0990      8.3670      8.5266      8.8924    
  9.1094      9.2384      8.8912      8.1525      7.4223      7.0385      6.9594      6.8696      6.5538      6.0903    
  5.6889      5.4546      5.4452      5.6826      6.1332      6.7704      7.4432      7.9765      8.3666      8.7417    
  9.0900      9.1608      8.7416      7.9204      7.0385      6.4380      6.1891      6.0898      5.9201      5.6474    
  5.3800      5.1996      5.1673      5.3164      5.6428      6.1270      6.7567      7.4431      8.0986      8.6763    
  8.8144      9.0036      8.6767      7.8994      6.9594      6.1891      5.7407      5.5296      5.3844      5.2221    
  5.0669      4.9602      4.9445      5.0428      5.2712      5.6318      6.1271      6.7703      7.5126      8.2488    
  8.0515      8.3733      8.2493      7.6824      6.8696      6.0898      5.5296      5.2008      5.0097      4.8794    
  4.7899      4.7488      4.7683      4.8520      5.0119      5.2712      5.6428      6.1331      6.7540      7.4436    
  7.1042      7.4226      7.4439      7.1231      6.5538      5.9201      5.3844      5.0097      4.7745      4.6374    
  4.5737      4.5739      4.6263      4.7190      4.8520      5.0428      5.3163      5.6825      6.1258      6.6257    
  6.3993      6.5967      6.6258      6.4471      6.0903      5.6474      5.2221      4.8794      4.6374      4.4905    
  4.4301      4.4438      4.5150      4.6263      4.7683      4.9445      5.1673      5.4451      5.7689      6.1038    
  6.0818      6.1488      6.1038      5.9440      5.6889      5.3800      5.0669      4.7899      4.5737      4.4301    
  4.3627      4.3696      4.4437      4.5738      4.7488      4.9602      5.1996      5.4546      5.7050      5.9242    
  6.1487      6.0818      5.9241      5.7050      5.4546      5.1996      4.9602      4.7488      4.5739      4.4438    
  4.3696      4.3626      4.4300      4.5737      4.7899      5.0670      5.3801      5.6889      5.9440      6.1038    
  6.5966      6.3992      6.1038      5.7689      5.4452      5.1673      4.9445      4.7683      4.6263      4.5150    
  4.4437      4.4300      4.4905      4.6375      4.8796      5.2222      5.6475      6.0902      6.4470      6.6257    
  7.4224      7.1042      6.6257      6.1259      5.6826      5.3164      5.0428      4.8520      4.7190      4.6263    
  4.5738      4.5737      4.6375      4.7747      5.0099      5.3845      5.9201      6.5536      7.1227      7.4436    
  8.3731      8.0516      7.4438      6.7541      6.1332      5.6428      5.2712      5.0119      4.8520      4.7683    
  4.7488      4.7899      4.8796      5.0099      5.2009      5.5295      6.0894      6.8689      7.6817      8.2488    
  9.0037      8.8148      8.2492      7.5128      6.7704      6.1270      5.6318      5.2712      5.0428      4.9445    
  4.9602      5.0670      5.2222      5.3845      5.5295      5.7403      6.1882      6.9583      7.8985      8.6763    
  9.1617      9.0910      8.6771      8.0990      7.4432      6.7567      6.1271      5.6428      5.3163      5.1673    
  5.1996      5.3801      5.6475      5.9201      6.0894      6.1882      6.4367      7.0372      7.9197      8.7417    
  9.2403      9.1112      8.7428      8.3670      7.9765      7.4431      6.7703      6.1331      5.6825      5.4451    
  5.4546      5.6889      6.0902      6.5536      6.8689      6.9583      7.0372      7.4215      8.1526      8.8924    
  9.7605      9.4442      8.8934      8.5266      8.3666      8.0986      7.5126      6.7540      6.1258      5.7689    
  5.7050      5.9440      6.4470      7.1227      7.6817      7.8985      7.9197      8.1526      8.7822      9.4897    
  10.692      10.304      9.4897      8.8924      8.7417      8.6763      8.2488      7.4436      6.6257      6.1038    
  5.9242      6.1038      6.6257      7.4436      8.2488      8.6763      8.7417      8.8924      9.4897      10.304    
  10.334      10.303      9.6074      8.7809      8.3671      8.3520      8.2656      7.7673      6.9899      6.3094    
  5.9329      5.8844      6.1779      6.8006      7.6523      8.3898      8.7397      8.8462      9.1335      9.7605    
  10.303      10.689      10.301      9.4871      8.8912      8.7416      8.6767      8.2493      7.4439      6.6258    
  6.1038      5.9241      6.1038      6.6257      7.4438      8.2492      8.6771      8.7428      8.8934      9.4897    
  9.6074      10.301      10.331      9.7575      9.1315      8.8455      8.7399      8.3902      7.6527      6.8007    
  6.1780      5.8845      5.9330      6.3094      6.9899      7.7675      8.2661      8.3531      8.3687      8.7822    
  8.7809      9.4871      9.7575      9.4418      8.8925      8.5269      8.3675      8.0994      7.5130      6.7541    
  6.1259      5.7689      5.7051      5.9440      6.4470      7.1229      7.6821      7.8992      7.9204      8.1526    
  8.3671      8.8912      9.1315      8.8925      8.3690      7.9216      7.6818      7.4644      7.0536      6.4756    
  5.9404      5.5889      5.4602      5.5889      5.9405      6.4756      7.0534      7.4637      7.6805      7.9197    
  8.3520      8.7416      8.8455      8.5269      7.9216      7.3364      6.9596      6.7186      6.4320      6.0426    
  5.6529      5.3652      5.2270      5.2809      5.5251      5.9228      6.4452      6.9884      7.4635      7.8985    
  8.2656      8.6767      8.7399      8.3675      7.6818      6.9596      6.4225      6.0894      5.8379      5.5770    
  5.3233      5.1246      5.0203      5.0422      5.2022      5.4973      5.9117      6.4452      7.0532      7.6817    
  7.7673      8.2493      8.3902      8.0994      7.4644      6.7186      6.0894      5.6621      5.3840      5.1762    
  5.0115      4.8940      4.8428      4.8679      4.9757      5.1822      5.4973      5.9227      6.4756      7.1227    
  6.9899      7.4439      7.6527      7.5130      7.0536      6.4320      5.8379      5.3840      5.0781      4.8794    
  4.7556      4.6944      4.6924      4.7392      4.8295      4.9757      5.2022      5.5251      5.9405      6.4470    
  6.3094      6.6258      6.8007      6.7541      6.4756      6.0426      5.5770      5.1762      4.8794      4.6831    
  4.5737      4.5408      4.5692      4.6400      4.7392      4.8679      5.0422      5.2809      5.5889      5.9440    
  5.9329      6.1038      6.1780      6.1259      5.9404      5.6529      5.3233      5.0115      4.7556      4.5737    
  4.4710      4.4437      4.4815      4.5692      4.6924      4.8428      5.0203      5.2271      5.4602      5.7050    
  5.8844      5.9241      5.8845      5.7689      5.5889      5.3652      5.1246      4.8940      4.6944      4.5408    
  4.4437      4.4105      4.4437      4.5408      4.6944      4.8940      5.1247      5.3652      5.5889      5.7689    
  6.1779      6.1038      5.9330      5.7051      5.4602      5.2270      5.0203      4.8428      4.6924      4.5692    
  4.4815      4.4437      4.4710      4.5737      4.7556      5.0116      5.3235      5.6530      5.9405      6.1258    
  6.8006      6.6257      6.3094      5.9440      5.5889      5.2809      5.0422      4.8679      4.7392      4.6400    
  4.5692      4.5408      4.5737      4.6832      4.8796      5.1765      5.5772      6.0427      6.4756      6.7540    
  7.6523      7.4438      6.9899      6.4470      5.9405      5.5251      5.2022      4.9757      4.8295      4.7392    
  4.6924      4.6944      4.7556      4.8796      5.0784      5.3844      5.8381      6.4319      7.0532      7.5126    
  8.3898      8.2492      7.7675      7.1229      6.4756      5.9228      5.4973      5.1822      4.9757      4.8679    
  4.8428      4.8940      5.0116      5.1765      5.3844      5.6623      6.0893      6.7180      7.4635      8.0986    
  8.7397      8.6771      8.2661      7.6821      7.0534      6.4452      5.9117      5.4973      5.2022      5.0422    
  5.0203      5.1247      5.3235      5.5772      5.8381      6.0893      6.4217      6.9584      7.6805      8.3666    
  8.8462      8.7428      8.3531      7.8992      7.4637      6.9884      6.4452      5.9227      5.5251      5.2809    
  5.2271      5.3652      5.6530      6.0427      6.4319      6.7180      6.9584      7.3348      7.9204      8.5266    
  9.1335      8.8934      8.3687      7.9204      7.6805      7.4635      7.0532      6.4756      5.9405      5.5889    
  5.4602      5.5889      5.9405      6.4756      7.0532      7.4635      7.6805      7.9204      8.3687      8.8934    
  9.7605      9.4897      8.7822      8.1526      7.9197      7.8985      7.6817      7.1227      6.4470      5.9440    
  5.7050      5.7689      6.1258      6.7540      7.5126      8.0986      8.3666      8.5266      8.8934      9.4442    
  9.5612      9.4420      8.7809      7.9433      7.4214      7.3348      7.3571      7.1229      6.6059      6.0632    
  5.7057      5.5913      5.7651      6.2018      6.8821      7.6398      8.2189      8.5566      8.8462      9.2403    
  9.4420      9.7576      9.4871      8.7808      8.1525      7.9204      7.8994      7.6824      7.1231      6.4471    
  5.9440      5.7050      5.7689      6.1259      6.7541      7.5128      8.0990      8.3670      8.5266      8.8924    
  8.7809      9.4871      9.7575      9.4418      8.8925      8.5269      8.3675      8.0994      7.5130      6.7541    
  6.1259      5.7689      5.7051      5.9440      6.4470      7.1229      7.6821      7.8992      7.9204      8.1526    
  7.9433      8.7808      9.4418      9.5612      9.2407      8.8469      8.5574      8.2195      7.6400      6.8820    
  6.2017      5.7651      5.5914      5.7058      6.0631      6.6057      7.1228      7.3571      7.3348      7.4215    
  7.4214      8.1525      8.8925      9.2407      9.1121      8.7439      8.3678      7.9770      7.4431      6.7702    
  6.1330      5.6825      5.4451      5.4546      5.6889      6.0902      6.5536      6.8690      6.9584      7.0372    
  7.3348      7.9204      8.5269      8.8469      8.7439      8.3541      7.8998      7.4638      6.9881      6.4448    
  5.9225      5.5250      5.2809      5.2270      5.3652      5.6530      6.0428      6.4319      6.7180      6.9583    
  7.3571      7.8994      8.3675      8.5574      8.3678      7.8998      7.3572      6.8686      6.4313      6.0084    
  5.6206      5.3147      5.1111      5.0407      5.1111      5.3148      5.6208      6.0088      6.4319      6.8689    
  7.1229      7.6824      8.0994      8.2195      7.9770      7.4638      6.8686      6.3409      5.9193      5.5768    
  5.2980      5.0851      4.9464      4.8958      4.9339      5.0663      5.2983      5.6208      6.0427      6.5536    
  6.6059      7.1231      7.5130      7.6400      7.4431      6.9881      6.4313      5.9193      5.5175      5.2220    
  5.0116      4.8699      4.7954      4.7817      4.8179      4.9065      5.0662      5.3148      5.6530      6.0902    
  6.0632      6.4471      6.7541      6.8820      6.7702      6.4448      6.0084      5.5768      5.2220      4.9627    
  4.7900      4.6945      4.6665      4.6879      4.7402      4.8179      4.9339      5.1111      5.3652      5.6889    
  5.7057      5.9440      6.1259      6.2017      6.1330      5.9225      5.6206      5.2980      5.0116      4.7900    
  4.6442      4.5739      4.5693      4.6134      4.6879      4.7817      4.8958      5.0408      5.2271      5.4546    
  5.5913      5.7050      5.7689      5.7651      5.6825      5.5250      5.3147      5.0851      4.8699      4.6945    
  4.5739      4.5143      4.5150      4.5693      4.6665      4.7954      4.9463      5.1111      5.2809      5.4451    
  5.7651      5.7689      5.7051      5.5914      5.4451      5.2809      5.1111      4.9464      4.7954      4.6665    
  4.5693      4.5150      4.5143      4.5738      4.6944      4.8698      5.0851      5.3148      5.5251      5.6825    
  6.2018      6.1259      5.9440      5.7058      5.4546      5.2270      5.0407      4.8958      4.7817      4.6879    
  4.6134      4.5693      4.5738      4.6441      4.7899      5.0116      5.2980      5.6208      5.9227      6.1331    
  6.8821      6.7541      6.4470      6.0631      5.6889      5.3652      5.1111      4.9339      4.8179      4.7402    
  4.6879      4.6665      4.6944      4.7899      4.9626      5.2221      5.5772      6.0088      6.4452      6.7703    
  7.6398      7.5128      7.1229      6.6057      6.0902      5.6530      5.3148      5.0663      4.9065      4.8179    
  4.7817      4.7954      4.8698      5.0116      5.2221      5.5179      5.9199      6.4319      6.9884      7.4431    
  8.2189      8.0990      7.6821      7.1228      6.5536      6.0428      5.6208      5.2983      5.0662      4.9339    
  4.8958      4.9463      5.0851      5.2980      5.5772      5.9199      6.3416      6.8690      7.4637      7.9765    
  8.5566      8.3670      7.8992      7.3571      6.8690      6.4319      6.0088      5.6208      5.3148      5.1111    
  5.0408      5.1111      5.3148      5.6208      6.0088      6.4319      6.8690      7.3571      7.8992      8.3670    
  8.8462      8.5266      7.9204      7.3348      6.9584      6.7180      6.4319      6.0427      5.6530      5.3652    
  5.2271      5.2809      5.5251      5.9227      6.4452      6.9884      7.4637      7.8992      8.3531      8.7428    
  9.2403      8.8924      8.1526      7.4215      7.0372      6.9583      6.8689      6.5536      6.0902      5.6889    
  5.4546      5.4451      5.6825      6.1331      6.7703      7.4431      7.9765      8.3670      8.7428      9.1112    
  9.3581      9.1094      8.3671      7.4214      6.7102      6.4372      6.4222      6.3420      6.0638      5.7068    
  5.4303      5.3077      5.3981      5.7063      6.2067      6.8785      7.5924      8.2189      8.7397      9.1617    
  9.1094      9.2384      8.8912      8.1525      7.4223      7.0385      6.9594      6.8696      6.5538      6.0903    
  5.6889      5.4546      5.4452      5.6826      6.1332      6.7704      7.4432      7.9765      8.3666      8.7417    
  8.3671      8.8912      9.1315      8.8925      8.3690      7.9216      7.6818      7.4644      7.0536      6.4756    
  5.9404      5.5889      5.4602      5.5889      5.9405      6.4756      7.0534      7.4637      7.6805      7.9197    
  7.4214      8.1525      8.8925      9.2407      9.1121      8.7439      8.3678      7.9770      7.4431      6.7702    
  6.1330      5.6825      5.4451      5.4546      5.6889      6.0902      6.5536      6.8690      6.9584      7.0372    
  6.7102      7.4223      8.3690      9.1121      9.3606      9.1634      8.7404      8.2188      7.5918      6.8780    
  6.2064      5.7062      5.3981      5.3077      5.4303      5.7067      6.0636      6.3416      6.4217      6.4367    
  6.4372      7.0385      7.9216      8.7439      9.1634      9.0917      8.6768      8.0980      7.4422      6.7560    
  6.1267      5.6427      5.3163      5.1673      5.1996      5.3800      5.6474      5.9199      6.0893      6.1882    
  6.4222      6.9594      7.6818      8.3678      8.7404      8.6768      8.2650      7.6807      7.0522      6.4446    
  5.9114      5.4973      5.2023      5.0422      5.0203      5.1247      5.3235      5.5772      5.8381      6.0894    
  6.3420      6.8696      7.4644      7.9770      8.2188      8.0980      7.6807      7.1214      6.5527      6.0424    
  5.6208      5.2984      5.0663      4.9339      4.8958      4.9464      5.0851      5.2980      5.5772      5.9201    
  6.0638      6.5538      7.0536      7.4431      7.5918      7.4422      7.0522      6.5527      6.0632      5.6475    
  5.3237      5.0853      4.9250      4.8398      4.8143      4.8397      4.9248      5.0851      5.3235      5.6475    
  5.7068      6.0903      6.4756      6.7702      6.8780      6.7560      6.4446      6.0424      5.6475      5.3170    
  5.0673      4.8942      4.7955      4.7572      4.7579      4.7838      4.8397      4.9463      5.1247      5.3801    
  5.4303      5.6889      5.9404      6.1330      6.2064      6.1267      5.9114      5.6208      5.3237      5.0673    
  4.8727      4.7490      4.6924      4.6879      4.7150      4.7579      4.8143      4.8958      5.0203      5.1996    
  5.3077      5.4546      5.5889      5.6825      5.7062      5.6427      5.4973      5.2984      5.0853      4.8942    
  4.7490      4.6598      4.6263      4.6400      4.6879      4.7572      4.8397      4.9339      5.0422      5.1673    
  5.3981      5.4452      5.4602      5.4451      5.3981      5.3163      5.2023      5.0663      4.9250      4.7955    
  4.6924      4.6263      4.6035      4.6263      4.6924      4.7954      4.9248      5.0662      5.2022      5.3163    
  5.7063      5.6826      5.5889      5.4546      5.3077      5.1673      5.0422      4.9339      4.8398      4.7572    
  4.6879      4.6400      4.6263      4.6598      4.7488      4.8940      5.0851      5.2983      5.4973      5.6428    
  6.2067      6.1332      5.9405      5.6889      5.4303      5.1996      5.0203      4.8958      4.8143      4.7579    
  4.7150      4.6879      4.6924      4.7488      4.8724      5.0670      5.3235      5.6208      5.9117      6.1271    
  6.8785      6.7704      6.4756      6.0902      5.7067      5.3800      5.1247      4.9464      4.8397      4.7838    
  4.7579      4.7572      4.7954      4.8940      5.0670      5.3167      5.6474      6.0428      6.4452      6.7567    
  7.5924      7.4432      7.0534      6.5536      6.0636      5.6474      5.3235      5.0851      4.9248      4.8397    
  4.8143      4.8397      4.9248      5.0851      5.3235      5.6474      6.0636      6.5536      7.0534      7.4432    
  8.2189      7.9765      7.4637      6.8690      6.3416      5.9199      5.5772      5.2980      5.0851      4.9463    
  4.8958      4.9339      5.0662      5.2983      5.6208      6.0428      6.5536      7.1228      7.6821      8.0990    
  8.7397      8.3666      7.6805      6.9584      6.4217      6.0893      5.8381      5.5772      5.3235      5.1247    
  5.0203      5.0422      5.2022      5.4973      5.9117      6.4452      7.0534      7.6821      8.2661      8.6771    
  9.1617      8.7417      7.9197      7.0372      6.4367      6.1882      6.0894      5.9201      5.6475      5.3801    
  5.1996      5.1673      5.3163      5.6428      6.1271      6.7567      7.4432      8.0990      8.6771      9.0910    
  9.2993      9.0900      8.3520      7.3348      6.4372      5.9208      5.7406      5.6626      5.5181      5.3167    
  5.1419      5.0552      5.1062      5.3168      5.6841      6.2039      6.8785      7.6398      8.3898      9.0037    
  9.0900      9.1608      8.7416      7.9204      7.0385      6.4380      6.1891      6.0898      5.9201      5.6474    
  5.3800      5.1996      5.1673      5.3164      5.6428      6.1270      6.7567      7.4431      8.0986      8.6763    
  8.3520      8.7416      8.8455      8.5269      7.9216      7.3364      6.9596      6.7186      6.4320      6.0426    
  5.6529      5.3652      5.2270      5.2809      5.5251      5.9228      6.4452      6.9884      7.4635      7.8985    
  7.3348      7.9204      8.5269      8.8469      8.7439      8.3541      7.8998      7.4638      6.9881      6.4448    
  5.9225      5.5250      5.2809      5.2270      5.3652      5.6530      6.0428      6.4319      6.7180      6.9583    
  6.4372      7.0385      7.9216      8.7439      9.1634      9.0917      8.6768      8.0980      7.4422      6.7560    
  6.1267      5.6427      5.3163      5.1673      5.1996      5.3800      5.6474      5.9199      6.0893      6.1882    
  5.9208      6.4380      7.3364      8.3541      9.0917      9.2999      9.0030      8.3883      7.6384      6.8777    
  6.2036      5.6841      5.3168      5.1063      5.0552      5.1420      5.3167      5.5179      5.6623      5.7403    
  5.7406      6.1891      6.9596      7.8998      8.6768      9.0030      8.8131      8.2473      7.5114      6.7698    
  6.1270      5.6320      5.2713      5.0429      4.9445      4.9602      5.0670      5.2221      5.3844      5.5295    
  5.6626      6.0898      6.7186      7.4638      8.0980      8.3883      8.2473      7.7658      7.1221      6.4756    
  5.9232      5.4977      5.1824      4.9758      4.8680      4.8429      4.8940      5.0116      5.1765      5.3845    
  5.5181      5.9201      6.4320      6.9881      7.4422      7.6384      7.5114      7.1221      6.6058      6.0907    
  5.6537      5.3153      5.0665      4.9066      4.8179      4.7817      4.7954      4.8698      5.0116      5.2222    
  5.3167      5.6474      6.0426      6.4448      6.7560      6.8777      6.7698      6.4756      6.0907      5.7075    
  5.3807      5.1250      4.9465      4.8397      4.7838      4.7579      4.7572      4.7954      4.8940      5.0670    
  5.1419      5.3800      5.6529      5.9225      6.1267      6.2036      6.1270      5.9232      5.6537      5.3807    
  5.1424      4.9603      4.8428      4.7816      4.7579      4.7526      4.7579      4.7817      4.8428      4.9602    
  5.0552      5.1996      5.3652      5.5250      5.6427      5.6841      5.6320      5.4977      5.3153      5.1250    
  4.9603      4.8399      4.7682      4.7391      4.7401      4.7579      4.7838      4.8179      4.8679      4.9445    
  5.1062      5.1673      5.2270      5.2809      5.3163      5.3168      5.2713      5.1824      5.0665      4.9465    
  4.8428      4.7682      4.7272      4.7190      4.7391      4.7817      4.8397      4.9065      4.9757      5.0428    
  5.3168      5.3164      5.2809      5.2270      5.1673      5.1063      5.0429      4.9758      4.9066      4.8397    
  4.7816      4.7391      4.7190      4.7273      4.7683      4.8429      4.9464      5.0663      5.1822      5.2712    
  5.6841      5.6428      5.5251      5.3652      5.1996      5.0552      4.9445      4.8680      4.8179      4.7838    
  4.7579      4.7401      4.7391      4.7683      4.8399      4.9602      5.1247      5.3148      5.4973      5.6318    
  6.2039      6.1270      5.9228      5.6530      5.3800      5.1420      4.9602      4.8429      4.7817      4.7579    
  4.7526      4.7579      4.7817      4.8429      4.9602      5.1420      5.3800      5.6530      5.9228      6.1270    
  6.8785      6.7567      6.4452      6.0428      5.6474      5.3167      5.0670      4.8940      4.7954      4.7572    
  4.7579      4.7838      4.8397      4.9464      5.1247      5.3800      5.7067      6.0902      6.4756      6.7704    
  7.6398      7.4431      6.9884      6.4319      5.9199      5.5179      5.2221      5.0116      4.8698      4.7954    
  4.7817      4.8179      4.9065      5.0663      5.3148      5.6530      6.0902      6.6057      7.1229      7.5128    
  8.3898      8.0986      7.4635      6.7180      6.0893      5.6623      5.3844      5.1765      5.0116      4.8940    
  4.8428      4.8679      4.9757      5.1822      5.4973      5.9228      6.4756      7.1229      7.7675      8.2492    
  9.0037      8.6763      7.8985      6.9583      6.1882      5.7403      5.5295      5.3845      5.2222      5.0670    
  4.9602      4.9445      5.0428      5.2712      5.6318      6.1270      6.7704      7.5128      8.2492      8.8148    
  8.8296      8.8144      8.2656      7.3571      6.4222      5.7406      5.3747      5.2010      5.0785      4.9626    
  4.8723      4.8399      4.8889      5.0346      5.2970      5.6841      6.2067      6.8821      7.6523      8.3731    
  8.8144      9.0036      8.6767      7.8994      6.9594      6.1891      5.7407      5.5296      5.3844      5.2221    
  5.0669      4.9602      4.9445      5.0428      5.2712      5.6318      6.1271      6.7703      7.5126      8.2488    
  8.2656      8.6767      8.7399      8.3675      7.6818      6.9596      6.4225      6.0894      5.8379      5.5770    