BCC W                                   
   2.95000000000000     
    -0.500000    0.500000    0.500000
     0.500000   -0.500000    0.500000
     0.500000    0.500000   -0.500000
   W 
     1
Direct
  0.000000  0.000000  0.000000
 
   20   20   20
 0.11857288382E+02 0.11368202484E+02 0.10333624130E+02 0.95612076941E+01 0.93581068421E+01
 0.92993077913E+01 0.88295925795E+01 0.79024715472E+01 0.69435478302E+01 0.63348005648E+01
 0.61335497637E+01 0.63348005648E+01 0.69435478302E+01 0.79024715472E+01 0.88295925795E+01
 0.92993077913E+01 0.93581068421E+01 0.95612076941E+01 0.10333624130E+02 0.11368202484E+02
 0.11368202484E+02 0.11188924704E+02 0.10302684324E+02 0.94420053952E+01 0.91094341885E+01
 0.90899791980E+01 0.88143625710E+01 0.80514996961E+01 0.71042226041E+01 0.63993070390E+01
 0.60818474564E+01 0.61487336308E+01 0.65965936662E+01 0.74224473147E+01 0.83731338639E+01
 0.90037289854E+01 0.91616609672E+01 0.92403014531E+01 0.97605187944E+01 0.10691916567E+02
 0.10333624130E+02 0.10302684324E+02 0.96074143468E+01 0.87809187295E+01 0.83670738307E+01
 0.83519703431E+01 0.82655846499E+01 0.77673377275E+01 0.69899143627E+01 0.63093575303E+01
 0.59329473757E+01 0.58844411121E+01 0.61779410260E+01 0.68006004364E+01 0.76523436497E+01
 0.83897597846E+01 0.87397149509E+01 0.88461574713E+01 0.91334874772E+01 0.97605187944E+01
 0.95612076941E+01 0.94420053952E+01 0.87809187295E+01 0.79433344571E+01 0.74213663182E+01
 0.73347520649E+01 0.73571456149E+01 0.71228936218E+01 0.66058889977E+01 0.60631959833E+01
 0.57057276048E+01 0.55913063165E+01 0.57650908873E+01 0.62018094890E+01 0.68820793768E+01
 0.76398447537E+01 0.82189447813E+01 0.85565712334E+01 0.88461574713E+01 0.92403014531E+01
 0.93581068421E+01 0.91094341885E+01 0.83670738307E+01 0.74213663182E+01 0.67102400131E+01
 0.64372234929E+01 0.64222444609E+01 0.63419852868E+01 0.60638117244E+01 0.57067688704E+01
 0.54303004880E+01 0.53077308664E+01 0.53981048221E+01 0.57062953011E+01 0.62066669903E+01
 0.68785377579E+01 0.75923694336E+01 0.82189447813E+01 0.87397149509E+01 0.91616609672E+01
 0.92993077913E+01 0.90899791980E+01 0.83519703431E+01 0.73347520649E+01 0.64372234929E+01
 0.59207774493E+01 0.57406154403E+01 0.56626465136E+01 0.55180579055E+01 0.53166822765E+01
 0.51419456070E+01 0.50551933913E+01 0.51062492141E+01 0.53167719681E+01 0.56841384660E+01
 0.62039443523E+01 0.68785377579E+01 0.76398447537E+01 0.83897597846E+01 0.90037289854E+01
 0.88295925795E+01 0.88143625710E+01 0.82655846499E+01 0.73571456149E+01 0.64222444609E+01
 0.57406154403E+01 0.53746597316E+01 0.52009680430E+01 0.50784621489E+01 0.49626163366E+01
 0.48723490457E+01 0.48398860151E+01 0.48889407608E+01 0.50346402431E+01 0.52970053180E+01
 0.56841384660E+01 0.62066669903E+01 0.68820793768E+01 0.76523436497E+01 0.83731338639E+01
 0.79024715472E+01 0.80514996961E+01 0.77673377275E+01 0.71228936218E+01 0.63419852868E+01
 0.56626465136E+01 0.52009680430E+01 0.49311436522E+01 0.47745788137E+01 0.46830665015E+01
 0.46440157502E+01 0.46597912263E+01 0.47273461044E+01 0.48469216197E+01 0.50346402431E+01
 0.53167719681E+01 0.57062953011E+01 0.62018094890E+01 0.68006004364E+01 0.74224473147E+01
 0.69435478302E+01 0.71042226041E+01 0.69899143627E+01 0.66058889977E+01 0.60638117244E+01
 0.55180579055E+01 0.50784621489E+01 0.47745788137E+01 0.45868392017E+01 0.44904644034E+01
 0.44709751027E+01 0.45142771106E+01 0.46035829982E+01 0.47273461044E+01 0.48889407608E+01
 0.51062492141E+01 0.53981048221E+01 0.57650908873E+01 0.61779410260E+01 0.65965936662E+01
 0.63348005648E+01 0.63993070390E+01 0.63093575303E+01 0.60631959833E+01 0.57067688704E+01
 0.53166822765E+01 0.49626163366E+01 0.46830665015E+01 0.44904644034E+01 0.43856223613E+01
 0.43626448943E+01 0.44105267444E+01 0.45142771106E+01 0.46597912263E+01 0.48398860151E+01
 0.50551933913E+01 0.53077308664E+01 0.55913063165E+01 0.58844411121E+01 0.61487336308E+01
 0.61335497637E+01 0.60818474564E+01 0.59329473757E+01 0.57057276048E+01 0.54303004880E+01
 0.51419456070E+01 0.48723490457E+01 0.46440157502E+01 0.44709751027E+01 0.43626448943E+01
 0.43256688376E+01 0.43626448943E+01 0.44709751027E+01 0.46440157502E+01 0.48723490457E+01
 0.51419456070E+01 0.54303004880E+01 0.57057276048E+01 0.59329473757E+01 0.60818474564E+01
 0.63348005648E+01 0.61487336308E+01 0.58844411121E+01 0.55913063165E+01 0.53077308664E+01
 0.50551933913E+01 0.48398860151E+01 0.46597912263E+01 0.45142771106E+01 0.44105267444E+01
 0.43626448943E+01 0.43856223613E+01 0.44904644034E+01 0.46830665015E+01 0.49626163366E+01
 0.53166822765E+01 0.57067688704E+01 0.60631959833E+01 0.63093575303E+01 0.63993070390E+01
 0.69435478302E+01 0.65965936662E+01 0.61779410260E+01 0.57650908873E+01 0.53981048221E+01
 0.51062492141E+01 0.48889407608E+01 0.47273461044E+01 0.46035829982E+01 0.45142771106E+01
 0.44709751027E+01 0.44904644034E+01 0.45868392017E+01 0.47745788137E+01 0.50784621489E+01
 0.55180579055E+01 0.60638117244E+01 0.66058889977E+01 0.69899143627E+01 0.71042226041E+01
 0.79024715472E+01 0.74224473147E+01 0.68006004364E+01 0.62018094890E+01 0.57062953011E+01
 0.53167719681E+01 0.50346402431E+01 0.48469216197E+01 0.47273461044E+01 0.46597912263E+01
 0.46440157502E+01 0.46830665015E+01 0.47745788137E+01 0.49311436522E+01 0.52009680430E+01
 0.56626465136E+01 0.63419852868E+01 0.71228936218E+01 0.77673377275E+01 0.80514996961E+01
 0.88295925795E+01 0.83731338639E+01 0.76523436497E+01 0.68820793768E+01 0.62066669903E+01
 0.56841384660E+01 0.52970053180E+01 0.50346402431E+01 0.48889407608E+01 0.48398860151E+01
 0.48723490457E+01 0.49626163366E+01 0.50784621489E+01 0.52009680430E+01 0.53746597316E+01
 0.57406154403E+01 0.64222444609E+01 0.73571456149E+01 0.82655846499E+01 0.88143625710E+01
 0.92993077913E+01 0.90037289854E+01 0.83897597846E+01 0.76398447537E+01 0.68785377579E+01
 0.62039443523E+01 0.56841384660E+01 0.53167719681E+01 0.51062492141E+01 0.50551933913E+01
 0.51419456070E+01 0.53166822765E+01 0.55180579055E+01 0.56626465136E+01 0.57406154403E+01
 0.59207774493E+01 0.64372234929E+01 0.73347520649E+01 0.83519703431E+01 0.90899791980E+01
 0.93581068421E+01 0.91616609672E+01 0.87397149509E+01 0.82189447813E+01 0.75923694336E+01
 0.68785377579E+01 0.62066669903E+01 0.57062953011E+01 0.53981048221E+01 0.53077308664E+01
 0.54303004880E+01 0.57067688704E+01 0.60638117244E+01 0.63419852868E+01 0.64222444609E+01
 0.64372234929E+01 0.67102400131E+01 0.74213663182E+01 0.83670738307E+01 0.91094341885E+01
 0.95612076941E+01 0.92403014531E+01 0.88461574713E+01 0.85565712334E+01 0.82189447813E+01
 0.76398447537E+01 0.68820793768E+01 0.62018094890E+01 0.57650908873E+01 0.55913063165E+01
 0.57057276048E+01 0.60631959833E+01 0.66058889977E+01 0.71228936218E+01 0.73571456149E+01
 0.73347520649E+01 0.74213663182E+01 0.79433344571E+01 0.87809187295E+01 0.94420053952E+01
 0.10333624130E+02 0.97605187944E+01 0.91334874772E+01 0.88461574713E+01 0.87397149509E+01
 0.83897597846E+01 0.76523436497E+01 0.68006004364E+01 0.61779410260E+01 0.58844411121E+01
 0.59329473757E+01 0.63093575303E+01 0.69899143627E+01 0.77673377275E+01 0.82655846499E+01
 0.83519703431E+01 0.83670738307E+01 0.87809187295E+01 0.96074143468E+01 0.10302684324E+02
 0.11368202484E+02 0.10691916567E+02 0.97605187944E+01 0.92403014531E+01 0.91616609672E+01
 0.90037289854E+01 0.83731338639E+01 0.74224473147E+01 0.65965936662E+01 0.61487336308E+01
 0.60818474564E+01 0.63993070390E+01 0.71042226041E+01 0.80514996961E+01 0.88143625710E+01
 0.90899791980E+01 0.91094341885E+01 0.94420053952E+01 0.10302684324E+02 0.11188924704E+02
 0.11368202484E+02 0.11188924704E+02 0.10302684324E+02 0.94420053952E+01 0.91094341885E+01
 0.90899791980E+01 0.88143625710E+01 0.80514996961E+01 0.71042226041E+01 0.63993070390E+01
 0.60818474564E+01 0.61487336308E+01 0.65965936662E+01 0.74224473147E+01 0.83731338639E+01
 0.90037289854E+01 0.91616609672E+01 0.92403014531E+01 0.97605187944E+01 0.10691916567E+02
 0.11188924704E+02 0.11366347717E+02 0.10688945214E+02 0.97576467082E+01 0.92383981611E+01
 0.91608473761E+01 0.90036141971E+01 0.83732874227E+01 0.74226351726E+01 0.65967240789E+01
 0.61487628742E+01 0.60817828522E+01 0.63992170875E+01 0.71041869338E+01 0.80516004897E+01
 0.88147795289E+01 0.90910104701E+01 0.91112337426E+01 0.94441874289E+01 0.10304276375E+02
 0.10302684324E+02 0.10688945214E+02 0.10300936707E+02 0.94871471396E+01 0.88911987349E+01
 0.87415966370E+01 0.86766924007E+01 0.82492970449E+01 0.74439480703E+01 0.66258074939E+01
 0.61038317446E+01 0.59241216070E+01 0.61038165245E+01 0.66257461206E+01 0.74438244636E+01
 0.82492363112E+01 0.86770616048E+01 0.87428483619E+01 0.88934239098E+01 0.94897129000E+01
 0.94420053952E+01 0.97576467082E+01 0.94871471396E+01 0.87807732755E+01 0.81524553807E+01
 0.79204089523E+01 0.78994152500E+01 0.76823943193E+01 0.71230859874E+01 0.64470762924E+01
 0.59439783596E+01 0.57050008101E+01 0.57688951431E+01 0.61259366114E+01 0.67541209961E+01
 0.75127634682E+01 0.80989546351E+01 0.83669712417E+01 0.85265875085E+01 0.88924382893E+01
 0.91094341885E+01 0.92383981611E+01 0.88911987349E+01 0.81524553807E+01 0.74222910343E+01
 0.70384626679E+01 0.69593568256E+01 0.68695958879E+01 0.65538365029E+01 0.60902505949E+01
 0.56888857239E+01 0.54546064738E+01 0.54451558181E+01 0.56825697073E+01 0.61331548536E+01
 0.67703749670E+01 0.74431651892E+01 0.79765294984E+01 0.83665695227E+01 0.87417203193E+01
 0.90899791980E+01 0.91608473761E+01 0.87415966370E+01 0.79204089523E+01 0.70384626679E+01
 0.64379905180E+01 0.61890642824E+01 0.60898267049E+01 0.59201247629E+01 0.56474039422E+01
 0.53799821286E+01 0.51996297914E+01 0.51673213173E+01 0.53163715311E+01 0.56428197309E+01
 0.61270482910E+01 0.67567315031E+01 0.74430944769E+01 0.80985970238E+01 0.86762818208E+01
 0.88143625710E+01 0.90036141971E+01 0.86766924007E+01 0.78994152500E+01 0.69593568256E+01
 0.61890642824E+01 0.57407464436E+01 0.55296114375E+01 0.53843795721E+01 0.52220570919E+01
 0.50669094983E+01 0.49601523877E+01 0.49445160268E+01 0.50428265209E+01 0.52711558901E+01
 0.56318410373E+01 0.61270740438E+01 0.67703440256E+01 0.75125538040E+01 0.82488303394E+01
 0.80514996961E+01 0.83732874227E+01 0.82492970449E+01 0.76823943193E+01 0.68695958879E+01
 0.60898267049E+01 0.55296114375E+01 0.52007623821E+01 0.50097046214E+01 0.48794041439E+01
 0.47898685889E+01 0.47488290105E+01 0.47683058768E+01 0.48519663857E+01 0.50118521718E+01
 0.52711731644E+01 0.56428400261E+01 0.61331183129E+01 0.67539836457E+01 0.74436323818E+01
 0.71042226041E+01 0.74226351726E+01 0.74439480703E+01 0.71230859874E+01 0.65538365029E+01
 0.59201247629E+01 0.53843795721E+01 0.50097046214E+01 0.47744684073E+01 0.46374037182E+01
 0.45736891115E+01 0.45738556305E+01 0.46263332556E+01 0.47190404732E+01 0.48519558154E+01
 0.50428193542E+01 0.53163469433E+01 0.56825012837E+01 0.61258360270E+01 0.66256745233E+01
 0.63993070390E+01 0.65967240789E+01 0.66258074939E+01 0.64470762924E+01 0.60902505949E+01
 0.56474039422E+01 0.52220570919E+01 0.48794041439E+01 0.46374037182E+01 0.44905160572E+01
 0.44300582488E+01 0.44437778527E+01 0.45149609941E+01 0.46262948845E+01 0.47682678443E+01
 0.49444858657E+01 0.51672823681E+01 0.54451067693E+01 0.57688660391E+01 0.61038428337E+01
 0.60818474564E+01 0.61487628742E+01 0.61038317446E+01 0.59439783596E+01 0.56888857239E+01
 0.53799821286E+01 0.50669094983E+01 0.47898685889E+01 0.45736891115E+01 0.44300582488E+01
 0.43626583279E+01 0.43696377987E+01 0.44437150232E+01 0.45737882227E+01 0.47487995265E+01
 0.49601562202E+01 0.51996436684E+01 0.54546281530E+01 0.57050463299E+01 0.59241910157E+01
 0.61487336308E+01 0.60817828522E+01 0.59241216070E+01 0.57050008101E+01 0.54546064738E+01
 0.51996297914E+01 0.49601523877E+01 0.47488290105E+01 0.45738556305E+01 0.44437778527E+01
 0.43696377987E+01 0.43625850998E+01 0.44299695122E+01 0.45736589084E+01 0.47899201159E+01
 0.50670052180E+01 0.53800719394E+01 0.56889491367E+01 0.59440176174E+01 0.61038428337E+01
 0.65965936662E+01 0.63992170875E+01 0.61038165245E+01 0.57688951431E+01 0.54451558181E+01
 0.51673213173E+01 0.49445160268E+01 0.47683058768E+01 0.46263332556E+01 0.45149609941E+01
 0.44437150232E+01 0.44299695122E+01 0.44904847723E+01 0.46374873781E+01 0.48795783643E+01
 0.52222336079E+01 0.56475001515E+01 0.60902398623E+01 0.64469829885E+01 0.66256745233E+01
 0.74224473147E+01 0.71041869338E+01 0.66257461206E+01 0.61259366114E+01 0.56825697073E+01
 0.53163715311E+01 0.50428265209E+01 0.48519663857E+01 0.47190404732E+01 0.46262948845E+01
 0.45737882227E+01 0.45736589084E+01 0.46374873781E+01 0.47746763970E+01 0.50099488305E+01
 0.53845218771E+01 0.59200681151E+01 0.65535855612E+01 0.71227380068E+01 0.74436323818E+01
 0.83731338639E+01 0.80516004897E+01 0.74438244636E+01 0.67541209961E+01 0.61331548536E+01
 0.56428197309E+01 0.52711558901E+01 0.50118521718E+01 0.48519558154E+01 0.47682678443E+01
 0.47487995265E+01 0.47899201159E+01 0.48795783643E+01 0.50099488305E+01 0.52009277746E+01
 0.55295293928E+01 0.60894201977E+01 0.68689493261E+01 0.76817237189E+01 0.82488303394E+01
 0.90037289854E+01 0.88147795289E+01 0.82492363112E+01 0.75127634682E+01 0.67703749670E+01
 0.61270482910E+01 0.56318410373E+01 0.52711731644E+01 0.50428193542E+01 0.49444858657E+01
 0.49601562202E+01 0.50670052180E+01 0.52222336079E+01 0.53845218771E+01 0.55295293928E+01
 0.57402732662E+01 0.61881880725E+01 0.69582923649E+01 0.78985264105E+01 0.86762818208E+01
 0.91616609672E+01 0.90910104701E+01 0.86770616048E+01 0.80989546351E+01 0.74431651892E+01
 0.67567315031E+01 0.61270740438E+01 0.56428400261E+01 0.53163469433E+01 0.51672823681E+01
 0.51996436684E+01 0.53800719394E+01 0.56475001515E+01 0.59200681151E+01 0.60894201977E+01
 0.61881880725E+01 0.64367497900E+01 0.70372422131E+01 0.79197112588E+01 0.87417203193E+01
 0.92403014531E+01 0.91112337426E+01 0.87428483619E+01 0.83669712417E+01 0.79765294984E+01
 0.74430944769E+01 0.67703440256E+01 0.61331183129E+01 0.56825012837E+01 0.54451067693E+01
 0.54546281530E+01 0.56889491367E+01 0.60902398623E+01 0.65535855612E+01 0.68689493261E+01
 0.69582923649E+01 0.70372422131E+01 0.74214658374E+01 0.81525868202E+01 0.88924382893E+01
 0.97605187944E+01 0.94441874289E+01 0.88934239098E+01 0.85265875085E+01 0.83665695227E+01
 0.80985970238E+01 0.75125538040E+01 0.67539836457E+01 0.61258360270E+01 0.57688660391E+01
 0.57050463299E+01 0.59440176174E+01 0.64469829885E+01 0.71227380068E+01 0.76817237189E+01
 0.78985264105E+01 0.79197112588E+01 0.81525868202E+01 0.87822012199E+01 0.94897129000E+01
 0.10691916567E+02 0.10304276375E+02 0.94897129000E+01 0.88924382893E+01 0.87417203193E+01
 0.86762818208E+01 0.82488303394E+01 0.74436323818E+01 0.66256745233E+01 0.61038428337E+01
 0.59241910157E+01 0.61038428337E+01 0.66256745233E+01 0.74436323818E+01 0.82488303394E+01
 0.86762818208E+01 0.87417203193E+01 0.88924382893E+01 0.94897129000E+01 0.10304276375E+02
 0.10333624130E+02 0.10302684324E+02 0.96074143468E+01 0.87809187295E+01 0.83670738307E+01
 0.83519703431E+01 0.82655846499E+01 0.77673377275E+01 0.69899143627E+01 0.63093575303E+01
 0.59329473757E+01 0.58844411121E+01 0.61779410260E+01 0.68006004364E+01 0.76523436497E+01
 0.83897597846E+01 0.87397149509E+01 0.88461574713E+01 0.91334874772E+01 0.97605187944E+01
 0.10302684324E+02 0.10688945214E+02 0.10300936707E+02 0.94871471396E+01 0.88911987349E+01
 0.87415966370E+01 0.86766924007E+01 0.82492970449E+01 0.74439480703E+01 0.66258074939E+01
 0.61038317446E+01 0.59241216070E+01 0.61038165245E+01 0.66257461206E+01 0.74438244636E+01
 0.82492363112E+01 0.86770616048E+01 0.87428483619E+01 0.88934239098E+01 0.94897129000E+01
 0.96074143468E+01 0.10300936707E+02 0.10330634297E+02 0.97574806733E+01 0.91314672431E+01
 0.88454574554E+01 0.87399071940E+01 0.83902096999E+01 0.76526684675E+01 0.68007418009E+01
 0.61779835237E+01 0.58844565139E+01 0.59329595988E+01 0.63093624382E+01 0.69899262282E+01
 0.77674777259E+01 0.82661175330E+01 0.83531213773E+01 0.83686667268E+01 0.87822012199E+01
 0.87809187295E+01 0.94871471396E+01 0.97574806733E+01 0.94418294556E+01 0.88924664935E+01
 0.85269121315E+01 0.83674803660E+01 0.80994185267E+01 0.75130092409E+01 0.67541447329E+01
 0.61258703735E+01 0.57688770602E+01 0.57050647399E+01 0.59440429653E+01 0.64470267157E+01
 0.71228781196E+01 0.76821044239E+01 0.78991957233E+01 0.79203750918E+01 0.81525868202E+01
 0.83670738307E+01 0.88911987349E+01 0.91314672431E+01 0.88924664935E+01 0.83690471153E+01
 0.79216352140E+01 0.76818488835E+01 0.74644054289E+01 0.70536007335E+01 0.64756456189E+01
 0.59404342563E+01 0.55888916409E+01 0.54602043999E+01 0.55889222286E+01 0.59404787050E+01
 0.64756367699E+01 0.70533741447E+01 0.74637097675E+01 0.76804899827E+01 0.79197112588E+01
 0.83519703431E+01 0.87415966370E+01 0.88454574554E+01 0.85269121315E+01 0.79216352140E+01
 0.73364243191E+01 0.69596177726E+01 0.67186427076E+01 0.64319770946E+01 0.60426322475E+01
 0.56529338562E+01 0.53651703359E+01 0.52270485754E+01 0.52809286758E+01 0.55250903859E+01
 0.59227508715E+01 0.64452418512E+01 0.69883942353E+01 0.74634939507E+01 0.78985264105E+01
 0.82655846499E+01 0.86766924007E+01 0.87399071940E+01 0.83674803660E+01 0.76818488835E+01
 0.69596177726E+01 0.64224696712E+01 0.60894153794E+01 0.58379009718E+01 0.55769505070E+01
 0.53233249838E+01 0.51246379353E+01 0.50202653084E+01 0.50421789978E+01 0.52022174129E+01
 0.54973185866E+01 0.59116690163E+01 0.64452140416E+01 0.70532172685E+01 0.76817237189E+01
 0.77673377275E+01 0.82492970449E+01 0.83902096999E+01 0.80994185267E+01 0.74644054289E+01
 0.67186427076E+01 0.60894153794E+01 0.56620861512E+01 0.53840412817E+01 0.51762203498E+01
 0.50114816097E+01 0.48940025687E+01 0.48428451502E+01 0.48679125843E+01 0.49756961886E+01
 0.51821874031E+01 0.54973257079E+01 0.59227470798E+01 0.64755770986E+01 0.71227380068E+01
 0.69899143627E+01 0.74439480703E+01 0.76526684675E+01 0.75130092409E+01 0.70536007335E+01
 0.64319770946E+01 0.58379009718E+01 0.53840412817E+01 0.50781212062E+01 0.48793912683E+01
 0.47555977211E+01 0.46944451842E+01 0.46924030973E+01 0.47391722314E+01 0.48295494925E+01
 0.49757013687E+01 0.52022264331E+01 0.55250935644E+01 0.59404585625E+01 0.64469829885E+01
 0.63093575303E+01 0.66258074939E+01 0.68007418009E+01 0.67541447329E+01 0.64756456189E+01
 0.60426322475E+01 0.55769505070E+01 0.51762203498E+01 0.48793912683E+01 0.46831228033E+01
 0.45737422592E+01 0.45408309672E+01 0.45692481664E+01 0.46399667589E+01 0.47391720927E+01
 0.48679173268E+01 0.50421846978E+01 0.52809277455E+01 0.55889070154E+01 0.59440176174E+01
 0.59329473757E+01 0.61038317446E+01 0.61779835237E+01 0.61258703735E+01 0.59404342563E+01
 0.56529338562E+01 0.53233249838E+01 0.50114816097E+01 0.47555977211E+01 0.45737422592E+01
 0.44710336973E+01 0.44437479070E+01 0.44814963785E+01 0.45692328009E+01 0.46923937069E+01
 0.48428497843E+01 0.50202776996E+01 0.52270561688E+01 0.54601977132E+01 0.57050463299E+01
 0.58844411121E+01 0.59241216070E+01 0.58844565139E+01 0.57688770602E+01 0.55888916409E+01
 0.53651703359E+01 0.51246379353E+01 0.48940025687E+01 0.46944451842E+01 0.45408309672E+01
 0.44437479070E+01 0.44104592583E+01 0.44437156726E+01 0.45407939130E+01 0.46944360268E+01
 0.48940334227E+01 0.51246917724E+01 0.53652156085E+01 0.55889070154E+01 0.57688660391E+01
 0.61779410260E+01 0.61038165245E+01 0.59329595988E+01 0.57050647399E+01 0.54602043999E+01
 0.52270485754E+01 0.50202653084E+01 0.48428451502E+01 0.46924030973E+01 0.45692481664E+01
 0.44814963785E+01 0.44437156726E+01 0.44709814552E+01 0.45737154364E+01 0.47556433694E+01
 0.50116042074E+01 0.53234734525E+01 0.56530379267E+01 0.59404585625E+01 0.61258360270E+01
 0.68006004364E+01 0.66257461206E+01 0.63093624382E+01 0.59440429653E+01 0.55889222286E+01
 0.52809286758E+01 0.50421789978E+01 0.48679125843E+01 0.47391722314E+01 0.46399667589E+01
 0.45692328009E+01 0.45407939130E+01 0.45737154364E+01 0.46831741183E+01 0.48795697199E+01
 0.51764916644E+01 0.55771971049E+01 0.60427351330E+01 0.64755770986E+01 0.67539836457E+01
 0.76523436497E+01 0.74438244636E+01 0.69899262282E+01 0.64470267157E+01 0.59404787050E+01
 0.55250903859E+01 0.52022174129E+01 0.49756961886E+01 0.48295494925E+01 0.47391720927E+01
 0.46923937069E+01 0.46944360268E+01 0.47556433694E+01 0.48795697199E+01 0.50784496552E+01
 0.53844057609E+01 0.58380984477E+01 0.64318640225E+01 0.70532172685E+01 0.75125538040E+01
 0.83897597846E+01 0.82492363112E+01 0.77674777259E+01 0.71228781196E+01 0.64756367699E+01
 0.59227508715E+01 0.54973185866E+01 0.51821874031E+01 0.49757013687E+01 0.48679173268E+01
 0.48428497843E+01 0.48940334227E+01 0.50116042074E+01 0.51764916644E+01 0.53844057609E+01
 0.56623272198E+01 0.60892684049E+01 0.67180141315E+01 0.74634939507E+01 0.80985970238E+01
 0.87397149509E+01 0.86770616048E+01 0.82661175330E+01 0.76821044239E+01 0.70533741447E+01
 0.64452418512E+01 0.59116690163E+01 0.54973257079E+01 0.52022264331E+01 0.50421846978E+01
 0.50202776996E+01 0.51246917724E+01 0.53234734525E+01 0.55771971049E+01 0.58380984477E+01
 0.60892684049E+01 0.64217313969E+01 0.69583523124E+01 0.76804899827E+01 0.83665695227E+01
 0.88461574713E+01 0.87428483619E+01 0.83531213773E+01 0.78991957233E+01 0.74637097675E+01
 0.69883942353E+01 0.64452140416E+01 0.59227470798E+01 0.55250935644E+01 0.52809277455E+01
 0.52270561688E+01 0.53652156085E+01 0.56530379267E+01 0.60427351330E+01 0.64318640225E+01
 0.67180141315E+01 0.69583523124E+01 0.73348282897E+01 0.79203750918E+01 0.85265875085E+01
 0.91334874772E+01 0.88934239098E+01 0.83686667268E+01 0.79203750918E+01 0.76804899827E+01
 0.74634939507E+01 0.70532172685E+01 0.64755770986E+01 0.59404585625E+01 0.55889070154E+01
 0.54601977132E+01 0.55889070154E+01 0.59404585625E+01 0.64755770986E+01 0.70532172685E+01
 0.74634939507E+01 0.76804899827E+01 0.79203750918E+01 0.83686667268E+01 0.88934239098E+01
 0.97605187944E+01 0.94897129000E+01 0.87822012199E+01 0.81525868202E+01 0.79197112588E+01
 0.78985264105E+01 0.76817237189E+01 0.71227380068E+01 0.64469829885E+01 0.59440176174E+01
 0.57050463299E+01 0.57688660391E+01 0.61258360270E+01 0.67539836457E+01 0.75125538040E+01
 0.80985970238E+01 0.83665695227E+01 0.85265875085E+01 0.88934239098E+01 0.94441874289E+01
 0.95612076941E+01 0.94420053952E+01 0.87809187295E+01 0.79433344571E+01 0.74213663182E+01
 0.73347520649E+01 0.73571456149E+01 0.71228936218E+01 0.66058889977E+01 0.60631959833E+01
 0.57057276048E+01 0.55913063165E+01 0.57650908873E+01 0.62018094890E+01 0.68820793768E+01
 0.76398447537E+01 0.82189447813E+01 0.85565712334E+01 0.88461574713E+01 0.92403014531E+01
 0.94420053952E+01 0.97576467082E+01 0.94871471396E+01 0.87807732755E+01 0.81524553807E+01
 0.79204089523E+01 0.78994152500E+01 0.76823943193E+01 0.71230859874E+01 0.64470762924E+01
 0.59439783596E+01 0.57050008101E+01 0.57688951431E+01 0.61259366114E+01 0.67541209961E+01
 0.75127634682E+01 0.80989546351E+01 0.83669712417E+01 0.85265875085E+01 0.88924382893E+01
 0.87809187295E+01 0.94871471396E+01 0.97574806733E+01 0.94418294556E+01 0.88924664935E+01
 0.85269121315E+01 0.83674803660E+01 0.80994185267E+01 0.75130092409E+01 0.67541447329E+01
 0.61258703735E+01 0.57688770602E+01 0.57050647399E+01 0.59440429653E+01 0.64470267157E+01
 0.71228781196E+01 0.76821044239E+01 0.78991957233E+01 0.79203750918E+01 0.81525868202E+01
 0.79433344571E+01 0.87807732755E+01 0.94418294556E+01 0.95612325359E+01 0.92407016809E+01
 0.88468861785E+01 0.85573629833E+01 0.82195021075E+01 0.76400484065E+01 0.68820398923E+01
 0.62017327976E+01 0.57651001315E+01 0.55913760867E+01 0.57057563453E+01 0.60631201600E+01
 0.66057376185E+01 0.71227595477E+01 0.73571126507E+01 0.73348282897E+01 0.74214658374E+01
 0.74213663182E+01 0.81524553807E+01 0.88924664935E+01 0.92407016809E+01 0.91120563601E+01
 0.87438790429E+01 0.83678389338E+01 0.79769623313E+01 0.74431012562E+01 0.67701600837E+01
 0.61329832285E+01 0.56824872238E+01 0.54451338934E+01 0.54546023462E+01 0.56888619375E+01
 0.60901544277E+01 0.65535620888E+01 0.68689933565E+01 0.69583523124E+01 0.70372422131E+01
 0.73347520649E+01 0.79204089523E+01 0.85269121315E+01 0.88468861785E+01 0.87438790429E+01
 0.83541213360E+01 0.78997948822E+01 0.74637636674E+01 0.69880758093E+01 0.64448457856E+01
 0.59225413524E+01 0.55250439538E+01 0.52809135320E+01 0.52270054305E+01 0.53651553004E+01
 0.56530226025E+01 0.60427710199E+01 0.64319069229E+01 0.67180141315E+01 0.69582923649E+01
 0.73571456149E+01 0.78994152500E+01 0.83674803660E+01 0.85573629833E+01 0.83678389338E+01
 0.78997948822E+01 0.73571868354E+01 0.68685780687E+01 0.64313046714E+01 0.60083855768E+01
 0.56205681106E+01 0.53147431632E+01 0.51111257075E+01 0.50407312818E+01 0.51111231579E+01
 0.53148074714E+01 0.56208075210E+01 0.60088485790E+01 0.64318640225E+01 0.68689493261E+01
 0.71228936218E+01 0.76823943193E+01 0.80994185267E+01 0.82195021075E+01 0.79769623313E+01
 0.74637636674E+01 0.68685780687E+01 0.63409376046E+01 0.59192906896E+01 0.55768092018E+01
 0.52979522980E+01 0.50851118527E+01 0.49463634172E+01 0.48958064580E+01 0.49338720025E+01
 0.50662628038E+01 0.52982608662E+01 0.56207708306E+01 0.60427351330E+01 0.65535855612E+01
 0.66058889977E+01 0.71230859874E+01 0.75130092409E+01 0.76400484065E+01 0.74431012562E+01
 0.69880758093E+01 0.64313046714E+01 0.59192906896E+01 0.55174657421E+01 0.52219977951E+01
 0.50116113261E+01 0.48698956674E+01 0.47954256708E+01 0.47816959494E+01 0.48178772939E+01
 0.49064834393E+01 0.50662402925E+01 0.53147803563E+01 0.56530379267E+01 0.60902398623E+01
 0.60631959833E+01 0.64470762924E+01 0.67541447329E+01 0.68820398923E+01 0.67701600837E+01
 0.64448457856E+01 0.60083855768E+01 0.55768092018E+01 0.52219977951E+01 0.49627016671E+01
 0.47900476295E+01 0.46945034697E+01 0.46665230092E+01 0.46878953368E+01 0.47401954830E+01
 0.48178759986E+01 0.49338652931E+01 0.51111384507E+01 0.53652156085E+01 0.56889491367E+01
 0.57057276048E+01 0.59439783596E+01 0.61258703735E+01 0.62017327976E+01 0.61329832285E+01
 0.59225413524E+01 0.56205681106E+01 0.52979522980E+01 0.50116113261E+01 0.47900476295E+01
 0.46441712688E+01 0.45738747628E+01 0.45692569476E+01 0.46133577644E+01 0.46879053741E+01
 0.47817015059E+01 0.48958150927E+01 0.50407645707E+01 0.52270561688E+01 0.54546281530E+01
 0.55913063165E+01 0.57050008101E+01 0.57688770602E+01 0.57651001315E+01 0.56824872238E+01
 0.55250439538E+01 0.53147431632E+01 0.50851118527E+01 0.48698956674E+01 0.46945034697E+01
 0.45738747628E+01 0.45142613490E+01 0.45149550890E+01 0.45692630158E+01 0.46665147024E+01
 0.47954002010E+01 0.49463482728E+01 0.51111384507E+01 0.52809277455E+01 0.54451067693E+01
 0.57650908873E+01 0.57688951431E+01 0.57050647399E+01 0.55913760867E+01 0.54451338934E+01
 0.52809135320E+01 0.51111257075E+01 0.49463634172E+01 0.47954256708E+01 0.46665230092E+01
 0.45692569476E+01 0.45149550890E+01 0.45142625714E+01 0.45738436771E+01 0.46944270222E+01
 0.48698149716E+01 0.50850855613E+01 0.53147803563E+01 0.55250935644E+01 0.56825012837E+01
 0.62018094890E+01 0.61259366114E+01 0.59440429653E+01 0.57057563453E+01 0.54546023462E+01
 0.52270054305E+01 0.50407312818E+01 0.48958064580E+01 0.47816959494E+01 0.46878953368E+01
 0.46133577644E+01 0.45692630158E+01 0.45738436771E+01 0.46440695095E+01 0.47899170059E+01
 0.50115564785E+01 0.52980444686E+01 0.56207708306E+01 0.59227470798E+01 0.61331183129E+01
 0.68820793768E+01 0.67541209961E+01 0.64470267157E+01 0.60631201600E+01 0.56888619375E+01
 0.53651553004E+01 0.51111231579E+01 0.49338720025E+01 0.48178772939E+01 0.47401954830E+01
 0.46879053741E+01 0.46665147024E+01 0.46944270222E+01 0.47899170059E+01 0.49626365777E+01
 0.52221396156E+01 0.55771804096E+01 0.60088485790E+01 0.64452140416E+01 0.67703440256E+01
 0.76398447537E+01 0.75127634682E+01 0.71228781196E+01 0.66057376185E+01 0.60901544277E+01
 0.56530226025E+01 0.53148074714E+01 0.50662628038E+01 0.49064834393E+01 0.48178759986E+01
 0.47817015059E+01 0.47954002010E+01 0.48698149716E+01 0.50115564785E+01 0.52221396156E+01
 0.55179118993E+01 0.59199454744E+01 0.64319069229E+01 0.69883942353E+01 0.74430944769E+01
 0.82189447813E+01 0.80989546351E+01 0.76821044239E+01 0.71227595477E+01 0.65535620888E+01
 0.60427710199E+01 0.56208075210E+01 0.52982608662E+01 0.50662402925E+01 0.49338652931E+01
 0.48958150927E+01 0.49463482728E+01 0.50850855613E+01 0.52980444686E+01 0.55771804096E+01
 0.59199454744E+01 0.63416399460E+01 0.68689933565E+01 0.74637097675E+01 0.79765294984E+01
 0.85565712334E+01 0.83669712417E+01 0.78991957233E+01 0.73571126507E+01 0.68689933565E+01
 0.64319069229E+01 0.60088485790E+01 0.56207708306E+01 0.53147803563E+01 0.51111384507E+01
 0.50407645707E+01 0.51111384507E+01 0.53147803563E+01 0.56207708306E+01 0.60088485790E+01
 0.64319069229E+01 0.68689933565E+01 0.73571126507E+01 0.78991957233E+01 0.83669712417E+01
 0.88461574713E+01 0.85265875085E+01 0.79203750918E+01 0.73348282897E+01 0.69583523124E+01
 0.67180141315E+01 0.64318640225E+01 0.60427351330E+01 0.56530379267E+01 0.53652156085E+01
 0.52270561688E+01 0.52809277455E+01 0.55250935644E+01 0.59227470798E+01 0.64452140416E+01
 0.69883942353E+01 0.74637097675E+01 0.78991957233E+01 0.83531213773E+01 0.87428483619E+01
 0.92403014531E+01 0.88924382893E+01 0.81525868202E+01 0.74214658374E+01 0.70372422131E+01
 0.69582923649E+01 0.68689493261E+01 0.65535855612E+01 0.60902398623E+01 0.56889491367E+01
 0.54546281530E+01 0.54451067693E+01 0.56825012837E+01 0.61331183129E+01 0.67703440256E+01
 0.74430944769E+01 0.79765294984E+01 0.83669712417E+01 0.87428483619E+01 0.91112337426E+01
 0.93581068421E+01 0.91094341885E+01 0.83670738307E+01 0.74213663182E+01 0.67102400131E+01
 0.64372234929E+01 0.64222444609E+01 0.63419852868E+01 0.60638117244E+01 0.57067688704E+01
 0.54303004880E+01 0.53077308664E+01 0.53981048221E+01 0.57062953011E+01 0.62066669903E+01
 0.68785377579E+01 0.75923694336E+01 0.82189447813E+01 0.87397149509E+01 0.91616609672E+01
 0.91094341885E+01 0.92383981611E+01 0.88911987349E+01 0.81524553807E+01 0.74222910343E+01
 0.70384626679E+01 0.69593568256E+01 0.68695958879E+01 0.65538365029E+01 0.60902505949E+01