   1   1   0   0
  0.1283619E+02  0.2554775E-09  0.2554775E-09  0.2554775E-09  0.5000000E-15
  1.000000000000000E-004
  CAR 
 BCC W                                   
     36.39414697     -1.92816941  301     10.27897138      1.00000000
     -1.928  0.0000E+00  0.0000E+00
     -1.800  0.0000E+00  0.0000E+00
     -1.673  0.0000E+00  0.0000E+00
     -1.545 -0.8914E-29 -0.1139E-29
     -1.417 -0.1667E-24 -0.2129E-25
     -1.289 -0.1368E-20 -0.1748E-21
     -1.162 -0.4922E-17 -0.6289E-18
     -1.034 -0.7494E-14 -0.9580E-15
     -0.906 -0.5098E-11 -0.6521E-12
     -0.778 -0.1499E-08 -0.1921E-09
     -0.651 -0.1885E-06 -0.2427E-07
     -0.523 -0.9935E-05 -0.1293E-05
     -0.395 -0.2096E-03 -0.2807E-04
     -0.268 -0.1536E-02 -0.2242E-03
     -0.140 -0.1077E-02 -0.3619E-03
     -0.012  0.1949E-01  0.2127E-02
      0.116  0.4722E-01  0.8159E-02
      0.243  0.2943E-01  0.1192E-01
      0.371 -0.8420E-03  0.1181E-01
      0.499  0.5454E-02  0.1251E-01
      0.627  0.4826E-01  0.1867E-01
      0.754  0.5774E-01  0.2605E-01
      0.882  0.9690E-02  0.2729E-01
      1.010  0.4059E-02  0.2780E-01
      1.138  0.1139E+00  0.4236E-01
      1.265  0.1903E+00  0.6667E-01
      1.393  0.8359E-01  0.7735E-01
      1.521 -0.3162E-02  0.7694E-01
      1.649 -0.7809E-02  0.7595E-01
      1.776 -0.8756E-02  0.7483E-01
      1.904  0.6360E-03  0.7491E-01
      2.032  0.1016E+00  0.8789E-01
      2.160  0.2081E+00  0.1145E+00
      2.287  0.1297E+00  0.1310E+00
      2.415  0.4633E-01  0.1369E+00
      2.543  0.1763E+00  0.1595E+00
      2.671  0.3663E+00  0.2063E+00
      2.798  0.4075E+00  0.2583E+00
      2.926  0.3494E+00  0.3029E+00
      3.054  0.3800E+00  0.3515E+00
      3.181  0.5345E+00  0.4198E+00
      3.309  0.5401E+00  0.4888E+00
      3.437  0.5108E+00  0.5540E+00
      3.565  0.8254E+00  0.6594E+00
      3.692  0.1238E+01  0.8176E+00
      3.820  0.9371E+00  0.9373E+00
      3.948  0.6036E+00  0.1014E+01
      4.076  0.7653E+00  0.1112E+01
      4.203  0.9612E+00  0.1235E+01
      4.331  0.9034E+00  0.1350E+01
      4.459  0.6681E+00  0.1436E+01
      4.587  0.8359E+00  0.1543E+01
      4.714  0.1239E+01  0.1701E+01
      4.842  0.1188E+01  0.1853E+01
      4.970  0.7184E+00  0.1944E+01
      5.098  0.3373E+00  0.1987E+01
      5.225  0.2114E+00  0.2014E+01
      5.353  0.3563E+00  0.2060E+01
      5.481  0.5051E+00  0.2124E+01
      5.609  0.5706E+00  0.2197E+01
      5.736  0.8464E+00  0.2306E+01
      5.864  0.1124E+01  0.2449E+01
      5.992  0.9205E+00  0.2567E+01
      6.120  0.8065E+00  0.2670E+01
      6.247  0.1657E+01  0.2881E+01
      6.375  0.2044E+01  0.3142E+01
      6.503  0.1215E+01  0.3298E+01
      6.630  0.4039E+00  0.3349E+01
      6.758  0.6090E+00  0.3427E+01
      6.886  0.1116E+01  0.3569E+01
      7.014  0.9913E+00  0.3696E+01
      7.141  0.7438E+00  0.3791E+01
      7.269  0.6543E+00  0.3875E+01
      7.397  0.6107E+00  0.3953E+01
      7.525  0.5346E+00  0.4021E+01
      7.652  0.5737E+00  0.4094E+01
      7.780  0.1084E+01  0.4233E+01
      7.908  0.1517E+01  0.4427E+01
      8.036  0.1607E+01  0.4632E+01
      8.163  0.1951E+01  0.4881E+01
      8.291  0.1402E+01  0.5060E+01
      8.419  0.5428E+00  0.5130E+01
      8.547  0.3358E+00  0.5172E+01
      8.674  0.3606E+00  0.5218E+01
      8.802  0.4739E+00  0.5279E+01
      8.930  0.5096E+00  0.5344E+01
      9.058  0.3712E+00  0.5392E+01
      9.185  0.2799E+00  0.5427E+01
      9.313  0.2131E+00  0.5455E+01
      9.441  0.2194E+00  0.5483E+01
      9.569  0.3906E+00  0.5532E+01
      9.696  0.7577E+00  0.5629E+01
      9.824  0.1108E+01  0.5771E+01
      9.952  0.8269E+00  0.5876E+01
     10.079  0.4813E+00  0.5938E+01
     10.207  0.3403E+00  0.5981E+01
     10.335  0.2460E+00  0.6013E+01
     10.463  0.1809E+00  0.6036E+01
     10.590  0.1651E+00  0.6057E+01
     10.718  0.3494E+00  0.6102E+01
     10.846  0.4524E+00  0.6159E+01
     10.974  0.3969E+00  0.6210E+01
     11.101  0.3433E+00  0.6254E+01
     11.229  0.4782E+00  0.6315E+01
     11.357  0.8980E+00  0.6430E+01
     11.485  0.9057E+00  0.6545E+01
     11.612  0.5299E+00  0.6613E+01
     11.740  0.6494E+00  0.6696E+01
     11.868  0.8020E+00  0.6798E+01
     11.996  0.5237E+00  0.6865E+01
     12.123  0.2959E+00  0.6903E+01
     12.251  0.5850E+00  0.6978E+01
     12.379  0.1014E+01  0.7107E+01
     12.507  0.1011E+01  0.7237E+01
     12.634  0.8823E+00  0.7349E+01
     12.762  0.8997E+00  0.7464E+01
     12.890  0.8872E+00  0.7578E+01
     13.018  0.8423E+00  0.7685E+01
     13.145  0.7788E+00  0.7785E+01
     13.273  0.8786E+00  0.7897E+01
     13.401  0.1016E+01  0.8027E+01
     13.528  0.8127E+00  0.8131E+01
     13.656  0.6753E+00  0.8217E+01
     13.784  0.8517E+00  0.8326E+01
     13.912  0.7744E+00  0.8425E+01
     14.039  0.5342E+00  0.8493E+01
     14.167  0.7727E+00  0.8592E+01
     14.295  0.1355E+01  0.8765E+01
     14.423  0.1481E+01  0.8954E+01
     14.550  0.1545E+01  0.9151E+01
     14.678  0.1519E+01  0.9345E+01
     14.806  0.1110E+01  0.9487E+01
     14.934  0.1306E+01  0.9654E+01
     15.061  0.1643E+01  0.9864E+01
     15.189  0.1155E+01  0.1001E+02
     15.317  0.6441E+00  0.1009E+02
     15.445  0.5077E+00  0.1016E+02
     15.572  0.4883E+00  0.1022E+02
     15.700  0.3090E+00  0.1026E+02
     15.828  0.1395E+00  0.1028E+02
     15.956  0.3645E+00  0.1032E+02
     16.083  0.5189E+00  0.1039E+02
     16.211  0.2423E+00  0.1042E+02
     16.339  0.6595E-01  0.1043E+02
     16.467  0.1739E+00  0.1045E+02
     16.594  0.2535E+00  0.1048E+02
     16.722  0.2251E+00  0.1051E+02
     16.850  0.1697E+00  0.1054E+02
     16.978  0.2093E+00  0.1056E+02
     17.105  0.1916E+00  0.1059E+02
     17.233  0.5277E-01  0.1059E+02
     17.361  0.9280E-01  0.1061E+02
     17.488  0.2103E+00  0.1063E+02
     17.616  0.2305E+00  0.1066E+02
     17.744  0.3208E+00  0.1070E+02
     17.872  0.6985E+00  0.1079E+02
     17.999  0.9641E+00  0.1091E+02
     18.127  0.7303E+00  0.1101E+02
     18.255  0.4550E+00  0.1107E+02
     18.383  0.1935E+00  0.1109E+02
     18.510  0.2185E+00  0.1112E+02
     18.638  0.3782E+00  0.1117E+02
     18.766  0.2880E+00  0.1120E+02
     18.894  0.1977E+00  0.1123E+02
     19.021  0.1904E+00  0.1125E+02
     19.149  0.1563E+00  0.1127E+02
     19.277  0.1048E+00  0.1129E+02
     19.405  0.2230E+00  0.1132E+02
     19.532  0.2517E+00  0.1135E+02
     19.660  0.1894E+00  0.1137E+02
     19.788  0.1839E+00  0.1140E+02
     19.916  0.8002E-01  0.1141E+02
     20.043  0.2276E-01  0.1141E+02
     20.171  0.3443E-01  0.1141E+02
     20.299 -0.1353E-02  0.1141E+02
     20.427  0.5303E-01  0.1142E+02
     20.554  0.3564E+00  0.1146E+02
     20.682  0.5043E+00  0.1153E+02
     20.810  0.2350E+00  0.1156E+02
     20.937  0.6456E-01  0.1157E+02
     21.065  0.1602E+00  0.1159E+02
     21.193  0.2897E+00  0.1162E+02
     21.321  0.4337E+00  0.1168E+02
     21.448  0.5649E+00  0.1175E+02
     21.576  0.6488E+00  0.1184E+02
     21.704  0.3891E+00  0.1189E+02
     21.832  0.4815E-01  0.1189E+02
     21.959 -0.3620E-01  0.1189E+02
     22.087  0.5769E-01  0.1189E+02
     22.215  0.2589E+00  0.1193E+02
     22.343  0.3141E+00  0.1197E+02
     22.470  0.2732E+00  0.1200E+02
     22.598  0.3510E+00  0.1205E+02
     22.726  0.2318E+00  0.1208E+02
     22.854  0.1603E-01  0.1208E+02
     22.981  0.5861E-01  0.1209E+02
     23.109  0.4302E+00  0.1214E+02
     23.237  0.7901E+00  0.1224E+02
     23.365  0.6441E+00  0.1232E+02
     23.492  0.5961E+00  0.1240E+02
     23.620  0.8211E+00  0.1251E+02
     23.748  0.7700E+00  0.1260E+02
     23.876  0.4851E+00  0.1267E+02
     24.003  0.1291E+00  0.1268E+02
     24.131  0.3277E-01  0.1269E+02
     24.259  0.2058E+00  0.1271E+02
     24.386  0.3526E+00  0.1276E+02
     24.514  0.3392E+00  0.1280E+02
     24.642  0.1770E+00  0.1282E+02
     24.770  0.7529E-01  0.1283E+02
     24.897  0.2019E+00  0.1286E+02
     25.025  0.5621E+00  0.1293E+02
     25.153  0.9487E+00  0.1305E+02
     25.281  0.1002E+01  0.1318E+02
     25.408  0.5647E+00  0.1325E+02
     25.536  0.2493E+00  0.1328E+02
     25.664  0.5800E+00  0.1336E+02
     25.792  0.9953E+00  0.1349E+02
     25.919  0.1248E+01  0.1364E+02
     26.047  0.1128E+01  0.1379E+02
     26.175  0.6353E+00  0.1387E+02
     26.303  0.4623E+00  0.1393E+02
     26.430  0.7357E+00  0.1402E+02
     26.558  0.7719E+00  0.1412E+02
     26.686  0.3386E+00  0.1416E+02
     26.814  0.1214E+00  0.1418E+02
     26.941  0.1047E+00  0.1419E+02
     27.069  0.4365E-01  0.1420E+02
     27.197  0.2189E+00  0.1423E+02
     27.325  0.6855E+00  0.1431E+02
     27.452  0.9662E+00  0.1444E+02
     27.580  0.9449E+00  0.1456E+02
     27.708  0.1046E+01  0.1469E+02
     27.835  0.9477E+00  0.1481E+02
     27.963  0.4713E+00  0.1487E+02
     28.091  0.2190E+00  0.1490E+02
     28.219  0.5280E+00  0.1497E+02
     28.346  0.7513E+00  0.1507E+02
     28.474  0.5530E+00  0.1514E+02
     28.602  0.2649E+00  0.1517E+02
     28.730  0.2554E+00  0.1520E+02
     28.857  0.4415E+00  0.1526E+02
     28.985  0.3672E+00  0.1531E+02
     29.113  0.2933E+00  0.1534E+02
     29.241  0.3522E+00  0.1539E+02
     29.368  0.2951E+00  0.1543E+02
     29.496  0.9132E-01  0.1544E+02
     29.624 -0.1415E-01  0.1544E+02
     29.752  0.5846E-01  0.1544E+02
     29.879  0.2004E+00  0.1547E+02
     30.007  0.4147E+00  0.1552E+02
     30.135  0.7447E+00  0.1562E+02
     30.263  0.6951E+00  0.1571E+02
     30.390  0.3031E+00  0.1574E+02
     30.518  0.2910E+00  0.1578E+02
     30.646  0.3720E+00  0.1583E+02
     30.774  0.1425E+00  0.1585E+02
     30.901 -0.9830E-02  0.1585E+02
     31.029 -0.1187E-01  0.1584E+02
     31.157 -0.1831E-02  0.1584E+02
     31.285 -0.2213E-02  0.1584E+02
     31.412 -0.9338E-02  0.1584E+02
     31.540  0.1078E-01  0.1584E+02
     31.668  0.1229E+00  0.1586E+02
     31.795  0.2229E+00  0.1589E+02
     31.923  0.2319E+00  0.1592E+02
     32.051  0.1574E+00  0.1594E+02
     32.179  0.3101E-01  0.1594E+02
     32.306 -0.1136E-01  0.1594E+02
     32.434 -0.1138E-01  0.1594E+02
     32.562  0.3107E-02  0.1594E+02
     32.690  0.1065E+00  0.1595E+02
     32.817  0.1918E+00  0.1598E+02
     32.945  0.9237E-01  0.1599E+02
     33.073 -0.8994E-03  0.1599E+02
     33.201 -0.7010E-02  0.1599E+02
     33.328 -0.1093E-02  0.1599E+02
     33.456 -0.5738E-04  0.1599E+02
     33.584 -0.1203E-05  0.1599E+02
     33.712 -0.7283E-06  0.1599E+02
     33.839 -0.2860E-04  0.1599E+02
     33.967 -0.4440E-03  0.1599E+02
     34.095 -0.2138E-02  0.1599E+02
     34.223  0.2289E-02  0.1599E+02
     34.350  0.3032E-01  0.1599E+02
     34.478  0.4729E-01  0.1600E+02
     34.606  0.1949E-01  0.1600E+02
     34.734 -0.1077E-02  0.1600E+02
     34.861 -0.1536E-02  0.1600E+02
     34.989 -0.2096E-03  0.1600E+02
     35.117 -0.9935E-05  0.1600E+02
     35.244 -0.1885E-06  0.1600E+02
     35.372 -0.1499E-08  0.1600E+02
     35.500 -0.5098E-11  0.1600E+02
     35.628 -0.7509E-14  0.1600E+02
     35.755  0.0000E+00  0.1600E+02
     35.883  0.0000E+00  0.1600E+02
     36.011  0.0000E+00  0.1600E+02
     36.139  0.0000E+00  0.1600E+02
     36.266  0.0000E+00  0.1600E+02
     36.394  0.0000E+00  0.1600E+02
