    1    1    1    1
  0.1283619E+02  0.2554775E-09  0.2554775E-09  0.2554775E-09  0.5000000E-15
  1.000000000000000E-004
  CAR 
 BCC W                                   
      6     44      8
 
  0.5000000E-01  0.5000000E-01  0.5000000E-01  0.8000000E-02
    1        0.646227   1.000000
    2        8.251204   1.000000
    3        8.251204   1.000000
    4        9.848611   1.004749
    5       12.772468  -0.000000
    6       12.772468  -0.000000
    7       26.826585   0.000000
    8       28.320943   0.000000
 
  0.1500000E+00  0.5000000E-01  0.5000000E-01  0.2400000E-01
    1        2.092479   1.000000
    2        7.333726   1.000000
    3        7.729633   1.000000
    4       11.839275  -0.000000
    5       12.365099  -0.000000
    6       13.162302  -0.000000
    7       27.800560   0.000000
    8       30.007881   0.000000
 
  0.2500000E+00  0.5000000E-01  0.5000000E-01  0.2400000E-01
    1        3.225814   1.000000
    2        6.453151   1.000000
    3        8.079056   1.000000
    4       12.740930  -0.000000
    5       13.644865  -0.000000
    6       14.735655  -0.000000
    7       26.548455   0.000000
    8       29.187918   0.000000
 
  0.3500000E+00  0.5000000E-01  0.5000000E-01  0.2400000E-01
    1        3.138597   1.000000
    2        5.853216   1.000000
    3       10.189446   0.839993
    4       13.332383  -0.000000
    5       14.199866  -0.000000
    6       17.776263   0.000000
    7       24.376220   0.000000
    8       26.224762   0.000000
 
  0.4500000E+00  0.5000000E-01  0.5000000E-01  0.1200000E-01
    1        2.953564   1.000000
    2        5.643097   1.000000
    3       11.753618  -0.000000
    4       13.327025  -0.000000
    5       14.488949  -0.000000
    6       19.363813   0.000000
    7       23.452781   0.000000
    8       24.767685   0.000000
 
 -0.5000000E-01  0.5000000E-01  0.5000000E-01  0.6000000E-02
    1        0.071831   1.000000
    2        8.692476   1.000000
    3        8.692481   1.000000
    4        8.864971   1.000000
    5       12.569997  -0.000000
    6       13.297117  -0.000000
    7       26.836018   0.000000
    8       26.836019   0.000000
 
  0.1500000E+00  0.1500000E+00  0.5000000E-01  0.2400000E-01
    1        3.585050   1.000000
    2        6.775539   1.000000
    3        6.894427   1.000000
    4       12.471430  -0.000000
    5       13.740791  -0.000000
    6       14.714704  -0.000000
    7       28.409824   0.000000
    8       29.032065   0.000000
 
  0.2500000E+00  0.1500000E+00  0.5000000E-01  0.4800000E-01
    1        4.226343   1.000000
    2        6.166398   1.000000
    3        7.866679   1.000000
    4       12.950431  -0.000000
    5       14.289157  -0.000000
    6       17.982786   0.000000
    7       25.904887   0.000000
    8       27.653208   0.000000
 
  0.3500000E+00  0.1500000E+00  0.5000000E-01  0.4800000E-01
    1        3.975995   1.000000
    2        5.880062   1.000000
    3        9.774039   1.001036
    4       13.412639  -0.000000
    5       14.637638  -0.000000
    6       20.561746   0.000000
    7       23.581607   0.000000
    8       25.286481   0.000000
 
 -0.1500000E+00  0.1500000E+00  0.5000000E-01  0.2400000E-01
    1        1.186823   1.000000
    2        8.061465   1.000000
    3        8.462544   1.000000
    4       10.052087   1.034041
    5       11.615762  -0.000000
    6       13.572697  -0.000000
    7       27.769182   0.000000
    8       28.800466   0.000000
 
  0.2500000E+00  0.2500000E+00  0.5000000E-01  0.2400000E-01
    1        4.771006   1.000000
    2        6.454857   1.000000
    3        8.079006   1.000000
    4       13.410426  -0.000000
    5       14.516480  -0.000000
    6       21.246271   0.000000
    7       23.201772   0.000000
    8       27.432904   0.000000
 
  0.3500000E+00  0.2500000E+00  0.5000000E-01  0.2400000E-01
    1        4.789231   1.000000
    2        6.672919   1.000000
    3        8.434345   1.000000
    4       13.812678  -0.000000
    5       14.569002  -0.000000
    6       21.426523   0.000000
    7       23.248221   0.000000
    8       25.932745   0.000000
 
 -0.2500000E+00  0.2500000E+00  0.5000000E-01  0.2400000E-01
    1        2.667157   1.000000
    2        7.114051   1.000000
    3        8.087076   1.000000
    4       11.745295  -0.000000
    5       12.366126  -0.000000
    6       13.883880  -0.000000
    7       27.325316   0.000000
    8       30.508297   0.000000
 
 -0.1500000E+00  0.2500000E+00  0.5000000E-01  0.2400000E-01
    1        2.552693   1.000000
    2        7.720081   1.000000
    3        7.822160   1.000000
    4       10.874986  -0.000104
    5       11.710752  -0.000000
    6       14.205361  -0.000000
    7       28.827416   0.000000
    8       29.305010   0.000000
 
 -0.3500000E+00  0.3500000E+00  0.5000000E-01  0.2400000E-01
    1        3.080908   1.000000
    2        6.307529   1.000000
    3        9.157899   1.000000
    4       12.707188  -0.000000
    5       14.300020  -0.000000
    6       15.417608  -0.000000
    7       25.155607   0.000000
    8       28.182990   0.000000
 
 -0.2500000E+00  0.3500000E+00  0.5000000E-01  0.4800000E-01
    1        3.690322   1.000000
    2        6.826408   1.000000
    3        7.823058   1.000000
    4       11.413714  -0.000000
    5       14.260168  -0.000000
    6       14.907096  -0.000000
    7       26.396862   0.000000
    8       30.095711   0.000000
 
 -0.4500000E+00  0.4500000E+00  0.5000000E-01  0.2400000E-01
    1        2.811553   1.000000
    2        5.860021   1.000000
    3       10.976626  -0.000005
    4       12.967792  -0.000000
    5       15.143171  -0.000000
    6       18.187603   0.000000
    7       23.821334   0.000000
    8       25.813610   0.000000
 
 -0.3500000E+00  0.4500000E+00  0.5000000E-01  0.4800000E-01
    1        3.610596   1.000000
    2        6.364057   1.000000
    3        8.903826   1.000000
    4       12.312824  -0.000000
    5       15.017732  -0.000000
    6       17.914297   0.000000
    7       24.974794   0.000000
    8       27.418527   0.000000
 
 -0.2500000E+00  0.4500000E+00  0.5000000E-01  0.2400000E-01
    1        4.531430   1.000000
    2        6.219628   1.000000
    3        8.085054   1.000000
    4       11.858554  -0.000000
    5       14.491428  -0.000000
    6       18.176527   0.000000
    7       25.296722   0.000000
    8       29.823351   0.000000
 
 -0.4500000E+00 -0.4500000E+00  0.5000000E-01  0.2400000E-01
    1        3.408044   1.000000
    2        6.203382   1.000000
    3        9.719196   1.000275
    4       12.209626  -0.000000
    5       15.979029   0.000000
    6       19.710313   0.000000
    7       24.229615   0.000000
    8       25.777845   0.000000
 
 -0.3500000E+00 -0.4500000E+00  0.5000000E-01  0.4800000E-01
    1        4.562304   1.000000
    2        6.356021   1.000000
    3        8.129837   1.000000
    4       12.599802  -0.000000
    5       14.939894  -0.000000
    6       21.544276   0.000000
    7       23.192072   0.000000
    8       27.598481   0.000000
 
 -0.3500000E+00 -0.3500000E+00  0.5000000E-01  0.8000000E-02
    1        5.141738   1.000000
    2        6.895179   1.000000
    3        6.895180   1.000000
    4       14.043983  -0.000000
    5       14.043989  -0.000000
    6       21.645242   0.000000
    7       25.164149   0.000000
    8       25.164151   0.000000
 
  0.1500000E+00  0.1500000E+00  0.1500000E+00  0.8000000E-02
    1        5.320049   1.000000
    2        6.219495   1.000000
    3        6.219495   1.000000
    4       13.698585  -0.000000
    5       13.698585  -0.000000
    6       18.198667   0.000000
    7       28.114065   0.000000
    8       28.307825   0.000000
 
  0.2500000E+00  0.1500000E+00  0.1500000E+00  0.2400000E-01
    1        5.385746   1.000000
    2        5.964223   1.000000
    3        7.877510   1.000000
    4       13.989006  -0.000000
    5       14.404168  -0.000000
    6       21.283238   0.000000
    7       23.538076   0.000000
    8       26.436434   0.000000
 
  0.3500000E+00  0.1500000E+00  0.1500000E+00  0.1200000E-01
    1        5.177481   1.000000
    2        5.896249   1.000000
    3        9.176172   1.000000
    4       14.130960  -0.000000
    5       14.634779  -0.000000
    6       21.517372   0.000000
    7       22.536997   0.000000
    8       25.704140   0.000000
 
 -0.1500000E+00  0.1500000E+00  0.1500000E+00  0.6000000E-02
    1        2.243314   1.000000
    2        8.743860   1.000000
    3        8.743860   1.000000
    4        9.573245   1.000004
    5        9.992208   1.030473
    6       14.514975  -0.000000
    7       30.196507   0.000000
    8       30.602375   0.000000
 
  0.2500000E+00  0.2500000E+00  0.1500000E+00  0.2400000E-01
    1        5.732033   1.000000
    2        6.818900   1.000000
    3        7.866800   1.000000
    4       14.425493  -0.000000
    5       14.620092  -0.000000
    6       20.674191   0.000000
    7       23.762314   0.000000
    8       26.027290   0.000000
 
 -0.2500000E+00  0.2500000E+00  0.1500000E+00  0.2400000E-01
    1        3.683936   1.000000
    2        7.575344   1.000000
    3        8.244762   1.000000
    4        9.961773   1.023714
    5       11.974446  -0.000000
    6       14.982816  -0.000000
    7       27.228346   0.000000
    8       31.922705   0.000000
 
 -0.3500000E+00  0.3500000E+00  0.1500000E+00  0.2400000E-01
    1        4.089573   1.000000
    2        7.320280   1.000000
    3        7.539777   1.000000
    4       11.241821  -0.000000
    5       15.027816  -0.000000
    6       15.542609  -0.000000
    7       25.924274   0.000000
    8       30.569490   0.000000
 
 -0.2500000E+00  0.3500000E+00  0.1500000E+00  0.2400000E-01
    1        4.760828   1.000000
    2        6.258471   1.000000
    3        8.679960   1.000000
    4       10.390919   0.098872
    5       13.782127  -0.000000
    6       15.624701  -0.000000
    7       26.496455   0.000000
    8       32.747037   0.000000
 
 -0.4500000E+00  0.4500000E+00  0.1500000E+00  0.2400000E-01
    1        3.693904   1.000000
    2        7.130335   1.000000
    3        8.174884   1.000000
    4       11.119660  -0.000000
    5       17.610659   0.000000
    6       17.878836   0.000000
    7       25.110596   0.000000
    8       27.896715   0.000000
 
 -0.3500000E+00  0.4500000E+00  0.1500000E+00  0.4800000E-01
    1        4.672835   1.000000
    2        6.230861   1.000000
    3        8.143102   1.000000
    4       11.343050  -0.000000
    5       15.201319  -0.000000
    6       18.556655   0.000000
    7       25.674918   0.000000
    8       30.206877   0.000000
 
 -0.4500000E+00 -0.4500000E+00  0.1500000E+00  0.2400000E-01
    1        4.350337   1.000000
    2        6.975070   1.000000
    3        7.402438   1.000000
    4       11.379259  -0.000000
    5       16.693000   0.000000
    6       21.033183   0.000000
    7       23.701416   0.000000
    8       28.245865   0.000000
 
 -0.3500000E+00 -0.4500000E+00  0.1500000E+00  0.2400000E-01
    1        5.399860   1.000000
    2        5.684037   1.000000
    3        7.138121   1.000000
    4       13.184493  -0.000000
    5       14.976568  -0.000000
    6       22.292353   0.000000
    7       23.451610   0.000000
    8       27.326468   0.000000
 
  0.2500000E+00  0.2500000E+00  0.2500000E+00  0.2000000E-02
    1        6.998539   1.000000
    2        6.998540   1.000000
    3        6.998540   1.000000
    4       14.710575  -0.000000
    5       14.710575  -0.000000
    6       19.587354   0.000000
    7       25.603210   0.000000
    8       25.603214   0.000000
 
 -0.2500000E+00  0.2500000E+00  0.2500000E+00  0.6000000E-02
    1        4.888078   1.000000
    2        6.367627   1.000000
    3        9.747665   1.000559
    4        9.747666   1.000559
    5       12.101925  -0.000000
    6       15.209184  -0.000000
    7       27.137153   0.000000
    8       34.394147   0.000000
 
 -0.3500000E+00  0.3500000E+00  0.2500000E+00  0.2400000E-01
    1        4.927903   1.000000
    2        5.533595   1.000000
    3        9.802921   1.001944
    4       10.712947  -0.004446
    5       14.535522  -0.000000
    6       15.966993   0.000000
    7       27.761945   0.000000
    8       31.701347   0.000000
 
 -0.4500000E+00  0.4500000E+00  0.2500000E+00  0.2400000E-01
    1        4.213377   1.000000
    2        5.683383   1.000000
    3        9.540074   1.000001
    4       10.694077  -0.006216
    5       17.409523   0.000000
    6       19.039532   0.000000
    7       25.122572   0.000000
    8       28.250790   0.000000
 
 -0.3500000E+00  0.4500000E+00  0.2500000E+00  0.2400000E-01
    1        4.367603   1.000000
    2        4.974602   1.000000
    3        9.731618   1.000377
    4       12.476293  -0.000000
    5       15.378330  -0.000000
    6       18.792824   0.000000
    7       26.140611   0.000000
    8       28.487232   0.000000
 
 -0.4500000E+00 -0.4500000E+00  0.2500000E+00  0.2400000E-01
    1        4.147368   1.000000
    2        4.728110   1.000000
    3        9.442970   1.000000
    4       13.249594  -0.000000
    5       16.452478   0.000000
    6       22.178718   0.000000
    7       23.046019   0.000000
    8       25.993067   0.000000
 
 -0.3500000E+00  0.3500000E+00  0.3500000E+00  0.6000000E-02
    1        4.003039   1.000000
    2        4.665429   1.000000
    3       12.212700  -0.000000
    4       12.212702  -0.000000
    5       14.779392  -0.000000
    6       16.539401   0.000000
    7       28.737119   0.000000
    8       28.737125   0.000000
 
 -0.4500000E+00  0.4500000E+00  0.3500000E+00  0.2400000E-01
    1        3.441205   1.000000
    2        3.897320   1.000000
    3       12.790556  -0.000000
    4       13.060824  -0.000000
    5       16.987387   0.000000
    6       19.425020   0.000000
    7       24.501352   0.000000
    8       25.593308   0.000000
 
 -0.4500000E+00 -0.4500000E+00  0.3500000E+00  0.8000000E-02
    1        3.276937   1.000000
    2        3.276937   1.000000
    3       12.863148  -0.000000
    4       16.114023   0.000000
    5       16.114032   0.000000
    6       22.536064   0.000000
    7       22.536066   0.000000
    8       22.642937   0.000000
 
 -0.4500000E+00  0.4500000E+00  0.4500000E+00  0.6000000E-02
    1        2.776299   1.000000
    2        2.909163   1.000000
    3       15.976248   0.000000
    4       15.976252   0.000000
    5       16.965480   0.000000
    6       20.098228   0.000000
    7       22.572251   0.000000
    8       22.572254   0.000000
