 running on    4 total cores
 distrk:  each k-point on    4 cores,    1 groups
 distr:  one band on    1 cores,    4 groups
 using from now: INCAR     
 vasp.5.4.4.18Apr17-6-g9f103f2a35 (build Jul 01 2019 03:25:34) complex          
  
 POSCAR found type information on POSCAR  W 
 POSCAR found :  1 types and       1 ions
 scaLAPACK will be used
 LDA part: xc-table for Ceperly-Alder, standard interpolation
 POSCAR, INCAR and KPOINTS ok, starting setup
 FFT: planning ...
 WAVECAR not read
 entering main loop
       N       E                     dE             d eps       ncg     rms          rms(c)
DAV:   1    -0.106257025944E+02   -0.10626E+02   -0.19699E+03   960   0.294E+02
DAV:   2    -0.142242616567E+02   -0.35986E+01   -0.32789E+01   784   0.486E+01
DAV:   3    -0.142354217457E+02   -0.11160E-01   -0.11161E-01   952   0.264E+00
DAV:   4    -0.142354251035E+02   -0.33578E-05   -0.33563E-05   840   0.322E-02
DAV:   5    -0.142354251069E+02   -0.33869E-08   -0.31757E-08   848   0.859E-04    0.357E+00
DAV:   6    -0.138357657367E+02    0.39966E+00   -0.17096E-01   768   0.267E+00    0.197E+00
DAV:   7    -0.136427169158E+02    0.19305E+00   -0.26700E-01   784   0.329E+00    0.133E-01
DAV:   8    -0.136417575904E+02    0.95933E-03   -0.22962E-03   824   0.372E-01    0.526E-02
DAV:   9    -0.136415684676E+02    0.18912E-03   -0.18537E-04   688   0.775E-02    0.540E-03
DAV:  10    -0.136415720928E+02   -0.36252E-05   -0.38567E-06   376   0.147E-02
   1 F= -.13641572E+02 E0= -.13641752E+02  d E =0.540897E-03
 writing wavefunctions
