<?xml version="1.0" encoding="ISO-8859-1"?>
<modeling>
 <generator>
  <i name="program" type="string">vasp </i>
  <i name="version" type="string">5.4.4.18Apr17-6-g9f103f2a35  </i>
  <i name="subversion" type="string">(build Jul 01 2019 03:25:34) complex            parallel </i>
  <i name="platform" type="string">LinuxIFC </i>
  <i name="date" type="string">2020 07 08 </i>
  <i name="time" type="string">19:51:23 </i>
 </generator>
 <incar>
  <i type="string" name="SYSTEM"> BCC W</i>
  <i type="string" name="PREC">normal</i>
  <i name="EDIFF">      0.00010000</i>
  <i name="ENCUT">    224.00000000</i>
  <v type="int" name="KPOINT_BSE">    -1     0     0     0</v>
 </incar>
 <structure name="primitive_cell" >
  <crystal>
   <varray name="basis" >
    <v>      -1.47500000       1.47500000       1.47500000 </v>
    <v>       1.47500000      -1.47500000       1.47500000 </v>
    <v>       1.47500000       1.47500000      -1.47500000 </v>
   </varray>
   <i name="volume">     12.83618750 </i>
   <varray name="rec_basis" >
    <v>       0.00000000       0.33898305       0.33898305 </v>
    <v>       0.33898305       0.00000000       0.33898305 </v>
    <v>       0.33898305       0.33898305       0.00000000 </v>
   </varray>
  </crystal>
  <varray name="positions" >
   <v>       0.00000000       0.00000000       0.00000000 </v>
  </varray>
 </structure>
 <varray name="primitive_index" >
  <v type="int" >        1 </v>
 </varray>
 <kpoints>
  <generation param="Monkhorst-Pack">
   <v type="int" name="divisions">      10       10       10 </v>
   <v name="usershift">      0.00000000       0.00000000       0.00000000 </v>
   <v name="genvec1">      0.10000000       0.00000000       0.00000000 </v>
   <v name="genvec2">      0.00000000       0.10000000       0.00000000 </v>
   <v name="genvec3">      0.00000000       0.00000000       0.10000000 </v>
   <v name="shift">      0.50000000       0.50000000       0.50000000 </v>
  </generation>
  <varray name="kpointlist" >
   <v>       0.05000000       0.05000000       0.05000000 </v>
   <v>       0.15000000       0.05000000       0.05000000 </v>
   <v>       0.25000000       0.05000000       0.05000000 </v>
   <v>       0.35000000       0.05000000       0.05000000 </v>
   <v>       0.45000000       0.05000000       0.05000000 </v>
   <v>      -0.05000000       0.05000000       0.05000000 </v>
   <v>       0.15000000       0.15000000       0.05000000 </v>
   <v>       0.25000000       0.15000000       0.05000000 </v>
   <v>       0.35000000       0.15000000       0.05000000 </v>
   <v>      -0.15000000       0.15000000       0.05000000 </v>
   <v>       0.25000000       0.25000000       0.05000000 </v>
   <v>       0.35000000       0.25000000       0.05000000 </v>
   <v>      -0.25000000       0.25000000       0.05000000 </v>
   <v>      -0.15000000       0.25000000       0.05000000 </v>
   <v>      -0.35000000       0.35000000       0.05000000 </v>
   <v>      -0.25000000       0.35000000       0.05000000 </v>
   <v>      -0.45000000       0.45000000       0.05000000 </v>
   <v>      -0.35000000       0.45000000       0.05000000 </v>
   <v>      -0.25000000       0.45000000       0.05000000 </v>
   <v>      -0.45000000      -0.45000000       0.05000000 </v>
   <v>      -0.35000000      -0.45000000       0.05000000 </v>
   <v>      -0.35000000      -0.35000000       0.05000000 </v>
   <v>       0.15000000       0.15000000       0.15000000 </v>
   <v>       0.25000000       0.15000000       0.15000000 </v>
   <v>       0.35000000       0.15000000       0.15000000 </v>
   <v>      -0.15000000       0.15000000       0.15000000 </v>
   <v>       0.25000000       0.25000000       0.15000000 </v>
   <v>      -0.25000000       0.25000000       0.15000000 </v>
   <v>      -0.35000000       0.35000000       0.15000000 </v>
   <v>      -0.25000000       0.35000000       0.15000000 </v>
   <v>      -0.45000000       0.45000000       0.15000000 </v>
   <v>      -0.35000000       0.45000000       0.15000000 </v>
   <v>      -0.45000000      -0.45000000       0.15000000 </v>
   <v>      -0.35000000      -0.45000000       0.15000000 </v>
   <v>       0.25000000       0.25000000       0.25000000 </v>
   <v>      -0.25000000       0.25000000       0.25000000 </v>
   <v>      -0.35000000       0.35000000       0.25000000 </v>
   <v>      -0.45000000       0.45000000       0.25000000 </v>
   <v>      -0.35000000       0.45000000       0.25000000 </v>
   <v>      -0.45000000      -0.45000000       0.25000000 </v>
   <v>      -0.35000000       0.35000000       0.35000000 </v>
   <v>      -0.45000000       0.45000000       0.35000000 </v>
   <v>      -0.45000000      -0.45000000       0.35000000 </v>
   <v>      -0.45000000       0.45000000       0.45000000 </v>
  </varray>
  <varray name="weights" >
   <v>       0.00800000 </v>
   <v>       0.02400000 </v>
   <v>       0.02400000 </v>
   <v>       0.02400000 </v>
   <v>       0.01200000 </v>
   <v>       0.00600000 </v>
   <v>       0.02400000 </v>
   <v>       0.04800000 </v>
   <v>       0.04800000 </v>
   <v>       0.02400000 </v>
   <v>       0.02400000 </v>
   <v>       0.02400000 </v>
   <v>       0.02400000 </v>
   <v>       0.02400000 </v>
   <v>       0.02400000 </v>
   <v>       0.04800000 </v>
   <v>       0.02400000 </v>
   <v>       0.04800000 </v>
   <v>       0.02400000 </v>
   <v>       0.02400000 </v>
   <v>       0.04800000 </v>
   <v>       0.00800000 </v>
   <v>       0.00800000 </v>
   <v>       0.02400000 </v>
   <v>       0.01200000 </v>
   <v>       0.00600000 </v>
   <v>       0.02400000 </v>
   <v>       0.02400000 </v>
   <v>       0.02400000 </v>
   <v>       0.02400000 </v>
   <v>       0.02400000 </v>
   <v>       0.04800000 </v>
   <v>       0.02400000 </v>
   <v>       0.02400000 </v>
   <v>       0.00200000 </v>
   <v>       0.00600000 </v>
   <v>       0.02400000 </v>
   <v>       0.02400000 </v>
   <v>       0.02400000 </v>
   <v>       0.02400000 </v>
   <v>       0.00600000 </v>
   <v>       0.02400000 </v>
   <v>       0.00800000 </v>
   <v>       0.00600000 </v>
  </varray>
 </kpoints>
 <parameters>
  <separator name="general" >
   <i type="string" name="SYSTEM">BCC W</i>
   <i type="logical" name="LCOMPAT"> F  </i>
  </separator>
  <separator name="electronic" >
   <i type="string" name="PREC">normal</i>
   <i name="ENMAX">    224.00000000</i>
   <i name="ENAUG">    373.43800000</i>
   <i name="EDIFF">      0.00010000</i>
   <i type="int" name="IALGO">    38</i>
   <i type="int" name="IWAVPR">    10</i>
   <i type="int" name="NBANDS">     8</i>
   <i name="NELECT">      6.00000000</i>
   <i type="int" name="TURBO">     0</i>
   <i type="int" name="IRESTART">     0</i>
   <i type="int" name="NREBOOT">     0</i>
   <i type="int" name="NMIN">     0</i>
   <i name="EREF">      0.00000000</i>
   <separator name="electronic smearing" >
    <i type="int" name="ISMEAR">     1</i>
    <i name="SIGMA">      0.20000000</i>
    <i name="KSPACING">      0.50000000</i>
    <i type="logical" name="KGAMMA"> T  </i>
   </separator>
   <separator name="electronic projectors" >
    <i type="logical" name="LREAL"> F  </i>
    <v name="ROPT">      0.00000000</v>
    <i type="int" name="LMAXPAW">  -100</i>
    <i type="int" name="LMAXMIX">     2</i>
    <i type="logical" name="NLSPLINE"> F  </i>
   </separator>
   <separator name="electronic startup" >
    <i type="int" name="ISTART">     0</i>
    <i type="int" name="ICHARG">     2</i>
    <i type="int" name="INIWAV">     1</i>
   </separator>
   <separator name="electronic spin" >
    <i type="int" name="ISPIN">     1</i>
    <i type="logical" name="LNONCOLLINEAR"> F  </i>
    <v name="MAGMOM">      1.00000000</v>
    <i name="NUPDOWN">     -1.00000000</i>
    <i type="logical" name="LSORBIT"> F  </i>
    <v name="SAXIS">      0.00000000      0.00000000      1.00000000</v>
    <i type="logical" name="LSPIRAL"> F  </i>
    <v name="QSPIRAL">      0.00000000      0.00000000      0.00000000</v>
    <i type="logical" name="LZEROZ"> F  </i>
   </separator>
   <separator name="electronic exchange-correlation" >
    <i type="logical" name="LASPH"> F  </i>
    <i type="logical" name="LMETAGGA"> F  </i>
   </separator>
   <separator name="electronic convergence" >
    <i type="int" name="NELM">    60</i>
    <i type="int" name="NELMDL">    -5</i>
    <i type="int" name="NELMIN">     2</i>
    <i name="ENINI">    224.00000000</i>
    <separator name="electronic convergence detail" >
     <i type="logical" name="LDIAG"> T  </i>
     <i type="logical" name="LSUBROT"> F  </i>
     <i name="WEIMIN">      0.00000000</i>
     <i name="EBREAK">      0.00000313</i>
     <i name="DEPER">      0.30000000</i>
     <i type="int" name="NRMM">     4</i>
     <i name="TIME">      0.40000000</i>
    </separator>
   </separator>
   <separator name="electronic mixer" >
    <i name="AMIX">      0.40000000</i>
    <i name="BMIX">      1.00000000</i>
    <i name="AMIN">      0.10000000</i>
    <i name="AMIX_MAG">      1.60000000</i>
    <i name="BMIX_MAG">      1.00000000</i>
    <separator name="electronic mixer details" >
     <i type="int" name="IMIX">     4</i>
     <i type="logical" name="MIXFIRST"> F  </i>
     <i type="int" name="MAXMIX">   -45</i>
     <i name="WC">    100.00000000</i>
     <i type="int" name="INIMIX">     1</i>
     <i type="int" name="MIXPRE">     1</i>
     <i type="int" name="MREMOVE">     5</i>
    </separator>
   </separator>
   <separator name="electronic dipolcorrection" >
    <i type="logical" name="LDIPOL"> F  </i>
    <i type="logical" name="LMONO"> F  </i>
    <i type="int" name="IDIPOL">     0</i>
    <i name="EPSILON">      1.00000000</i>
    <v name="DIPOL">   -100.00000000   -100.00000000   -100.00000000</v>
    <i name="EFIELD">      0.00000000</i>
   </separator>
  </separator>
  <separator name="grids" >
   <i type="int" name="NGX">    10</i>
   <i type="int" name="NGY">    10</i>
   <i type="int" name="NGZ">    10</i>
   <i type="int" name="NGXF">    20</i>
   <i type="int" name="NGYF">    20</i>
   <i type="int" name="NGZF">    20</i>
   <i type="logical" name="ADDGRID"> F  </i>
  </separator>
  <separator name="ionic" >
   <i type="int" name="NSW">     0</i>
   <i type="int" name="IBRION">    -1</i>
   <i type="int" name="MDALGO">     0</i>
   <i type="int" name="ISIF">     2</i>
   <i name="PSTRESS">      0.00000000</i>
   <i name="EDIFFG">      0.00100000</i>
   <i type="int" name="NFREE">     0</i>
   <i name="POTIM">      0.50000000</i>
   <i name="SMASS">     -3.00000000</i>
   <i name="SCALEE">      1.00000000</i>
  </separator>
  <separator name="ionic md" >
   <i name="TEBEG">      0.00010000</i>
   <i name="TEEND">      0.00010000</i>
   <i type="int" name="NBLOCK">     1</i>
   <i type="int" name="KBLOCK">     1</i>
   <i type="int" name="NPACO">   256</i>
   <i name="APACO">     16.00000000</i>
  </separator>
  <separator name="symmetry" >
   <i type="int" name="ISYM">     2</i>
   <i name="SYMPREC">      0.00001000</i>
  </separator>
  <separator name="dos" >
   <i type="int" name="LORBIT">     0</i>
   <v name="RWIGS">     -1.00000000</v>
   <i type="int" name="NEDOS">   301</i>
   <i name="EMIN">     10.00000000</i>
   <i name="EMAX">    -10.00000000</i>
   <i name="EFERMI">      0.00000000</i>
  </separator>
  <separator name="writing" >
   <i type="int" name="NWRITE">     2</i>
   <i type="logical" name="LWAVE"> T  </i>
   <i type="logical" name="LDOWNSAMPLE"> F  </i>
   <i type="logical" name="LCHARG"> T  </i>
   <i type="logical" name="LPARD"> F  </i>
   <i type="logical" name="LVTOT"> F  </i>
   <i type="logical" name="LVHAR"> F  </i>
   <i type="logical" name="LELF"> F  </i>
   <i type="logical" name="LOPTICS"> F  </i>
   <v name="STM">      0.00000000      0.00000000      0.00000000      0.00000000      0.00000000      0.00000000      0.00000000</v>
  </separator>
  <separator name="performance" >
   <i type="int" name="NPAR">     4</i>
   <i type="int" name="NSIM">     4</i>
   <i type="int" name="NBLK">    -1</i>
   <i type="logical" name="LPLANE"> T  </i>
   <i type="logical" name="LSCALAPACK"> T  </i>
   <i type="logical" name="LSCAAWARE"> F  </i>
   <i type="logical" name="LSCALU"> F  </i>
   <i type="logical" name="LASYNC"> F  </i>
   <i type="logical" name="LORBITALREAL"> F  </i>
  </separator>
  <separator name="miscellaneous" >
   <i type="int" name="IDIOT">     3</i>
   <i type="int" name="ISPECIAL">     0</i>
   <i type="logical" name="LMUSIC"> F  </i>
   <v name="POMASS">    183.85000000</v>
   <v name="DARWINR">      0.00000000</v>
   <v name="DARWINV">      1.00000000</v>
   <i type="logical" name="LCORR"> T  </i>
  </separator>
  <i type="logical" name="GGA_COMPAT"> T  </i>
  <i type="logical" name="LBERRY"> F  </i>
  <i type="int" name="ICORELEVEL">     0</i>
  <i type="logical" name="LDAU"> F  </i>
  <i type="int" name="I_CONSTRAINED_M">     0</i>
  <separator name="electronic exchange-correlation" >
   <i type="string" name="GGA">--</i>
   <i type="int" name="VOSKOWN">     0</i>
   <i type="logical" name="LHFCALC"> F  </i>
   <i type="string" name="PRECFOCK"></i>
   <i type="logical" name="LSYMGRAD"> F  </i>
   <i type="logical" name="LHFONE"> F  </i>
   <i type="logical" name="LRHFCALC"> F  </i>
   <i type="logical" name="LTHOMAS"> F  </i>
   <i type="logical" name="LMODELHF"> F  </i>
   <i name="ENCUT4O">     -1.00000000</i>
   <i type="int" name="EXXOEP">     0</i>
   <i type="int" name="FOURORBIT">     0</i>
   <i name="AEXX">      0.00000000</i>
   <i name="HFALPHA">      0.00000000</i>
   <i name="MCALPHA">      0.00000000</i>
   <i name="ALDAX">      1.00000000</i>
   <i name="AGGAX">      1.00000000</i>
   <i name="ALDAC">      1.00000000</i>
   <i name="AGGAC">      1.00000000</i>
   <i type="int" name="NKREDX">     1</i>
   <i type="int" name="NKREDY">     1</i>
   <i type="int" name="NKREDZ">     1</i>
   <i type="logical" name="SHIFTRED"> F  </i>
   <i type="logical" name="ODDONLY"> F  </i>
   <i type="logical" name="EVENONLY"> F  </i>
   <i type="int" name="LMAXFOCK">     0</i>
   <i type="int" name="NMAXFOCKAE">     0</i>
   <i type="logical" name="LFOCKAEDFT"> F  </i>
   <i name="HFSCREEN">      0.00000000</i>
   <i name="HFSCREENC">      0.00000000</i>
   <i type="int" name="NBANDSGWLOW">     0</i>
  </separator>
  <separator name="vdW DFT" >
   <i type="logical" name="LUSE_VDW"> F  </i>
   <i name="Zab_VDW">     -0.84910000</i>
   <i name="PARAM1">      0.12340000</i>
   <i name="PARAM2">      1.00000000</i>
   <i name="PARAM3">      0.00000000</i>
  </separator>
  <separator name="model GW" >
   <i type="int" name="MODEL_GW">     0</i>
   <i name="MODEL_EPS0">      7.70171250</i>
   <i name="MODEL_ALPHA">      1.00000000</i>
  </separator>
  <separator name="linear response parameters" >
   <i type="logical" name="LEPSILON"> F  </i>
   <i type="logical" name="LRPA"> F  </i>
   <i type="logical" name="LNABLA"> F  </i>
   <i type="logical" name="LVEL"> F  </i>
   <i type="int" name="KINTER">     0</i>
   <i name="CSHIFT">      0.10000000</i>
   <i name="OMEGAMAX">     -1.00000000</i>
   <i name="DEG_THRESHOLD">      0.00200000</i>
   <i name="RTIME">     -0.10000000</i>
   <i name="WPLASMAI">      0.00000000</i>
   <v name="DFIELD">      0.00000000      0.00000000      0.00000000</v>
   <v name="WPLASMA">      0.00000000      0.00000000      0.00000000      0.00000000      0.00000000      0.00000000      0.00000000      0.00000000      0.00000000</v>
  </separator>
  <separator name="orbital magnetization" >
   <i type="logical" name="NUCIND"> F  </i>
   <v name="MAGPOS">      0.00000000      0.00000000      0.00000000</v>
   <i type="logical" name="LNICSALL"> T  </i>
   <i type="logical" name="ORBITALMAG"> F  </i>
   <i type="logical" name="LMAGBLOCH"> F  </i>
   <i type="logical" name="LCHIMAG"> F  </i>
   <i type="logical" name="LGAUGE"> T  </i>
   <i type="int" name="MAGATOM">     0</i>
   <v name="MAGDIPOL">      0.00000000      0.00000000      0.00000000</v>
   <v name="AVECCONST">      0.00000000      0.00000000      0.00000000</v>
  </separator>
  <separator name="response functions" >
   <i type="logical" name="LADDER"> F  </i>
   <i type="logical" name="LRPAFORCE"> F  </i>
   <i type="logical" name="LFXC"> F  </i>
   <i type="logical" name="LHARTREE"> T  </i>
   <i type="int" name="IBSE">     0</i>
   <v type="int" name="KPOINT">    -1     0     0     0</v>
   <i type="logical" name="LTCTE"> F  </i>
   <i type="logical" name="LTETE"> F  </i>
   <i type="logical" name="LTRIPLET"> F  </i>
   <i type="logical" name="LFXCEPS"> F  </i>
   <i type="logical" name="LFXHEG"> F  </i>
   <i type="int" name="NATURALO">     2</i>
   <i type="logical" name="L2ORDER"> F  </i>
   <i type="logical" name="LMP2LT"> F  </i>
   <i type="logical" name="LUSEW"> F  </i>
   <i name="ENCUTGW">     -2.00000000</i>
   <i name="ENCUTGWSOFT">     -2.00000000</i>
   <i name="ENCUTLF">     -1.00000000</i>
   <i type="int" name="LMAXMP2">    -1</i>
   <i name="SCISSOR">      0.00000000</i>
   <i type="int" name="NOMEGA">     0</i>
   <i type="int" name="NOMEGAR">     0</i>
   <i type="int" name="NBANDSGW">    -1</i>
   <i type="int" name="NBANDSO">    -1</i>
   <i type="int" name="NBANDSV">    -1</i>
   <i type="int" name="NELM">     1</i>
   <i type="int" name="NELMHF">     1</i>
   <i type="int" name="DIM">     3</i>
   <i type="int" name="ANTIRES">     0</i>
   <i name="OMEGAMAX">    -30.00000000</i>
   <i name="OMEGAMIN">    -30.00000000</i>
   <i name="OMEGATL">   -200.00000000</i>
   <i type="int" name="OMEGAGRID">   140</i>
   <i name="CSHIFT">     -0.10000000</i>
   <i type="logical" name="SELFENERGY"> F  </i>
   <i type="logical" name="LSPECTRAL"> F  </i>
   <i type="logical" name="LSPECTRALGW"> F  </i>
   <i type="logical" name="LSINGLES"> F  </i>
   <i type="logical" name="LFERMIGW"> F  </i>
   <i type="logical" name="ODDONLYGW"> F  </i>
   <i type="logical" name="EVENONLYGW"> F  </i>
   <i type="int" name="NKREDLFX">     1</i>
   <i type="int" name="NKREDLFY">     1</i>
   <i type="int" name="NKREDLFZ">     1</i>
   <i type="int" name="MAXMEM">  2800</i>
   <i type="int" name="TELESCOPE">     0</i>
   <i type="int" name="TAUPAR">     1</i>
   <i type="int" name="OMEGAPAR">    -1</i>
   <i name="LAMBDA">      1.00000000</i>
  </separator>
  <separator name="External order field" >
   <i name="OFIELD_KAPPA">      0.00000000</i>
   <v name="OFIELD_K">      0.00000000      0.00000000      0.00000000</v>
   <i name="OFIELD_Q6_NEAR">      0.00000000</i>
   <i name="OFIELD_Q6_FAR">      0.00000000</i>
   <i name="OFIELD_A">      0.00000000</i>
  </separator>
 </parameters>
 <atominfo>
  <atoms>       1 </atoms>
  <types>       1 </types>
  <array name="atoms" >
   <dimension dim="1">ion</dimension>
   <field type="string">element</field>
   <field type="int">atomtype</field>
   <set>
    <rc><c>W </c><c>   1</c></rc>
   </set>
  </array>
  <array name="atomtypes" >
   <dimension dim="1">type</dimension>
   <field type="int">atomspertype</field>
   <field type="string">element</field>
   <field>mass</field>
   <field>valence</field>
   <field type="string">pseudopotential</field>
   <set>
    <rc><c>   1</c><c>W </c><c>    183.85000000</c><c>      6.00000000</c><c> PAW W 19Jan2001                        </c></rc>
   </set>
  </array>
 </atominfo>
 <structure name="initialpos" >
  <crystal>
   <varray name="basis" >
    <v>      -1.47500000       1.47500000       1.47500000 </v>
    <v>       1.47500000      -1.47500000       1.47500000 </v>
    <v>       1.47500000       1.47500000      -1.47500000 </v>
   </varray>
   <i name="volume">     12.83618750 </i>
   <varray name="rec_basis" >
    <v>       0.00000000       0.33898305       0.33898305 </v>
    <v>       0.33898305       0.00000000       0.33898305 </v>
    <v>       0.33898305       0.33898305       0.00000000 </v>
   </varray>
  </crystal>
  <varray name="positions" >
   <v>       0.00000000       0.00000000       0.00000000 </v>
  </varray>
 </structure>
 <calculation>
  <scstep>
   <time name="dav">    0.04    0.04</time>
   <time name="total">    0.04    0.05</time>
   <energy>
    <i name="alphaZ">     54.37996446 </i>
    <i name="ewald">   -319.75436207 </i>
    <i name="hartreedc">     -3.71400351 </i>
    <i name="XCdc">    -46.96487959 </i>
    <i name="pawpsdc">    183.53490256 </i>
    <i name="pawaedc">   -125.80866524 </i>
    <i name="eentropy">      0.00113204 </i>
    <i name="bandstr">     41.19235040 </i>
    <i name="atom">    206.50785835 </i>
    <i name="e_fr_energy">    -10.62570259 </i>
    <i name="e_wo_entrp">    -10.62683463 </i>
    <i name="e_0_energy">    -10.62607994 </i>
   </energy>
  </scstep>
  <scstep>
   <time name="dav">    0.03    0.03</time>
   <time name="total">    0.03    0.03</time>
   <energy>
    <i name="e_fr_energy">    -14.22426166 </i>
    <i name="e_wo_entrp">    -14.22550733 </i>
    <i name="e_0_energy">    -14.22467688 </i>
   </energy>
  </scstep>
  <scstep>
   <time name="dav">    0.04    0.04</time>
   <time name="total">    0.04    0.04</time>
   <energy>
    <i name="e_fr_energy">    -14.23542175 </i>
    <i name="e_wo_entrp">    -14.23669754 </i>
    <i name="e_0_energy">    -14.23584701 </i>
   </energy>
  </scstep>
  <scstep>
   <time name="dav">    0.03    0.03</time>
   <time name="total">    0.03    0.03</time>
   <energy>
    <i name="e_fr_energy">    -14.23542510 </i>
    <i name="e_wo_entrp">    -14.23670088 </i>
    <i name="e_0_energy">    -14.23585036 </i>
   </energy>
  </scstep>
  <scstep>
   <time name="dav">    0.03    0.03</time>
   <time name="total">    0.03    0.03</time>
   <energy>
    <i name="e_fr_energy">    -14.23542511 </i>
    <i name="e_wo_entrp">    -14.23670089 </i>
    <i name="e_0_energy">    -14.23585037 </i>
   </energy>
  </scstep>
  <scstep>
   <time name="dav">    0.03    0.03</time>
   <time name="total">    0.03    0.03</time>
   <energy>
    <i name="e_fr_energy">    -13.83576574 </i>
    <i name="e_wo_entrp">    -13.83724125 </i>
    <i name="e_0_energy">    -13.83625757 </i>
   </energy>
  </scstep>
  <scstep>
   <time name="dav">    0.03    0.03</time>
   <time name="total">    0.03    0.03</time>
   <energy>
    <i name="e_fr_energy">    -13.64271692 </i>
    <i name="e_wo_entrp">    -13.64342591 </i>
    <i name="e_0_energy">    -13.64295325 </i>
   </energy>
  </scstep>
  <scstep>
   <time name="dav">    0.03    0.03</time>
   <time name="total">    0.03    0.03</time>
   <energy>
    <i name="e_fr_energy">    -13.64175759 </i>
    <i name="e_wo_entrp">    -13.64242590 </i>
    <i name="e_0_energy">    -13.64198036 </i>
   </energy>
  </scstep>
  <scstep>
   <time name="dav">    0.02    0.02</time>
   <time name="total">    0.03    0.03</time>
   <energy>
    <i name="e_fr_energy">    -13.64156847 </i>
    <i name="e_wo_entrp">    -13.64211621 </i>
    <i name="e_0_energy">    -13.64175105 </i>
   </energy>
  </scstep>
  <scstep>
   <time name="dav">    0.01    0.01</time>
   <time name="total">    0.02    0.02</time>
   <energy>
    <i name="alphaZ">     54.37996446 </i>
    <i name="ewald">   -319.75436207 </i>
    <i name="hartreedc">     -1.31437656 </i>
    <i name="XCdc">    -46.51119599 </i>
    <i name="pawpsdc">    298.61525777 </i>
    <i name="pawaedc">   -243.07614268 </i>
    <i name="eentropy">      0.00054090 </i>
    <i name="bandstr">     37.51088373 </i>
    <i name="atom">    206.50785835 </i>
    <i name="e_fr_energy">    -13.64157209 </i>
    <i name="e_wo_entrp">    -13.64211299 </i>
    <i name="e_0_energy">    -13.64175239 </i>
   </energy>
  </scstep>
  <structure>
   <crystal>
    <varray name="basis" >
     <v>      -1.47500000       1.47500000       1.47500000 </v>
     <v>       1.47500000      -1.47500000       1.47500000 </v>
     <v>       1.47500000       1.47500000      -1.47500000 </v>
    </varray>
    <i name="volume">     12.83618750 </i>
    <varray name="rec_basis" >
     <v>       0.00000000       0.33898305       0.33898305 </v>
     <v>       0.33898305       0.00000000       0.33898305 </v>
     <v>       0.33898305       0.33898305       0.00000000 </v>
    </varray>
   </crystal>
   <varray name="positions" >
    <v>       0.00000000       0.00000000       0.00000000 </v>
   </varray>
  </structure>
  <varray name="forces" >
   <v>       0.00000000       0.00000000       0.00000000 </v>
  </varray>
  <varray name="stress" >
   <v>     852.20917556       0.00000000       0.00000000 </v>
   <v>       0.00000000     852.20917556       0.00000000 </v>
   <v>       0.00000000       0.00000000     852.20917556 </v>
  </varray>
  <energy>
   <i name="e_fr_energy">    -13.64157209 </i>
   <i name="e_wo_entrp">    -13.64175239 </i>
   <i name="e_0_energy">      0.00054090 </i>
  </energy>
  <time name="totalsc">    0.36    0.36</time>
  <eigenvalues>
   <array>
    <dimension dim="1">band</dimension>
    <dimension dim="2">kpoint</dimension>
    <dimension dim="3">spin</dimension>
    <field>eigene</field>
    <field>occ</field>
    <set>
     <set comment="spin 1">
      <set comment="kpoint 1">
       <r>    0.6462    1.0000 </r>
       <r>    8.2512    1.0000 </r>
       <r>    8.2512    1.0000 </r>
       <r>    9.8486    1.0047 </r>
       <r>   12.7725   -0.0000 </r>
       <r>   12.7725   -0.0000 </r>
       <r>   26.8266    0.0000 </r>
       <r>   28.3209    0.0000 </r>
      </set>
      <set comment="kpoint 2">
       <r>    2.0925    1.0000 </r>
       <r>    7.3337    1.0000 </r>
       <r>    7.7296    1.0000 </r>
       <r>   11.8393   -0.0000 </r>
       <r>   12.3651   -0.0000 </r>
       <r>   13.1623   -0.0000 </r>
       <r>   27.8006    0.0000 </r>
       <r>   30.0079    0.0000 </r>
      </set>
      <set comment="kpoint 3">
       <r>    3.2258    1.0000 </r>
       <r>    6.4532    1.0000 </r>
       <r>    8.0791    1.0000 </r>
       <r>   12.7409   -0.0000 </r>
       <r>   13.6449   -0.0000 </r>
       <r>   14.7357   -0.0000 </r>
       <r>   26.5485    0.0000 </r>
       <r>   29.1879    0.0000 </r>
      </set>
      <set comment="kpoint 4">
       <r>    3.1386    1.0000 </r>
       <r>    5.8532    1.0000 </r>
       <r>   10.1894    0.8400 </r>
       <r>   13.3324   -0.0000 </r>
       <r>   14.1999   -0.0000 </r>
       <r>   17.7763    0.0000 </r>
       <r>   24.3762    0.0000 </r>
       <r>   26.2248    0.0000 </r>
      </set>
      <set comment="kpoint 5">
       <r>    2.9536    1.0000 </r>
       <r>    5.6431    1.0000 </r>
       <r>   11.7536   -0.0000 </r>
       <r>   13.3270   -0.0000 </r>
       <r>   14.4889   -0.0000 </r>
       <r>   19.3638    0.0000 </r>
       <r>   23.4528    0.0000 </r>
       <r>   24.7677    0.0000 </r>
      </set>
      <set comment="kpoint 6">
       <r>    0.0718    1.0000 </r>
       <r>    8.6925    1.0000 </r>
       <r>    8.6925    1.0000 </r>
       <r>    8.8650    1.0000 </r>
       <r>   12.5700   -0.0000 </r>
       <r>   13.2971   -0.0000 </r>
       <r>   26.8360    0.0000 </r>
       <r>   26.8360    0.0000 </r>
      </set>
      <set comment="kpoint 7">
       <r>    3.5851    1.0000 </r>
       <r>    6.7755    1.0000 </r>
       <r>    6.8944    1.0000 </r>
       <r>   12.4714   -0.0000 </r>
       <r>   13.7408   -0.0000 </r>
       <r>   14.7147   -0.0000 </r>
       <r>   28.4098    0.0000 </r>
       <r>   29.0321    0.0000 </r>
      </set>
      <set comment="kpoint 8">
       <r>    4.2263    1.0000 </r>
       <r>    6.1664    1.0000 </r>
       <r>    7.8667    1.0000 </r>
       <r>   12.9504   -0.0000 </r>
       <r>   14.2892   -0.0000 </r>
       <r>   17.9828    0.0000 </r>
       <r>   25.9049    0.0000 </r>
       <r>   27.6532    0.0000 </r>
      </set>
      <set comment="kpoint 9">
       <r>    3.9760    1.0000 </r>
       <r>    5.8801    1.0000 </r>
       <r>    9.7740    1.0010 </r>
       <r>   13.4126   -0.0000 </r>
       <r>   14.6376   -0.0000 </r>
       <r>   20.5617    0.0000 </r>
       <r>   23.5816    0.0000 </r>
       <r>   25.2865    0.0000 </r>
      </set>
      <set comment="kpoint 10">
       <r>    1.1868    1.0000 </r>
       <r>    8.0615    1.0000 </r>
       <r>    8.4625    1.0000 </r>
       <r>   10.0521    1.0340 </r>
       <r>   11.6158   -0.0000 </r>
       <r>   13.5727   -0.0000 </r>
       <r>   27.7692    0.0000 </r>
       <r>   28.8005    0.0000 </r>
      </set>
      <set comment="kpoint 11">
       <r>    4.7710    1.0000 </r>
       <r>    6.4549    1.0000 </r>
       <r>    8.0790    1.0000 </r>
       <r>   13.4104   -0.0000 </r>
       <r>   14.5165   -0.0000 </r>
       <r>   21.2463    0.0000 </r>
       <r>   23.2018    0.0000 </r>
       <r>   27.4329    0.0000 </r>
      </set>
      <set comment="kpoint 12">
       <r>    4.7892    1.0000 </r>
       <r>    6.6729    1.0000 </r>
       <r>    8.4343    1.0000 </r>
       <r>   13.8127   -0.0000 </r>
       <r>   14.5690   -0.0000 </r>
       <r>   21.4265    0.0000 </r>
       <r>   23.2482    0.0000 </r>
       <r>   25.9327    0.0000 </r>
      </set>
      <set comment="kpoint 13">
       <r>    2.6672    1.0000 </r>
       <r>    7.1141    1.0000 </r>
       <r>    8.0871    1.0000 </r>
       <r>   11.7453   -0.0000 </r>
       <r>   12.3661   -0.0000 </r>
       <r>   13.8839   -0.0000 </r>
       <r>   27.3253    0.0000 </r>
       <r>   30.5083    0.0000 </r>
      </set>
      <set comment="kpoint 14">
       <r>    2.5527    1.0000 </r>
       <r>    7.7201    1.0000 </r>
       <r>    7.8222    1.0000 </r>
       <r>   10.8750   -0.0001 </r>
       <r>   11.7108   -0.0000 </r>
       <r>   14.2054   -0.0000 </r>
       <r>   28.8274    0.0000 </r>
       <r>   29.3050    0.0000 </r>
      </set>
      <set comment="kpoint 15">
       <r>    3.0809    1.0000 </r>
       <r>    6.3075    1.0000 </r>
       <r>    9.1579    1.0000 </r>
       <r>   12.7072   -0.0000 </r>
       <r>   14.3000   -0.0000 </r>
       <r>   15.4176   -0.0000 </r>
       <r>   25.1556    0.0000 </r>
       <r>   28.1830    0.0000 </r>
      </set>
      <set comment="kpoint 16">
       <r>    3.6903    1.0000 </r>
       <r>    6.8264    1.0000 </r>
       <r>    7.8231    1.0000 </r>
       <r>   11.4137   -0.0000 </r>
       <r>   14.2602   -0.0000 </r>
       <r>   14.9071   -0.0000 </r>
       <r>   26.3969    0.0000 </r>
       <r>   30.0957    0.0000 </r>
      </set>
      <set comment="kpoint 17">
       <r>    2.8116    1.0000 </r>
       <r>    5.8600    1.0000 </r>
       <r>   10.9766   -0.0000 </r>
       <r>   12.9678   -0.0000 </r>
       <r>   15.1432   -0.0000 </r>
       <r>   18.1876    0.0000 </r>
       <r>   23.8213    0.0000 </r>
       <r>   25.8136    0.0000 </r>
      </set>
      <set comment="kpoint 18">
       <r>    3.6106    1.0000 </r>
       <r>    6.3641    1.0000 </r>
       <r>    8.9038    1.0000 </r>
       <r>   12.3128   -0.0000 </r>
       <r>   15.0177   -0.0000 </r>
       <r>   17.9143    0.0000 </r>
       <r>   24.9748    0.0000 </r>
       <r>   27.4185    0.0000 </r>
      </set>
      <set comment="kpoint 19">
       <r>    4.5314    1.0000 </r>
       <r>    6.2196    1.0000 </r>
       <r>    8.0851    1.0000 </r>
       <r>   11.8586   -0.0000 </r>
       <r>   14.4914   -0.0000 </r>
       <r>   18.1765    0.0000 </r>
       <r>   25.2967    0.0000 </r>
       <r>   29.8234    0.0000 </r>
      </set>
      <set comment="kpoint 20">
       <r>    3.4080    1.0000 </r>
       <r>    6.2034    1.0000 </r>
       <r>    9.7192    1.0003 </r>
       <r>   12.2096   -0.0000 </r>
       <r>   15.9790    0.0000 </r>
       <r>   19.7103    0.0000 </r>
       <r>   24.2296    0.0000 </r>
       <r>   25.7778    0.0000 </r>
      </set>
      <set comment="kpoint 21">
       <r>    4.5623    1.0000 </r>
       <r>    6.3560    1.0000 </r>
       <r>    8.1298    1.0000 </r>
       <r>   12.5998   -0.0000 </r>
       <r>   14.9399   -0.0000 </r>
       <r>   21.5443    0.0000 </r>
       <r>   23.1921    0.0000 </r>
       <r>   27.5985    0.0000 </r>
      </set>
      <set comment="kpoint 22">
       <r>    5.1417    1.0000 </r>
       <r>    6.8952    1.0000 </r>
       <r>    6.8952    1.0000 </r>
       <r>   14.0440   -0.0000 </r>
       <r>   14.0440   -0.0000 </r>
       <r>   21.6452    0.0000 </r>
       <r>   25.1641    0.0000 </r>
       <r>   25.1642    0.0000 </r>
      </set>
      <set comment="kpoint 23">
       <r>    5.3200    1.0000 </r>
       <r>    6.2195    1.0000 </r>
       <r>    6.2195    1.0000 </r>
       <r>   13.6986   -0.0000 </r>
       <r>   13.6986   -0.0000 </r>
       <r>   18.1987    0.0000 </r>
       <r>   28.1141    0.0000 </r>
       <r>   28.3078    0.0000 </r>
      </set>
      <set comment="kpoint 24">
       <r>    5.3857    1.0000 </r>
       <r>    5.9642    1.0000 </r>
       <r>    7.8775    1.0000 </r>
       <r>   13.9890   -0.0000 </r>
       <r>   14.4042   -0.0000 </r>
       <r>   21.2832    0.0000 </r>
       <r>   23.5381    0.0000 </r>
       <r>   26.4364    0.0000 </r>
      </set>
      <set comment="kpoint 25">
       <r>    5.1775    1.0000 </r>
       <r>    5.8962    1.0000 </r>
       <r>    9.1762    1.0000 </r>
       <r>   14.1310   -0.0000 </r>
       <r>   14.6348   -0.0000 </r>
       <r>   21.5174    0.0000 </r>
       <r>   22.5370    0.0000 </r>
       <r>   25.7041    0.0000 </r>
      </set>
      <set comment="kpoint 26">
       <r>    2.2433    1.0000 </r>
       <r>    8.7439    1.0000 </r>
       <r>    8.7439    1.0000 </r>
       <r>    9.5732    1.0000 </r>
       <r>    9.9922    1.0305 </r>
       <r>   14.5150   -0.0000 </r>
       <r>   30.1965    0.0000 </r>
       <r>   30.6024    0.0000 </r>
      </set>
      <set comment="kpoint 27">
       <r>    5.7320    1.0000 </r>
       <r>    6.8189    1.0000 </r>
       <r>    7.8668    1.0000 </r>
       <r>   14.4255   -0.0000 </r>
       <r>   14.6201   -0.0000 </r>
       <r>   20.6742    0.0000 </r>
       <r>   23.7623    0.0000 </r>
       <r>   26.0273    0.0000 </r>
      </set>
      <set comment="kpoint 28">
       <r>    3.6839    1.0000 </r>
       <r>    7.5753    1.0000 </r>
       <r>    8.2448    1.0000 </r>
       <r>    9.9618    1.0237 </r>
       <r>   11.9744   -0.0000 </r>
       <r>   14.9828   -0.0000 </r>
       <r>   27.2283    0.0000 </r>
       <r>   31.9227    0.0000 </r>
      </set>
      <set comment="kpoint 29">
       <r>    4.0896    1.0000 </r>
       <r>    7.3203    1.0000 </r>
       <r>    7.5398    1.0000 </r>
       <r>   11.2418   -0.0000 </r>
       <r>   15.0278   -0.0000 </r>
       <r>   15.5426   -0.0000 </r>
       <r>   25.9243    0.0000 </r>
       <r>   30.5695    0.0000 </r>
      </set>
      <set comment="kpoint 30">
       <r>    4.7608    1.0000 </r>
       <r>    6.2585    1.0000 </r>
       <r>    8.6800    1.0000 </r>
       <r>   10.3909    0.0989 </r>
       <r>   13.7821   -0.0000 </r>
       <r>   15.6247   -0.0000 </r>
       <r>   26.4965    0.0000 </r>
       <r>   32.7470    0.0000 </r>
      </set>
      <set comment="kpoint 31">
       <r>    3.6939    1.0000 </r>
       <r>    7.1303    1.0000 </r>
       <r>    8.1749    1.0000 </r>
       <r>   11.1197   -0.0000 </r>
       <r>   17.6107    0.0000 </r>
       <r>   17.8788    0.0000 </r>
       <r>   25.1106    0.0000 </r>
       <r>   27.8967    0.0000 </r>
      </set>
      <set comment="kpoint 32">
       <r>    4.6728    1.0000 </r>
       <r>    6.2309    1.0000 </r>
       <r>    8.1431    1.0000 </r>
       <r>   11.3430   -0.0000 </r>
       <r>   15.2013   -0.0000 </r>
       <r>   18.5567    0.0000 </r>
       <r>   25.6749    0.0000 </r>
       <r>   30.2069    0.0000 </r>
      </set>
      <set comment="kpoint 33">
       <r>    4.3503    1.0000 </r>
       <r>    6.9751    1.0000 </r>
       <r>    7.4024    1.0000 </r>
       <r>   11.3793   -0.0000 </r>
       <r>   16.6930    0.0000 </r>
       <r>   21.0332    0.0000 </r>
       <r>   23.7014    0.0000 </r>
       <r>   28.2459    0.0000 </r>
      </set>
      <set comment="kpoint 34">
       <r>    5.3999    1.0000 </r>
       <r>    5.6840    1.0000 </r>
       <r>    7.1381    1.0000 </r>
       <r>   13.1845   -0.0000 </r>
       <r>   14.9766   -0.0000 </r>
       <r>   22.2924    0.0000 </r>
       <r>   23.4516    0.0000 </r>
       <r>   27.3265    0.0000 </r>
      </set>
      <set comment="kpoint 35">
       <r>    6.9985    1.0000 </r>
       <r>    6.9985    1.0000 </r>
       <r>    6.9985    1.0000 </r>
       <r>   14.7106   -0.0000 </r>
       <r>   14.7106   -0.0000 </r>
       <r>   19.5874    0.0000 </r>
       <r>   25.6032    0.0000 </r>
       <r>   25.6032    0.0000 </r>
      </set>
      <set comment="kpoint 36">
       <r>    4.8881    1.0000 </r>
       <r>    6.3676    1.0000 </r>
       <r>    9.7477    1.0006 </r>
       <r>    9.7477    1.0006 </r>
       <r>   12.1019   -0.0000 </r>
       <r>   15.2092   -0.0000 </r>
       <r>   27.1372    0.0000 </r>
       <r>   34.3941    0.0000 </r>
      </set>
      <set comment="kpoint 37">
       <r>    4.9279    1.0000 </r>
       <r>    5.5336    1.0000 </r>
       <r>    9.8029    1.0019 </r>
       <r>   10.7129   -0.0044 </r>
       <r>   14.5355   -0.0000 </r>
       <r>   15.9670    0.0000 </r>
       <r>   27.7619    0.0000 </r>
       <r>   31.7013    0.0000 </r>
      </set>
      <set comment="kpoint 38">
       <r>    4.2134    1.0000 </r>
       <r>    5.6834    1.0000 </r>
       <r>    9.5401    1.0000 </r>
       <r>   10.6941   -0.0062 </r>
       <r>   17.4095    0.0000 </r>
       <r>   19.0395    0.0000 </r>
       <r>   25.1226    0.0000 </r>
       <r>   28.2508    0.0000 </r>
      </set>
      <set comment="kpoint 39">
       <r>    4.3676    1.0000 </r>
       <r>    4.9746    1.0000 </r>
       <r>    9.7316    1.0004 </r>
       <r>   12.4763   -0.0000 </r>
       <r>   15.3783   -0.0000 </r>
       <r>   18.7928    0.0000 </r>
       <r>   26.1406    0.0000 </r>
       <r>   28.4872    0.0000 </r>
      </set>
      <set comment="kpoint 40">
       <r>    4.1474    1.0000 </r>
       <r>    4.7281    1.0000 </r>
       <r>    9.4430    1.0000 </r>
       <r>   13.2496   -0.0000 </r>
       <r>   16.4525    0.0000 </r>
       <r>   22.1787    0.0000 </r>
       <r>   23.0460    0.0000 </r>
       <r>   25.9931    0.0000 </r>
      </set>
      <set comment="kpoint 41">
       <r>    4.0030    1.0000 </r>
       <r>    4.6654    1.0000 </r>
       <r>   12.2127   -0.0000 </r>
       <r>   12.2127   -0.0000 </r>
       <r>   14.7794   -0.0000 </r>
       <r>   16.5394    0.0000 </r>
       <r>   28.7371    0.0000 </r>
       <r>   28.7371    0.0000 </r>
      </set>
      <set comment="kpoint 42">
       <r>    3.4412    1.0000 </r>
       <r>    3.8973    1.0000 </r>
       <r>   12.7906   -0.0000 </r>
       <r>   13.0608   -0.0000 </r>
       <r>   16.9874    0.0000 </r>
       <r>   19.4250    0.0000 </r>
       <r>   24.5014    0.0000 </r>
       <r>   25.5933    0.0000 </r>
      </set>
      <set comment="kpoint 43">
       <r>    3.2769    1.0000 </r>
       <r>    3.2769    1.0000 </r>
       <r>   12.8631   -0.0000 </r>
       <r>   16.1140    0.0000 </r>
       <r>   16.1140    0.0000 </r>
       <r>   22.5361    0.0000 </r>
       <r>   22.5361    0.0000 </r>
       <r>   22.6429    0.0000 </r>
      </set>
      <set comment="kpoint 44">
       <r>    2.7763    1.0000 </r>
       <r>    2.9092    1.0000 </r>
       <r>   15.9762    0.0000 </r>
       <r>   15.9763    0.0000 </r>
       <r>   16.9655    0.0000 </r>
       <r>   20.0982    0.0000 </r>
       <r>   22.5723    0.0000 </r>
       <r>   22.5723    0.0000 </r>
      </set>
     </set>
    </set>
   </array>
  </eigenvalues>
  <separator name="orbital magnetization" >
   <v name="MAGDIPOLOUT">      0.00000000      0.00000000      0.00000000</v>
  </separator>
  <dos>
   <i name="efermi">     10.27897138 </i>
   <total>
    <array>
     <dimension dim="1">gridpoints</dimension>
     <dimension dim="2">spin</dimension>
     <field>energy</field>
     <field>total</field>
     <field>integrated</field>
     <set>
      <set comment="spin 1">
       <r>    -1.9282     0.0000     0.0000 </r>
       <r>    -1.8004     0.0000     0.0000 </r>
       <r>    -1.6727     0.0000     0.0000 </r>
       <r>    -1.5449    -0.0000    -0.0000 </r>
       <r>    -1.4172    -0.0000    -0.0000 </r>
       <r>    -1.2895    -0.0000    -0.0000 </r>
       <r>    -1.1617    -0.0000    -0.0000 </r>
       <r>    -1.0340    -0.0000    -0.0000 </r>
       <r>    -0.9062    -0.0000    -0.0000 </r>
       <r>    -0.7785    -0.0000    -0.0000 </r>
       <r>    -0.6508    -0.0000    -0.0000 </r>
       <r>    -0.5230    -0.0000    -0.0000 </r>
       <r>    -0.3953    -0.0002    -0.0000 </r>
       <r>    -0.2675    -0.0015    -0.0002 </r>
       <r>    -0.1398    -0.0011    -0.0004 </r>
       <r>    -0.0121     0.0195     0.0021 </r>
       <r>     0.1157     0.0472     0.0082 </r>
       <r>     0.2434     0.0294     0.0119 </r>
       <r>     0.3712    -0.0008     0.0118 </r>
       <r>     0.4989     0.0055     0.0125 </r>
       <r>     0.6267     0.0483     0.0187 </r>
       <r>     0.7544     0.0577     0.0260 </r>
       <r>     0.8821     0.0097     0.0273 </r>
       <r>     1.0099     0.0041     0.0278 </r>
       <r>     1.1376     0.1139     0.0424 </r>
       <r>     1.2654     0.1903     0.0667 </r>
       <r>     1.3931     0.0836     0.0773 </r>
       <r>     1.5208    -0.0032     0.0769 </r>
       <r>     1.6486    -0.0078     0.0759 </r>
       <r>     1.7763    -0.0088     0.0748 </r>
       <r>     1.9041     0.0006     0.0749 </r>
       <r>     2.0318     0.1016     0.0879 </r>
       <r>     2.1595     0.2081     0.1145 </r>
       <r>     2.2873     0.1297     0.1310 </r>
       <r>     2.4150     0.0463     0.1369 </r>
       <r>     2.5428     0.1763     0.1595 </r>
       <r>     2.6705     0.3663     0.2063 </r>
       <r>     2.7982     0.4075     0.2583 </r>
       <r>     2.9260     0.3494     0.3029 </r>
       <r>     3.0537     0.3800     0.3515 </r>
       <r>     3.1815     0.5345     0.4198 </r>
       <r>     3.3092     0.5401     0.4888 </r>
       <r>     3.4370     0.5108     0.5540 </r>
       <r>     3.5647     0.8254     0.6594 </r>
       <r>     3.6924     1.2383     0.8176 </r>
       <r>     3.8202     0.9371     0.9373 </r>
       <r>     3.9479     0.6036     1.0144 </r>
       <r>     4.0757     0.7653     1.1122 </r>
       <r>     4.2034     0.9612     1.2350 </r>
       <r>     4.3311     0.9034     1.3504 </r>
       <r>     4.4589     0.6681     1.4357 </r>
       <r>     4.5866     0.8359     1.5425 </r>
       <r>     4.7144     1.2395     1.7008 </r>
       <r>     4.8421     1.1880     1.8526 </r>
       <r>     4.9698     0.7184     1.9444 </r>
       <r>     5.0976     0.3373     1.9875 </r>
       <r>     5.2253     0.2114     2.0145 </r>
       <r>     5.3531     0.3563     2.0600 </r>
       <r>     5.4808     0.5051     2.1245 </r>
       <r>     5.6086     0.5706     2.1974 </r>
       <r>     5.7363     0.8464     2.3055 </r>
       <r>     5.8640     1.1243     2.4491 </r>
       <r>     5.9918     0.9205     2.5667 </r>
       <r>     6.1195     0.8065     2.6697 </r>
       <r>     6.2473     1.6569     2.8814 </r>
       <r>     6.3750     2.0435     3.1424 </r>
       <r>     6.5027     1.2146     3.2976 </r>
       <r>     6.6305     0.4039     3.3492 </r>
       <r>     6.7582     0.6090     3.4270 </r>
       <r>     6.8860     1.1156     3.5695 </r>
       <r>     7.0137     0.9913     3.6961 </r>
       <r>     7.1414     0.7438     3.7911 </r>
       <r>     7.2692     0.6543     3.8747 </r>
       <r>     7.3969     0.6107     3.9527 </r>
       <r>     7.5247     0.5346     4.0210 </r>
       <r>     7.6524     0.5737     4.0943 </r>
       <r>     7.7802     1.0839     4.2327 </r>
       <r>     7.9079     1.5173     4.4266 </r>
       <r>     8.0356     1.6074     4.6319 </r>
       <r>     8.1634     1.9512     4.8811 </r>
       <r>     8.2911     1.4016     5.0602 </r>
       <r>     8.4189     0.5428     5.1295 </r>
       <r>     8.5466     0.3358     5.1724 </r>
       <r>     8.6743     0.3606     5.2185 </r>
       <r>     8.8021     0.4739     5.2790 </r>
       <r>     8.9298     0.5096     5.3441 </r>
       <r>     9.0576     0.3712     5.3916 </r>
       <r>     9.1853     0.2799     5.4273 </r>
       <r>     9.3130     0.2131     5.4545 </r>
       <r>     9.4408     0.2194     5.4826 </r>
       <r>     9.5685     0.3906     5.5325 </r>
       <r>     9.6963     0.7577     5.6293 </r>
       <r>     9.8240     1.1076     5.7707 </r>
       <r>     9.9517     0.8269     5.8764 </r>
       <r>    10.0795     0.4813     5.9379 </r>
       <r>    10.2072     0.3403     5.9813 </r>
       <r>    10.3350     0.2460     6.0128 </r>
       <r>    10.4627     0.1809     6.0359 </r>
       <r>    10.5905     0.1651     6.0569 </r>
       <r>    10.7182     0.3494     6.1016 </r>
       <r>    10.8459     0.4524     6.1594 </r>
       <r>    10.9737     0.3969     6.2101 </r>
       <r>    11.1014     0.3433     6.2539 </r>
       <r>    11.2292     0.4782     6.3150 </r>
       <r>    11.3569     0.8980     6.4297 </r>
       <r>    11.4846     0.9057     6.5454 </r>
       <r>    11.6124     0.5299     6.6131 </r>
       <r>    11.7401     0.6494     6.6960 </r>
       <r>    11.8679     0.8020     6.7985 </r>
       <r>    11.9956     0.5237     6.8654 </r>
       <r>    12.1233     0.2959     6.9032 </r>
       <r>    12.2511     0.5850     6.9779 </r>
       <r>    12.3788     1.0144     7.1075 </r>
       <r>    12.5066     1.0114     7.2367 </r>
       <r>    12.6343     0.8823     7.3494 </r>
       <r>    12.7621     0.8997     7.4643 </r>
       <r>    12.8898     0.8872     7.5777 </r>
       <r>    13.0175     0.8423     7.6853 </r>
       <r>    13.1453     0.7788     7.7847 </r>
       <r>    13.2730     0.8786     7.8970 </r>
       <r>    13.4008     1.0160     8.0268 </r>
       <r>    13.5285     0.8127     8.1306 </r>
       <r>    13.6562     0.6753     8.2168 </r>
       <r>    13.7840     0.8517     8.3256 </r>
       <r>    13.9117     0.7744     8.4246 </r>
       <r>    14.0395     0.5342     8.4928 </r>
       <r>    14.1672     0.7727     8.5915 </r>
       <r>    14.2949     1.3548     8.7646 </r>
       <r>    14.4227     1.4812     8.9538 </r>
       <r>    14.5504     1.5447     9.1511 </r>
       <r>    14.6782     1.5190     9.3451 </r>
       <r>    14.8059     1.1105     9.4870 </r>
       <r>    14.9336     1.3056     9.6538 </r>
       <r>    15.0614     1.6428     9.8636 </r>
       <r>    15.1891     1.1548    10.0111 </r>
       <r>    15.3169     0.6441    10.0934 </r>
       <r>    15.4446     0.5077    10.1583 </r>
       <r>    15.5724     0.4883    10.2207 </r>
       <r>    15.7001     0.3090    10.2601 </r>
       <r>    15.8278     0.1395    10.2780 </r>
       <r>    15.9556     0.3645    10.3245 </r>
       <r>    16.0833     0.5189    10.3908 </r>
       <r>    16.2111     0.2423    10.4218 </r>
       <r>    16.3388     0.0660    10.4302 </r>
       <r>    16.4665     0.1739    10.4524 </r>
       <r>    16.5943     0.2535    10.4848 </r>
       <r>    16.7220     0.2251    10.5135 </r>
       <r>    16.8498     0.1697    10.5352 </r>
       <r>    16.9775     0.2093    10.5619 </r>
       <r>    17.1052     0.1916    10.5864 </r>
       <r>    17.2330     0.0528    10.5932 </r>
       <r>    17.3607     0.0928    10.6050 </r>
       <r>    17.4885     0.2103    10.6319 </r>
       <r>    17.6162     0.2305    10.6613 </r>
       <r>    17.7440     0.3208    10.7023 </r>
       <r>    17.8717     0.6985    10.7915 </r>
       <r>    17.9994     0.9641    10.9147 </r>
       <r>    18.1272     0.7303    11.0080 </r>
       <r>    18.2549     0.4550    11.0661 </r>
       <r>    18.3827     0.1935    11.0908 </r>
       <r>    18.5104     0.2185    11.1187 </r>
       <r>    18.6381     0.3782    11.1670 </r>
       <r>    18.7659     0.2880    11.2038 </r>
       <r>    18.8936     0.1977    11.2291 </r>
       <r>    19.0214     0.1904    11.2534 </r>
       <r>    19.1491     0.1563    11.2734 </r>
       <r>    19.2768     0.1048    11.2868 </r>
       <r>    19.4046     0.2230    11.3153 </r>
       <r>    19.5323     0.2517    11.3474 </r>
       <r>    19.6601     0.1894    11.3716 </r>
       <r>    19.7878     0.1839    11.3951 </r>
       <r>    19.9156     0.0800    11.4053 </r>
       <r>    20.0433     0.0228    11.4082 </r>
       <r>    20.1710     0.0344    11.4126 </r>
       <r>    20.2988    -0.0014    11.4125 </r>
       <r>    20.4265     0.0530    11.4192 </r>
       <r>    20.5543     0.3564    11.4648 </r>
       <r>    20.6820     0.5043    11.5292 </r>
       <r>    20.8097     0.2350    11.5592 </r>
       <r>    20.9375     0.0646    11.5674 </r>
       <r>    21.0652     0.1602    11.5879 </r>
       <r>    21.1930     0.2897    11.6249 </r>
       <r>    21.3207     0.4337    11.6803 </r>
       <r>    21.4484     0.5649    11.7525 </r>
       <r>    21.5762     0.6488    11.8353 </r>
       <r>    21.7039     0.3891    11.8850 </r>
       <r>    21.8317     0.0482    11.8912 </r>
       <r>    21.9594    -0.0362    11.8866 </r>
       <r>    22.0871     0.0577    11.8939 </r>
       <r>    22.2149     0.2589    11.9270 </r>
       <r>    22.3426     0.3141    11.9671 </r>
       <r>    22.4704     0.2732    12.0020 </r>
       <r>    22.5981     0.3510    12.0469 </r>
       <r>    22.7259     0.2318    12.0765 </r>
       <r>    22.8536     0.0160    12.0785 </r>
       <r>    22.9813     0.0586    12.0860 </r>
       <r>    23.1091     0.4302    12.1410 </r>
       <r>    23.2368     0.7901    12.2419 </r>
       <r>    23.3646     0.6441    12.3242 </r>
       <r>    23.4923     0.5961    12.4003 </r>
       <r>    23.6200     0.8211    12.5052 </r>
       <r>    23.7478     0.7700    12.6036 </r>
       <r>    23.8755     0.4851    12.6655 </r>
       <r>    24.0033     0.1291    12.6820 </r>
       <r>    24.1310     0.0328    12.6862 </r>
       <r>    24.2587     0.2058    12.7125 </r>
       <r>    24.3865     0.3526    12.7576 </r>
       <r>    24.5142     0.3392    12.8009 </r>
       <r>    24.6420     0.1770    12.8235 </r>
       <r>    24.7697     0.0753    12.8331 </r>
       <r>    24.8975     0.2019    12.8589 </r>
       <r>    25.0252     0.5621    12.9307 </r>
       <r>    25.1529     0.9487    13.0519 </r>
       <r>    25.2807     1.0019    13.1799 </r>
       <r>    25.4084     0.5647    13.2520 </r>
       <r>    25.5362     0.2493    13.2839 </r>
       <r>    25.6639     0.5800    13.3580 </r>
       <r>    25.7916     0.9953    13.4851 </r>
       <r>    25.9194     1.2480    13.6445 </r>
       <r>    26.0471     1.1275    13.7886 </r>
       <r>    26.1749     0.6353    13.8697 </r>
       <r>    26.3026     0.4623    13.9288 </r>
       <r>    26.4303     0.7357    14.0227 </r>
       <r>    26.5581     0.7719    14.1213 </r>
       <r>    26.6858     0.3386    14.1646 </r>
       <r>    26.8136     0.1214    14.1801 </r>
       <r>    26.9413     0.1047    14.1935 </r>
       <r>    27.0690     0.0436    14.1991 </r>
       <r>    27.1968     0.2189    14.2270 </r>
       <r>    27.3245     0.6855    14.3146 </r>
       <r>    27.4523     0.9662    14.4380 </r>
       <r>    27.5800     0.9449    14.5587 </r>
       <r>    27.7078     1.0462    14.6924 </r>
       <r>    27.8355     0.9477    14.8134 </r>
       <r>    27.9632     0.4713    14.8736 </r>
       <r>    28.0910     0.2190    14.9016 </r>
       <r>    28.2187     0.5280    14.9690 </r>
       <r>    28.3465     0.7513    15.0650 </r>
       <r>    28.4742     0.5530    15.1356 </r>
       <r>    28.6019     0.2649    15.1695 </r>
       <r>    28.7297     0.2554    15.2021 </r>
       <r>    28.8574     0.4415    15.2585 </r>
       <r>    28.9852     0.3672    15.3054 </r>
       <r>    29.1129     0.2933    15.3429 </r>
       <r>    29.2406     0.3522    15.3879 </r>
       <r>    29.3684     0.2951    15.4256 </r>
       <r>    29.4961     0.0913    15.4372 </r>
       <r>    29.6239    -0.0142    15.4354 </r>
       <r>    29.7516     0.0585    15.4429 </r>
       <r>    29.8794     0.2004    15.4685 </r>
       <r>    30.0071     0.4147    15.5215 </r>
       <r>    30.1348     0.7447    15.6166 </r>
       <r>    30.2626     0.6951    15.7054 </r>
       <r>    30.3903     0.3031    15.7441 </r>
       <r>    30.5181     0.2910    15.7813 </r>
       <r>    30.6458     0.3720    15.8288 </r>
       <r>    30.7735     0.1425    15.8470 </r>
       <r>    30.9013    -0.0098    15.8457 </r>
       <r>    31.0290    -0.0119    15.8442 </r>
       <r>    31.1568    -0.0018    15.8440 </r>
       <r>    31.2845    -0.0022    15.8437 </r>
       <r>    31.4122    -0.0093    15.8425 </r>
       <r>    31.5400     0.0108    15.8439 </r>
       <r>    31.6677     0.1229    15.8596 </r>
       <r>    31.7955     0.2229    15.8881 </r>
       <r>    31.9232     0.2319    15.9177 </r>
       <r>    32.0510     0.1574    15.9378 </r>
       <r>    32.1787     0.0310    15.9418 </r>
       <r>    32.3064    -0.0114    15.9403 </r>
       <r>    32.4342    -0.0114    15.9389 </r>
       <r>    32.5619     0.0031    15.9393 </r>
       <r>    32.6897     0.1065    15.9529 </r>
       <r>    32.8174     0.1918    15.9774 </r>
       <r>    32.9451     0.0924    15.9892 </r>
       <r>    33.0729    -0.0009    15.9890 </r>
       <r>    33.2006    -0.0070    15.9881 </r>
       <r>    33.3284    -0.0011    15.9880 </r>
       <r>    33.4561    -0.0001    15.9880 </r>
       <r>    33.5838    -0.0000    15.9880 </r>
       <r>    33.7116    -0.0000    15.9880 </r>
       <r>    33.8393    -0.0000    15.9880 </r>
       <r>    33.9671    -0.0004    15.9879 </r>
       <r>    34.0948    -0.0021    15.9877 </r>
       <r>    34.2225     0.0023    15.9880 </r>
       <r>    34.3503     0.0303    15.9918 </r>
       <r>    34.4780     0.0473    15.9979 </r>
       <r>    34.6058     0.0195    16.0004 </r>
       <r>    34.7335    -0.0011    16.0002 </r>
       <r>    34.8613    -0.0015    16.0000 </r>
       <r>    34.9890    -0.0002    16.0000 </r>
       <r>    35.1167    -0.0000    16.0000 </r>
       <r>    35.2445    -0.0000    16.0000 </r>
       <r>    35.3722    -0.0000    16.0000 </r>
       <r>    35.5000    -0.0000    16.0000 </r>
       <r>    35.6277    -0.0000    16.0000 </r>
       <r>    35.7554     0.0000    16.0000 </r>
       <r>    35.8832     0.0000    16.0000 </r>
       <r>    36.0109     0.0000    16.0000 </r>
       <r>    36.1387     0.0000    16.0000 </r>
       <r>    36.2664     0.0000    16.0000 </r>
       <r>    36.3941     0.0000    16.0000 </r>
      </set>
     </set>
    </array>
   </total>
  </dos>
 </calculation>
 <structure name="finalpos" >
  <crystal>
   <varray name="basis" >
    <v>      -1.47500000       1.47500000       1.47500000 </v>
    <v>       1.47500000      -1.47500000       1.47500000 </v>
    <v>       1.47500000       1.47500000      -1.47500000 </v>
   </varray>
   <i name="volume">     12.83618750 </i>
   <varray name="rec_basis" >
    <v>       0.00000000       0.33898305       0.33898305 </v>
    <v>       0.33898305       0.00000000       0.33898305 </v>
    <v>       0.33898305       0.33898305       0.00000000 </v>
   </varray>
  </crystal>
  <varray name="positions" >
   <v>       0.00000000       0.00000000       0.00000000 </v>
  </varray>
 </structure>
</modeling>
