BCC W                                   
           1
    -1.475000    1.475000    1.475000
     1.475000   -1.475000    1.475000
     1.475000    1.475000   -1.475000
   W 
   1
Direct configuration=     1
   0.00000000  0.00000000  0.00000000
