bcc Fe                                  
   2.83998000000000     
    -0.500000    0.500000    0.500000
     0.500000   -0.500000    0.500000
     0.500000    0.500000   -0.500000
   Fe
     1
Direct
  0.000000  0.000000  0.000000
 
   20   20   20
 0.97017837726E+02 0.91378185103E+02 0.76431693951E+02 0.56871089609E+02 0.37604577267E+02
 0.22022774954E+02 0.11664497275E+02 0.64119818308E+01 0.46467241345E+01 0.40496732781E+01
 0.38596875170E+01 0.40496732781E+01 0.46467241345E+01 0.64119818308E+01 0.11664497275E+02
 0.22022774954E+02 0.37604577267E+02 0.56871089609E+02 0.76431693951E+02 0.91378185103E+02
 0.91378185103E+02 0.89538561336E+02 0.77838144985E+02 0.60135016374E+02 0.41294845811E+02
 0.25135505465E+02 0.13694806887E+02 0.73343336012E+01 0.48936594307E+01 0.41416750212E+01
 0.38300470777E+01 0.38904919526E+01 0.43347391639E+01 0.54015953341E+01 0.89405402129E+01
 0.16950912343E+02 0.30105505708E+02 0.47498409818E+02 0.66474906613E+02 0.82703322684E+02
 0.76431693951E+02 0.77838144985E+02 0.70211845439E+02 0.56171389227E+02 0.39897066104E+02
 0.25144148142E+02 0.14189274812E+02 0.77256557880E+01 0.50049729977E+01 0.41450212826E+01
 0.37452000138E+01 0.36927055552E+01 0.39775444358E+01 0.46381004961E+01 0.65163480556E+01
 0.11644630977E+02 0.21227019042E+02 0.35038393666E+02 0.51258504999E+02 0.66474906613E+02
 0.56871089609E+02 0.60135016374E+02 0.56171389227E+02 0.46411862673E+02 0.33982764054E+02
 0.22105497024E+02 0.12959502621E+02 0.73718174160E+01 0.48950623745E+01 0.40518968678E+01
 0.36158171807E+01 0.34852641938E+01 0.36326498210E+01 0.40908766468E+01 0.49699095556E+01
 0.75434489511E+01 0.13358814354E+02 0.22852252477E+02 0.35038393666E+02 0.47498409818E+02
 0.37604577267E+02 0.41294845811E+02 0.39897066104E+02 0.33982764054E+02 0.25607814182E+02
 0.17198012198E+02 0.10553066874E+02 0.64384099149E+01 0.45821598666E+01 0.38729594276E+01
 0.34562192727E+01 0.32912885024E+01 0.33431144670E+01 0.36268312383E+01 0.41803700461E+01
 0.52101783347E+01 0.79555535702E+01 0.13358814354E+02 0.21227019042E+02 0.30105505708E+02
 0.22022774954E+02 0.25135505465E+02 0.25144148142E+02 0.22105497024E+02 0.17198012198E+02
 0.12029142533E+02 0.78842136530E+01 0.53352699934E+01 0.41836769879E+01 0.36370684405E+01
 0.32826926736E+01 0.31241875480E+01 0.31258008715E+01 0.32826081540E+01 0.36378039747E+01
 0.42128372869E+01 0.52101783347E+01 0.75434489511E+01 0.11644630977E+02 0.16950912343E+02
 0.11664497275E+02 0.13694806887E+02 0.14189274812E+02 0.12959502621E+02 0.10553066874E+02
 0.78842136530E+01 0.57337412026E+01 0.44363163907E+01 0.38042551611E+01 0.33838536004E+01
 0.31129764220E+01 0.29882357984E+01 0.29760682838E+01 0.30611184695E+01 0.32676834144E+01
 0.36378039747E+01 0.41803700461E+01 0.49699095556E+01 0.65163480556E+01 0.89405402129E+01
 0.64119818308E+01 0.73343336012E+01 0.77256557880E+01 0.73718174160E+01 0.64384099149E+01
 0.53352699934E+01 0.44363163907E+01 0.38639040247E+01 0.34583158020E+01 0.31517757518E+01
 0.29646377917E+01 0.28832772457E+01 0.28793476369E+01 0.29359394756E+01 0.30611184695E+01
 0.32826081540E+01 0.36268312383E+01 0.40908766468E+01 0.46381004961E+01 0.54015953341E+01
 0.46467241345E+01 0.48936594307E+01 0.50049729977E+01 0.48950623745E+01 0.45821598666E+01
 0.41836769879E+01 0.38042551611E+01 0.34583158020E+01 0.31716103778E+01 0.29679850259E+01
 0.28517394715E+01 0.28102113247E+01 0.28239612504E+01 0.28793476369E+01 0.29760682838E+01
 0.31258008715E+01 0.33431144670E+01 0.36326498210E+01 0.39775444358E+01 0.43347391639E+01
 0.40496732781E+01 0.41416750212E+01 0.41450212826E+01 0.40518968678E+01 0.38729594276E+01
 0.36370684405E+01 0.33838536004E+01 0.31517757518E+01 0.29679850259E+01 0.28447722722E+01
 0.27823056112E+01 0.27738301128E+01 0.28102113247E+01 0.28832772457E+01 0.29882357984E+01
 0.31241875480E+01 0.32912885024E+01 0.34852641938E+01 0.36927055552E+01 0.38904919526E+01
 0.38596875170E+01 0.38300470777E+01 0.37452000138E+01 0.36158171807E+01 0.34562192727E+01
 0.32826926736E+01 0.31129764220E+01 0.29646377917E+01 0.28517394715E+01 0.27823056112E+01
 0.27590427928E+01 0.27823056112E+01 0.28517394715E+01 0.29646377917E+01 0.31129764220E+01
 0.32826926736E+01 0.34562192727E+01 0.36158171807E+01 0.37452000138E+01 0.38300470777E+01
 0.40496732781E+01 0.38904919526E+01 0.36927055552E+01 0.34852641938E+01 0.32912885024E+01
 0.31241875480E+01 0.29882357984E+01 0.28832772457E+01 0.28102113247E+01 0.27738301128E+01
 0.27823056112E+01 0.28447722722E+01 0.29679850259E+01 0.31517757518E+01 0.33838536004E+01
 0.36370684405E+01 0.38729594276E+01 0.40518968678E+01 0.41450212826E+01 0.41416750212E+01
 0.46467241345E+01 0.43347391639E+01 0.39775444358E+01 0.36326498210E+01 0.33431144670E+01
 0.31258008715E+01 0.29760682838E+01 0.28793476369E+01 0.28239612504E+01 0.28102113247E+01
 0.28517394715E+01 0.29679850259E+01 0.31716103778E+01 0.34583158020E+01 0.38042551611E+01
 0.41836769879E+01 0.45821598666E+01 0.48950623745E+01 0.50049729977E+01 0.48936594307E+01
 0.64119818308E+01 0.54015953341E+01 0.46381004961E+01 0.40908766468E+01 0.36268312383E+01
 0.32826081540E+01 0.30611184695E+01 0.29359394756E+01 0.28793476369E+01 0.28832772457E+01
 0.29646377917E+01 0.31517757518E+01 0.34583158020E+01 0.38639040247E+01 0.44363163907E+01
 0.53352699934E+01 0.64384099149E+01 0.73718174160E+01 0.77256557880E+01 0.73343336012E+01
 0.11664497275E+02 0.89405402129E+01 0.65163480556E+01 0.49699095556E+01 0.41803700461E+01
 0.36378039747E+01 0.32676834144E+01 0.30611184695E+01 0.29760682838E+01 0.29882357984E+01
 0.31129764220E+01 0.33838536004E+01 0.38042551611E+01 0.44363163907E+01 0.57337412026E+01
 0.78842136530E+01 0.10553066874E+02 0.12959502621E+02 0.14189274812E+02 0.13694806887E+02
 0.22022774954E+02 0.16950912343E+02 0.11644630977E+02 0.75434489511E+01 0.52101783347E+01
 0.42128372869E+01 0.36378039747E+01 0.32826081540E+01 0.31258008715E+01 0.31241875480E+01
 0.32826926736E+01 0.36370684405E+01 0.41836769879E+01 0.53352699934E+01 0.78842136530E+01
 0.12029142533E+02 0.17198012198E+02 0.22105497024E+02 0.25144148142E+02 0.25135505465E+02
 0.37604577267E+02 0.30105505708E+02 0.21227019042E+02 0.13358814354E+02 0.79555535702E+01
 0.52101783347E+01 0.41803700461E+01 0.36268312383E+01 0.33431144670E+01 0.32912885024E+01
 0.34562192727E+01 0.38729594276E+01 0.45821598666E+01 0.64384099149E+01 0.10553066874E+02
 0.17198012198E+02 0.25607814182E+02 0.33982764054E+02 0.39897066104E+02 0.41294845811E+02
 0.56871089609E+02 0.47498409818E+02 0.35038393666E+02 0.22852252477E+02 0.13358814354E+02
 0.75434489511E+01 0.49699095556E+01 0.40908766468E+01 0.36326498210E+01 0.34852641938E+01
 0.36158171807E+01 0.40518968678E+01 0.48950623745E+01 0.73718174160E+01 0.12959502621E+02
 0.22105497024E+02 0.33982764054E+02 0.46411862673E+02 0.56171389227E+02 0.60135016374E+02
 0.76431693951E+02 0.66474906613E+02 0.51258504999E+02 0.35038393666E+02 0.21227019042E+02
 0.11644630977E+02 0.65163480556E+01 0.46381004961E+01 0.39775444358E+01 0.36927055552E+01
 0.37452000138E+01 0.41450212826E+01 0.50049729977E+01 0.77256557880E+01 0.14189274812E+02
 0.25144148142E+02 0.39897066104E+02 0.56171389227E+02 0.70211845439E+02 0.77838144985E+02
 0.91378185103E+02 0.82703322684E+02 0.66474906613E+02 0.47498409818E+02 0.30105505708E+02
 0.16950912343E+02 0.89405402129E+01 0.54015953341E+01 0.43347391639E+01 0.38904919526E+01
 0.38300470777E+01 0.41416750212E+01 0.48936594307E+01 0.73343336012E+01 0.13694806887E+02
 0.25135505465E+02 0.41294845811E+02 0.60135016374E+02 0.77838144985E+02 0.89538561336E+02
 0.91378185103E+02 0.89538561336E+02 0.77838144985E+02 0.60135016374E+02 0.41294845811E+02
 0.25135505465E+02 0.13694806887E+02 0.73343336012E+01 0.48936594307E+01 0.41416750212E+01
 0.38300470777E+01 0.38904919526E+01 0.43347391639E+01 0.54015953341E+01 0.89405402129E+01
 0.16950912343E+02 0.30105505708E+02 0.47498409818E+02 0.66474906613E+02 0.82703322684E+02
 0.89538561336E+02 0.91370235448E+02 0.82691618181E+02 0.66465425947E+02 0.47493893491E+02
 0.30104474413E+02 0.16950830195E+02 0.89406378161E+01 0.54023528979E+01 0.43358764594E+01
 0.38908155892E+01 0.38291708102E+01 0.41407120133E+01 0.48936932253E+01 0.73350440993E+01
 0.13695543733E+02 0.25137264886E+02 0.41299693298E+02 0.60142806527E+02 0.77844705128E+02
 0.77838144985E+02 0.82691618181E+02 0.77833059326E+02 0.64961399504E+02 0.48135853881E+02
 0.31643381969E+02 0.18471219743E+02 0.99323995562E+01 0.57854090503E+01 0.44310995674E+01
 0.38889539341E+01 0.37168650043E+01 0.38889357090E+01 0.44310775387E+01 0.57852234923E+01
 0.99320029289E+01 0.18471395845E+02 0.31645724715E+02 0.48141282985E+02 0.64968453481E+02
 0.60135016374E+02 0.66465425947E+02 0.64961399504E+02 0.56172252994E+02 0.43028148609E+02
 0.29222734067E+02 0.17666372412E+02 0.98476003489E+01 0.58267283436E+01 0.44044006055E+01
 0.38208138369E+01 0.35704718599E+01 0.36232044668E+01 0.39914695835E+01 0.47284415024E+01
 0.68490105501E+01 0.12138404148E+02 0.21415395034E+02 0.34107850451E+02 0.48137809662E+02
 0.41294845811E+02 0.47493893491E+02 0.48135853881E+02 0.43028148609E+02 0.33984900361E+02
 0.23791198227E+02 0.14906832410E+02 0.87327043140E+01 0.54725693221E+01 0.42533798049E+01
 0.36913990453E+01 0.34083261413E+01 0.33790204667E+01 0.35938958253E+01 0.40938664817E+01
 0.50111772276E+01 0.75684656352E+01 0.12992695586E+02 0.21414644741E+02 0.31642773729E+02
 0.25135505465E+02 0.30104474413E+02 0.31643381969E+02 0.29222734067E+02 0.23791198227E+02
 0.17199523698E+02 0.11260166928E+02 0.70855446514E+01 0.48810352528E+01 0.40073798576E+01
 0.35155044051E+01 0.32461243725E+01 0.31771349847E+01 0.32838756158E+01 0.35993647764E+01
 0.41549740463E+01 0.51322563007E+01 0.75689959478E+01 0.12138453883E+02 0.18470269099E+02
 0.13694806887E+02 0.16950830195E+02 0.18471219743E+02 0.17666372412E+02 0.14906832410E+02
 0.11260166928E+02 0.78845604356E+01 0.55217740384E+01 0.42904493964E+01 0.37128088979E+01
 0.33171410517E+01 0.30953962193E+01 0.30229845882E+01 0.30704595566E+01 0.32503676899E+01
 0.36068767320E+01 0.41556588784E+01 0.50120361195E+01 0.68492705956E+01 0.99314608193E+01
 0.73343336012E+01 0.89406378161E+01 0.99323995562E+01 0.98476003489E+01 0.87327043140E+01
 0.70855446514E+01 0.55217740384E+01 0.44358801493E+01 0.38326232674E+01 0.34172634220E+01
 0.31247402138E+01 0.29648280939E+01 0.29116229673E+01 0.29377108845E+01 0.30415757416E+01
 0.32508018433E+01 0.35999843699E+01 0.40940821020E+01 0.47279158171E+01 0.57842524861E+01
 0.48936594307E+01 0.54023528979E+01 0.57854090503E+01 0.58267283436E+01 0.54725693221E+01
 0.48810352528E+01 0.42904493964E+01 0.38326232674E+01 0.34582827093E+01 0.31608055116E+01
 0.29631834649E+01 0.28620309224E+01 0.28359553670E+01 0.28634892023E+01 0.29378822120E+01
 0.30706917807E+01 0.32838044036E+01 0.35932698180E+01 0.39904874622E+01 0.44303139053E+01
 0.41416750212E+01 0.43358764594E+01 0.44310995674E+01 0.44044006055E+01 0.42533798049E+01
 0.40073798576E+01 0.37128088979E+01 0.34172634220E+01 0.31608055116E+01 0.29681396429E+01
 0.28475223220E+01 0.27938279548E+01 0.27943425612E+01 0.28359626080E+01 0.29115891964E+01
 0.30227592979E+01 0.31766404717E+01 0.33784362895E+01 0.36229296996E+01 0.38892990671E+01
 0.38300470777E+01 0.38908155892E+01 0.38889539341E+01 0.38208138369E+01 0.36913990453E+01
 0.35155044051E+01 0.33171410517E+01 0.31247402138E+01 0.29631834649E+01 0.28475223220E+01
 0.27823331236E+01 0.27657489845E+01 0.27937798936E+01 0.28618932139E+01 0.29645695758E+01
 0.30950874236E+01 0.32459713642E+01 0.34085732517E+01 0.35712085333E+01 0.37178878233E+01
 0.38904919526E+01 0.38291708102E+01 0.37168650043E+01 0.35704718599E+01 0.34083261413E+01
 0.32461243725E+01 0.30953962193E+01 0.29648280939E+01 0.28620309224E+01 0.27938279548E+01
 0.27657489845E+01 0.27822813532E+01 0.28473900333E+01 0.29629880583E+01 0.31246005102E+01
 0.33172480548E+01 0.35159919408E+01 0.36921918579E+01 0.38215897740E+01 0.38892990671E+01
 0.43347391639E+01 0.41407120133E+01 0.38889357090E+01 0.36232044668E+01 0.33790204667E+01
 0.31771349847E+01 0.30229845882E+01 0.29116229673E+01 0.28359553670E+01 0.27943425612E+01
 0.27937798936E+01 0.28473900333E+01 0.29679948067E+01 0.31608004942E+01 0.34175282932E+01
 0.37133476933E+01 0.40080144371E+01 0.42537827032E+01 0.44042512476E+01 0.44303139053E+01
 0.54015953341E+01 0.48936932253E+01 0.44310775387E+01 0.39914695835E+01 0.35938958253E+01
 0.32838756158E+01 0.30704595566E+01 0.29377108845E+01 0.28634892023E+01 0.28359626080E+01
 0.28618932139E+01 0.29629880583E+01 0.31608004942E+01 0.34586139934E+01 0.38331769920E+01
 0.42909186832E+01 0.48810999336E+01 0.54720538933E+01 0.58257090241E+01 0.57842524861E+01
 0.89405402129E+01 0.73350440993E+01 0.57852234923E+01 0.47284415024E+01 0.40938664817E+01
 0.35993647764E+01 0.32503676899E+01 0.30415757416E+01 0.29378822120E+01 0.29115891964E+01
 0.29645695758E+01 0.31246005102E+01 0.34175282932E+01 0.38331769920E+01 0.44362863294E+01
 0.55216262989E+01 0.70847211790E+01 0.87313929631E+01 0.98462153440E+01 0.99314608193E+01
 0.16950912343E+02 0.13695543733E+02 0.99320029289E+01 0.68490105501E+01 0.50111772276E+01
 0.41549740463E+01 0.36068767320E+01 0.32508018433E+01 0.30706917807E+01 0.30227592979E+01
 0.30950874236E+01 0.33172480548E+01 0.37133476933E+01 0.42909186832E+01 0.55216262989E+01
 0.78835944682E+01 0.11258537162E+02 0.14904900906E+02 0.17664651334E+02 0.18470269099E+02
 0.30105505708E+02 0.25137264886E+02 0.18471395845E+02 0.12138404148E+02 0.75684656352E+01
 0.51322563007E+01 0.41556588784E+01 0.35999843699E+01 0.32838044036E+01 0.31766404717E+01
 0.32459713642E+01 0.35159919408E+01 0.40080144371E+01 0.48810999336E+01 0.70847211790E+01
 0.11258537162E+02 0.17197278733E+02 0.23788688011E+02 0.29220718347E+02 0.31642773729E+02
 0.47498409818E+02 0.41299693298E+02 0.31645724715E+02 0.21415395034E+02 0.12992695586E+02
 0.75689959478E+01 0.50120361195E+01 0.40940821020E+01 0.35932698180E+01 0.33784362895E+01
 0.34085732517E+01 0.36921918579E+01 0.42537827032E+01 0.54720538933E+01 0.87313929631E+01
 0.14904900906E+02 0.23788688011E+02 0.33982405184E+02 0.43027185988E+02 0.48137809662E+02
 0.66474906613E+02 0.60142806527E+02 0.48141282985E+02 0.34107850451E+02 0.21414644741E+02
 0.12138453883E+02 0.68492705956E+01 0.47279158171E+01 0.39904874622E+01 0.36229296996E+01
 0.35712085333E+01 0.38215897740E+01 0.44042512476E+01 0.58257090241E+01 0.98462153440E+01
 0.17664651334E+02 0.29220718347E+02 0.43027185988E+02 0.56174751113E+02 0.64968453481E+02
 0.82703322684E+02 0.77844705128E+02 0.64968453481E+02 0.48137809662E+02 0.31642773729E+02
 0.18470269099E+02 0.99314608193E+01 0.57842524861E+01 0.44303139053E+01 0.38892990671E+01
 0.37178878233E+01 0.38892990671E+01 0.44303139053E+01 0.57842524861E+01 0.99314608193E+01
 0.18470269099E+02 0.31642773729E+02 0.48137809662E+02 0.64968453481E+02 0.77844705128E+02
 0.76431693951E+02 0.77838144985E+02 0.70211845439E+02 0.56171389227E+02 0.39897066104E+02
 0.25144148142E+02 0.14189274812E+02 0.77256557880E+01 0.50049729977E+01 0.41450212826E+01
 0.37452000138E+01 0.36927055552E+01 0.39775444358E+01 0.46381004961E+01 0.65163480556E+01
 0.11644630977E+02 0.21227019042E+02 0.35038393666E+02 0.51258504999E+02 0.66474906613E+02
 0.77838144985E+02 0.82691618181E+02 0.77833059326E+02 0.64961399504E+02 0.48135853881E+02
 0.31643381969E+02 0.18471219743E+02 0.99323995562E+01 0.57854090503E+01 0.44310995674E+01
 0.38889539341E+01 0.37168650043E+01 0.38889357090E+01 0.44310775387E+01 0.57852234923E+01
 0.99320029289E+01 0.18471395845E+02 0.31645724715E+02 0.48141282985E+02 0.64968453481E+02
 0.70211845439E+02 0.77833059326E+02 0.76423031136E+02 0.66466499037E+02 0.51253550697E+02
 0.35037313734E+02 0.21227970560E+02 0.11645647858E+02 0.65167397195E+01 0.46381470850E+01
 0.39775533226E+01 0.36926972126E+01 0.37451694739E+01 0.41450159104E+01 0.50049285925E+01
 0.77255847653E+01 0.14189759812E+02 0.25146164352E+02 0.39900704760E+02 0.56174751113E+02
 0.56171389227E+02 0.64961399504E+02 0.66466499037E+02 0.60136574026E+02 0.48139249403E+02
 0.34109228857E+02 0.21417030600E+02 0.12140021580E+02 0.68497643723E+01 0.47279507539E+01
 0.39904939190E+01 0.36229272948E+01 0.35711741066E+01 0.38215879920E+01 0.44042587764E+01
 0.58256939245E+01 0.98464691623E+01 0.17665611463E+02 0.29222043784E+02 0.43027185988E+02
 0.39897066104E+02 0.48135853881E+02 0.51253550697E+02 0.48139249403E+02 0.39902225502E+02
 0.29225517462E+02 0.18992838473E+02 0.11207164069E+02 0.65963518083E+01 0.46439769001E+01
 0.39179552823E+01 0.35148911628E+01 0.33909826048E+01 0.35148821835E+01 0.39179876458E+01
 0.46440138354E+01 0.65960492999E+01 0.11205806407E+02 0.18989724988E+02 0.29220718347E+02
 0.25144148142E+02 0.31643381969E+02 0.35037313734E+02 0.34109228857E+02 0.29225517462E+02
 0.22109203447E+02 0.14907642104E+02 0.92670111600E+01 0.58728329555E+01 0.43980976908E+01
 0.37665451107E+01 0.33792045612E+01 0.32233564062E+01 0.32609543351E+01 0.35048165243E+01
 0.39947033109E+01 0.48128005705E+01 0.69086180938E+01 0.11205608075E+02 0.17664651334E+02
 0.14189274812E+02 0.18471219743E+02 0.21227970560E+02 0.21417030600E+02 0.18992838473E+02
 0.14907642104E+02 0.10553672241E+02 0.70846237121E+01 0.50044028660E+01 0.40734581219E+01
 0.35605769354E+01 0.32293626620E+01 0.30791901116E+01 0.30726823110E+01 0.32040912967E+01
 0.35122060776E+01 0.40231159773E+01 0.48128181227E+01 0.65960298121E+01 0.98462153440E+01
 0.77256557880E+01 0.99323995562E+01 0.11645647858E+02 0.12140021580E+02 0.11207164069E+02
 0.92670111600E+01 0.70846237121E+01 0.53340381866E+01 0.42899703737E+01 0.37370298827E+01
 0.33358899693E+01 0.30814460679E+01 0.29621900367E+01 0.29446100099E+01 0.30137694015E+01
 0.31901112569E+01 0.35121697922E+01 0.39946814363E+01 0.46440289651E+01 0.58257090241E+01
 0.50049729977E+01 0.57854090503E+01 0.65167397195E+01 0.68497643723E+01 0.65963518083E+01
 0.58728329555E+01 0.50044028660E+01 0.42899703737E+01 0.38039391351E+01 0.34174523850E+01
 0.31283052882E+01 0.29519264317E+01 0.28726169093E+01 0.28633916879E+01 0.29083511395E+01
 0.30137542878E+01 0.32040404135E+01 0.35047595251E+01 0.39179544491E+01 0.44042512476E+01
 0.41450212826E+01 0.44310995674E+01 0.46381470850E+01 0.47279507539E+01 0.46439769001E+01
 0.43980976908E+01 0.40734581219E+01 0.37370298827E+01 0.34174523850E+01 0.31521193731E+01
 0.29632224354E+01 0.28537659537E+01 0.28115372078E+01 0.28188576526E+01 0.28634189598E+01
 0.29446389857E+01 0.30726916662E+01 0.32609502397E+01 0.35148798072E+01 0.38215897740E+01
 0.37452000138E+01 0.38889539341E+01 0.39775533226E+01 0.39904939190E+01 0.39179552823E+01
 0.37665451107E+01 0.35605769354E+01 0.33358899693E+01 0.31283052882E+01 0.29632224354E+01
 0.28518034373E+01 0.27938080597E+01 0.27830063425E+01 0.28115546504E+01 0.28726617006E+01
 0.29622456987E+01 0.30792354528E+01 0.32233884359E+01 0.33910129711E+01 0.35712085333E+01
 0.36927055552E+01 0.37168650043E+01 0.36926972126E+01 0.36229272948E+01 0.35148911628E+01
 0.33792045612E+01 0.32293626620E+01 0.30814460679E+01 0.29519264317E+01 0.28537659537E+01
 0.27938080597E+01 0.27738180108E+01 0.27937986908E+01 0.28537619279E+01 0.29519361192E+01
 0.30814587241E+01 0.32293620210E+01 0.33791904779E+01 0.35148798072E+01 0.36229296996E+01
 0.39775444358E+01 0.38889357090E+01 0.37451694739E+01 0.35711741066E+01 0.33909826048E+01
 0.32233564062E+01 0.30791901116E+01 0.29621900367E+01 0.28726169093E+01 0.28115372078E+01
 0.27830063425E+01 0.27937986908E+01 0.28517726563E+01 0.29631880880E+01 0.31282945563E+01
 0.33359084382E+01 0.35606043140E+01 0.37665597080E+01 0.39179544491E+01 0.39904874622E+01
 0.46381004961E+01 0.44310775387E+01 0.41450159104E+01 0.38215879920E+01 0.35148821835E+01
 0.32609543351E+01 0.30726823110E+01 0.29446100099E+01 0.28633916879E+01 0.28188576526E+01
 0.28115546504E+01 0.28537619279E+01 0.29631880880E+01 0.31521142826E+01 0.34175587013E+01
 0.37372606961E+01 0.40737250501E+01 0.43982818146E+01 0.46440289651E+01 0.47279158171E+01
 0.65163480556E+01 0.57852234923E+01 0.50049285925E+01 0.44042587764E+01 0.39179876458E+01
 0.35048165243E+01 0.32040912967E+01 0.30137694015E+01 0.29083511395E+01 0.28634189598E+01
 0.28726617006E+01 0.29519361192E+01 0.31282945563E+01 0.34175587013E+01 0.38042981643E+01
 0.42905201257E+01 0.50048603713E+01 0.58729162292E+01 0.65960298121E+01 0.68492705956E+01
 0.11644630977E+02 0.99320029289E+01 0.77255847653E+01 0.58256939245E+01 0.46440138354E+01
 0.39947033109E+01 0.35122060776E+01 0.31901112569E+01 0.30137542878E+01 0.29446389857E+01
 0.29622456987E+01 0.30814587241E+01 0.33359084382E+01 0.37372606961E+01 0.42905201257E+01
 0.53346230049E+01 0.70846670362E+01 0.92661407974E+01 0.11205608075E+02 0.12138453883E+02
 0.21227019042E+02 0.18471395845E+02 0.14189759812E+02 0.98464691623E+01 0.65960492999E+01
 0.48128005705E+01 0.40231159773E+01 0.35121697922E+01 0.32040404135E+01 0.30726916662E+01
 0.30792354528E+01 0.32293620210E+01 0.35606043140E+01 0.40737250501E+01 0.50048603713E+01
 0.70846670362E+01 0.10552502137E+02 0.14905081636E+02 0.18989724988E+02 0.21414644741E+02
 0.35038393666E+02 0.31645724715E+02 0.25146164352E+02 0.17665611463E+02 0.11205806407E+02
 0.69086180938E+01 0.48128181227E+01 0.39946814363E+01 0.35047595251E+01 0.32609502397E+01
 0.32233884359E+01 0.33791904779E+01 0.37665597080E+01 0.43982818146E+01 0.58729162292E+01
 0.92661407974E+01 0.14905081636E+02 0.22105356050E+02 0.29222043784E+02 0.34107850451E+02
 0.51258504999E+02 0.48141282985E+02 0.39900704760E+02 0.29222043784E+02 0.18989724988E+02
 0.11205608075E+02 0.65960298121E+01 0.46440289651E+01 0.39179544491E+01 0.35148798072E+01
 0.33910129711E+01 0.35148798072E+01 0.39179544491E+01 0.46440289651E+01 0.65960298121E+01
 0.11205608075E+02 0.18989724988E+02 0.29222043784E+02 0.39900704760E+02 0.48141282985E+02
 0.66474906613E+02 0.64968453481E+02 0.56174751113E+02 0.43027185988E+02 0.29220718347E+02
 0.17664651334E+02 0.98462153440E+01 0.58257090241E+01 0.44042512476E+01 0.38215897740E+01
 0.35712085333E+01 0.36229296996E+01 0.39904874622E+01 0.47279158171E+01 0.68492705956E+01
 0.12138453883E+02 0.21414644741E+02 0.34107850451E+02 0.48141282985E+02 0.60142806527E+02
 0.56871089609E+02 0.60135016374E+02 0.56171389227E+02 0.46411862673E+02 0.33982764054E+02
 0.22105497024E+02 0.12959502621E+02 0.73718174160E+01 0.48950623745E+01 0.40518968678E+01
 0.36158171807E+01 0.34852641938E+01 0.36326498210E+01 0.40908766468E+01 0.49699095556E+01
 0.75434489511E+01 0.13358814354E+02 0.22852252477E+02 0.35038393666E+02 0.47498409818E+02
 0.60135016374E+02 0.66465425947E+02 0.64961399504E+02 0.56172252994E+02 0.43028148609E+02
 0.29222734067E+02 0.17666372412E+02 0.98476003489E+01 0.58267283436E+01 0.44044006055E+01
 0.38208138369E+01 0.35704718599E+01 0.36232044668E+01 0.39914695835E+01 0.47284415024E+01
 0.68490105501E+01 0.12138404148E+02 0.21415395034E+02 0.34107850451E+02 0.48137809662E+02
 0.56171389227E+02 0.64961399504E+02 0.66466499037E+02 0.60136574026E+02 0.48139249403E+02
 0.34109228857E+02 0.21417030600E+02 0.12140021580E+02 0.68497643723E+01 0.47279507539E+01
 0.39904939190E+01 0.36229272948E+01 0.35711741066E+01 0.38215879920E+01 0.44042587764E+01
 0.58256939245E+01 0.98464691623E+01 0.17665611463E+02 0.29222043784E+02 0.43027185988E+02
 0.46411862673E+02 0.56172252994E+02 0.60136574026E+02 0.56872866851E+02 0.47500336212E+02
 0.35040719697E+02 0.22854755063E+02 0.13360540367E+02 0.75436166970E+01 0.49689287117E+01
 0.40900790442E+01 0.36328953918E+01 0.34860749990E+01 0.36160817730E+01 0.40512265000E+01
 0.48941236958E+01 0.73713637421E+01 0.12959480361E+02 0.22105356050E+02 0.33982405184E+02
 0.33982764054E+02 0.43028148609E+02 0.48139249403E+02 0.47500336212E+02 0.41302357007E+02
 0.31648962301E+02 0.21418171174E+02 0.12993795446E+02 0.75682960286E+01 0.50107863704E+01
 0.40936788783E+01 0.35938713331E+01 0.33790272837E+01 0.34083213870E+01 0.36913976607E+01
 0.42533541183E+01 0.54723394378E+01 0.87318935755E+01 0.14905081636E+02 0.23788688011E+02
 0.22105497024E+02 0.29222734067E+02 0.34109228857E+02 0.35040719697E+02 0.31648962301E+02
 0.25149410644E+02 0.17667428500E+02 0.11205482713E+02 0.69069956986E+01 0.48115638889E+01
 0.39946811752E+01 0.35054265238E+01 0.32611737694E+01 0.32228975663E+01 0.33787202617E+01
 0.37667960791E+01 0.43990271116E+01 0.58734497377E+01 0.92661407974E+01 0.14904900906E+02
 0.12959502621E+02 0.17666372412E+02 0.21417030600E+02 0.22854755063E+02 0.21418171174E+02
 0.17667428500E+02 0.12959330431E+02 0.87300413156E+01 0.58713751474E+01 0.44555889426E+01
 0.38102575445E+01 0.33764458881E+01 0.31423422964E+01 0.30726526373E+01 0.31424059713E+01
 0.33765204965E+01 0.38105495565E+01 0.44565092357E+01 0.58729162292E+01 0.87313929631E+01
 0.73718174160E+01 0.98476003489E+01 0.12140021580E+02 0.13360540367E+02 0.12993795446E+02
 0.11205482713E+02 0.87300413156E+01 0.64357663736E+01 0.48794738091E+01 0.40734505294E+01
 0.35764666689E+01 0.32256904362E+01 0.30308539984E+01 0.29597228903E+01 0.29841789474E+01
 0.31115609402E+01 0.33783995071E+01 0.38099566425E+01 0.43982818146E+01 0.54720538933E+01
 0.48950623745E+01 0.58267283436E+01 0.68497643723E+01 0.75436166970E+01 0.75682960286E+01
 0.69069956986E+01 0.58713751474E+01 0.48794738091E+01 0.41828022142E+01 0.37131383461E+01
 0.33359762910E+01 0.30771326888E+01 0.29342175732E+01 0.28798014440E+01 0.28890920806E+01
 0.29591320247E+01 0.31111689616E+01 0.33759402932E+01 0.37665597080E+01 0.42537827032E+01
 0.40518968678E+01 0.44044006055E+01 0.47279507539E+01 0.49689287117E+01 0.50107863704E+01
 0.48115638889E+01 0.44555889426E+01 0.40734505294E+01 0.37131383461E+01 0.33843681925E+01
 0.31248803794E+01 0.29518551410E+01 0.28593032410E+01 0.28279595061E+01 0.28398407532E+01
 0.28889878749E+01 0.29839898074E+01 0.31424235056E+01 0.33791904779E+01 0.36921918579E+01
 0.36158171807E+01 0.38208138369E+01 0.39904939190E+01 0.40900790442E+01 0.40936788783E+01
 0.39946811752E+01 0.38102575445E+01 0.35764666689E+01 0.33359762910E+01 0.31248803794E+01
 0.29647659367E+01 0.28619255823E+01 0.28115232730E+01 0.28034783217E+01 0.28280341232E+01
 0.28799261433E+01 0.29599636549E+01 0.30730748335E+01 0.32233884359E+01 0.34085732517E+01
 0.34852641938E+01 0.35704718599E+01 0.36229272948E+01 0.36328953918E+01 0.35938713331E+01
 0.35054265238E+01 0.33764458881E+01 0.32256904362E+01 0.30771326888E+01 0.29518551410E+01
 0.28619255823E+01 0.28101403008E+01 0.27943332523E+01 0.28116236009E+01 0.28594906566E+01
 0.29344595496E+01 0.30310814695E+01 0.31424235056E+01 0.32609502397E+01 0.33784362895E+01
 0.36326498210E+01 0.36232044668E+01 0.35711741066E+01 0.34860749990E+01 0.33790272837E+01
 0.32611737694E+01 0.31423422964E+01 0.30308539984E+01 0.29342175732E+01 0.28593032410E+01
 0.28115232730E+01 0.27943332523E+01 0.28102236824E+01 0.28620387476E+01 0.29519222867E+01
 0.30770717226E+01 0.32254244600E+01 0.33759402932E+01 0.35047595251E+01 0.35932698180E+01
 0.40908766468E+01 0.39914695835E+01 0.38215879920E+01 0.36160817730E+01 0.34083213870E+01
 0.32228975663E+01 0.30726526373E+01 0.29597228903E+01 0.28798014440E+01 0.28279595061E+01
 0.28034783217E+01 0.28116236009E+01 0.28620387476E+01 0.29647272741E+01 0.31245987744E+01
 0.33355195325E+01 0.35760030842E+01 0.38099566425E+01 0.39946814363E+01 0.40940821020E+01
 0.49699095556E+01 0.47284415024E+01 0.44042587764E+01 0.40512265000E+01 0.36913976607E+01
 0.33787202617E+01 0.31424059713E+01 0.29841789474E+01 0.28890920806E+01 0.28398407532E+01
 0.28280341232E+01 0.28594906566E+01 0.29519222867E+01 0.31245987744E+01 0.33838579288E+01
 0.37128416293E+01 0.40737517480E+01 0.44565092357E+01 0.48128181227E+01 0.50120361195E+01
 0.75434489511E+01 0.68490105501E+01 0.58256939245E+01 0.48941236958E+01 0.42533541183E+01
 0.37667960791E+01 0.33765204965E+01 0.31115609402E+01 0.29591320247E+01 0.28889878749E+01
 0.28799261433E+01 0.29344595496E+01 0.30770717226E+01 0.33355195325E+01 0.37128416293E+01
 0.41834031845E+01 0.48811272852E+01 0.58734497377E+01 0.69086180938E+01 0.75689959478E+01
 0.13358814354E+02 0.12138404148E+02 0.98464691623E+01 0.73713637421E+01 0.54723394378E+01
 0.43990271116E+01 0.38105495565E+01 0.33783995071E+01 0.31111689616E+01 0.29839898074E+01
 0.29599636549E+01 0.30310814695E+01 0.32254244600E+01 0.35760030842E+01 0.40737517480E+01
 0.48811272852E+01 0.64381922056E+01 0.87318935755E+01 0.11205806407E+02 0.12992695586E+02
 0.22852252477E+02 0.21415395034E+02 0.17665611463E+02 0.12959480361E+02 0.87318935755E+01
 0.58734497377E+01 0.44565092357E+01 0.38099566425E+01 0.33759402932E+01 0.31424235056E+01
 0.30730748335E+01 0.31424235056E+01 0.33759402932E+01 0.38099566425E+01 0.44565092357E+01
 0.58734497377E+01 0.87318935755E+01 0.12959480361E+02 0.17665611463E+02 0.21415395034E+02
 0.35038393666E+02 0.34107850451E+02 0.29222043784E+02 0.22105356050E+02 0.14905081636E+02
 0.92661407974E+01 0.58729162292E+01 0.43982818146E+01 0.37665597080E+01 0.33791904779E+01
 0.32233884359E+01 0.32609502397E+01 0.35047595251E+01 0.39946814363E+01 0.48128181227E+01
 0.69086180938E+01 0.11205806407E+02 0.17665611463E+02 0.25146164352E+02 0.31645724715E+02
 0.47498409818E+02 0.48137809662E+02 0.43027185988E+02 0.33982405184E+02 0.23788688011E+02
 0.14904900906E+02 0.87313929631E+01 0.54720538933E+01 0.42537827032E+01 0.36921918579E+01
 0.34085732517E+01 0.33784362895E+01 0.35932698180E+01 0.40940821020E+01 0.50120361195E+01
 0.75689959478E+01 0.12992695586E+02 0.21415395034E+02 0.31645724715E+02 0.41299693298E+02
 0.37604577267E+02 0.41294845811E+02 0.39897066104E+02 0.33982764054E+02 0.25607814182E+02
 0.17198012198E+02 0.10553066874E+02 0.64384099149E+01 0.45821598666E+01 0.38729594276E+01
 0.34562192727E+01 0.32912885024E+01 0.33431144670E+01 0.36268312383E+01 0.41803700461E+01
 0.52101783347E+01 0.79555535702E+01 0.13358814354E+02 0.21227019042E+02 0.30105505708E+02
 0.41294845811E+02 0.47493893491E+02 0.48135853881E+02 0.43028148609E+02 0.33984900361E+02
 0.23791198227E+02 0.14906832410E+02 0.87327043140E+01 0.54725693221E+01 0.42533798049E+01