   1   1   1   0
  0.1145291E+02  0.2459495E-09  0.2459495E-09  0.2459495E-09  0.5000000E-15
  1.000000000000000E-004
  CAR 
 bcc Fe                                  
     47.73347341     -5.05657672 3001      5.81058738      1.00000000
     -5.057  0.0000E+00  0.0000E+00  0.0000E+00  0.0000E+00
     -5.039  0.0000E+00  0.0000E+00  0.0000E+00  0.0000E+00
     -5.021  0.0000E+00  0.0000E+00  0.0000E+00  0.0000E+00
     -5.004  0.0000E+00  0.0000E+00  0.0000E+00  0.0000E+00
     -4.986  0.0000E+00  0.0000E+00  0.0000E+00  0.0000E+00
     -4.969  0.0000E+00  0.0000E+00  0.0000E+00  0.0000E+00
     -4.951  0.0000E+00  0.0000E+00  0.0000E+00  0.0000E+00
     -4.933  0.0000E+00  0.0000E+00  0.0000E+00  0.0000E+00
     -4.916  0.0000E+00  0.0000E+00  0.0000E+00  0.0000E+00
     -4.898  0.0000E+00  0.0000E+00  0.0000E+00  0.0000E+00
     -4.881  0.0000E+00  0.0000E+00  0.0000E+00  0.0000E+00
     -4.863  0.0000E+00  0.0000E+00  0.0000E+00  0.0000E+00
     -4.845  0.0000E+00  0.0000E+00  0.0000E+00  0.0000E+00
     -4.828  0.0000E+00  0.0000E+00  0.0000E+00  0.0000E+00
     -4.810  0.0000E+00  0.0000E+00  0.0000E+00  0.0000E+00
     -4.793  0.0000E+00  0.0000E+00  0.0000E+00  0.0000E+00
     -4.775  0.0000E+00  0.0000E+00  0.0000E+00  0.0000E+00
     -4.757  0.0000E+00  0.0000E+00  0.0000E+00  0.0000E+00
     -4.740  0.0000E+00  0.0000E+00  0.0000E+00  0.0000E+00
     -4.722  0.0000E+00  0.0000E+00  0.0000E+00  0.0000E+00
     -4.705  0.0000E+00  0.0000E+00  0.0000E+00  0.0000E+00
     -4.687  0.0000E+00  0.0000E+00  0.0000E+00  0.0000E+00
     -4.669  0.0000E+00  0.0000E+00  0.0000E+00  0.0000E+00
     -4.652  0.0000E+00  0.0000E+00  0.0000E+00  0.0000E+00
     -4.634  0.0000E+00  0.0000E+00  0.0000E+00  0.0000E+00
     -4.617  0.0000E+00  0.0000E+00  0.0000E+00  0.0000E+00
     -4.599  0.0000E+00  0.0000E+00  0.0000E+00  0.0000E+00
     -4.581  0.0000E+00  0.0000E+00  0.0000E+00  0.0000E+00
     -4.564  0.0000E+00  0.0000E+00  0.0000E+00  0.0000E+00
     -4.546  0.0000E+00  0.0000E+00  0.0000E+00  0.0000E+00
     -4.529  0.0000E+00  0.0000E+00  0.0000E+00  0.0000E+00
     -4.511  0.0000E+00  0.0000E+00  0.0000E+00  0.0000E+00
     -4.493  0.0000E+00  0.0000E+00  0.0000E+00  0.0000E+00
     -4.476  0.0000E+00  0.0000E+00  0.0000E+00  0.0000E+00
     -4.458  0.0000E+00  0.0000E+00  0.0000E+00  0.0000E+00
     -4.441  0.0000E+00  0.0000E+00  0.0000E+00  0.0000E+00
     -4.423  0.0000E+00  0.0000E+00  0.0000E+00  0.0000E+00
     -4.405  0.0000E+00  0.0000E+00  0.0000E+00  0.0000E+00
     -4.388  0.0000E+00  0.0000E+00  0.0000E+00  0.0000E+00
     -4.370  0.0000E+00  0.0000E+00  0.0000E+00  0.0000E+00
     -4.353  0.0000E+00  0.0000E+00  0.0000E+00  0.0000E+00
     -4.335  0.0000E+00  0.0000E+00  0.0000E+00  0.0000E+00
     -4.318  0.0000E+00  0.0000E+00  0.0000E+00  0.0000E+00
     -4.300  0.0000E+00  0.0000E+00  0.0000E+00  0.0000E+00
     -4.282  0.0000E+00  0.0000E+00  0.0000E+00  0.0000E+00
     -4.265 -0.3345E-27  0.0000E+00 -0.5885E-29  0.0000E+00
     -4.247 -0.1016E-26  0.0000E+00 -0.2377E-28  0.0000E+00
     -4.230 -0.4266E-26  0.0000E+00 -0.9884E-28  0.0000E+00
     -4.212 -0.1647E-25  0.0000E+00 -0.3887E-27  0.0000E+00
     -4.194 -0.6316E-25  0.0000E+00 -0.1500E-26  0.0000E+00
     -4.177 -0.2386E-24  0.0000E+00 -0.5699E-26  0.0000E+00
     -4.159 -0.8878E-24  0.0000E+00 -0.2132E-25  0.0000E+00
     -4.142 -0.3251E-23  0.0000E+00 -0.7853E-25  0.0000E+00
     -4.124 -0.1172E-22  0.0000E+00 -0.2847E-24  0.0000E+00
     -4.106 -0.4159E-22  0.0000E+00 -0.1017E-23  0.0000E+00
     -4.089 -0.1453E-21  0.0000E+00 -0.3573E-23  0.0000E+00
     -4.071 -0.4996E-21 -0.2929E-27 -0.1236E-22 -0.5153E-29
     -4.054 -0.1691E-20 -0.8914E-27 -0.4213E-22 -0.2084E-28
     -4.036 -0.5637E-20 -0.3745E-26 -0.1413E-21 -0.8675E-28
     -4.018 -0.1849E-19 -0.1449E-25 -0.4667E-21 -0.3416E-27
     -4.001 -0.5971E-19 -0.5562E-25 -0.1517E-20 -0.1320E-26
     -3.983 -0.1898E-18 -0.2105E-24 -0.4858E-20 -0.5024E-26
     -3.966 -0.5940E-18 -0.7841E-24 -0.1531E-19 -0.1882E-25
     -3.948 -0.1830E-17 -0.2876E-23 -0.4751E-19 -0.6942E-25
     -3.930 -0.5548E-17 -0.1038E-22 -0.1451E-18 -0.2521E-24
     -3.913 -0.1656E-16 -0.3689E-22 -0.4365E-18 -0.9013E-24
     -3.895 -0.4865E-16 -0.1291E-21 -0.1293E-17 -0.3173E-23
     -3.878 -0.1407E-15 -0.4446E-21 -0.3768E-17 -0.1100E-22
     -3.860 -0.4005E-15 -0.1507E-20 -0.1081E-16 -0.3752E-22
     -3.842 -0.1122E-14 -0.5030E-20 -0.3056E-16 -0.1260E-21
     -3.825 -0.3000E-14 -0.1653E-19 -0.8335E-16 -0.4168E-21
     -3.807 -0.8085E-14 -0.5345E-19 -0.2256E-15 -0.1357E-20
     -3.790 -0.2182E-13 -0.1702E-18 -0.6095E-15 -0.4351E-20
     -3.772 -0.5705E-13 -0.5332E-18 -0.1613E-14 -0.1373E-19
     -3.754 -0.1478E-12 -0.1645E-17 -0.4213E-14 -0.4268E-19
     -3.737 -0.3761E-12 -0.4995E-17 -0.1083E-13 -0.1306E-18
     -3.719 -0.9418E-12 -0.1493E-16 -0.2740E-13 -0.3933E-18
     -3.702 -0.2322E-11 -0.4393E-16 -0.6826E-13 -0.1166E-17
     -3.684 -0.5632E-11 -0.1272E-15 -0.1674E-12 -0.3405E-17
     -3.666 -0.1345E-10 -0.3627E-15 -0.4040E-12 -0.9787E-17
     -3.649 -0.3159E-10 -0.1018E-14 -0.9598E-12 -0.2770E-16
     -3.631 -0.7303E-10 -0.2716E-14 -0.2245E-11 -0.7550E-16
     -3.614 -0.1662E-09 -0.7421E-14 -0.5169E-11 -0.2061E-15
     -3.596 -0.3720E-09 -0.1982E-13 -0.1171E-10 -0.5548E-15
     -3.578 -0.8195E-09 -0.5210E-13 -0.2614E-10 -0.1472E-14
     -3.561 -0.1776E-08 -0.1350E-12 -0.5739E-10 -0.3847E-14
     -3.543 -0.3789E-08 -0.3442E-12 -0.1241E-09 -0.9904E-14
     -3.526 -0.7950E-08 -0.8633E-12 -0.2640E-09 -0.2509E-13
     -3.508 -0.1641E-07 -0.2131E-11 -0.5528E-09 -0.6260E-13
     -3.490 -0.3334E-07 -0.5178E-11 -0.1139E-08 -0.1537E-12
     -3.473 -0.6662E-07 -0.1238E-10 -0.2312E-08 -0.3716E-12
     -3.455 -0.1310E-06 -0.2913E-10 -0.4616E-08 -0.8841E-12
     -3.438 -0.2532E-06 -0.6745E-10 -0.9072E-08 -0.2071E-11
     -3.420 -0.4816E-06 -0.1537E-09 -0.1755E-07 -0.4775E-11
     -3.402 -0.9009E-06 -0.3446E-09 -0.3340E-07 -0.1084E-10
     -3.385 -0.1657E-05 -0.7603E-09 -0.6256E-07 -0.2422E-10
     -3.367 -0.2998E-05 -0.1650E-08 -0.1153E-06 -0.5326E-10
     -3.350 -0.5334E-05 -0.3525E-08 -0.2092E-06 -0.1153E-09
     -3.332 -0.9330E-05 -0.7409E-08 -0.3734E-06 -0.2457E-09
     -3.315 -0.1604E-04 -0.1532E-07 -0.6557E-06 -0.5153E-09
     -3.297 -0.2712E-04 -0.3117E-07 -0.1133E-05 -0.1064E-08
     -3.279 -0.4505E-04 -0.6237E-07 -0.1926E-05 -0.2161E-08
     -3.262 -0.7356E-04 -0.1228E-06 -0.3220E-05 -0.4322E-08
     -3.244 -0.1180E-03 -0.2378E-06 -0.5296E-05 -0.8507E-08
     -3.227 -0.1859E-03 -0.4530E-06 -0.8568E-05 -0.1648E-07
     -3.209 -0.2878E-03 -0.8487E-06 -0.1363E-04 -0.3141E-07
     -3.191 -0.4373E-03 -0.1564E-05 -0.2133E-04 -0.5893E-07
     -3.174 -0.6523E-03 -0.2833E-05 -0.3281E-04 -0.1088E-06
     -3.156 -0.9548E-03 -0.5049E-05 -0.4961E-04 -0.1976E-06
     -3.139 -0.1371E-02 -0.8845E-05 -0.7373E-04 -0.3533E-06
     -3.121 -0.1929E-02 -0.1523E-04 -0.1077E-03 -0.6213E-06
     -3.103 -0.2659E-02 -0.2579E-04 -0.1545E-03 -0.1075E-05
     -3.086 -0.3589E-02 -0.4292E-04 -0.2176E-03 -0.1830E-05
     -3.068 -0.4738E-02 -0.7019E-04 -0.3010E-03 -0.3065E-05
     -3.051 -0.6111E-02 -0.1128E-03 -0.4085E-03 -0.5050E-05
     -3.033 -0.7686E-02 -0.1780E-03 -0.5438E-03 -0.8182E-05
     -3.015 -0.9409E-02 -0.2760E-03 -0.7093E-03 -0.1304E-04
     -2.998 -0.1118E-01 -0.4201E-03 -0.9060E-03 -0.2043E-04
     -2.980 -0.1284E-01 -0.6278E-03 -0.1132E-02 -0.3148E-04
     -2.963 -0.1416E-01 -0.9205E-03 -0.1381E-02 -0.4767E-04
     -2.945 -0.1485E-01 -0.1324E-02 -0.1642E-02 -0.7097E-04
     -2.927 -0.1454E-01 -0.1866E-02 -0.1898E-02 -0.1038E-03
     -2.910 -0.1282E-01 -0.2578E-02 -0.2124E-02 -0.1492E-03
     -2.892 -0.9226E-02 -0.3487E-02 -0.2286E-02 -0.2105E-03
     -2.875 -0.3289E-02 -0.4613E-02 -0.2344E-02 -0.2917E-03
     -2.857  0.5424E-02 -0.5962E-02 -0.2249E-02 -0.3966E-03
     -2.839  0.1727E-01 -0.7518E-02 -0.1945E-02 -0.5289E-03
     -2.822  0.3247E-01 -0.9227E-02 -0.1373E-02 -0.6913E-03
     -2.804  0.5108E-01 -0.1100E-01 -0.4745E-03 -0.8848E-03
     -2.787  0.7295E-01 -0.1267E-01  0.8092E-03 -0.1108E-02
     -2.769  0.9769E-01 -0.1403E-01  0.2528E-02 -0.1355E-02
     -2.751  0.1247E+00 -0.1479E-01  0.4722E-02 -0.1615E-02
     -2.734  0.1531E+00 -0.1460E-01  0.7415E-02 -0.1872E-02
     -2.716  0.1818E+00 -0.1303E-01  0.1061E-01 -0.2101E-02
     -2.699  0.2099E+00 -0.9632E-02  0.1431E-01 -0.2270E-02
     -2.681  0.2361E+00 -0.3941E-02  0.1846E-01 -0.2340E-02
     -2.663  0.2593E+00  0.4483E-02  0.2303E-01 -0.2261E-02
     -2.646  0.2787E+00  0.1600E-01  0.2793E-01 -0.1979E-02
     -2.628  0.2935E+00  0.3086E-01  0.3309E-01 -0.1436E-02
     -2.611  0.3032E+00  0.4913E-01  0.3843E-01 -0.5716E-03
     -2.593  0.3078E+00  0.7068E-01  0.4385E-01  0.6721E-03
     -2.575  0.3073E+00  0.9513E-01  0.4925E-01  0.2346E-02
     -2.558  0.3021E+00  0.1219E+00  0.5457E-01  0.4491E-02
     -2.540  0.2929E+00  0.1501E+00  0.5972E-01  0.7132E-02
     -2.523  0.2804E+00  0.1788E+00  0.6466E-01  0.1028E-01
     -2.505  0.2655E+00  0.2070E+00  0.6933E-01  0.1392E-01
     -2.487  0.2490E+00  0.2333E+00  0.7371E-01  0.1803E-01
     -2.470  0.2319E+00  0.2568E+00  0.7779E-01  0.2255E-01
     -2.452  0.2148E+00  0.2765E+00  0.8157E-01  0.2741E-01
     -2.435  0.1984E+00  0.2917E+00  0.8506E-01  0.3255E-01
     -2.417  0.1831E+00  0.3019E+00  0.8828E-01  0.3786E-01
     -2.399  0.1693E+00  0.3069E+00  0.9126E-01  0.4326E-01
     -2.382  0.1573E+00  0.3068E+00  0.9403E-01  0.4866E-01
     -2.364  0.1472E+00  0.3021E+00  0.9662E-01  0.5397E-01
     -2.347  0.1388E+00  0.2932E+00  0.9906E-01  0.5913E-01
     -2.329  0.1322E+00  0.2810E+00  0.1014E+00  0.6408E-01
     -2.311  0.1271E+00  0.2663E+00  0.1036E+00  0.6876E-01
     -2.294  0.1233E+00  0.2500E+00  0.1058E+00  0.7316E-01
     -2.276  0.1206E+00  0.2329E+00  0.1079E+00  0.7726E-01
     -2.259  0.1186E+00  0.2157E+00  0.1100E+00  0.8106E-01
     -2.241  0.1170E+00  0.1992E+00  0.1121E+00  0.8456E-01
     -2.224  0.1158E+00  0.1838E+00  0.1141E+00  0.8780E-01
     -2.206  0.1145E+00  0.1699E+00  0.1161E+00  0.9079E-01
     -2.188  0.1133E+00  0.1577E+00  0.1181E+00  0.9356E-01
     -2.171  0.1119E+00  0.1473E+00  0.1201E+00  0.9615E-01
     -2.153  0.1103E+00  0.1388E+00  0.1220E+00  0.9860E-01
     -2.136  0.1086E+00  0.1320E+00  0.1239E+00  0.1009E+00
     -2.118  0.1068E+00  0.1267E+00  0.1258E+00  0.1031E+00
     -2.100  0.1051E+00  0.1228E+00  0.1277E+00  0.1053E+00
     -2.083  0.1033E+00  0.1200E+00  0.1295E+00  0.1074E+00
     -2.065  0.1016E+00  0.1179E+00  0.1313E+00  0.1095E+00
     -2.048  0.9987E-01  0.1164E+00  0.1330E+00  0.1115E+00
     -2.030  0.9813E-01  0.1151E+00  0.1347E+00  0.1136E+00
     -2.012  0.9630E-01  0.1139E+00  0.1364E+00  0.1156E+00
     -1.995  0.9434E-01  0.1126E+00  0.1381E+00  0.1176E+00
     -1.977  0.9221E-01  0.1112E+00  0.1397E+00  0.1195E+00
     -1.960  0.8991E-01  0.1097E+00  0.1413E+00  0.1214E+00
     -1.942  0.8752E-01  0.1080E+00  0.1428E+00  0.1233E+00
     -1.924  0.8516E-01  0.1062E+00  0.1443E+00  0.1252E+00
     -1.907  0.8299E-01  0.1044E+00  0.1458E+00  0.1270E+00
     -1.889  0.8122E-01  0.1026E+00  0.1472E+00  0.1289E+00
     -1.872  0.8005E-01  0.1009E+00  0.1486E+00  0.1306E+00
     -1.854  0.7967E-01  0.9922E-01  0.1500E+00  0.1324E+00
     -1.836  0.8018E-01  0.9759E-01  0.1515E+00  0.1341E+00
     -1.819  0.8163E-01  0.9590E-01  0.1529E+00  0.1358E+00
     -1.801  0.8396E-01  0.9409E-01  0.1544E+00  0.1374E+00
     -1.784  0.8699E-01  0.9210E-01  0.1559E+00  0.1391E+00
     -1.766  0.9045E-01  0.8991E-01  0.1575E+00  0.1406E+00
     -1.748  0.9400E-01  0.8753E-01  0.1591E+00  0.1422E+00
     -1.731  0.9722E-01  0.8507E-01  0.1609E+00  0.1437E+00
     -1.713  0.9971E-01  0.8267E-01  0.1626E+00  0.1451E+00
     -1.696  0.1011E+00  0.8052E-01  0.1644E+00  0.1465E+00
     -1.678  0.1011E+00  0.7883E-01  0.1662E+00  0.1479E+00
     -1.660  0.9946E-01  0.7783E-01  0.1679E+00  0.1493E+00
     -1.643  0.9619E-01  0.7768E-01  0.1696E+00  0.1507E+00
     -1.625  0.9134E-01  0.7849E-01  0.1712E+00  0.1520E+00
     -1.608  0.8516E-01  0.8026E-01  0.1727E+00  0.1535E+00
     -1.590  0.7803E-01  0.8291E-01  0.1741E+00  0.1549E+00
     -1.572  0.7043E-01  0.8623E-01  0.1753E+00  0.1564E+00
     -1.555  0.6289E-01  0.8991E-01  0.1764E+00  0.1580E+00
     -1.537  0.5598E-01  0.9359E-01  0.1774E+00  0.1597E+00
     -1.520  0.5024E-01  0.9686E-01  0.1783E+00  0.1614E+00
     -1.502  0.4612E-01  0.9930E-01  0.1791E+00  0.1631E+00
     -1.484  0.4397E-01  0.1005E+00  0.1799E+00  0.1649E+00
     -1.467  0.4398E-01  0.1003E+00  0.1807E+00  0.1667E+00
     -1.449  0.4618E-01  0.9837E-01  0.1815E+00  0.1684E+00
     -1.432  0.5041E-01  0.9475E-01  0.1824E+00  0.1701E+00
     -1.414  0.5637E-01  0.8955E-01  0.1834E+00  0.1716E+00
     -1.396  0.6363E-01  0.8301E-01  0.1845E+00  0.1731E+00
     -1.379  0.7165E-01  0.7553E-01  0.1857E+00  0.1744E+00
     -1.361  0.7983E-01  0.6759E-01  0.1871E+00  0.1756E+00
     -1.344  0.8758E-01  0.5974E-01  0.1887E+00  0.1767E+00
     -1.326  0.9435E-01  0.5256E-01  0.1903E+00  0.1776E+00
     -1.308  0.9967E-01  0.4658E-01  0.1921E+00  0.1784E+00
     -1.291  0.1032E+00  0.4227E-01  0.1939E+00  0.1791E+00
     -1.273  0.1047E+00  0.3997E-01  0.1958E+00  0.1798E+00
     -1.256  0.1042E+00  0.3989E-01  0.1976E+00  0.1806E+00
     -1.238  0.1017E+00  0.4206E-01  0.1994E+00  0.1813E+00
     -1.220  0.9748E-01  0.4634E-01  0.2011E+00  0.1821E+00
     -1.203  0.9187E-01  0.5245E-01  0.2027E+00  0.1830E+00
     -1.185  0.8526E-01  0.5995E-01  0.2042E+00  0.1841E+00
     -1.168  0.7809E-01  0.6832E-01  0.2056E+00  0.1853E+00
     -1.150  0.7079E-01  0.7694E-01  0.2068E+00  0.1866E+00
     -1.133  0.6376E-01  0.8523E-01  0.2080E+00  0.1881E+00
     -1.115  0.5733E-01  0.9259E-01  0.2090E+00  0.1898E+00
     -1.097  0.5172E-01  0.9854E-01  0.2099E+00  0.1915E+00
     -1.080  0.4710E-01  0.1027E+00  0.2107E+00  0.1933E+00
     -1.062  0.4354E-01  0.1048E+00  0.2115E+00  0.1952E+00
     -1.045  0.4103E-01  0.1047E+00  0.2122E+00  0.1970E+00
     -1.027  0.3951E-01  0.1025E+00  0.2129E+00  0.1988E+00
     -1.009  0.3891E-01  0.9848E-01  0.2136E+00  0.2005E+00
     -0.992  0.3912E-01  0.9283E-01  0.2143E+00  0.2022E+00
     -0.974  0.4008E-01  0.8599E-01  0.2150E+00  0.2037E+00
     -0.957  0.4173E-01  0.7841E-01  0.2157E+00  0.2051E+00
     -0.939  0.4405E-01  0.7056E-01  0.2165E+00  0.2063E+00
     -0.921  0.4703E-01  0.6288E-01  0.2173E+00  0.2074E+00
     -0.904  0.5068E-01  0.5574E-01  0.2182E+00  0.2084E+00
     -0.886  0.5499E-01  0.4947E-01  0.2192E+00  0.2093E+00
     -0.869  0.5993E-01  0.4426E-01  0.2202E+00  0.2100E+00
     -0.851  0.6541E-01  0.4024E-01  0.2214E+00  0.2107E+00
     -0.833  0.7129E-01  0.3742E-01  0.2226E+00  0.2114E+00
     -0.816  0.7738E-01  0.3575E-01  0.2240E+00  0.2120E+00
     -0.798  0.8340E-01  0.3512E-01  0.2255E+00  0.2127E+00
     -0.781  0.8908E-01  0.3539E-01  0.2270E+00  0.2133E+00
     -0.763  0.9409E-01  0.3641E-01  0.2287E+00  0.2139E+00
     -0.745  0.9812E-01  0.3807E-01  0.2304E+00  0.2146E+00
     -0.728  0.1009E+00  0.4027E-01  0.2322E+00  0.2153E+00
     -0.710  0.1022E+00  0.4294E-01  0.2340E+00  0.2160E+00
     -0.693  0.1019E+00  0.4606E-01  0.2358E+00  0.2169E+00
     -0.675  0.9998E-01  0.4962E-01  0.2375E+00  0.2177E+00
     -0.657  0.9634E-01  0.5361E-01  0.2392E+00  0.2187E+00
     -0.640  0.9115E-01  0.5802E-01  0.2408E+00  0.2197E+00
     -0.622  0.8458E-01  0.6279E-01  0.2423E+00  0.2208E+00
     -0.605  0.7686E-01  0.6782E-01  0.2437E+00  0.2220E+00
     -0.587  0.6830E-01  0.7297E-01  0.2449E+00  0.2233E+00
     -0.569  0.5922E-01  0.7804E-01  0.2459E+00  0.2247E+00
     -0.552  0.5000E-01  0.8280E-01  0.2468E+00  0.2261E+00
     -0.534  0.4099E-01  0.8702E-01  0.2475E+00  0.2276E+00
     -0.517  0.3260E-01  0.9047E-01  0.2481E+00  0.2292E+00
     -0.499  0.2521E-01  0.9295E-01  0.2485E+00  0.2309E+00
     -0.481  0.1919E-01  0.9431E-01  0.2489E+00  0.2325E+00
     -0.464  0.1488E-01  0.9445E-01  0.2491E+00  0.2342E+00
     -0.446  0.1257E-01  0.9336E-01  0.2494E+00  0.2358E+00
     -0.429  0.1250E-01  0.9106E-01  0.2496E+00  0.2374E+00
     -0.411  0.1480E-01  0.8763E-01  0.2498E+00  0.2390E+00
     -0.393  0.1950E-01  0.8319E-01  0.2502E+00  0.2404E+00
     -0.376  0.2651E-01  0.7787E-01  0.2506E+00  0.2418E+00
     -0.358  0.3559E-01  0.7183E-01  0.2513E+00  0.2431E+00
     -0.341  0.4636E-01  0.6522E-01  0.2521E+00  0.2442E+00
     -0.323  0.5832E-01  0.5820E-01  0.2531E+00  0.2452E+00
     -0.305  0.7084E-01  0.5093E-01  0.2544E+00  0.2461E+00
     -0.288  0.8324E-01  0.4357E-01  0.2558E+00  0.2469E+00
     -0.270  0.9480E-01  0.3631E-01  0.2575E+00  0.2475E+00
     -0.253  0.1048E+00  0.2935E-01  0.2593E+00  0.2481E+00
     -0.235  0.1127E+00  0.2292E-01  0.2613E+00  0.2485E+00
     -0.217  0.1180E+00  0.1728E-01  0.2634E+00  0.2488E+00
     -0.200  0.1203E+00  0.1270E-01  0.2655E+00  0.2490E+00
     -0.182  0.1196E+00  0.9472E-02  0.2676E+00  0.2492E+00
     -0.165  0.1161E+00  0.7861E-02  0.2697E+00  0.2493E+00
     -0.147  0.1099E+00  0.8113E-02  0.2716E+00  0.2494E+00
     -0.130  0.1016E+00  0.1041E-01  0.2734E+00  0.2496E+00
     -0.112  0.9184E-01  0.1487E-01  0.2750E+00  0.2499E+00
     -0.094  0.8125E-01  0.2147E-01  0.2764E+00  0.2503E+00
     -0.077  0.7053E-01  0.3009E-01  0.2777E+00  0.2508E+00
     -0.059  0.6030E-01  0.4048E-01  0.2787E+00  0.2515E+00
     -0.042  0.5108E-01  0.5223E-01  0.2796E+00  0.2524E+00
     -0.024  0.4326E-01  0.6481E-01  0.2804E+00  0.2536E+00
     -0.006  0.3709E-01  0.7761E-01  0.2810E+00  0.2549E+00
      0.011  0.3264E-01  0.8994E-01  0.2816E+00  0.2565E+00
      0.029  0.2986E-01  0.1011E+00  0.2821E+00  0.2583E+00
      0.046  0.2861E-01  0.1104E+00  0.2826E+00  0.2602E+00
      0.064  0.2867E-01  0.1173E+00  0.2831E+00  0.2623E+00
      0.082  0.2982E-01  0.1214E+00  0.2837E+00  0.2644E+00
      0.099  0.3184E-01  0.1224E+00  0.2842E+00  0.2666E+00
      0.117  0.3458E-01  0.1201E+00  0.2848E+00  0.2687E+00
      0.134  0.3792E-01  0.1149E+00  0.2855E+00  0.2707E+00
      0.152  0.4182E-01  0.1069E+00  0.2862E+00  0.2726E+00
      0.170  0.4631E-01  0.9661E-01  0.2871E+00  0.2743E+00
      0.187  0.5141E-01  0.8473E-01  0.2880E+00  0.2758E+00
      0.205  0.5716E-01  0.7187E-01  0.2890E+00  0.2771E+00
      0.222  0.6356E-01  0.5873E-01  0.2901E+00  0.2781E+00
      0.240  0.7052E-01  0.4596E-01  0.2913E+00  0.2789E+00
      0.258  0.7790E-01  0.3416E-01  0.2927E+00  0.2795E+00
      0.275  0.8544E-01  0.2381E-01  0.2942E+00  0.2799E+00
      0.293  0.9281E-01  0.1528E-01  0.2958E+00  0.2802E+00
      0.310  0.9961E-01  0.8816E-02  0.2976E+00  0.2804E+00
      0.328  0.1054E+00  0.4552E-02  0.2994E+00  0.2804E+00
      0.346  0.1098E+00  0.2499E-02  0.3014E+00  0.2805E+00
      0.363  0.1124E+00  0.2578E-02  0.3034E+00  0.2805E+00
      0.381  0.1129E+00  0.4629E-02  0.3053E+00  0.2806E+00
      0.398  0.1112E+00  0.8433E-02  0.3073E+00  0.2807E+00
      0.416  0.1073E+00  0.1372E-01  0.3092E+00  0.2810E+00
      0.434  0.1013E+00  0.2020E-01  0.3110E+00  0.2813E+00
      0.451  0.9365E-01  0.2755E-01  0.3126E+00  0.2818E+00
      0.469  0.8469E-01  0.3544E-01  0.3141E+00  0.2825E+00
      0.486  0.7503E-01  0.4355E-01  0.3154E+00  0.2832E+00
      0.504  0.6534E-01  0.5158E-01  0.3166E+00  0.2841E+00
      0.522  0.5639E-01  0.5923E-01  0.3176E+00  0.2852E+00
      0.539  0.4900E-01  0.6627E-01  0.3184E+00  0.2863E+00
      0.557  0.4400E-01  0.7247E-01  0.3192E+00  0.2876E+00
      0.574  0.4225E-01  0.7769E-01  0.3199E+00  0.2890E+00
      0.592  0.4459E-01  0.8181E-01  0.3207E+00  0.2904E+00
      0.610  0.5183E-01  0.8478E-01  0.3216E+00  0.2919E+00
      0.627  0.6466E-01  0.8660E-01  0.3228E+00  0.2934E+00
      0.645  0.8368E-01  0.8732E-01  0.3243E+00  0.2950E+00
      0.662  0.1093E+00  0.8703E-01  0.3262E+00  0.2965E+00
      0.680  0.1416E+00  0.8585E-01  0.3287E+00  0.2980E+00
      0.698  0.1806E+00  0.8394E-01  0.3319E+00  0.2995E+00
      0.715  0.2259E+00  0.8144E-01  0.3358E+00  0.3009E+00
      0.733  0.2768E+00  0.7855E-01  0.3407E+00  0.3023E+00
      0.750  0.3323E+00  0.7540E-01  0.3465E+00  0.3036E+00
      0.768  0.3911E+00  0.7215E-01  0.3534E+00  0.3049E+00
      0.786  0.4520E+00  0.6893E-01  0.3614E+00  0.3061E+00
      0.803  0.5134E+00  0.6581E-01  0.3704E+00  0.3073E+00
      0.821  0.5738E+00  0.6286E-01  0.3805E+00  0.3084E+00
      0.838  0.6320E+00  0.6008E-01  0.3916E+00  0.3094E+00
      0.856  0.6866E+00  0.5746E-01  0.4037E+00  0.3104E+00
      0.874  0.7366E+00  0.5494E-01  0.4167E+00  0.3114E+00
      0.891  0.7813E+00  0.5244E-01  0.4304E+00  0.3123E+00
      0.909  0.8199E+00  0.4990E-01  0.4448E+00  0.3132E+00
      0.926  0.8521E+00  0.4725E-01  0.4598E+00  0.3140E+00
      0.944  0.8776E+00  0.4445E-01  0.4753E+00  0.3148E+00
      0.961  0.8963E+00  0.4151E-01  0.4911E+00  0.3156E+00
      0.979  0.9082E+00  0.3847E-01  0.5070E+00  0.3162E+00
      0.997  0.9132E+00  0.3546E-01  0.5231E+00  0.3169E+00
      1.014  0.9117E+00  0.3264E-01  0.5392E+00  0.3174E+00
      1.032  0.9038E+00  0.3021E-01  0.5551E+00  0.3180E+00
      1.049  0.8901E+00  0.2841E-01  0.5707E+00  0.3185E+00
      1.067  0.8712E+00  0.2746E-01  0.5861E+00  0.3189E+00
      1.085  0.8478E+00  0.2758E-01  0.6010E+00  0.3194E+00
      1.102  0.8210E+00  0.2891E-01  0.6154E+00  0.3199E+00
      1.120  0.7917E+00  0.3154E-01  0.6294E+00  0.3205E+00
      1.137  0.7612E+00  0.3548E-01  0.6427E+00  0.3211E+00
      1.155  0.7307E+00  0.4065E-01  0.6556E+00  0.3218E+00
      1.173  0.7011E+00  0.4686E-01  0.6679E+00  0.3227E+00
      1.190  0.6735E+00  0.5385E-01  0.6798E+00  0.3236E+00
      1.208  0.6486E+00  0.6131E-01  0.6912E+00  0.3247E+00
      1.225  0.6269E+00  0.6887E-01  0.7022E+00  0.3259E+00
      1.243  0.6088E+00  0.7616E-01  0.7129E+00  0.3272E+00
      1.261  0.5942E+00  0.8280E-01  0.7234E+00  0.3287E+00
      1.278  0.5831E+00  0.8846E-01  0.7337E+00  0.3303E+00
      1.296  0.5752E+00  0.9286E-01  0.7438E+00  0.3319E+00
      1.313  0.5702E+00  0.9581E-01  0.7538E+00  0.3336E+00
      1.331  0.5676E+00  0.9719E-01  0.7638E+00  0.3353E+00
      1.349  0.5671E+00  0.9697E-01  0.7738E+00  0.3370E+00
      1.366  0.5683E+00  0.9523E-01  0.7838E+00  0.3387E+00
      1.384  0.5709E+00  0.9210E-01  0.7938E+00  0.3403E+00
      1.401  0.5745E+00  0.8782E-01  0.8039E+00  0.3418E+00
      1.419  0.5789E+00  0.8266E-01  0.8141E+00  0.3433E+00
      1.437  0.5835E+00  0.7693E-01  0.8244E+00  0.3446E+00
      1.454  0.5879E+00  0.7094E-01  0.8347E+00  0.3459E+00
      1.472  0.5916E+00  0.6501E-01  0.8452E+00  0.3470E+00
      1.489  0.5937E+00  0.5942E-01  0.8556E+00  0.3481E+00
      1.507  0.5937E+00  0.5439E-01  0.8660E+00  0.3490E+00
      1.525  0.5907E+00  0.5009E-01  0.8764E+00  0.3499E+00
      1.542  0.5842E+00  0.4663E-01  0.8867E+00  0.3507E+00
      1.560  0.5736E+00  0.4407E-01  0.8968E+00  0.3515E+00
      1.577  0.5587E+00  0.4240E-01  0.9066E+00  0.3523E+00
      1.595  0.5394E+00  0.4158E-01  0.9161E+00  0.3530E+00
      1.613  0.5161E+00  0.4157E-01  0.9252E+00  0.3537E+00
      1.630  0.4892E+00  0.4228E-01  0.9338E+00  0.3545E+00
      1.648  0.4596E+00  0.4365E-01  0.9419E+00  0.3552E+00
      1.665  0.4283E+00  0.4561E-01  0.9495E+00  0.3560E+00
      1.683  0.3961E+00  0.4812E-01  0.9564E+00  0.3569E+00
      1.701  0.3643E+00  0.5111E-01  0.9628E+00  0.3578E+00
      1.718  0.3335E+00  0.5454E-01  0.9687E+00  0.3587E+00
      1.736  0.3045E+00  0.5833E-01  0.9741E+00  0.3598E+00
      1.753  0.2777E+00  0.6240E-01  0.9789E+00  0.3609E+00
      1.771  0.2534E+00  0.6665E-01  0.9834E+00  0.3620E+00
      1.789  0.2313E+00  0.7095E-01  0.9875E+00  0.3633E+00
      1.806  0.2114E+00  0.7518E-01  0.9912E+00  0.3646E+00
      1.824  0.1932E+00  0.7923E-01  0.9946E+00  0.3660E+00
      1.841  0.1763E+00  0.8304E-01  0.9977E+00  0.3675E+00
      1.859  0.1605E+00  0.8658E-01  0.1001E+01  0.3690E+00
      1.877  0.1455E+00  0.8993E-01  0.1003E+01  0.3706E+00
      1.894  0.1313E+00  0.9324E-01  0.1005E+01  0.3722E+00
      1.912  0.1181E+00  0.9677E-01  0.1007E+01  0.3739E+00
      1.929  0.1063E+00  0.1009E+00  0.1009E+01  0.3757E+00
      1.947  0.9688E-01  0.1060E+00  0.1011E+01  0.3776E+00
      1.964  0.9075E-01  0.1126E+00  0.1013E+01  0.3795E+00
      1.982  0.8932E-01  0.1212E+00  0.1014E+01  0.3817E+00
      2.000  0.9422E-01  0.1322E+00  0.1016E+01  0.3840E+00
      2.017  0.1072E+00  0.1460E+00  0.1018E+01  0.3866E+00
      2.035  0.1304E+00  0.1629E+00  0.1020E+01  0.3894E+00
      2.052  0.1655E+00  0.1829E+00  0.1023E+01  0.3927E+00
      2.070  0.2145E+00  0.2058E+00  0.1027E+01  0.3963E+00
      2.088  0.2789E+00  0.2312E+00  0.1032E+01  0.4003E+00
      2.105  0.3597E+00  0.2586E+00  0.1038E+01  0.4049E+00
      2.123  0.4572E+00  0.2869E+00  0.1046E+01  0.4099E+00
      2.140  0.5710E+00  0.3153E+00  0.1056E+01  0.4155E+00
      2.158  0.6996E+00  0.3425E+00  0.1068E+01  0.4215E+00
      2.176  0.8406E+00  0.3675E+00  0.1083E+01  0.4280E+00
      2.193  0.9903E+00  0.3891E+00  0.1101E+01  0.4348E+00
      2.211  0.1145E+01  0.4066E+00  0.1121E+01  0.4420E+00
      2.228  0.1299E+01  0.4191E+00  0.1144E+01  0.4494E+00
      2.246  0.1447E+01  0.4264E+00  0.1169E+01  0.4569E+00
      2.264  0.1584E+01  0.4284E+00  0.1197E+01  0.4644E+00
      2.281  0.1704E+01  0.4252E+00  0.1227E+01  0.4719E+00
      2.299  0.1805E+01  0.4174E+00  0.1259E+01  0.4792E+00
      2.316  0.1881E+01  0.4056E+00  0.1292E+01  0.4864E+00
      2.334  0.1931E+01  0.3906E+00  0.1326E+01  0.4932E+00
      2.352  0.1955E+01  0.3733E+00  0.1360E+01  0.4998E+00
      2.369  0.1951E+01  0.3545E+00  0.1394E+01  0.5060E+00
      2.387  0.1923E+01  0.3348E+00  0.1428E+01  0.5119E+00
      2.404  0.1873E+01  0.3148E+00  0.1461E+01  0.5175E+00
      2.422  0.1803E+01  0.2950E+00  0.1493E+01  0.5227E+00
      2.440  0.1719E+01  0.2757E+00  0.1523E+01  0.5275E+00
      2.457  0.1625E+01  0.2570E+00  0.1552E+01  0.5320E+00
      2.475  0.1524E+01  0.2394E+00  0.1579E+01  0.5362E+00
      2.492  0.1421E+01  0.2229E+00  0.1604E+01  0.5402E+00
      2.510  0.1319E+01  0.2080E+00  0.1627E+01  0.5438E+00
      2.528  0.1220E+01  0.1953E+00  0.1648E+01  0.5473E+00
      2.545  0.1128E+01  0.1855E+00  0.1668E+01  0.5505E+00
      2.563  0.1043E+01  0.1794E+00  0.1687E+01  0.5537E+00
      2.580  0.9661E+00  0.1779E+00  0.1704E+01  0.5568E+00
      2.598  0.8980E+00  0.1823E+00  0.1719E+01  0.5600E+00
      2.616  0.8383E+00  0.1933E+00  0.1734E+01  0.5634E+00
      2.633  0.7863E+00  0.2119E+00  0.1748E+01  0.5672E+00
      2.651  0.7412E+00  0.2385E+00  0.1761E+01  0.5714E+00
      2.668  0.7021E+00  0.2733E+00  0.1773E+01  0.5762E+00
      2.686  0.6679E+00  0.3160E+00  0.1785E+01  0.5817E+00
      2.704  0.6378E+00  0.3658E+00  0.1796E+01  0.5882E+00
      2.721  0.6110E+00  0.4214E+00  0.1807E+01  0.5956E+00
      2.739  0.5867E+00  0.4810E+00  0.1817E+01  0.6040E+00
      2.756  0.5645E+00  0.5425E+00  0.1827E+01  0.6136E+00
      2.774  0.5441E+00  0.6035E+00  0.1837E+01  0.6242E+00
      2.792  0.5253E+00  0.6616E+00  0.1846E+01  0.6358E+00
      2.809  0.5081E+00  0.7147E+00  0.1855E+01  0.6484E+00
      2.827  0.4924E+00  0.7607E+00  0.1864E+01  0.6618E+00
      2.844  0.4782E+00  0.7979E+00  0.1872E+01  0.6759E+00
      2.862  0.4655E+00  0.8255E+00  0.1880E+01  0.6904E+00
      2.880  0.4543E+00  0.8428E+00  0.1888E+01  0.7052E+00
      2.897  0.4444E+00  0.8500E+00  0.1896E+01  0.7202E+00
      2.915  0.4358E+00  0.8475E+00  0.1904E+01  0.7351E+00
      2.932  0.4283E+00  0.8363E+00  0.1911E+01  0.7498E+00
      2.950  0.4220E+00  0.8176E+00  0.1919E+01  0.7642E+00
      2.968  0.4169E+00  0.7930E+00  0.1926E+01  0.7781E+00
      2.985  0.4132E+00  0.7638E+00  0.1933E+01  0.7916E+00
      3.003  0.4117E+00  0.7317E+00  0.1941E+01  0.8045E+00
      3.020  0.4132E+00  0.6979E+00  0.1948E+01  0.8167E+00
      3.038  0.4188E+00  0.6638E+00  0.1955E+01  0.8284E+00
      3.055  0.4304E+00  0.6305E+00  0.1963E+01  0.8395E+00
      3.073  0.4499E+00  0.5987E+00  0.1971E+01  0.8500E+00
      3.091  0.4795E+00  0.5693E+00  0.1979E+01  0.8601E+00
      3.108  0.5216E+00  0.5427E+00  0.1988E+01  0.8696E+00
      3.126  0.5784E+00  0.5193E+00  0.1999E+01  0.8787E+00
      3.143  0.6518E+00  0.4992E+00  0.2010E+01  0.8875E+00
      3.161  0.7429E+00  0.4824E+00  0.2023E+01  0.8960E+00
      3.179  0.8521E+00  0.4685E+00  0.2038E+01  0.9043E+00
      3.196  0.9783E+00  0.4572E+00  0.2055E+01  0.9123E+00
      3.214  0.1119E+01  0.4479E+00  0.2075E+01  0.9202E+00
      3.231  0.1271E+01  0.4399E+00  0.2097E+01  0.9279E+00
      3.249  0.1429E+01  0.4325E+00  0.2123E+01  0.9355E+00
      3.267  0.1587E+01  0.4250E+00  0.2150E+01  0.9430E+00
      3.284  0.1737E+01  0.4167E+00  0.2181E+01  0.9504E+00
      3.302  0.1872E+01  0.4070E+00  0.2214E+01  0.9575E+00
      3.319  0.1986E+01  0.3956E+00  0.2249E+01  0.9645E+00
      3.337  0.2072E+01  0.3821E+00  0.2285E+01  0.9712E+00
      3.355  0.2125E+01  0.3667E+00  0.2323E+01  0.9777E+00
      3.372  0.2143E+01  0.3494E+00  0.2360E+01  0.9838E+00
      3.390  0.2124E+01  0.3305E+00  0.2398E+01  0.9896E+00
      3.407  0.2071E+01  0.3105E+00  0.2434E+01  0.9951E+00
      3.425  0.1985E+01  0.2899E+00  0.2469E+01  0.1000E+01
      3.443  0.1874E+01  0.2693E+00  0.2502E+01  0.1005E+01
      3.460  0.1742E+01  0.2491E+00  0.2533E+01  0.1009E+01
      3.478  0.1597E+01  0.2297E+00  0.2561E+01  0.1013E+01
      3.495  0.1446E+01  0.2116E+00  0.2586E+01  0.1017E+01
      3.513  0.1295E+01  0.1950E+00  0.2609E+01  0.1021E+01
      3.531  0.1151E+01  0.1802E+00  0.2629E+01  0.1024E+01
      3.548  0.1017E+01  0.1671E+00  0.2647E+01  0.1027E+01
      3.566  0.8982E+00  0.1558E+00  0.2663E+01  0.1029E+01
      3.583  0.7950E+00  0.1462E+00  0.2677E+01  0.1032E+01
      3.601  0.7085E+00  0.1382E+00  0.2690E+01  0.1034E+01
      3.619  0.6381E+00  0.1319E+00  0.2701E+01  0.1037E+01
      3.636  0.5829E+00  0.1272E+00  0.2711E+01  0.1039E+01
      3.654  0.5410E+00  0.1244E+00  0.2721E+01  0.1041E+01