    1    1    1    2
  0.1145291E+02  0.2459495E-09  0.2459495E-09  0.2459495E-09  0.5000000E-15
  1.000000000000000E-004
  CAR 
 bcc Fe                                  
      8    100     12
 
  0.0000000E+00  0.0000000E+00  0.0000000E+00  0.1000000E-01
    1       -2.657029     -2.461801   1.000000   1.000000
    2        3.363641      5.518076   1.000000   1.029284
    3        3.363641      5.518076   1.000000   1.029284
    4        3.363836      5.518386   1.000000   1.029350
    5        4.754013      7.434245   1.000000  -0.000000
    6        4.754013      7.434245   1.000000  -0.000000
    7       30.673667     30.434085   0.000000   0.000000
    8       30.673667     30.434085   0.000000   0.000000
    9       30.673707     30.434149   0.000000   0.000000
   10       35.791425     35.921841   0.000000   0.000000
   11       35.791428     35.921841   0.000000   0.000000
   12       37.956844     38.764848   0.000000   0.000000
 
  0.2631579E-01 -0.2631579E-01  0.2631579E-01  0.1000000E-01
    1       -2.599749     -2.404287   1.000000   1.000000
    2        3.363208      5.515212   1.000000   1.028669
    3        3.363338      5.515417   1.000000   1.028714
    4        3.379220      5.535559   1.000000   1.032642
    5        4.728345      7.401223   1.000000  -0.000000
    6        4.764299      7.447081   1.000000  -0.000000
    7       30.264834     30.073024   0.000000   0.000000
    8       30.622848     30.411852   0.000000   0.000000
    9       30.622866     30.411882   0.000000   0.000000
   10       35.160548     35.422451   0.000000   0.000000
   11       36.333385     36.424033   0.000000   0.000000
   12       36.838523     37.789140   0.000000   0.000000
 
  0.5263158E-01 -0.5263158E-01  0.5263158E-01  0.1000000E-01
    1       -2.429183     -2.232766   1.000000   1.000000
    2        3.371319      5.514312   1.000000   1.028474
    3        3.371430      5.514487   1.000000   1.028512
    4        3.427832      5.588888   1.000000   1.033032
    5        4.656801      7.307088   1.000000  -0.000000
    6        4.798346      7.488296   1.000000  -0.000000
    7       29.368060     29.260229   0.000000   0.000000
    8       30.444638     30.325076   0.000000   0.000000
    9       30.444640     30.325087   0.000000   0.000000
   10       33.954149     34.332584   0.000000   0.000000
   11       35.904722     36.800462   0.000000   0.000000
   12       35.904783     36.800580   0.000000   0.000000
 
  0.7894737E-01 -0.7894737E-01  0.7894737E-01  0.1000000E-01
    1       -2.149673     -1.950974   1.000000   1.000000
    2        3.371476      5.504265   1.000000   1.026222
    3        3.371589      5.504442   1.000000   1.026263
    4        3.502918      5.673345   1.000000   0.954967
    5        4.530017      7.144847   1.000000  -0.000000
    6        4.846667      7.546610   1.000000  -0.000000
    7       28.326622     28.303426   0.000000   0.000000
    8       29.990581     30.049082   0.000000   0.000000
    9       29.990607     30.049111   0.000000   0.000000
   10       32.600886     33.029130   0.000000   0.000000
   11       35.288114     36.050170   0.000000   0.000000
   12       35.288139     36.050254   0.000000   0.000000
 
  0.1052632E+00 -0.1052632E+00  0.1052632E+00  0.1000000E-01
    1       -1.768877     -1.565044   1.000000   1.000000
    2        3.381765      5.501297   1.000000   1.025542
    3        3.381873      5.501465   1.000000   1.025581
    4        3.614077      5.795724   1.000000   0.562701
    5        4.359153      6.926106   1.000000  -0.000000
    6        4.912979      7.622632   1.000000  -0.000000
    7       27.310841     27.369642   0.000000   0.000000
    8       29.214358     29.491657   0.000000   0.000000
    9       29.214402     29.491709   0.000000   0.000000
   10       31.245246     31.688012   0.000000   0.000000
   11       35.179835     35.768144   0.000000   0.000000
   12       35.179839     35.768168   0.000000   0.000000
 
  0.1315789E+00 -0.1315789E+00  0.1315789E+00  0.1000000E-01
    1       -1.299050     -1.084349   1.000000   1.000000
    2        3.403289      5.509497   1.000000   1.027408
    3        3.403399      5.509668   1.000000   1.027446
    4        3.741280      5.939161   1.000000   0.061677
    5        4.145514      6.653791   1.000000  -0.000000
    6        4.996470      7.710306   1.000000  -0.000000
    7       26.363674     26.506349   0.000000   0.000000
    8       28.178911     28.642479   0.000000   0.000000
    9       28.178963     28.642547   0.000000   0.000000
   10       29.949178     30.391787   0.000000   0.000000
   11       35.474771     35.924763   0.000000   0.000000
   12       35.474787     35.924764   0.000000   0.000000
 
  0.1578947E+00 -0.1578947E+00  0.1578947E+00  0.1000000E-01
    1       -0.758901     -0.522243   1.000000   1.000000
    2        3.443999      5.537833   1.000000   1.033011
    3        3.444110      5.538007   1.000000   1.033038
    4        3.890791      6.107832   1.000000  -0.028261
    5        3.896584      6.337796   1.000000  -0.000617
    6        5.103950      7.807835   1.000003  -0.000000
    7       25.510544     25.739042   0.000000   0.000000
    8       27.006127     27.594002   0.000000   0.000000
    9       27.006177     27.594068   0.000000   0.000000
   10       28.746452     29.184388   0.000000   0.000000
   11       36.069594     36.442246   0.000000   0.000000
   12       36.069613     36.442247   0.000000   0.000000
 
  0.1842105E+00 -0.1842105E+00  0.1842105E+00  0.1000000E-01
    1       -0.177145      0.102262   1.000000   1.000000
    2        3.509392      5.593506   1.000000   1.031871
    3        3.509505      5.593683   1.000000   1.031821
    4        3.619257      5.987671   1.000000  -0.008790
    5        4.058787      6.297551   1.000000  -0.001542
    6        5.250251      7.916765   1.000271  -0.000000
    7       24.756956     25.072575   0.000000   0.000000
    8       25.777598     26.440110   0.000000   0.000000
    9       25.777642     26.440166   0.000000   0.000000
   10       27.663321     28.099051   0.000000   0.000000
   11       36.876538     37.218594   0.000000   0.000000
   12       36.876547     37.218680   0.000000   0.000000
 
  0.2105263E+00 -0.2105263E+00  0.2105263E+00  0.1000000E-01
    1        0.403037      0.761986   1.000000   1.000000
    2        3.321515      5.614221   1.000000   1.023138
    3        3.604332      5.682996   1.000000   0.936319
    4        3.604448      5.683178   1.000000   0.935946
    5        4.240914      6.503516   1.000000  -0.000006
    6        5.465662      8.047761   1.017487  -0.000000
    7       24.101512     24.504021   0.000000   0.000000
    8       24.539235     25.242672   0.000000   0.000000
    9       24.539269     25.242712   0.000000   0.000000
   10       26.717506     27.158481   0.000000   0.000000
   11       37.842943     38.183394   0.000000   0.000000
   12       37.843205     38.183462   0.000000   0.000000
 
  0.2368421E+00 -0.2368421E+00  0.2368421E+00  0.1000000E-01
    1        0.922691      1.418775   1.000000   1.000000
    2        3.011994      5.228827   1.000000   1.000154
    3        3.732406      5.811401   1.000000   0.496559
    4        3.732525      5.811588   1.000000   0.495765
    5        4.432362      6.720377   1.000000  -0.000000
    6        5.799009      8.225832   0.548902  -0.000000
    7       23.317783     24.026470   0.000000   0.000000
    8       23.317807     24.038764   0.000000   0.000000
    9       23.539199     24.038785   0.000000   0.000000
   10       25.918202     26.375034   0.000000   0.000000
   11       38.936238     39.292103   0.000000   0.000000
   12       38.937377     39.292337   0.000000   0.000000
 
  0.2631579E+00 -0.2631579E+00  0.2631579E+00  0.1000000E-01
    1        1.317833      2.021806   1.000000   1.000000
    2        2.699683      4.842951   1.000000   1.000000
    3        3.896325      5.982940   1.000000  -0.004205
    4        3.896447      5.983127   1.000000  -0.004395
    5        4.630239      6.944219   1.000000  -0.000000
    6        6.298222      8.484087  -0.001520  -0.000000
    7       22.134789     22.854499   0.000000   0.000000
    8       22.134801     22.854511   0.000000   0.000000
    9       23.063030     23.631031   0.000000   0.000000
   10       25.262474     25.748075   0.000000   0.000000
   11       40.045445     40.514870   0.000000   0.000000
   12       40.133298     40.602474   0.000000   0.000000
 
  0.2894737E+00 -0.2894737E+00  0.2894737E+00  0.1000000E-01
    1        1.550964      2.513857   1.000000   1.000000
    2        2.393537      4.467614   1.000000   1.000000
    3        4.092577      6.195659   1.000000  -0.010099
    4        4.092705      6.195857   1.000000  -0.010068
    5        4.823819      7.164528   1.000000  -0.000000
    6        7.014955      8.893627  -0.000000  -0.000000
    7       20.993552     21.698631   0.000000   0.000000
    8       20.993552     21.698663   0.000000   0.000000
    9       22.665038     23.308051   0.000000   0.000000
   10       24.743062     25.267214   0.000000   0.000000
   11       38.193469     38.916561   0.000000   0.000000
   12       40.527993     41.067374   0.000000   0.000000
 
  0.3157895E+00 -0.3157895E+00  0.3157895E+00  0.1000000E-01
    1        1.629557      2.851524   1.000000   1.000000
    2        2.102086      4.112946   1.000000   1.000000
    3        4.320614      6.449995   1.000000  -0.000030
    4        4.320749      6.450207   1.000000  -0.000030
    5        5.010822      7.377724   1.000000  -0.000000
    6        7.937136      9.494639  -0.000000  -0.000000
    7       19.914345     20.591446   0.000000   0.000000
    8       19.914357     20.591498   0.000000   0.000000
    9       22.337081     23.048036   0.000000   0.000000
   10       24.338700     24.908223   0.000000   0.000000
   11       35.901026     36.666316   0.000000   0.000000
   12       41.076231     41.579442   0.000000   0.000000
 
  0.3421053E+00 -0.3421053E+00  0.3421053E+00  0.1000000E-01
    1        1.595524      3.028891   1.000000   1.000000
    2        1.831627      3.786871   1.000000   1.000000
    3        4.571298      6.738319   1.000000  -0.000000
    4        4.571447      6.738556   1.000000  -0.000000
    5        5.185882      7.577645   1.000046  -0.000000
    6        9.032967     10.304617  -0.000000  -0.000000
    7       18.909112     19.545616   0.000000   0.000000
    8       18.909138     19.545686   0.000000   0.000000
    9       22.059258     22.832394   0.000000   0.000000
   10       24.034768     24.648913   0.000000   0.000000
   11       33.717084     34.528004   0.000000   0.000000
   12       41.691415     42.156232   0.000000   0.000000
 
  0.3684211E+00 -0.3684211E+00  0.3684211E+00  0.1000000E-01
    1        1.488743      3.073664   1.000000   1.000000
    2        1.591850      3.499032   1.000000   1.000000
    3        4.839003      7.054748   1.000000  -0.000000
    4        4.839162      7.055005   1.000000  -0.000000
    5        5.343857      7.758342   1.002357  -0.000000
    6       10.250986     11.287309  -0.000000   0.000000
    7       17.997721     18.581463   0.000000   0.000000
    8       17.997762     18.581560   0.000000   0.000000
    9       21.845394     22.670042   0.000000   0.000000
   10       23.755136     24.411869   0.000000   0.000000
   11       31.634771     32.509120   0.000000   0.000000
   12       42.362203     42.788408   0.000000   0.000000
 
  0.3947368E+00 -0.3947368E+00  0.3947368E+00  0.1000000E-01
    1        1.351430      3.034407   1.000000   1.000000
    2        1.387275      3.254998   1.000000   1.000000
    3        5.103837      7.379591   1.000003  -0.000000
    4        5.104013      7.379879   1.000003  -0.000000
    5        5.480101      7.914403   1.020663  -0.000000
    6       11.548793     12.393998   0.000000   0.000000
    7       17.196084     17.716424   0.000000   0.000000
    8       17.196138     17.716545   0.000000   0.000000
    9       21.676888     22.544346   0.000000   0.000000
   10       23.439499     24.133511   0.000000   0.000000
   11       29.757569     30.710148   0.000000   0.000000
   12       43.069127     43.456842   0.000000   0.000000
 
  0.4210526E+00 -0.4210526E+00  0.4210526E+00  0.1000000E-01
    1        1.216041      2.957960   1.000000   1.000000
    2        1.223244      3.060028   1.000000   1.000000
    3        5.351270      7.692893   1.002737  -0.000000
    4        5.351458      7.693208   1.002747  -0.000000
    5        5.590576      8.041096   1.032637  -0.000000
    6       12.878632     13.559878   0.000000   0.000000
    7       16.531109     16.982113   0.000000   0.000000
    8       16.531177     16.982265   0.000000   0.000000
    9       21.553077     22.453684   0.000000   0.000000
   10       23.016750     23.745782   0.000000   0.000000
   11       28.200945     29.239698   0.000000   0.000000
   12       43.774851     44.125028   0.000000   0.000000
 
  0.4473684E+00 -0.4473684E+00  0.4473684E+00  0.1000000E-01
    1        1.103367      2.879427   1.000000   1.000000
    2        1.104192      2.918011   1.000000   1.000000
    3        5.555155      7.960741   1.035064  -0.000000
    4        5.555353      7.961082   1.035078  -0.000000
    5        5.671950      8.134500   0.957473  -0.000000
    6       14.149101     14.677310   0.000000   0.000000
    7       16.027274     16.411641   0.000000   0.000000
    8       16.027355     16.411821   0.000000   0.000000
    9       21.467673     22.391987   0.000000   0.000000
   10       22.407826     23.196582   0.000000   0.000000
   11       27.094413     28.205218   0.000000   0.000000
   12       44.413246     44.728762   0.000000   0.000000
 
  0.4736842E+00 -0.4736842E+00  0.4736842E+00  0.1000000E-01
    1        1.030363      2.823064   1.000000   1.000000
    2        1.031165      2.831716   1.000000   1.000000
    3        5.690721      8.144747   0.919715  -0.000000
    4        5.690927      8.145107   0.919252  -0.000000
    5        5.721767      8.191721   0.837870  -0.000000
    6       15.175246     15.561404   0.000000   0.000000
    7       15.711054     16.045302   0.000000   0.000000
    8       15.711144     16.045503   0.000000   0.000000
    9       21.417649     22.356194   0.000000   0.000000
   10       21.729755     22.614210   0.000000   0.000000
   11       26.486894     27.634825   0.000000   0.000000
   12       44.880114     45.169104   0.000000   0.000000
 
  0.5000000E+00 -0.5000000E+00  0.5000000E+00  0.1000000E-01
    1        1.005852      2.802773   1.000000   1.000000
    2        1.005852      2.802773   1.000000   1.000000
    3        5.738457      8.210829   0.784318  -0.000000
    4        5.738457      8.210829   0.784318  -0.000000
    5        5.738770      8.211383   0.783253  -0.000000
    6       15.602973     15.918243   0.000000   0.000000
    7       15.603111     15.918558   0.000000   0.000000
    8       15.603111     15.918558   0.000000   0.000000
    9       21.401180     22.344470   0.000000   0.000000
   10       21.401180     22.344470   0.000000   0.000000
   11       26.302396     27.459756   0.000000   0.000000
   12       45.055416     45.333923   0.000000   0.000000
 
  0.5000000E+00 -0.5000000E+00  0.5000000E+00  0.1000000E-01
    1        1.005852      2.802773   1.000000   1.000000
    2        1.005852      2.802773   1.000000   1.000000
    3        5.738457      8.210829   0.784318  -0.000000
    4        5.738457      8.210829   0.784318  -0.000000
    5        5.738770      8.211383   0.783253  -0.000000
    6       15.602973     15.918243   0.000000   0.000000
    7       15.603111     15.918558   0.000000   0.000000
    8       15.603111     15.918558   0.000000   0.000000
    9       21.401180     22.344470   0.000000   0.000000
   10       21.401180     22.344470   0.000000   0.000000
   11       26.302396     27.459756   0.000000   0.000000
   12       45.055425     45.333926   0.000000   0.000000
 
  0.4736842E+00 -0.4736842E+00  0.5000000E+00  0.1000000E-01
    1        1.018201      2.814140   1.000000   1.000000
    2        1.018498      2.816156   1.000000   1.000000
    3        5.704273      8.165854   0.886943  -0.000000
    4        5.714440      8.177480   0.859335  -0.000000
    5        5.740452      8.213230   0.777507  -0.000000
    6       15.492593     15.834425   0.000000   0.000000
    7       15.541555     15.879406   0.000000   0.000000
    8       15.657209     15.982175   0.000000   0.000000
    9       21.451682     22.384779   0.000000   0.000000
   10       21.538094     22.455440   0.000000   0.000000
   11       26.391987     27.545094   0.000000   0.000000
   12       44.963774     45.247826   0.000000   0.000000
 
  0.4473684E+00 -0.4473684E+00  0.5000000E+00  0.1000000E-01
    1        1.054627      2.848288   1.000000   1.000000
    2        1.056469      2.855490   1.000000   1.000000
    3        5.604469      8.035850   1.028018  -0.000000
    4        5.643172      8.078912   0.998934  -0.000000
    5        5.745767      8.219273   0.758961  -0.000000
    6       15.187500     15.597440   0.000000   0.000000
    7       15.370953     15.770852   0.000000   0.000000
    8       15.817081     16.168636   0.000000   0.000000
    9       21.587581     22.494437   0.000000   0.000000
   10       21.922732     22.773659   0.000000   0.000000
   11       26.661218     27.801607   0.000000   0.000000
   12       44.677247     44.978905   0.000000   0.000000
 
  0.4210526E+00 -0.4210526E+00  0.5000000E+00  0.1000000E-01
    1        1.113179      2.905249   1.000000   1.000000
    2        1.119752      2.918201   1.000000   1.000000
    3        5.446386      7.833571   1.013637  -0.000000
    4        5.527952      7.921308   1.031280  -0.000000
    5        5.754477      8.229177   0.727380  -0.000000
    6       14.744054     15.242027   0.000000   0.000000
    7       15.125215     15.615112   0.000000   0.000000
    8       16.075634     16.465442   0.000000   0.000000
    9       21.773112     22.646422   0.000000   0.000000
   10       22.499289     23.265023   0.000000   0.000000
   11       27.109009     28.228808   0.000000   0.000000
   12       44.175809     44.507038   0.000000   0.000000
 
  0.3947368E+00 -0.3947368E+00  0.5000000E+00  0.1000000E-01
    1        1.190452      2.985099   1.000000   1.000000
    2        1.208349      2.999720   1.000000   1.000000
    3        5.240534      7.575866   1.000210  -0.000000
    4        5.374538      7.715108   1.004279  -0.000000
    5        5.766353      8.242682   0.682191  -0.000000
    6       14.214934     14.805081   0.000000   0.000000
    7       14.841912     15.437847   0.000000   0.000000
    8       16.422914     16.856414   0.000000   0.000000
    9       21.973311     22.812032   0.000000   0.000000
   10       23.215898     23.893486   0.000000   0.000000
   11       27.727468     28.820627   0.000000   0.000000
   12       43.461340     43.829513   0.000000   0.000000
 
  0.3684211E+00 -0.3684211E+00  0.5000000E+00  0.1000000E-01
    1        1.281268      3.087935   1.000000   1.000000
    2        1.322261      3.092981   1.000000   1.000000
    3        4.998768      7.279975   1.000000  -0.000000
    4        5.191511      7.475286   1.000054  -0.000000
    5        5.781086      8.259438   0.623337  -0.000000
    6       13.636845     14.315949   0.000000   0.000000
    7       14.551650     15.260413   0.000000   0.000000
    8       16.847839     17.325241   0.000000   0.000000
    9       22.166603     22.971183   0.000000   0.000000
   10       24.036847     24.630738   0.000000   0.000000
   11       28.499390     29.562629   0.000000   0.000000
   12       42.571548     42.976626   0.000000   0.000000
 
  0.3421053E+00 -0.3421053E+00  0.5000000E+00  0.1000000E-01
    1        1.378517      3.187890   1.000000   1.000000
    2        1.461592      3.213970   1.000000   1.000000
    3        4.732744      6.961255   1.000000  -0.000000
    4        4.993814      7.223733   1.000000  -0.000000
    5        5.798296      8.279011   0.551900  -0.000000
    6       13.033220     13.795688   0.000000   0.000000
    7       14.275451     15.097297   0.000000   0.000000
    8       17.339615     17.857618   0.000000   0.000000
    9       22.350956     23.119390   0.000000   0.000000
   10       24.941679     25.458389   0.000000   0.000000
   11       29.400905     30.433464   0.000000   0.000000
   12       41.561710     41.998738   0.000000   0.000000
 
  0.3157895E+00 -0.3157895E+00  0.5000000E+00  0.1000000E-01
    1        1.471766      3.270471   1.000000   1.000000
    2        1.625960      3.362934   1.000000   1.000000
    3        4.453210      6.632585   1.000000  -0.000000
    4        4.789422      6.978532   1.000000  -0.000000
    5        5.817523      8.300881   0.470673  -0.000000
    6       12.417310     13.257047   0.000000   0.000000
    7       14.025237     14.955462   0.000000   0.000000
    8       17.888527     18.441918   0.000000   0.000000
    9       22.514707     23.244836   0.000000   0.000000
   10       25.914755     26.362115   0.000000   0.000000
   11       30.402164     31.404446   0.000000   0.000000
   12       40.481118     40.944449   0.000000   0.000000
 
  0.2894737E+00 -0.2894737E+00  0.5000000E+00  0.1000000E-01
    1        1.548808      3.323953   1.000000   1.000000
    2        1.815456      3.535036   1.000000   1.000000
    3        4.169525      6.304333   1.000000  -0.001330
    4        4.600653      6.769105   1.000000  -0.000000
    5        5.838262      8.324471   0.384134  -0.000000
    6       11.798567     12.709890   0.000000   0.000000
    7       13.806869     14.837646   0.000000   0.000000
    8       18.486283     19.069095   0.000000   0.000000
    9       22.668852     23.355639   0.000000   0.000000
   10       26.950265     27.335350   0.000000   0.000000
   11       31.471160     32.442962   0.000000   0.000000
   12       39.365472     39.850157   0.000000   0.000000
 
  0.2631579E+00 -0.2631579E+00  0.5000000E+00  0.1000000E-01
    1        1.595466      3.331249   1.000000   1.000000
    2        2.031339      3.730979   1.000000   1.000000
    3        3.892171      5.986392   1.000000  -0.007594
    4        4.447046      6.620376   1.000000  -0.000000
    5        5.862788      8.351498   0.287241  -0.000000
    6       11.186322     12.163900  -0.000000   0.000000
    7       13.621725     14.743270   0.000000   0.000000
    8       19.129207     19.735620   0.000000   0.000000
    9       22.818491     23.455607   0.000000   0.000000
   10       28.057031     28.383717   0.000000   0.000000
   11       32.567164     33.505064   0.000000   0.000000
   12       38.267470     38.764360   0.000000   0.000000
 
  0.2368421E+00 -0.2368421E+00  0.5000000E+00  0.1000000E-01
    1        1.599383      3.281393   1.000000   1.000000
    2        2.270238      3.948840   1.000000   1.000000
    3        3.622329      5.681806   1.000000   0.938745
    4        4.345097      6.548467   1.000000  -0.000001
    5        5.884363      8.376179   0.210128  -0.000000
    6       10.577210     11.616744  -0.000000   0.000000
    7       13.468523     14.670068   0.000000   0.000000
    8       19.805276     20.429370   0.000000   0.000000
    9       22.966628     23.547596   0.000000   0.000000
   10       29.204468     29.481702   0.000000   0.000000
   11       33.625775     34.518381   0.000000   0.000000
   12       37.141717     37.654585   0.000000   0.000000
 
  0.2105263E+00 -0.2105263E+00  0.5000000E+00  0.1000000E-01
    1        1.554955      3.175663   1.000000   1.000000
    2        2.531026      4.187739   1.000000   1.000000
    3        3.363642      5.394225   1.000000   1.006083
    4        4.299484      6.552404   1.000000  -0.000001
    5        5.905446      8.400323   0.144347  -0.000000
    6        9.975637     11.072801  -0.000000  -0.000000
    7       13.341599     14.612379   0.000000   0.000000
    8       20.503516     21.141409   0.000000   0.000000
    9       23.110968     23.629909   0.000000   0.000000
   10       30.383882     30.620615   0.000000   0.000000
   11       34.513990     35.335719   0.000000   0.000000
   12       36.004913     36.537261   0.000000   0.000000
 
  0.1842105E+00 -0.1842105E+00  0.5000000E+00  0.1000000E-01
    1        1.468930      3.028738   1.000000   1.000000
    2        2.817339      4.449556   1.000000   1.000000
    3        3.132936      5.137014   1.000000   1.000010
    4        4.314210      6.624972   1.000000  -0.000000
    5        5.929229      8.426614   0.083056  -0.000000
    6        9.390191     10.541222  -0.000000  -0.000000
    7       13.243841     14.572978   0.000000   0.000000
    8       21.239276     21.884589   0.000000   0.000000
    9       23.265037     23.714713   0.000000   0.000000
   10       31.637191     31.835650   0.000000   0.000000
   11       34.945917     35.485823   0.000000   0.000000
   12       35.034394     35.746959   0.000000   0.000000
 
  0.1578947E+00 -0.1578947E+00  0.5000000E+00  0.1000000E-01
    1        1.353523      2.859446   1.000000   1.000000
    2        2.922914      4.731871   1.000000   1.000000
    3        3.125497      4.905369   1.000000   1.000000
    4        4.371701      6.741569   1.000000  -0.000000
    5        5.948123      8.448290   0.044501  -0.000000
    6        8.819444     10.021334  -0.000000  -0.000000
    7       13.166860     14.544658   0.000000   0.000000
    8       21.992305     22.641983   0.000000   0.000000
    9       23.417744     23.794218   0.000000   0.000000
   10       32.934538     33.099868   0.000000   0.000000
   11       33.876364     34.429655   0.000000   0.000000
   12       35.012116     35.635511   0.000000   0.000000
 
  0.1315789E+00 -0.1315789E+00  0.5000000E+00  0.1000000E-01
    1        1.225617      2.687287   1.000000   1.000000
    2        2.737295      4.702797   1.000000   1.000000
    3        3.449758      5.030908   1.000000   1.000000
    4        4.454342      6.879830   1.000000  -0.000000
    5        5.963455      8.466662   0.019648  -0.000000
    6        8.264353      9.512755  -0.000000  -0.000000
    7       13.105005     14.522318   0.000000   0.000000
    8       22.752230     23.404227   0.000000   0.000000
    9       23.563402     23.865399   0.000000   0.000000
   10       32.817660     33.387560   0.000000   0.000000
   11       34.246960     34.388960   0.000000   0.000000
   12       34.613285     35.206660   0.000000   0.000000
 
  0.1052632E+00 -0.1052632E+00  0.5000000E+00  0.1000000E-01
    1        1.102915      2.529174   1.000000   1.000000
    2        2.585450      4.536175   1.000000   1.000000
    3        3.796509      5.347816   1.000000   1.002554
    4        4.550023      7.024339   1.000000  -0.000000
    5        5.978257      8.483630   0.000782  -0.000000
    6        7.736255      9.031063  -0.000000  -0.000000
    7       13.063280     14.511302   0.000000   0.000000
    8       23.528011     23.937098   0.000000   0.000000
    9       23.709981     24.178401   0.000000   0.000000
   10       31.836679     32.416398   0.000000   0.000000
   11       34.111127     34.707056   0.000000   0.000000
   12       35.624510     35.741265   0.000000   0.000000
 
  0.7894737E-01 -0.7894737E-01  0.5000000E+00  0.1000000E-01
    1        0.996100      2.395746   1.000000   1.000000
    2        2.463775      4.403886   1.000000   1.000000
    3        4.151888      5.672528   1.000000   0.956440
    4        4.631026      7.147661   1.000000  -0.000000
    5        5.989892      8.497049  -0.010790  -0.000000
    6        7.235450      8.573418  -0.000000  -0.000000
    7       13.030141     14.501867   0.000000   0.000000
    8       23.837384     23.997058   0.000000   0.000000
    9       24.288489     24.935410   0.000000   0.000000
   10       30.895493     31.488477   0.000000   0.000000
   11       33.632275     34.245187   0.000000   0.000000
   12       37.014687     37.111656   0.000000   0.000000
 
  0.5263158E-01 -0.5263158E-01  0.5000000E+00  0.1000000E-01
    1        0.914342      2.295475   1.000000   1.000000
    2        2.376216      4.308686   1.000000   1.000000
    3        4.503215      5.990925   1.000000  -0.011688
    4        4.698430      7.246513   1.000000  -0.000000
    5        5.998476      8.159655  -0.017648  -0.000000
    6        6.779984      8.506946  -0.000000  -0.000000
    7       13.009720     14.497815   0.000000   0.000000
    8       23.940837     24.045268   0.000000   0.000000
    9       25.002439     25.643819   0.000000   0.000000
   10       30.057239     30.661547   0.000000   0.000000
   11       33.253744     33.886367   0.000000   0.000000
   12       38.372967     38.453851   0.000000   0.000000
 
  0.2631579E-01 -0.2631579E-01  0.5000000E+00  0.1000000E-01
    1        0.864126      2.233726   1.000000   1.000000
    2        2.323279      4.251200   1.000000   1.000000
    3        4.741852      6.261851   1.000000  -0.003207
    4        4.809057      7.309555   1.000000  -0.000000
    5        6.003743      7.833358  -0.021202  -0.000000
    6        6.413588      8.513016  -0.000086  -0.000000
    7       13.003909     14.501362   0.000000   0.000000
    8       24.008455     24.076369   0.000000   0.000000
    9       25.576292     26.211625   0.000000   0.000000
   10       29.408829     30.022565   0.000000   0.000000
   11       33.025858     33.670316   0.000000   0.000000
   12       39.552973     39.621412   0.000000   0.000000
 
  0.0000000E+00  0.0000000E+00  0.5000000E+00  0.1000000E-01
    1        0.846677      2.212697   1.000000   1.000000
    2        2.305573      4.231983   1.000000   1.000000