       N       E                     dE             d eps       ncg     rms          rms(c)
DAV:   1     0.114463908806E+02    0.11446E+02   -0.26614E+03  5352   0.484E+02
DAV:   2    -0.877801650497E+01   -0.20224E+02   -0.17907E+02  5088   0.943E+01
DAV:   3    -0.914625798879E+01   -0.36824E+00   -0.36432E+00  5948   0.147E+01
DAV:   4    -0.914734196699E+01   -0.10840E-02   -0.10839E-02  5524   0.724E-01
DAV:   5    -0.914734794865E+01   -0.59817E-05   -0.59813E-05  5068   0.540E-02
DAV:   6    -0.914734809032E+01   -0.14168E-06   -0.14188E-06  4036   0.840E-03
   1 F= -.91473481E+01 E0= -.91475284E+01  d E =0.540890E-03  mag=     2.3256
