 vasp.5.4.4.18Apr17-6-g9f103f2a35 (build Jul 01 2019 03:25:34) complex          
  
 executed on             LinuxIFC date 2020.07.08  18:55:24
 running on    4 total cores
 distrk:  each k-point on    4 cores,    1 groups
 distr:  one band on NCORES_PER_BAND=   1 cores,    4 groups


--------------------------------------------------------------------------------------------------------


 INCAR:
 POTCAR:    PAW_PBE Fe 06Sep2000                  
 POTCAR:    PAW_PBE Fe 06Sep2000                  
   VRHFIN =Fe:  d7 s1                                                           
   LEXCH  = PE                                                                  
   EATOM  =   594.3153 eV,   43.6809 Ry                                         
                                                                                
   TITEL  = PAW_PBE Fe 06Sep2000                                                
   LULTRA =        F    use ultrasoft PP ?                                      
   IUNSCR =        1    unscreen: 0-lin 1-nonlin 2-no                           
   RPACOR =    2.000    partial core radius                                     
   POMASS =   55.847; ZVAL   =    8.000    mass and valenz                      
   RCORE  =    2.300    outmost cutoff radius                                   
   RWIGS  =    2.460; RWIGS  =    1.302    wigner-seitz radius (au A)           
   ENMAX  =  267.882; ENMIN  =  200.911 eV                                      
   RCLOC  =    1.701    cutoff for local pot                                    
   LCOR   =        T    correct aug charges                                     
   LPAW   =        T    paw PP                                                  
   EAUG   =  511.368                                                            
   DEXC   =    0.000                                                            
   RMAX   =    2.356    core radius for proj-oper                               
   RAUG   =    1.300    factor for augmentation sphere                          
   RDEP   =    2.442    radius for radial grids                                 
   RDEPT  =    1.890    core radius for aug-charge                              
                                                                                
   Atomic configuration                                                         
    9 entries                                                                   
     n  l   j            E        occ.                                          
     1  0  0.50     -6993.8440   2.0000                                         
     2  0  0.50      -814.6047   2.0000                                         
     2  1  1.50      -693.3689   6.0000                                         
     3  0  0.50       -89.4732   2.0000                                         
     3  1  1.50       -55.6373   6.0000                                         
     3  2  2.50        -3.8151   7.0000                                         
     4  0  0.50        -4.2551   1.0000                                         
     4  1  1.50        -3.4015   0.0000                                         
     4  3  2.50        -1.3606   0.0000                                         
   Description                                                                  
     l       E           TYP  RCUT    TYP  RCUT                                 
     2     -3.8151135     23  2.300                                             
     2     -5.1756961     23  2.300                                             
     0     -4.2550963     23  2.300                                             
     0      7.2035603     23  2.300                                             
     1     -2.7211652     23  2.300                                             
     1     18.4316424     23  2.300                                             
  local pseudopotential read in
  partial core-charges read in
  partial kinetic energy density read in
  atomic valenz-charges read in
  non local Contribution for L=           2  read in
    real space projection operators read in
  non local Contribution for L=           2  read in
    real space projection operators read in
  non local Contribution for L=           0  read in
    real space projection operators read in
  non local Contribution for L=           0  read in
    real space projection operators read in
  non local Contribution for L=           1  read in
    real space projection operators read in
  non local Contribution for L=           1  read in
    real space projection operators read in
    PAW grid and wavefunctions read in
 
   number of l-projection  operators is LMAX  =           6
   number of lm-projection operators is LMMAX =          18
 
  PAW_PBE Fe 06Sep2000                  :
 energy of atom  1       EATOM= -594.3153
 kinetic energy error for atom=    0.0345 (will be added to EATOM!!)
 
 
 POSCAR: Fe bulk bcc                             
  positions in direct lattice
  No initial velocities read in
 exchange correlation table for  LEXCH =        8
   RHO(1)=    0.500       N(1)  =     2000
   RHO(2)=  100.500       N(2)  =     4000
 


--------------------------------------------------------------------------------------------------------


 ion  position               nearest neighbor table
   1  0.000  0.000  0.000-
 
  LATTYP: Found a body centered cubic cell.
 ALAT       =     2.8399800000
  
  Lattice vectors:
  
 A1 = (  -1.4199900000,   1.4199900000,   1.4199900000)
 A2 = (   1.4199900000,  -1.4199900000,   1.4199900000)
 A3 = (   1.4199900000,   1.4199900000,  -1.4199900000)


Analysis of symmetry for initial positions (statically):
=====================================================================
 Subroutine PRICEL returns:
 Original cell was already a primitive cell.
 

 Routine SETGRP: Setting up the symmetry group for a 
 body centered cubic supercell.


 Subroutine GETGRP returns: Found 48 space group operations
 (whereof 48 operations were pure point group operations)
 out of a pool of 48 trial point group operations.


The static configuration has the point symmetry O_h .


Analysis of symmetry for dynamics (positions and initial velocities):
=====================================================================
 Subroutine PRICEL returns:
 Original cell was already a primitive cell.
 

 Routine SETGRP: Setting up the symmetry group for a 
 body centered cubic supercell.


 Subroutine GETGRP returns: Found 48 space group operations
 (whereof 48 operations were pure point group operations)
 out of a pool of 48 trial point group operations.


The dynamic configuration has the point symmetry O_h .


Analysis of structural, dynamic, and magnetic symmetry:
=====================================================================
 Subroutine PRICEL returns:
 Original cell was already a primitive cell.
 

 Routine SETGRP: Setting up the symmetry group for a 
 body centered cubic supercell.


 Subroutine GETGRP returns: Found 48 space group operations
 (whereof 48 operations were pure point group operations)
 out of a pool of 48 trial point group operations.


The magnetic configuration has the point symmetry O_h .


 Subroutine INISYM returns: Found 48 space group operations
 (whereof 48 operations are pure point group operations),
 and found     1 'primitive' translations

 
 
 KPOINTS: K-points along high symmetry lines for b
  interpolating k-points between supplied coordinates
  k-points in cartesian coordinates
Space group operators:
 irot       det(A)        alpha          n_x          n_y          n_z        tau_x        tau_y        tau_z
    1     1.000000     0.000000     1.000000     0.000000     0.000000     0.000000     0.000000     0.000000
    2    -1.000000     0.000000     1.000000     0.000000     0.000000     0.000000     0.000000     0.000000
    3     1.000000   120.000000    -0.577350    -0.577350    -0.577350     0.000000     0.000000     0.000000
    4    -1.000000   120.000000    -0.577350    -0.577350    -0.577350     0.000000     0.000000     0.000000
    5     1.000000   120.000000     0.577350     0.577350     0.577350     0.000000     0.000000     0.000000
    6    -1.000000   120.000000     0.577350     0.577350     0.577350     0.000000     0.000000     0.000000
    7     1.000000    90.000000     0.000000     0.000000    -1.000000     0.000000     0.000000     0.000000
    8    -1.000000    90.000000     0.000000     0.000000    -1.000000     0.000000     0.000000     0.000000
    9     1.000000   180.000000     0.000000     0.707107     0.707107     0.000000     0.000000     0.000000
   10    -1.000000   180.000000     0.000000     0.707107     0.707107     0.000000     0.000000     0.000000
   11     1.000000    90.000000     0.000000     1.000000     0.000000     0.000000     0.000000     0.000000
   12    -1.000000    90.000000     0.000000     1.000000     0.000000     0.000000     0.000000     0.000000
   13     1.000000   180.000000     0.000000     0.000000     1.000000     0.000000     0.000000     0.000000
   14    -1.000000   180.000000     0.000000     0.000000     1.000000     0.000000     0.000000     0.000000
   15     1.000000   120.000000    -0.577350     0.577350     0.577350     0.000000     0.000000     0.000000
   16    -1.000000   120.000000    -0.577350     0.577350     0.577350     0.000000     0.000000     0.000000
   17     1.000000   120.000000    -0.577350     0.577350    -0.577350     0.000000     0.000000     0.000000
   18    -1.000000   120.000000    -0.577350     0.577350    -0.577350     0.000000     0.000000     0.000000
   19     1.000000    90.000000     0.000000     0.000000     1.000000     0.000000     0.000000     0.000000
   20    -1.000000    90.000000     0.000000     0.000000     1.000000     0.000000     0.000000     0.000000
   21     1.000000    90.000000    -1.000000     0.000000     0.000000     0.000000     0.000000     0.000000
   22    -1.000000    90.000000    -1.000000     0.000000     0.000000     0.000000     0.000000     0.000000
   23     1.000000   180.000000     0.707107     0.000000     0.707107     0.000000     0.000000     0.000000
   24    -1.000000   180.000000     0.707107     0.000000     0.707107     0.000000     0.000000     0.000000
   25     1.000000   120.000000     0.577350    -0.577350     0.577350     0.000000     0.000000     0.000000
   26    -1.000000   120.000000     0.577350    -0.577350     0.577350     0.000000     0.000000     0.000000
   27     1.000000   120.000000    -0.577350    -0.577350     0.577350     0.000000     0.000000     0.000000
   28    -1.000000   120.000000    -0.577350    -0.577350     0.577350     0.000000     0.000000     0.000000
   29     1.000000   180.000000     1.000000     0.000000     0.000000     0.000000     0.000000     0.000000
   30    -1.000000   180.000000     1.000000     0.000000     0.000000     0.000000     0.000000     0.000000
   31     1.000000    90.000000     0.000000    -1.000000     0.000000     0.000000     0.000000     0.000000
   32    -1.000000    90.000000     0.000000    -1.000000     0.000000     0.000000     0.000000     0.000000
   33     1.000000   180.000000     0.707107     0.707107     0.000000     0.000000     0.000000     0.000000
   34    -1.000000   180.000000     0.707107     0.707107     0.000000     0.000000     0.000000     0.000000
   35     1.000000    90.000000     1.000000     0.000000     0.000000     0.000000     0.000000     0.000000
   36    -1.000000    90.000000     1.000000     0.000000     0.000000     0.000000     0.000000     0.000000
   37     1.000000   120.000000     0.577350    -0.577350    -0.577350     0.000000     0.000000     0.000000
   38    -1.000000   120.000000     0.577350    -0.577350    -0.577350     0.000000     0.000000     0.000000
   39     1.000000   180.000000     0.000000     1.000000     0.000000     0.000000     0.000000     0.000000
   40    -1.000000   180.000000     0.000000     1.000000     0.000000     0.000000     0.000000     0.000000
   41     1.000000   120.000000     0.577350     0.577350    -0.577350     0.000000     0.000000     0.000000
   42    -1.000000   120.000000     0.577350     0.577350    -0.577350     0.000000     0.000000     0.000000
   43     1.000000   180.000000     0.000000    -0.707107     0.707107     0.000000     0.000000     0.000000
   44    -1.000000   180.000000     0.000000    -0.707107     0.707107     0.000000     0.000000     0.000000
   45     1.000000   180.000000     0.707107    -0.707107     0.000000     0.000000     0.000000     0.000000
   46    -1.000000   180.000000     0.707107    -0.707107     0.000000     0.000000     0.000000     0.000000
   47     1.000000   180.000000     0.707107     0.000000    -0.707107     0.000000     0.000000     0.000000
   48    -1.000000   180.000000     0.707107     0.000000    -0.707107     0.000000     0.000000     0.000000


--------------------------------------------------------------------------------------------------------




 Dimension of arrays:
   k-points           NKPTS =    100   k-points in BZ     NKDIM =    100   number of bands    NBANDS=     12
   number of dos      NEDOS =   3001   number of ions     NIONS =      1
   non local maximal  LDIM  =      6   non local SUM 2l+1 LMDIM =     18
   total plane-waves  NPLWV =   1000
   max r-space proj   IRMAX =      1   max aug-charges    IRDMAX=   3309
   dimension x,y,z NGX =    10 NGY =   10 NGZ =   10
   dimension x,y,z NGXF=    20 NGYF=   20 NGZF=   20
   support grid    NGXF=    20 NGYF=   20 NGZF=   20
   ions per type =               1
   NGX,Y,Z   is equivalent  to a cutoff of   6.76,  6.76,  6.76 a.u.
   NGXF,Y,Z  is equivalent  to a cutoff of  13.52, 13.52, 13.52 a.u.

 SYSTEM =  bcc Fe                                  
 POSCAR =  Fe bulk bcc                             

 Startparameter for this run:
   NWRITE =      2    write-flag & timer
   PREC   = normal    normal or accurate (medium, high low for compatibility)
   ISTART =      0    job   : 0-new  1-cont  2-samecut
   ICHARG =     11    charge: 1-file 2-atom 10-const
   ISPIN  =      2    spin polarized calculation?
   LNONCOLLINEAR =      F non collinear calculations
   LSORBIT =      F    spin-orbit coupling
   INIWAV =      1    electr: 0-lowe 1-rand  2-diag
   LASPH  =      F    aspherical Exc in radial PAW
   METAGGA=      F    non-selfconsistent MetaGGA calc.

 Electronic Relaxation 1
   ENCUT  =  268.0 eV  19.70 Ry    4.44 a.u.   3.28  3.28  3.28*2*pi/ulx,y,z
   ENINI  =  268.0     initial cutoff
   ENAUG  =  511.4 eV  augmentation charge cutoff
   NELM   =     60;   NELMIN=  2; NELMDL= -5     # of ELM steps 
   EDIFF  = 0.1E-03   stopping-criterion for ELM
   LREAL  =      F    real-space projection
   NLSPLINE    = F    spline interpolate recip. space projectors
   LCOMPAT=      F    compatible to vasp.4.4
   GGA_COMPAT  = T    GGA compatible to vasp.4.4-vasp.4.6
   LMAXPAW     = -100 max onsite density
   LMAXMIX     =    2 max onsite mixed and CHGCAR
   VOSKOWN=      0    Vosko Wilk Nusair interpolation
   ROPT   =    0.00000
 Ionic relaxation
   EDIFFG = 0.1E-02   stopping-criterion for IOM
   NSW    =      0    number of steps for IOM
   NBLOCK =      1;   KBLOCK =      1    inner block; outer block 
   IBRION =     -1    ionic relax: 0-MD 1-quasi-New 2-CG
   NFREE  =      0    steps in history (QN), initial steepest desc. (CG)
   ISIF   =      2    stress and relaxation
   IWAVPR =     10    prediction:  0-non 1-charg 2-wave 3-comb
   ISYM   =      2    0-nonsym 1-usesym 2-fastsym
   LCORR  =      T    Harris-Foulkes like correction to forces

   POTIM  = 0.5000    time-step for ionic-motion
   TEIN   =    0.0    initial temperature
   TEBEG  =    0.0;   TEEND  =   0.0 temperature during run
   SMASS  =  -3.00    Nose mass-parameter (am)
   estimated Nose-frequenzy (Omega)   =  0.10E-29 period in steps =****** mass=  -0.138E-27a.u.
   SCALEE = 1.0000    scale energy and forces
   NPACO  =    256;   APACO  = 16.0  distance and # of slots for P.C.
   PSTRESS=    0.0 pullay stress

  Mass of Ions in am
   POMASS =  55.85
  Ionic Valenz
   ZVAL   =   8.00
  Atomic Wigner-Seitz radii
   RWIGS  =   1.30
  virtual crystal weights 
   VCA    =   1.00
   NELECT =       8.0000    total number of electrons
   NUPDOWN=      -1.0000    fix difference up-down

 DOS related values:
   EMIN   =  10.00;   EMAX   =-10.00  energy-range for DOS
   EFERMI =   0.00
   ISMEAR =     1;   SIGMA  =   0.20  broadening in eV -4-tet -1-fermi 0-gaus

 Electronic relaxation 2 (details)
   IALGO  =     38    algorithm
   LDIAG  =      T    sub-space diagonalisation (order eigenvalues)
   LSUBROT=      F    optimize rotation matrix (better conditioning)
   TURBO    =      0    0=normal 1=particle mesh
   IRESTART =      0    0=no restart 2=restart with 2 vectors
   NREBOOT  =      0    no. of reboots
   NMIN     =      0    reboot dimension
   EREF     =   0.00    reference energy to select bands
   IMIX   =      4    mixing-type and parameters
     AMIX     =   0.40;   BMIX     =  1.00
     AMIX_MAG =   1.60;   BMIX_MAG =  1.00
     AMIN     =   0.10
     WC   =   100.;   INIMIX=   1;  MIXPRE=   1;  MAXMIX= -45

 Intra band minimization:
   WEIMIN = 0.0000     energy-eigenvalue tresh-hold
   EBREAK =  0.21E-05  absolut break condition
   DEPER  =   0.30     relativ break condition  

   TIME   =   0.40     timestep for ELM

  volume/ion in A,a.u.               =      11.45        77.29
  Fermi-wavevector in a.u.,A,eV,Ry     =   1.452556  2.744933 28.707189  2.109919
  Thomas-Fermi vector in A             =   2.569924
 
 Write flags
   LWAVE        =      T    write WAVECAR
   LDOWNSAMPLE  =      F    k-point downsampling of WAVECAR
   LCHARG       =      F    write CHGCAR
   LVTOT        =      F    write LOCPOT, total local potential
   LVHAR        =      F    write LOCPOT, Hartree potential only
   LELF         =      F    write electronic localiz. function (ELF)
   LORBIT       =      0    0 simple, 1 ext, 2 COOP (PROOUT), +10 PAW based schemes


 Dipole corrections
   LMONO  =      F    monopole corrections only (constant potential shift)
   LDIPOL =      F    correct potential (dipole corrections)
   IDIPOL =      0    1-x, 2-y, 3-z, 4-all directions 
   EPSILON=  1.0000000 bulk dielectric constant

 Exchange correlation treatment:
   GGA     =    --    GGA type
   LEXCH   =     8    internal setting for exchange type
   VOSKOWN=      0    Vosko Wilk Nusair interpolation
   LHFCALC =     F    Hartree Fock is set to
   LHFONE  =     F    Hartree Fock one center treatment
   AEXX    =    0.0000 exact exchange contribution

 Linear response parameters
   LEPSILON=     F    determine dielectric tensor
   LRPA    =     F    only Hartree local field effects (RPA)
   LNABLA  =     F    use nabla operator in PAW spheres
   LVEL    =     F    velocity operator in full k-point grid
   LINTERFAST=   F  fast interpolation
   KINTER  =     0    interpolate to denser k-point grid
   CSHIFT  =0.1000    complex shift for real part using Kramers Kronig
   OMEGAMAX=  -1.0    maximum frequency
   DEG_THRESHOLD= 0.2000000E-02 threshold for treating states as degnerate
   RTIME   =   -0.100 relaxation time in fs
  (WPLASMAI=    0.000 imaginary part of plasma frequency in eV, 0.658/RTIME)
   DFIELD  = 0.0000000 0.0000000 0.0000000 field for delta impulse in time
 
 Orbital magnetization related:
   ORBITALMAG=     F  switch on orbital magnetization
   LCHIMAG   =     F  perturbation theory with respect to B field
   DQ        =  0.001000  dq finite difference perturbation B field
   LLRAUG    =     F  two centre corrections for induced B field



--------------------------------------------------------------------------------------------------------


 Static calculation
 charge density and potential remain constant during run
 spin polarized calculation
 Variant of blocked Davidson
 Davidson routine will perform the subspace rotation
 perform sub-space diagonalisation
    after iterative eigenvector-optimisation
 no mixing
 using additional bands            8
 reciprocal scheme for non local part
 use partial core corrections
 calculate Harris-corrections to forces 
   (improved forces if not selfconsistent)
 use gradient corrections 
 WARNING: stress and forces are not correct
  (second derivative of E(xc) not defined)
 use of overlap-Matrix (Vanderbilt PP)
 Methfessel and Paxton  Order N= 1 SIGMA  =   0.20


--------------------------------------------------------------------------------------------------------


  energy-cutoff  :      268.00
  volume of cell :       11.45
      direct lattice vectors                 reciprocal lattice vectors
    -1.419990000  1.419990000  1.419990000     0.000000000  0.352115156  0.352115156
     1.419990000 -1.419990000  1.419990000     0.352115156  0.000000000  0.352115156
     1.419990000  1.419990000 -1.419990000     0.352115156  0.352115156  0.000000000

  length of vectors
     2.459494826  2.459494826  2.459494826     0.497966029  0.497966029  0.497966029


 
 k-points in units of 2pi/SCALE and weight: K-points along high symmetry lines for b
   0.00000000  0.00000000  0.00000000       0.010
   0.00000000  0.05263158  0.00000000       0.010
   0.00000000  0.10526316  0.00000000       0.010
   0.00000000  0.15789474  0.00000000       0.010
   0.00000000  0.21052632  0.00000000       0.010
   0.00000000  0.26315789  0.00000000       0.010
   0.00000000  0.31578947  0.00000000       0.010
   0.00000000  0.36842105  0.00000000       0.010
   0.00000000  0.42105263  0.00000000       0.010
   0.00000000  0.47368421  0.00000000       0.010
   0.00000000  0.52631579  0.00000000       0.010
   0.00000000  0.57894737  0.00000000       0.010
   0.00000000  0.63157895  0.00000000       0.010
   0.00000000  0.68421053  0.00000000       0.010
   0.00000000  0.73684211  0.00000000       0.010
   0.00000000  0.78947368  0.00000000       0.010
   0.00000000  0.84210526  0.00000000       0.010
   0.00000000  0.89473684  0.00000000       0.010
   0.00000000  0.94736842  0.00000000       0.010
   0.00000000  1.00000000  0.00000000       0.010
   0.00000000  1.00000000  0.00000000       0.010
   0.02631579  0.97368421  0.00000000       0.010
   0.05263158  0.94736842  0.00000000       0.010
   0.07894737  0.92105263  0.00000000       0.010
   0.10526316  0.89473684  0.00000000       0.010
   0.13157895  0.86842105  0.00000000       0.010
   0.15789474  0.84210526  0.00000000       0.010
   0.18421053  0.81578947  0.00000000       0.010
   0.21052632  0.78947368  0.00000000       0.010
   0.23684211  0.76315789  0.00000000       0.010
   0.26315789  0.73684211  0.00000000       0.010
   0.28947368  0.71052632  0.00000000       0.010
   0.31578947  0.68421053  0.00000000       0.010
   0.34210526  0.65789474  0.00000000       0.010
   0.36842105  0.63157895  0.00000000       0.010
   0.39473684  0.60526316  0.00000000       0.010
   0.42105263  0.57894737  0.00000000       0.010
   0.44736842  0.55263158  0.00000000       0.010
   0.47368421  0.52631579  0.00000000       0.010
   0.50000000  0.50000000  0.00000000       0.010
   0.50000000  0.50000000  0.00000000       0.010
   0.50000000  0.50000000  0.02631579       0.010
   0.50000000  0.50000000  0.05263158       0.010
   0.50000000  0.50000000  0.07894737       0.010
   0.50000000  0.50000000  0.10526316       0.010
   0.50000000  0.50000000  0.13157895       0.010
   0.50000000  0.50000000  0.15789474       0.010
   0.50000000  0.50000000  0.18421053       0.010
   0.50000000  0.50000000  0.21052632       0.010
   0.50000000  0.50000000  0.23684211       0.010
   0.50000000  0.50000000  0.26315789       0.010
   0.50000000  0.50000000  0.28947368       0.010
   0.50000000  0.50000000  0.31578947       0.010
   0.50000000  0.50000000  0.34210526       0.010
   0.50000000  0.50000000  0.36842105       0.010
   0.50000000  0.50000000  0.39473684       0.010
   0.50000000  0.50000000  0.42105263       0.010
   0.50000000  0.50000000  0.44736842       0.010
   0.50000000  0.50000000  0.47368421       0.010
   0.50000000  0.50000000  0.50000000       0.010
   0.50000000  0.50000000  0.50000000       0.010
   0.47368421  0.47368421  0.47368421       0.010
   0.44736842  0.44736842  0.44736842       0.010
   0.42105263  0.42105263  0.42105263       0.010
   0.39473684  0.39473684  0.39473684       0.010
   0.36842105  0.36842105  0.36842105       0.010
   0.34210526  0.34210526  0.34210526       0.010
   0.31578947  0.31578947  0.31578947       0.010
   0.28947368  0.28947368  0.28947368       0.010
   0.26315789  0.26315789  0.26315789       0.010
   0.23684211  0.23684211  0.23684211       0.010
   0.21052632  0.21052632  0.21052632       0.010
   0.18421053  0.18421053  0.18421053       0.010
   0.15789474  0.15789474  0.15789474       0.010
   0.13157895  0.13157895  0.13157895       0.010
   0.10526316  0.10526316  0.10526316       0.010
   0.07894737  0.07894737  0.07894737       0.010
   0.05263158  0.05263158  0.05263158       0.010
   0.02631579  0.02631579  0.02631579       0.010
   0.00000000  0.00000000  0.00000000       0.010
   0.00000000  0.00000000  0.00000000       0.010
   0.02631579  0.02631579  0.00000000       0.010
   0.05263158  0.05263158  0.00000000       0.010
   0.07894737  0.07894737  0.00000000       0.010
   0.10526316  0.10526316  0.00000000       0.010
   0.13157895  0.13157895  0.00000000       0.010
   0.15789474  0.15789474  0.00000000       0.010
   0.18421053  0.18421053  0.00000000       0.010
   0.21052632  0.21052632  0.00000000       0.010
   0.23684211  0.23684211  0.00000000       0.010
   0.26315789  0.26315789  0.00000000       0.010
   0.28947368  0.28947368  0.00000000       0.010
   0.31578947  0.31578947  0.00000000       0.010
   0.34210526  0.34210526  0.00000000       0.010
   0.36842105  0.36842105  0.00000000       0.010
   0.39473684  0.39473684  0.00000000       0.010
   0.42105263  0.42105263  0.00000000       0.010
   0.44736842  0.44736842  0.00000000       0.010
   0.47368421  0.47368421  0.00000000       0.010
   0.50000000  0.50000000  0.00000000       0.010
 
 k-points in reciprocal lattice and weights: K-points along high symmetry lines for b
   0.00000000  0.00000000  0.00000000       0.010
   0.02631579 -0.02631579  0.02631579       0.010
   0.05263158 -0.05263158  0.05263158       0.010
   0.07894737 -0.07894737  0.07894737       0.010
   0.10526316 -0.10526316  0.10526316       0.010
   0.13157895 -0.13157895  0.13157895       0.010
   0.15789474 -0.15789474  0.15789474       0.010
   0.18421053 -0.18421053  0.18421053       0.010
   0.21052632 -0.21052632  0.21052632       0.010
   0.23684211 -0.23684211  0.23684211       0.010
   0.26315789 -0.26315789  0.26315789       0.010
   0.28947368 -0.28947368  0.28947368       0.010
   0.31578947 -0.31578947  0.31578947       0.010
   0.34210526 -0.34210526  0.34210526       0.010
   0.36842105 -0.36842105  0.36842105       0.010
   0.39473684 -0.39473684  0.39473684       0.010
   0.42105263 -0.42105263  0.42105263       0.010
   0.44736842 -0.44736842  0.44736842       0.010
   0.47368421 -0.47368421  0.47368421       0.010
   0.50000000 -0.50000000  0.50000000       0.010
   0.50000000 -0.50000000  0.50000000       0.010
   0.47368421 -0.47368421  0.50000000       0.010
   0.44736842 -0.44736842  0.50000000       0.010
   0.42105263 -0.42105263  0.50000000       0.010
   0.39473684 -0.39473684  0.50000000       0.010
   0.36842105 -0.36842105  0.50000000       0.010
   0.34210526 -0.34210526  0.50000000       0.010
   0.31578947 -0.31578947  0.50000000       0.010
   0.28947368 -0.28947368  0.50000000       0.010
   0.26315789 -0.26315789  0.50000000       0.010
   0.23684211 -0.23684211  0.50000000       0.010
   0.21052632 -0.21052632  0.50000000       0.010
   0.18421053 -0.18421053  0.50000000       0.010
   0.15789474 -0.15789474  0.50000000       0.010
   0.13157895 -0.13157895  0.50000000       0.010
   0.10526316 -0.10526316  0.50000000       0.010
   0.07894737 -0.07894737  0.50000000       0.010
   0.05263158 -0.05263158  0.50000000       0.010
   0.02631579 -0.02631579  0.50000000       0.010
   0.00000000  0.00000000  0.50000000       0.010
   0.00000000  0.00000000  0.50000000       0.010
   0.01315789  0.01315789  0.48684211       0.010
   0.02631579  0.02631579  0.47368421       0.010
   0.03947368  0.03947368  0.46052632       0.010
   0.05263158  0.05263158  0.44736842       0.010
   0.06578947  0.06578947  0.43421053       0.010
   0.07894737  0.07894737  0.42105263       0.010
   0.09210526  0.09210526  0.40789474       0.010
   0.10526316  0.10526316  0.39473684       0.010
   0.11842105  0.11842105  0.38157895       0.010
   0.13157895  0.13157895  0.36842105       0.010
   0.14473684  0.14473684  0.35526316       0.010
   0.15789474  0.15789474  0.34210526       0.010
   0.17105263  0.17105263  0.32894737       0.010
   0.18421053  0.18421053  0.31578947       0.010
   0.19736842  0.19736842  0.30263158       0.010
   0.21052632  0.21052632  0.28947368       0.010
   0.22368421  0.22368421  0.27631579       0.010
   0.23684211  0.23684211  0.26315789       0.010
   0.25000000  0.25000000  0.25000000       0.010
   0.25000000  0.25000000  0.25000000       0.010
   0.23684211  0.23684211  0.23684211       0.010
   0.22368421  0.22368421  0.22368421       0.010
   0.21052632  0.21052632  0.21052632       0.010
   0.19736842  0.19736842  0.19736842       0.010
   0.18421053  0.18421053  0.18421053       0.010
   0.17105263  0.17105263  0.17105263       0.010
   0.15789474  0.15789474  0.15789474       0.010
   0.14473684  0.14473684  0.14473684       0.010
   0.13157895  0.13157895  0.13157895       0.010
   0.11842105  0.11842105  0.11842105       0.010
   0.10526316  0.10526316  0.10526316       0.010
   0.09210526  0.09210526  0.09210526       0.010
   0.07894737  0.07894737  0.07894737       0.010
   0.06578947  0.06578947  0.06578947       0.010
   0.05263158  0.05263158  0.05263158       0.010
   0.03947368  0.03947368  0.03947368       0.010
   0.02631579  0.02631579  0.02631579       0.010
   0.01315789  0.01315789  0.01315789       0.010
   0.00000000  0.00000000  0.00000000       0.010
   0.00000000  0.00000000  0.00000000       0.010
   0.00000000  0.00000000  0.02631579       0.010
   0.00000000  0.00000000  0.05263158       0.010
   0.00000000  0.00000000  0.07894737       0.010
   0.00000000  0.00000000  0.10526316       0.010
   0.00000000  0.00000000  0.13157895       0.010
   0.00000000  0.00000000  0.15789474       0.010
   0.00000000  0.00000000  0.18421053       0.010
   0.00000000  0.00000000  0.21052632       0.010
   0.00000000  0.00000000  0.23684211       0.010
   0.00000000  0.00000000  0.26315789       0.010
   0.00000000  0.00000000  0.28947368       0.010
   0.00000000  0.00000000  0.31578947       0.010
   0.00000000  0.00000000  0.34210526       0.010
   0.00000000  0.00000000  0.36842105       0.010
   0.00000000  0.00000000  0.39473684       0.010
   0.00000000  0.00000000  0.42105263       0.010
   0.00000000  0.00000000  0.44736842       0.010
   0.00000000  0.00000000  0.47368421       0.010
   0.00000000  0.00000000  0.50000000       0.010
 
 position of ions in fractional coordinates (direct lattice) 
   0.00000000  0.00000000  0.00000000
 
 position of ions in cartesian coordinates  (Angst):
   0.00000000  0.00000000  0.00000000
 


--------------------------------------------------------------------------------------------------------


 k-point  1 :   0.0000 0.0000 0.0000  plane waves:     135
 k-point  2 :   0.0263-0.0263 0.0263  plane waves:     135
 k-point  3 :   0.0526-0.0526 0.0526  plane waves:     119
 k-point  4 :   0.0789-0.0789 0.0789  plane waves:     119
 k-point  5 :   0.1053-0.1053 0.1053  plane waves:     112
 k-point  6 :   0.1316-0.1316 0.1316  plane waves:     112
 k-point  7 :   0.1579-0.1579 0.1579  plane waves:     112
 k-point  8 :   0.1842-0.1842 0.1842  plane waves:     112
 k-point  9 :   0.2105-0.2105 0.2105  plane waves:     112
 k-point 10 :   0.2368-0.2368 0.2368  plane waves:     112
 k-point 11 :   0.2632-0.2632 0.2632  plane waves:     112
 k-point 12 :   0.2895-0.2895 0.2895  plane waves:     112
 k-point 13 :   0.3158-0.3158 0.3158  plane waves:     112
 k-point 14 :   0.3421-0.3421 0.3421  plane waves:     112
 k-point 15 :   0.3684-0.3684 0.3684  plane waves:     112
 k-point 16 :   0.3947-0.3947 0.3947  plane waves:     116
 k-point 17 :   0.4211-0.4211 0.4211  plane waves:     116
 k-point 18 :   0.4474-0.4474 0.4474  plane waves:     116
 k-point 19 :   0.4737-0.4737 0.4737  plane waves:     116
 k-point 20 :   0.5000-0.5000 0.5000  plane waves:     116
 k-point 21 :   0.5000-0.5000 0.5000  plane waves:     116
 k-point 22 :   0.4737-0.4737 0.5000  plane waves:     116
 k-point 23 :   0.4474-0.4474 0.5000  plane waves:     116
 k-point 24 :   0.4211-0.4211 0.5000  plane waves:     116
 k-point 25 :   0.3947-0.3947 0.5000  plane waves:     116
 k-point 26 :   0.3684-0.3684 0.5000  plane waves:     116
 k-point 27 :   0.3421-0.3421 0.5000  plane waves:     114
 k-point 28 :   0.3158-0.3158 0.5000  plane waves:     114
 k-point 29 :   0.2895-0.2895 0.5000  plane waves:     114
 k-point 30 :   0.2632-0.2632 0.5000  plane waves:     110
 k-point 31 :   0.2368-0.2368 0.5000  plane waves:     110
 k-point 32 :   0.2105-0.2105 0.5000  plane waves:     116
 k-point 33 :   0.1842-0.1842 0.5000  plane waves:     112
 k-point 34 :   0.1579-0.1579 0.5000  plane waves:     112
 k-point 35 :   0.1316-0.1316 0.5000  plane waves:     118
 k-point 36 :   0.1053-0.1053 0.5000  plane waves:     114
 k-point 37 :   0.0789-0.0789 0.5000  plane waves:     116
 k-point 38 :   0.0526-0.0526 0.5000  plane waves:     116
 k-point 39 :   0.0263-0.0263 0.5000  plane waves:     114
 k-point 40 :   0.0000 0.0000 0.5000  plane waves:     114
 k-point 41 :   0.0000 0.0000 0.5000  plane waves:     114
 k-point 42 :   0.0132 0.0132 0.4868  plane waves:     114
 k-point 43 :   0.0263 0.0263 0.4737  plane waves:     114
 k-point 44 :   0.0395 0.0395 0.4605  plane waves:     114
 k-point 45 :   0.0526 0.0526 0.4474  plane waves:     114
 k-point 46 :   0.0658 0.0658 0.4342  plane waves:     114
 k-point 47 :   0.0789 0.0789 0.4211  plane waves:     112
 k-point 48 :   0.0921 0.0921 0.4079  plane waves:     112
 k-point 49 :   0.1053 0.1053 0.3947  plane waves:     116
 k-point 50 :   0.1184 0.1184 0.3816  plane waves:     116
 k-point 51 :   0.1316 0.1316 0.3684  plane waves:     116
 k-point 52 :   0.1447 0.1447 0.3553  plane waves:     118
 k-point 53 :   0.1579 0.1579 0.3421  plane waves:     118
 k-point 54 :   0.1711 0.1711 0.3289  plane waves:     118
 k-point 55 :   0.1842 0.1842 0.3158  plane waves:     112
 k-point 56 :   0.1974 0.1974 0.3026  plane waves:     112
 k-point 57 :   0.2105 0.2105 0.2895  plane waves:     112
 k-point 58 :   0.2237 0.2237 0.2763  plane waves:     104
 k-point 59 :   0.2368 0.2368 0.2632  plane waves:     104
 k-point 60 :   0.2500 0.2500 0.2500  plane waves:     104
 k-point 61 :   0.2500 0.2500 0.2500  plane waves:     104
 k-point 62 :   0.2368 0.2368 0.2368  plane waves:     104
 k-point 63 :   0.2237 0.2237 0.2237  plane waves:     110
 k-point 64 :   0.2105 0.2105 0.2105  plane waves:     113
 k-point 65 :   0.1974 0.1974 0.1974  plane waves:     113
 k-point 66 :   0.1842 0.1842 0.1842  plane waves:     113
 k-point 67 :   0.1711 0.1711 0.1711  plane waves:     125
 k-point 68 :   0.1579 0.1579 0.1579  plane waves:     119
 k-point 69 :   0.1447 0.1447 0.1447  plane waves:     119
 k-point 70 :   0.1316 0.1316 0.1316  plane waves:     119
 k-point 71 :   0.1184 0.1184 0.1184  plane waves:     119
 k-point 72 :   0.1053 0.1053 0.1053  plane waves:     116
 k-point 73 :   0.0921 0.0921 0.0921  plane waves:     117
 k-point 74 :   0.0789 0.0789 0.0789  plane waves:     117
 k-point 75 :   0.0658 0.0658 0.0658  plane waves:     117
 k-point 76 :   0.0526 0.0526 0.0526  plane waves:     117
 k-point 77 :   0.0395 0.0395 0.0395  plane waves:     123
 k-point 78 :   0.0263 0.0263 0.0263  plane waves:     123
 k-point 79 :   0.0132 0.0132 0.0132  plane waves:     135
 k-point 80 :   0.0000 0.0000 0.0000  plane waves:     135
 k-point 81 :   0.0000 0.0000 0.0000  plane waves:     135
 k-point 82 :   0.0000 0.0000 0.0263  plane waves:     135
 k-point 83 :   0.0000 0.0000 0.0526  plane waves:     127
 k-point 84 :   0.0000 0.0000 0.0789  plane waves:     123
 k-point 85 :   0.0000 0.0000 0.1053  plane waves:     119
 k-point 86 :   0.0000 0.0000 0.1316  plane waves:     119
 k-point 87 :   0.0000 0.0000 0.1579  plane waves:     119
 k-point 88 :   0.0000 0.0000 0.1842  plane waves:     111
 k-point 89 :   0.0000 0.0000 0.2105  plane waves:     111
 k-point 90 :   0.0000 0.0000 0.2368  plane waves:     113
 k-point 91 :   0.0000 0.0000 0.2632  plane waves:     113
 k-point 92 :   0.0000 0.0000 0.2895  plane waves:     111
 k-point 93 :   0.0000 0.0000 0.3158  plane waves:     111
 k-point 94 :   0.0000 0.0000 0.3421  plane waves:     112
 k-point 95 :   0.0000 0.0000 0.3684  plane waves:     112
 k-point 96 :   0.0000 0.0000 0.3947  plane waves:     116
 k-point 97 :   0.0000 0.0000 0.4211  plane waves:     116
 k-point 98 :   0.0000 0.0000 0.4474  plane waves:     116
 k-point 99 :   0.0000 0.0000 0.4737  plane waves:     116
 k-point ** :   0.0000 0.0000 0.5000  plane waves:     114

 maximum and minimum number of plane-waves per node :       135      104

 maximum number of plane-waves:       135
 maximum index in each direction: 
   IXMAX=    3   IYMAX=    3   IZMAX=    3
   IXMIN=   -3   IYMIN=   -3   IZMIN=   -3


 serial   3D FFT for wavefunctions
 parallel 3D FFT for charge:
    minimum data exchange during FFTs selected (reduces bandwidth)


 total amount of memory used by VASP MPI-rank0    33950. kBytes
=======================================================================

   base      :      30000. kBytes
   nonl-proj :       1960. kBytes
   fftplans  :        142. kBytes
   grid      :        320. kBytes
   one-center:         31. kBytes
   wavefun   :       1497. kBytes
 
     INWAV:  cpu time    0.0000: real time    0.0000
 initial charge density was supplied:
 number of electron       8.0000106 magnetization       2.3255783
 keeping initial charge density in first step


--------------------------------------------------------------------------------------------------------


 Maximum index for augmentation-charges          749 (set IRDMAX)


--------------------------------------------------------------------------------------------------------


 First call to EWALD:  gamma=   0.786
 Maximum number of real-space cells 3x 3x 3
 Maximum number of reciprocal cells 3x 3x 3

    FEWALD:  cpu time    0.0010: real time    0.0010


--------------------------------------- Iteration      1(   1)  ---------------------------------------


    POTLOK:  cpu time    0.0032: real time    0.0064
    SETDIJ:  cpu time    0.0038: real time    0.0038
     EDDAV:  cpu time    0.2562: real time    0.2712
       DOS:  cpu time    0.0051: real time    0.0051
    --------------------------------------------
      LOOP:  cpu time    0.2683: real time    0.2865

 eigenvalue-minimisations  :  5352
 total energy-change (2. order) : 0.1144639E+02  (-0.2661414E+03)
 number of electron       8.0000106 magnetization       2.3255783
 augmentation part        8.0000106 magnetization       2.3255783

 Free energy of the ion-electron system (eV)
  ---------------------------------------------------
  alpha Z        PSCENC =        60.34603939
  Ewald energy   TEWEN  =      -590.47387226
  -Hartree energ DENC   =       -95.91193664
  -exchange      EXHF   =         0.00000000
  -V(xc)+E(xc)   XCENC  =         4.41715782
  PAW double counting   =       718.80500969     -727.87074086
  entropy T*S    EENTRO =        -0.00265935
  eigenvalues    EBANDS =        47.85654812
  atomic energy  EATOM  =       594.28084496
  Solvation  Ediel_sol  =         0.00000000
  ---------------------------------------------------
  free energy    TOTEN  =        11.44639088 eV

  energy without entropy =       11.44905023  energy(sigma->0) =       11.44727733


--------------------------------------------------------------------------------------------------------




--------------------------------------- Iteration      1(   2)  ---------------------------------------


     EDDAV:  cpu time    0.2308: real time    0.2360
       DOS:  cpu time    0.0060: real time    0.0060
    --------------------------------------------
      LOOP:  cpu time    0.2368: real time    0.2420

 eigenvalue-minimisations  :  5088
 total energy-change (2. order) :-0.2022441E+02  (-0.1790713E+02)
 number of electron       8.0000106 magnetization       2.3255783
 augmentation part        8.0000106 magnetization       2.3255783

 Free energy of the ion-electron system (eV)
  ---------------------------------------------------
  alpha Z        PSCENC =        60.34603939
  Ewald energy   TEWEN  =      -590.47387226
  -Hartree energ DENC   =       -95.91193664
  -exchange      EXHF   =         0.00000000
  -V(xc)+E(xc)   XCENC  =         4.41715782
  PAW double counting   =       718.80500969     -727.87074086
  entropy T*S    EENTRO =        -0.00050123
  eigenvalues    EBANDS =        27.62998262
  atomic energy  EATOM  =       594.28084496
  Solvation  Ediel_sol  =         0.00000000
  ---------------------------------------------------
  free energy    TOTEN  =        -8.77801650 eV

  energy without entropy =       -8.77751527  energy(sigma->0) =       -8.77784943


--------------------------------------------------------------------------------------------------------




--------------------------------------- Iteration      1(   3)  ---------------------------------------


     EDDAV:  cpu time    0.2584: real time    0.2635
       DOS:  cpu time    0.0067: real time    0.0067
    --------------------------------------------
      LOOP:  cpu time    0.2650: real time    0.2702

 eigenvalue-minimisations  :  5948
 total energy-change (2. order) :-0.3682415E+00  (-0.3643247E+00)
 number of electron       8.0000106 magnetization       2.3255783
 augmentation part        8.0000106 magnetization       2.3255783

 Free energy of the ion-electron system (eV)
  ---------------------------------------------------
  alpha Z        PSCENC =        60.34603939
  Ewald energy   TEWEN  =      -590.47387226
  -Hartree energ DENC   =       -95.91193664
  -exchange      EXHF   =         0.00000000
  -V(xc)+E(xc)   XCENC  =         4.41715782
  PAW double counting   =       718.80500969     -727.87074086
  entropy T*S    EENTRO =         0.00054185
  eigenvalues    EBANDS =        27.26069806
  atomic energy  EATOM  =       594.28084496
  Solvation  Ediel_sol  =         0.00000000
  ---------------------------------------------------
  free energy    TOTEN  =        -9.14625799 eV

  energy without entropy =       -9.14679984  energy(sigma->0) =       -9.14643860


--------------------------------------------------------------------------------------------------------




--------------------------------------- Iteration      1(   4)  ---------------------------------------


     EDDAV:  cpu time    0.2443: real time    0.2494
       DOS:  cpu time    0.0069: real time    0.0069
    --------------------------------------------
      LOOP:  cpu time    0.2512: real time    0.2563

 eigenvalue-minimisations  :  5524
 total energy-change (2. order) :-0.1083978E-02  (-0.1083856E-02)
 number of electron       8.0000106 magnetization       2.3255783
 augmentation part        8.0000106 magnetization       2.3255783

 Free energy of the ion-electron system (eV)
  ---------------------------------------------------
  alpha Z        PSCENC =        60.34603939
  Ewald energy   TEWEN  =      -590.47387226
  -Hartree energ DENC   =       -95.91193664
  -exchange      EXHF   =         0.00000000
  -V(xc)+E(xc)   XCENC  =         4.41715782
  PAW double counting   =       718.80500969     -727.87074086
  entropy T*S    EENTRO =         0.00054090
  eigenvalues    EBANDS =        27.25961502
  atomic energy  EATOM  =       594.28084496
  Solvation  Ediel_sol  =         0.00000000
  ---------------------------------------------------
  free energy    TOTEN  =        -9.14734197 eV

  energy without entropy =       -9.14788287  energy(sigma->0) =       -9.14752227


--------------------------------------------------------------------------------------------------------




--------------------------------------- Iteration      1(   5)  ---------------------------------------


     EDDAV:  cpu time    0.2322: real time    0.2373
       DOS:  cpu time    0.0069: real time    0.0069
    --------------------------------------------
      LOOP:  cpu time    0.2391: real time    0.2442

 eigenvalue-minimisations  :  5068
 total energy-change (2. order) :-0.5981654E-05  (-0.5981259E-05)
 number of electron       8.0000106 magnetization       2.3255783
 augmentation part        8.0000106 magnetization       2.3255783

 Free energy of the ion-electron system (eV)
  ---------------------------------------------------
  alpha Z        PSCENC =        60.34603939
  Ewald energy   TEWEN  =      -590.47387226
  -Hartree energ DENC   =       -95.91193664
  -exchange      EXHF   =         0.00000000
  -V(xc)+E(xc)   XCENC  =         4.41715782
  PAW double counting   =       718.80500969     -727.87074086
  entropy T*S    EENTRO =         0.00054089
  eigenvalues    EBANDS =        27.25960905
  atomic energy  EATOM  =       594.28084496
  Solvation  Ediel_sol  =         0.00000000
  ---------------------------------------------------
  free energy    TOTEN  =        -9.14734795 eV

  energy without entropy =       -9.14788884  energy(sigma->0) =       -9.14752825


--------------------------------------------------------------------------------------------------------




--------------------------------------- Iteration      1(   6)  ---------------------------------------


     EDDAV:  cpu time    0.2030: real time    0.2081
       DOS:  cpu time    0.0068: real time    0.0068
    --------------------------------------------
      LOOP:  cpu time    0.2098: real time    0.2149

 eigenvalue-minimisations  :  4036
 total energy-change (2. order) :-0.1416759E-06  (-0.1418844E-06)
 number of electron       8.0000106 magnetization       2.3255783
 augmentation part        8.0000106 magnetization       2.3255783

 Free energy of the ion-electron system (eV)
  ---------------------------------------------------
  alpha Z        PSCENC =        60.34603939
  Ewald energy   TEWEN  =      -590.47387226
  -Hartree energ DENC   =       -95.91193664
  -exchange      EXHF   =         0.00000000
  -V(xc)+E(xc)   XCENC  =         4.41715782
  PAW double counting   =       718.80500969     -727.87074086
  entropy T*S    EENTRO =         0.00054089
  eigenvalues    EBANDS =        27.25960891
  atomic energy  EATOM  =       594.28084496
  Solvation  Ediel_sol  =         0.00000000
  ---------------------------------------------------
  free energy    TOTEN  =        -9.14734809 eV

  energy without entropy =       -9.14788898  energy(sigma->0) =       -9.14752839


--------------------------------------------------------------------------------------------------------




 average (electrostatic) potential at core
  the test charge radii are     1.0103
  (the norm of the test charge is              1.0000)
       1 -43.3472
 
 
 
 E-fermi :   5.8106     XC(G=0): -13.0639     alpha+bet :-13.5341


 spin component 1

 k-point     1 :       0.0000    0.0000    0.0000
  band No.  band energies     occupation 
      1      -2.6570      1.00000
      2       3.3636      1.00000
      3       3.3636      1.00000
      4       3.3638      1.00000
      5       4.7540      1.00000
      6       4.7540      1.00000
      7      30.6737      0.00000
      8      30.6737      0.00000
      9      30.6737      0.00000
     10      35.7914      0.00000
     11      35.7914      0.00000
     12      37.9568      0.00000

 k-point     2 :       0.0263   -0.0263    0.0263
  band No.  band energies     occupation 
      1      -2.5997      1.00000
      2       3.3632      1.00000
      3       3.3633      1.00000
      4       3.3792      1.00000
      5       4.7283      1.00000
      6       4.7643      1.00000
      7      30.2648      0.00000
      8      30.6228      0.00000
      9      30.6229      0.00000
     10      35.1605      0.00000
     11      36.3334      0.00000
     12      36.8385      0.00000

 k-point     3 :       0.0526   -0.0526    0.0526
  band No.  band energies     occupation 
      1      -2.4292      1.00000
      2       3.3713      1.00000
      3       3.3714      1.00000
      4       3.4278      1.00000
      5       4.6568      1.00000
      6       4.7983      1.00000
      7      29.3681      0.00000
      8      30.4446      0.00000
      9      30.4446      0.00000
     10      33.9541      0.00000
     11      35.9047      0.00000
     12      35.9048      0.00000

 k-point     4 :       0.0789   -0.0789    0.0789
  band No.  band energies     occupation 
      1      -2.1497      1.00000
      2       3.3715      1.00000
      3       3.3716      1.00000
      4       3.5029      1.00000
      5       4.5300      1.00000
      6       4.8467      1.00000
      7      28.3266      0.00000
      8      29.9906      0.00000
      9      29.9906      0.00000
     10      32.6009      0.00000
     11      35.2881      0.00000
     12      35.2881      0.00000

 k-point     5 :       0.1053   -0.1053    0.1053
  band No.  band energies     occupation 
      1      -1.7689      1.00000
      2       3.3818      1.00000
      3       3.3819      1.00000
      4       3.6141      1.00000
      5       4.3592      1.00000
      6       4.9130      1.00000
      7      27.3108      0.00000
      8      29.2144      0.00000
      9      29.2144      0.00000
     10      31.2452      0.00000
     11      35.1798      0.00000
     12      35.1798      0.00000

 k-point     6 :       0.1316   -0.1316    0.1316
  band No.  band energies     occupation 
      1      -1.2990      1.00000
      2       3.4033      1.00000
      3       3.4034      1.00000
      4       3.7413      1.00000
      5       4.1455      1.00000
      6       4.9965      1.00000
      7      26.3637      0.00000
      8      28.1789      0.00000
      9      28.1790      0.00000
     10      29.9492      0.00000
     11      35.4748      0.00000
     12      35.4748      0.00000

 k-point     7 :       0.1579   -0.1579    0.1579
  band No.  band energies     occupation 
      1      -0.7589      1.00000
      2       3.4440      1.00000
      3       3.4441      1.00000
      4       3.8908      1.00000
      5       3.8966      1.00000
      6       5.1040      1.00000
      7      25.5105      0.00000
      8      27.0061      0.00000
      9      27.0062      0.00000
     10      28.7465      0.00000
     11      36.0696      0.00000
     12      36.0696      0.00000

 k-point     8 :       0.1842   -0.1842    0.1842
  band No.  band energies     occupation 
      1      -0.1771      1.00000
      2       3.5094      1.00000
      3       3.5095      1.00000
      4       3.6193      1.00000
      5       4.0588      1.00000
      6       5.2503      1.00027
      7      24.7570      0.00000
      8      25.7776      0.00000
      9      25.7776      0.00000
     10      27.6633      0.00000
     11      36.8765      0.00000
     12      36.8765      0.00000

 k-point     9 :       0.2105   -0.2105    0.2105
  band No.  band energies     occupation 
      1       0.4030      1.00000
      2       3.3215      1.00000
      3       3.6043      1.00000
      4       3.6044      1.00000
      5       4.2409      1.00000
      6       5.4657      1.01749
      7      24.1015      0.00000
      8      24.5392      0.00000
      9      24.5393      0.00000
     10      26.7175      0.00000
     11      37.8429      0.00000
     12      37.8432      0.00000

 k-point    10 :       0.2368   -0.2368    0.2368
  band No.  band energies     occupation 
      1       0.9227      1.00000
      2       3.0120      1.00000
      3       3.7324      1.00000
      4       3.7325      1.00000
      5       4.4324      1.00000
      6       5.7990      0.54890
      7      23.3178      0.00000
      8      23.3178      0.00000
      9      23.5392      0.00000
     10      25.9182      0.00000
     11      38.9362      0.00000
     12      38.9374      0.00000

 k-point    11 :       0.2632   -0.2632    0.2632
  band No.  band energies     occupation 
      1       1.3178      1.00000
      2       2.6997      1.00000
      3       3.8963      1.00000
      4       3.8964      1.00000
      5       4.6302      1.00000
      6       6.2982     -0.00152
      7      22.1348      0.00000
      8      22.1348      0.00000
      9      23.0630      0.00000
     10      25.2625      0.00000
     11      40.0454      0.00000
     12      40.1333      0.00000

 k-point    12 :       0.2895   -0.2895    0.2895
  band No.  band energies     occupation 
      1       1.5510      1.00000
      2       2.3935      1.00000
      3       4.0926      1.00000
      4       4.0927      1.00000
      5       4.8238      1.00000
      6       7.0150     -0.00000
      7      20.9936      0.00000
      8      20.9936      0.00000
      9      22.6650      0.00000
     10      24.7431      0.00000
     11      38.1935      0.00000
     12      40.5280      0.00000

 k-point    13 :       0.3158   -0.3158    0.3158
  band No.  band energies     occupation 
      1       1.6296      1.00000
      2       2.1021      1.00000
      3       4.3206      1.00000
      4       4.3207      1.00000
      5       5.0108      1.00000
      6       7.9371     -0.00000
      7      19.9143      0.00000
      8      19.9144      0.00000
      9      22.3371      0.00000
     10      24.3387      0.00000
     11      35.9010      0.00000
     12      41.0762      0.00000

 k-point    14 :       0.3421   -0.3421    0.3421
  band No.  band energies     occupation 
      1       1.5955      1.00000
      2       1.8316      1.00000
      3       4.5713      1.00000
      4       4.5714      1.00000
      5       5.1859      1.00005
      6       9.0330     -0.00000
      7      18.9091      0.00000
      8      18.9091      0.00000
      9      22.0593      0.00000
     10      24.0348      0.00000
     11      33.7171      0.00000
     12      41.6914      0.00000

 k-point    15 :       0.3684   -0.3684    0.3684
  band No.  band energies     occupation 
      1       1.4887      1.00000
      2       1.5919      1.00000
      3       4.8390      1.00000
      4       4.8392      1.00000
      5       5.3439      1.00236
      6      10.2510     -0.00000
      7      17.9977      0.00000
      8      17.9978      0.00000
      9      21.8454      0.00000
     10      23.7551      0.00000
     11      31.6348      0.00000
     12      42.3622      0.00000

 k-point    16 :       0.3947   -0.3947    0.3947
  band No.  band energies     occupation 
      1       1.3514      1.00000
      2       1.3873      1.00000
      3       5.1038      1.00000
      4       5.1040      1.00000
      5       5.4801      1.02066
      6      11.5488      0.00000
      7      17.1961      0.00000
      8      17.1961      0.00000
      9      21.6769      0.00000
     10      23.4395      0.00000
     11      29.7576      0.00000
     12      43.0691      0.00000

 k-point    17 :       0.4211   -0.4211    0.4211
  band No.  band energies     occupation 
      1       1.2160      1.00000
      2       1.2232      1.00000
      3       5.3513      1.00274
      4       5.3515      1.00275
      5       5.5906      1.03264
      6      12.8786      0.00000
      7      16.5311      0.00000
      8      16.5312      0.00000
      9      21.5531      0.00000
     10      23.0167      0.00000
     11      28.2009      0.00000
     12      43.7749      0.00000

 k-point    18 :       0.4474   -0.4474    0.4474
  band No.  band energies     occupation 
      1       1.1034      1.00000
      2       1.1042      1.00000
      3       5.5552      1.03506
      4       5.5554      1.03508
      5       5.6719      0.95747
      6      14.1491      0.00000
      7      16.0273      0.00000
      8      16.0274      0.00000
      9      21.4677      0.00000
     10      22.4078      0.00000
     11      27.0944      0.00000
     12      44.4132      0.00000

 k-point    19 :       0.4737   -0.4737    0.4737
  band No.  band energies     occupation 
      1       1.0304      1.00000
      2       1.0312      1.00000
      3       5.6907      0.91971
      4       5.6909      0.91925
      5       5.7218      0.83787
      6      15.1752      0.00000
      7      15.7111      0.00000
      8      15.7111      0.00000
      9      21.4176      0.00000
     10      21.7298      0.00000
     11      26.4869      0.00000
     12      44.8801      0.00000

 k-point    20 :       0.5000   -0.5000    0.5000
  band No.  band energies     occupation 
      1       1.0059      1.00000
      2       1.0059      1.00000
      3       5.7385      0.78432
      4       5.7385      0.78432
      5       5.7388      0.78325
      6      15.6030      0.00000
      7      15.6031      0.00000
      8      15.6031      0.00000
      9      21.4012      0.00000
     10      21.4012      0.00000
     11      26.3024      0.00000
     12      45.0554      0.00000

 k-point    21 :       0.5000   -0.5000    0.5000
  band No.  band energies     occupation 
      1       1.0059      1.00000
      2       1.0059      1.00000
      3       5.7385      0.78432
      4       5.7385      0.78432
      5       5.7388      0.78325
      6      15.6030      0.00000
      7      15.6031      0.00000
      8      15.6031      0.00000
      9      21.4012      0.00000
     10      21.4012      0.00000
     11      26.3024      0.00000
     12      45.0554      0.00000

 k-point    22 :       0.4737   -0.4737    0.5000
  band No.  band energies     occupation 
      1       1.0182      1.00000
      2       1.0185      1.00000
      3       5.7043      0.88694
      4       5.7144      0.85933
      5       5.7405      0.77751
      6      15.4926      0.00000
      7      15.5416      0.00000
      8      15.6572      0.00000
      9      21.4517      0.00000
     10      21.5381      0.00000
     11      26.3920      0.00000
     12      44.9638      0.00000

 k-point    23 :       0.4474   -0.4474    0.5000
  band No.  band energies     occupation 
      1       1.0546      1.00000
      2       1.0565      1.00000
      3       5.6045      1.02802
      4       5.6432      0.99893
      5       5.7458      0.75896
      6      15.1875      0.00000
      7      15.3710      0.00000
      8      15.8171      0.00000
      9      21.5876      0.00000
     10      21.9227      0.00000
     11      26.6612      0.00000
     12      44.6772      0.00000

 k-point    24 :       0.4211   -0.4211    0.5000
  band No.  band energies     occupation 
      1       1.1132      1.00000
      2       1.1198      1.00000
      3       5.4464      1.01364
      4       5.5280      1.03128
      5       5.7545      0.72738
      6      14.7441      0.00000
      7      15.1252      0.00000
      8      16.0756      0.00000
      9      21.7731      0.00000
     10      22.4993      0.00000
     11      27.1090      0.00000
     12      44.1758      0.00000

 k-point    25 :       0.3947   -0.3947    0.5000
  band No.  band energies     occupation 
      1       1.1905      1.00000
      2       1.2083      1.00000
      3       5.2405      1.00021
      4       5.3745      1.00428
      5       5.7664      0.68219
      6      14.2149      0.00000
      7      14.8419      0.00000
      8      16.4229      0.00000
      9      21.9733      0.00000
     10      23.2159      0.00000
     11      27.7275      0.00000
     12      43.4613      0.00000

 k-point    26 :       0.3684   -0.3684    0.5000
  band No.  band energies     occupation 
      1       1.2813      1.00000
      2       1.3223      1.00000
      3       4.9988      1.00000
      4       5.1915      1.00005
      5       5.7811      0.62334
      6      13.6368      0.00000
      7      14.5516      0.00000
      8      16.8478      0.00000
      9      22.1666      0.00000
     10      24.0368      0.00000
     11      28.4994      0.00000
     12      42.5715      0.00000

 k-point    27 :       0.3421   -0.3421    0.5000
  band No.  band energies     occupation 
      1       1.3785      1.00000
      2       1.4616      1.00000
      3       4.7327      1.00000
      4       4.9938      1.00000
      5       5.7983      0.55190
      6      13.0332      0.00000
      7      14.2755      0.00000
      8      17.3396      0.00000
      9      22.3510      0.00000
     10      24.9417      0.00000
     11      29.4009      0.00000
     12      41.5617      0.00000

 k-point    28 :       0.3158   -0.3158    0.5000
  band No.  band energies     occupation 
      1       1.4718      1.00000
      2       1.6260      1.00000
      3       4.4532      1.00000
      4       4.7894      1.00000
      5       5.8175      0.47067
      6      12.4173      0.00000
      7      14.0252      0.00000
      8      17.8885      0.00000
      9      22.5147      0.00000
     10      25.9148      0.00000
     11      30.4022      0.00000
     12      40.4811      0.00000

 k-point    29 :       0.2895   -0.2895    0.5000
  band No.  band energies     occupation 
      1       1.5488      1.00000
      2       1.8155      1.00000
      3       4.1695      1.00000
      4       4.6007      1.00000
      5       5.8383      0.38413
      6      11.7986      0.00000
      7      13.8069      0.00000
      8      18.4863      0.00000
      9      22.6689      0.00000
     10      26.9503      0.00000
     11      31.4712      0.00000
     12      39.3655      0.00000

 k-point    30 :       0.2632   -0.2632    0.5000
  band No.  band energies     occupation 
      1       1.5955      1.00000
      2       2.0313      1.00000
      3       3.8922      1.00000
      4       4.4470      1.00000
      5       5.8628      0.28724
      6      11.1863     -0.00000
      7      13.6217      0.00000
      8      19.1292      0.00000
      9      22.8185      0.00000
     10      28.0570      0.00000
     11      32.5672      0.00000
     12      38.2675      0.00000

 k-point    31 :       0.2368   -0.2368    0.5000
  band No.  band energies     occupation 
      1       1.5994      1.00000
      2       2.2702      1.00000
      3       3.6223      1.00000
      4       4.3451      1.00000
      5       5.8844      0.21013
      6      10.5772     -0.00000
      7      13.4685      0.00000
      8      19.8053      0.00000
      9      22.9666      0.00000
     10      29.2045      0.00000
     11      33.6258      0.00000
     12      37.1417      0.00000

 k-point    32 :       0.2105   -0.2105    0.5000
  band No.  band energies     occupation 
      1       1.5550      1.00000
      2       2.5310      1.00000
      3       3.3636      1.00000
      4       4.2995      1.00000
      5       5.9054      0.14435
      6       9.9756     -0.00000
      7      13.3416      0.00000
      8      20.5035      0.00000
      9      23.1110      0.00000
     10      30.3839      0.00000
     11      34.5140      0.00000
     12      36.0049      0.00000

 k-point    33 :       0.1842   -0.1842    0.5000
  band No.  band energies     occupation 
      1       1.4689      1.00000
      2       2.8173      1.00000
      3       3.1329      1.00000
      4       4.3142      1.00000
      5       5.9292      0.08306
      6       9.3902     -0.00000
      7      13.2438      0.00000
      8      21.2393      0.00000
      9      23.2650      0.00000
     10      31.6372      0.00000
     11      34.9459      0.00000
     12      35.0344      0.00000

 k-point    34 :       0.1579   -0.1579    0.5000
  band No.  band energies     occupation 
      1       1.3535      1.00000
      2       2.9229      1.00000
      3       3.1255      1.00000
      4       4.3717      1.00000
      5       5.9481      0.04450
      6       8.8194     -0.00000
      7      13.1669      0.00000
      8      21.9923      0.00000
      9      23.4177      0.00000
     10      32.9345      0.00000
     11      33.8764      0.00000
     12      35.0121      0.00000

 k-point    35 :       0.1316   -0.1316    0.5000
  band No.  band energies     occupation 
      1       1.2256      1.00000
      2       2.7373      1.00000
      3       3.4498      1.00000
      4       4.4543      1.00000
      5       5.9635      0.01965
      6       8.2644     -0.00000
      7      13.1050      0.00000
      8      22.7522      0.00000
      9      23.5634      0.00000
     10      32.8177      0.00000
     11      34.2470      0.00000
     12      34.6133      0.00000

 k-point    36 :       0.1053   -0.1053    0.5000
  band No.  band energies     occupation 
      1       1.1029      1.00000
      2       2.5855      1.00000
      3       3.7965      1.00000
      4       4.5500      1.00000
      5       5.9783      0.00078
      6       7.7363     -0.00000
      7      13.0633      0.00000
      8      23.5280      0.00000
      9      23.7100      0.00000
     10      31.8367      0.00000
     11      34.1111      0.00000
     12      35.6245      0.00000

 k-point    37 :       0.0789   -0.0789    0.5000
  band No.  band energies     occupation 
      1       0.9961      1.00000
      2       2.4638      1.00000
      3       4.1519      1.00000
      4       4.6310      1.00000
      5       5.9899     -0.01079
      6       7.2355     -0.00000
      7      13.0301      0.00000
      8      23.8374      0.00000
      9      24.2885      0.00000
     10      30.8955      0.00000
     11      33.6323      0.00000
     12      37.0147      0.00000

 k-point    38 :       0.0526   -0.0526    0.5000
  band No.  band energies     occupation 
      1       0.9143      1.00000
      2       2.3762      1.00000
      3       4.5032      1.00000
      4       4.6984      1.00000
      5       5.9985     -0.01765
      6       6.7800     -0.00000
      7      13.0097      0.00000
      8      23.9408      0.00000
      9      25.0024      0.00000
     10      30.0572      0.00000
     11      33.2537      0.00000
     12      38.3730      0.00000

 k-point    39 :       0.0263   -0.0263    0.5000
  band No.  band energies     occupation 
      1       0.8641      1.00000
      2       2.3233      1.00000
      3       4.7419      1.00000
      4       4.8091      1.00000
      5       6.0037     -0.02120
      6       6.4136     -0.00009
      7      13.0039      0.00000
      8      24.0085      0.00000
      9      25.5763      0.00000
     10      29.4088      0.00000
     11      33.0259      0.00000
     12      39.5530      0.00000

 k-point    40 :       0.0000    0.0000    0.5000
  band No.  band energies     occupation 
      1       0.8467      1.00000
      2       2.3056      1.00000
      3       4.7568      1.00000
      4       4.9484      1.00000
      5       6.0055     -0.02229
      6       6.2534     -0.00377
      7      13.0000      0.00000
      8      24.0320      0.00000
      9      25.8168      0.00000
     10      29.1435      0.00000
     11      32.9430      0.00000
     12      40.0988      0.00000

 k-point    41 :       0.0000    0.0000    0.5000
  band No.  band energies     occupation 
      1       0.8467      1.00000
      2       2.3056      1.00000
      3       4.7568      1.00000
      4       4.9484      1.00000
      5       6.0055     -0.02229
      6       6.2534     -0.00377
      7      13.0000      0.00000
      8      24.0320      0.00000
      9      25.8168      0.00000
     10      29.1435      0.00000
     11      32.9430      0.00000
     12      40.0988      0.00000

 k-point    42 :       0.0132    0.0132    0.4868
  band No.  band energies     occupation 
      1       0.8564      1.00000
      2       2.3043      1.00000
      3       4.7584      1.00000
      4       4.9486      1.00000
      5       5.7917      0.57932
      6       6.4800     -0.00001
      7      13.0020      0.00000
      8      23.9312      0.00000
      9      25.7006      0.00000
     10      29.2602      0.00000
     11      33.0752      0.00000
     12      40.1133      0.00000

 k-point    43 :       0.0263    0.0263    0.4737
  band No.  band energies     occupation 
      1       0.8853      1.00000
      2       2.3005      1.00000
      3       4.7630      1.00000
      4       4.9494      1.00000
      5       5.5014      1.02557
      6       6.8087     -0.00000
      7      13.0080      0.00000
      8      23.6523      0.00000
      9      25.3757      0.00000
     10      29.5867      0.00000
     11      33.4480      0.00000
     12      40.1569      0.00000

 k-point    44 :       0.0395    0.0395    0.4605
  band No.  band energies     occupation 
      1       0.9329      1.00000
      2       2.2946      1.00000
      3       4.7705      1.00000
      4       4.9507      1.00000
      5       5.2170      1.00011
      6       7.1573     -0.00000
      7      13.0184      0.00000
      8      23.2454      0.00000
      9      24.8953      0.00000
     10      30.0731      0.00000
     11      34.0078      0.00000
     12      40.2294      0.00000

 k-point    45 :       0.0526    0.0526    0.4474
  band No.  band energies     occupation 
      1       0.9984      1.00000
      2       2.2868      1.00000
      3       4.7809      1.00000
      4       4.9440      1.00000
      5       4.9525      1.00000
      6       7.5199     -0.00000
      7      13.0338      0.00000
      8      22.7577      0.00000
      9      24.3137      0.00000
     10      30.6725      0.00000
     11      34.7000      0.00000
     12      40.3308      0.00000

 k-point    46 :       0.0658    0.0658    0.4342
  band No.  band energies     occupation 
      1       1.0805      1.00000
      2       2.2776      1.00000
      3       4.6839      1.00000
      4       4.7937      1.00000
      5       4.9547      1.00000
      6       7.8952     -0.00000
      7      13.0550      0.00000
      8      22.2219      0.00000
      9      23.6723      0.00000
     10      31.3522      0.00000
     11      35.4823      0.00000
     12      40.4609      0.00000

 k-point    47 :       0.0789    0.0789    0.4211
  band No.  band energies     occupation 
      1       1.1779      1.00000
      2       2.2696      1.00000
      3       4.4371      1.00000
      4       4.8093      1.00000
      5       4.9573      1.00000
      6       8.2827     -0.00000
      7      13.0849      0.00000
      8      21.6669      0.00000
      9      23.0010      0.00000
     10      32.1027      0.00000
     11      36.3288      0.00000
     12      40.6195      0.00000

 k-point    48 :       0.0921    0.0921    0.4079
  band No.  band energies     occupation 
      1       1.2879      1.00000
      2       2.2595      1.00000
      3       4.2039      1.00000
      4       4.8261      1.00000
      5       4.9602      1.00000
      6       8.6820     -0.00000
      7      13.1206      0.00000
      8      21.0882      0.00000
      9      22.3159      0.00000
     10      32.8881      0.00000
     11      37.2112      0.00000
     12      40.8064      0.00000

 k-point    49 :       0.1053    0.1053    0.3947
  band No.  band energies     occupation 
      1       1.4079      1.00000
      2       2.2467      1.00000
      3       3.9833      1.00000
      4       4.8438      1.00000
      5       4.9617      1.00000
      6       9.0901     -0.00000
      7      13.1644      0.00000
      8      20.4936      0.00000
      9      21.6317      0.00000
     10      33.6814      0.00000
     11      38.1104      0.00000
     12      41.0200      0.00000

 k-point    50 :       0.1184    0.1184    0.3816
  band No.  band energies     occupation 
      1       1.5362      1.00000
      2       2.2388      1.00000
      3       3.7777      1.00000
      4       4.8630      1.00000
      5       4.9647      1.00000
      6       9.5115     -0.00000
      7      13.2205      0.00000
      8      19.9042      0.00000
      9      20.9581      0.00000
     10      34.5430      0.00000
     11      39.0285      0.00000
     12      41.2621      0.00000

 k-point    51 :       0.1316    0.1316    0.3684
  band No.  band energies     occupation 
      1       1.6693      1.00000
      2       2.2338      1.00000
      3       3.5861      1.00000
      4       4.8826      1.00000
      5       4.9679      1.00000
      6       9.9439     -0.00000
      7      13.2893      0.00000
      8      19.3157      0.00000
      9      20.3026      0.00000
     10      35.4374      0.00000
     11      39.9463      0.00000
     12      41.5314      0.00000

 k-point    52 :       0.1447    0.1447    0.3553
  band No.  band energies     occupation 
      1       1.8032      1.00000
      2       2.2325      1.00000
      3       3.4081      1.00000
      4       4.8976      1.00000
      5       4.9710      1.00000
      6      10.3862     -0.00000
      7      13.3715      0.00000
      8      18.7305      0.00000
      9      19.6709      0.00000
     10      36.3627      0.00000
     11      40.8080      0.00000
     12      41.8269      0.00000

 k-point    53 :       0.1579    0.1579    0.3421
  band No.  band energies     occupation 
      1       1.9351      1.00000
      2       2.2359      1.00000
      3       3.2443      1.00000
      4       4.9154      1.00000
      5       4.9740      1.00000
      6      10.8396     -0.00000
      7      13.4701      0.00000
      8      18.1500      0.00000
      9      19.0695      0.00000
     10      37.3173      0.00000
     11      41.6808      0.00000
     12      42.1488      0.00000

 k-point    54 :       0.1711    0.1711    0.3289
  band No.  band energies     occupation 
      1       2.0606      1.00000
      2       2.2451      1.00000
      3       3.0943      1.00000
      4       4.9320      1.00000
      5       4.9768      1.00000
      6      11.3034      0.00000
      7      13.5849      0.00000
      8      17.5753      0.00000
      9      18.5038      0.00000
     10      38.3000      0.00000
     11      42.4959      0.00000
     12      42.5092      0.00000

 k-point    55 :       0.1842    0.1842    0.3158
  band No.  band energies     occupation 
      1       2.1771      1.00000
      2       2.2622      1.00000
      3       2.9594      1.00000
      4       4.9491      1.00000
      5       4.9860      1.00000
      6      11.7797      0.00000
      7      13.7198      0.00000
      8      17.0136      0.00000
      9      17.9814      0.00000
     10      39.3210      0.00000
     11      42.8676      0.00000
     12      43.2827      0.00000

 k-point    56 :       0.1974    0.1974    0.3026
  band No.  band energies     occupation 
      1       2.2778      1.00000
      2       2.2856      1.00000
      3       2.8365      1.00000
      4       4.9617      1.00000
      5       4.9878      1.00000
      6      12.2636      0.00000
      7      13.8628      0.00000
      8      16.4524      0.00000
      9      17.5083      0.00000
     10      40.3550      0.00000
     11      43.2624      0.00000
     12      43.9566      0.00000

 k-point    57 :       0.2105    0.2105    0.2895
  band No.  band energies     occupation 
      1       2.3174      1.00000
      2       2.3606      1.00000
      3       2.7266      1.00000
      4       4.9720      1.00000
      5       4.9893      1.00000
      6      12.7572      0.00000
      7      14.0114      0.00000
      8      15.8989      0.00000
      9      17.0976      0.00000
     10      41.4128      0.00000
     11      43.6783      0.00000
     12      44.5237      0.00000

 k-point    58 :       0.2237    0.2237    0.2763
  band No.  band energies     occupation 
      1       2.3618      1.00000
      2       2.4232      1.00000
      3       2.6320      1.00000
      4       4.9868      1.00000
      5       4.9913      1.00000
      6      13.2663      0.00000
      7      14.1545      0.00000
      8      15.3693      0.00000
      9      16.7685      0.00000
     10      42.4960      0.00000
     11      44.1196      0.00000
     12      44.5932      0.00000

 k-point    59 :       0.2368    0.2368    0.2632
  band No.  band energies     occupation 
      1       2.4125      1.00000
      2       2.4611      1.00000
      3       2.5470      1.00000
      4       4.9908      1.00000
      5       4.9919      1.00000
      6      13.7785      0.00000
      7      14.2596      0.00000
      8      14.8302      0.00000
      9      16.5477      0.00000
     10      43.5838      0.00000
     11      44.5540      0.00000
     12      44.7376      0.00000

 k-point    60 :       0.2500    0.2500    0.2500
  band No.  band energies     occupation 
      1       2.4739      1.00000
      2       2.4739      1.00000
      3       2.4740      1.00000
      4       4.9921      1.00000
      5       4.9921      1.00000
      6      14.2998      0.00000
      7      14.2998      0.00000
      8      14.2999      0.00000
      9      16.4687      0.00000
     10      44.5836      0.00000
     11      44.5870      0.00000
     12      44.6736      0.00000

 k-point    61 :       0.2500    0.2500    0.2500
  band No.  band energies     occupation 
      1       2.4739      1.00000
      2       2.4739      1.00000
      3       2.4740      1.00000
      4       4.9921      1.00000
      5       4.9921      1.00000
      6      14.2998      0.00000
      7      14.2998      0.00000
      8      14.2999      0.00000
      9      16.4687      0.00000
     10      44.5833      0.00000
     11      44.5843      0.00000
     12      44.6659      0.00000

 k-point    62 :       0.2368    0.2368    0.2368
  band No.  band energies     occupation 
      1       2.4109      1.00000
      2       2.4109      1.00000
      3       2.5943      1.00000
      4       4.9897      1.00000
      5       4.9897      1.00000
      6      13.1560      0.00000
      7      14.8577      0.00000
      8      14.8577      0.00000
      9      16.6420      0.00000
     10      43.1613      0.00000
     11      44.1183      0.00000
     12      44.1226      0.00000

 k-point    63 :       0.2237    0.2237    0.2237
  band No.  band energies     occupation 
      1       2.3588      1.00000
      2       2.3588      1.00000
      3       2.6680      1.00000
      4       4.9762      1.00000
      5       4.9762      1.00000
      6      11.9716      0.00000
      7      15.4723      0.00000
      8      15.4723      0.00000
      9      17.0252      0.00000
     10      41.8140      0.00000
     11      43.3116      0.00000
     12      43.3120      0.00000

 k-point    64 :       0.2105    0.2105    0.2105
  band No.  band energies     occupation 
      1       2.3223      1.00000
      2       2.3223      1.00000
      3       2.6787      1.00000
      4       4.9618      1.00000
      5       4.9618      1.00000
      6      10.8426     -0.00000
      7      16.1380      0.00000
      8      16.1380      0.00000
      9      17.5510      0.00000
     10      40.5440      0.00000
     11      42.5236      0.00000
     12      42.5236      0.00000

 k-point    65 :       0.1974    0.1974    0.1974
  band No.  band energies     occupation 
      1       2.3081      1.00000
      2       2.3081      1.00000
      3       2.6054      1.00000
      4       4.9418      1.00000
      5       4.9418      1.00000
[...]
      6       7.7167     -0.00000
      7      18.2951      0.00000
      8      25.3288      0.00000
      9      28.2498      0.00000
     10      29.8661      0.00000
     11      33.4995      0.00000
     12      39.4139      0.00000

 k-point    95 :       0.0000    0.0000    0.3684
  band No.  band energies     occupation 
      1       1.6389      1.00000
      2       4.4254      1.00000
      3       5.3449      1.00241
      4       7.2597     -0.00000
      5       7.6316     -0.00000
      6       7.9366     -0.00000
      7      17.3080      0.00000
      8      24.9603      0.00000
      9      27.7243      0.00000
     10      29.8355      0.00000
     11      33.5002      0.00000
     12      40.3128      0.00000

 k-point    96 :       0.0000    0.0000    0.3947
  band No.  band energies     occupation 
      1       1.8775      1.00000
      2       4.3576      1.00000
      3       5.5668      1.03545
      4       7.2908     -0.00000
      5       7.6480     -0.00000
      6       8.1305     -0.00000
      7      16.4091      0.00000
      8      24.6505      0.00000
      9      27.2783      0.00000
     10      29.8064      0.00000
     11      33.5099      0.00000
     12      40.3528      0.00000

 k-point    97 :       0.0000    0.0000    0.4211
  band No.  band energies     occupation 
      1       2.0414      1.00000
      2       4.3035      1.00000
      3       5.8368      0.39030
      4       7.3143     -0.00000
      5       7.6660     -0.00000
      6       8.2923     -0.00000
      7      15.6360      0.00000
      8      24.4065      0.00000
      9      26.9220      0.00000
     10      29.7867      0.00000
     11      33.5340      0.00000
     12      40.2823      0.00000

 k-point    98 :       0.0000    0.0000    0.4474
  band No.  band energies     occupation 
      1       2.1425      1.00000
      2       4.2641      1.00000
      3       6.1044     -0.02902
      4       7.3276     -0.00000
      5       7.6798     -0.00000
      6       8.4139     -0.00000
      7      15.0276      0.00000
      8      24.2298      0.00000
      9      26.6613      0.00000
     10      29.7727      0.00000
     11      33.5583      0.00000
     12      40.2198      0.00000

 k-point    99 :       0.0000    0.0000    0.4737
  band No.  band energies     occupation 
      1       2.1959      1.00000
      2       4.2400      1.00000
      3       6.3062     -0.00128
      4       7.3314     -0.00000
      5       7.6886     -0.00000
      6       8.4894     -0.00000
      7      14.6330      0.00000
      8      24.1229      0.00000
      9      26.5024      0.00000
     10      29.7643      0.00000
     11      33.5763      0.00000
     12      40.1771      0.00000

 k-point   100 :       0.0000    0.0000    0.5000
  band No.  band energies     occupation 
      1       2.2127      1.00000
      2       4.2320      1.00000
      3       6.3822     -0.00020
      4       7.3312     -0.00000
      5       7.6938     -0.00000
      6       8.5151     -0.00000
      7      14.5007      0.00000
      8      24.0871      0.00000
      9      26.4490      0.00000
     10      29.7615      0.00000
     11      33.5931      0.00000
     12      40.1621      0.00000


--------------------------------------------------------------------------------------------------------


 soft charge-density along one line, spin component           1
         0         1         2         3         4         5         6         7         8         9
 total charge-density along one line
 
 soft charge-density along one line, spin component           2
         0         1         2         3         4         5         6         7         8         9
 total charge-density along one line
 
 pseudopotential strength for first ion, spin component:           1
 -5.720   0.000   0.000   0.000   0.000   0.000   0.000   0.000   0.000   0.000  -6.246   0.000   0.000   0.000   0.000   0.000
  0.000   0.000  -5.720   0.000  -0.000   0.000   0.000   0.000   0.000   0.000   0.000   0.000  -6.246   0.000  -0.000   0.000
  0.000   0.000  -0.000   0.000  -5.766   0.000  -0.000   0.000  -0.000   0.000   0.000   0.000  -0.000   0.000  -6.292   0.000
  0.000   0.000   0.000   0.000  -0.000   0.000  -5.720   0.000  -0.000   0.000   0.000   0.000   0.000   0.000  -0.000   0.000
  0.000   0.000   0.000   0.000  -0.000   0.000  -0.000   0.000  -5.766   0.000   0.000   0.000   0.000   0.000  -0.000   0.000
 -6.246   0.000   0.000   0.000   0.000   0.000   0.000   0.000   0.000   0.000  -6.731   0.000   0.000   0.000   0.000   0.000
  0.000   0.000  -6.246   0.000  -0.000   0.000   0.000   0.000   0.000   0.000   0.000   0.000  -6.731   0.000  -0.000   0.000
  0.000   0.000  -0.000   0.000  -6.292   0.000  -0.000   0.000  -0.000   0.000   0.000   0.000  -0.000   0.000  -6.776   0.000
  0.000   0.000   0.000   0.000  -0.000   0.000  -6.246   0.000  -0.000   0.000   0.000   0.000   0.000   0.000  -0.000   0.000
  0.000   0.000   0.000   0.000  -0.000   0.000  -0.000   0.000  -6.292   0.000   0.000   0.000   0.000   0.000  -0.000   0.000
 -0.000   0.000  -0.000   0.000  -0.000   0.000  -0.000   0.000  -0.000   0.000  -0.000   0.000  -0.000   0.000  -0.000   0.000
 -0.000   0.000  -0.000   0.000  -0.000   0.000  -0.000   0.000  -0.000   0.000  -0.000   0.000  -0.000   0.000  -0.000   0.000
  0.000   0.000   0.000   0.000   0.000   0.000  -0.000   0.000   0.000   0.000   0.000   0.000   0.000   0.000   0.000   0.000
 -0.000   0.000  -0.000   0.000  -0.000   0.000   0.000   0.000  -0.000   0.000  -0.000   0.000  -0.000   0.000  -0.000   0.000
 -0.000   0.000  -0.000   0.000  -0.000   0.000  -0.000   0.000   0.000   0.000  -0.000   0.000  -0.000   0.000  -0.000   0.000
  0.000   0.000   0.000   0.000   0.000   0.000  -0.000   0.000   0.000   0.000   0.000   0.000   0.000   0.000   0.000   0.000
 -0.000   0.000  -0.000   0.000  -0.000   0.000   0.000   0.000  -0.000   0.000  -0.000   0.000  -0.000   0.000  -0.000   0.000
 -0.000   0.000  -0.000   0.000  -0.000   0.000  -0.000   0.000   0.000   0.000  -0.000   0.000  -0.000   0.000  -0.000   0.000
 pseudopotential strength for first ion, spin component:           2
 -4.083   0.000   0.000   0.000   0.000   0.000   0.000   0.000  -0.000   0.000  -4.662   0.000   0.000   0.000   0.000   0.000
  0.000   0.000  -4.083   0.000  -0.000   0.000   0.000   0.000   0.000   0.000   0.000   0.000  -4.662   0.000  -0.000   0.000
  0.000   0.000  -0.000   0.000  -3.934   0.000  -0.000   0.000  -0.000   0.000   0.000   0.000  -0.000   0.000  -4.514   0.000
  0.000   0.000   0.000   0.000  -0.000   0.000  -4.083   0.000  -0.000   0.000   0.000   0.000   0.000   0.000  -0.000   0.000
 -0.000   0.000   0.000   0.000  -0.000   0.000  -0.000   0.000  -3.934   0.000  -0.000   0.000   0.000   0.000  -0.000   0.000
 -4.662   0.000   0.000   0.000   0.000   0.000   0.000   0.000  -0.000   0.000  -5.198   0.000   0.000   0.000   0.000   0.000
  0.000   0.000  -4.662   0.000  -0.000   0.000   0.000   0.000   0.000   0.000   0.000   0.000  -5.198   0.000  -0.000   0.000
  0.000   0.000  -0.000   0.000  -4.514   0.000  -0.000   0.000  -0.000   0.000   0.000   0.000  -0.000   0.000  -5.051   0.000
  0.000   0.000   0.000   0.000  -0.000   0.000  -4.662   0.000  -0.000   0.000   0.000   0.000   0.000   0.000  -0.000   0.000
 -0.000   0.000   0.000   0.000  -0.000   0.000  -0.000   0.000  -4.514   0.000  -0.000   0.000   0.000   0.000  -0.000   0.000
  0.000   0.000   0.000   0.000   0.000   0.000   0.000   0.000  -0.000   0.000   0.000   0.000   0.000   0.000   0.000   0.000
  0.000   0.000   0.000   0.000   0.000   0.000   0.000   0.000  -0.000   0.000   0.000   0.000   0.000   0.000   0.000   0.000
  0.000   0.000  -0.000   0.000   0.000   0.000  -0.000   0.000   0.000   0.000   0.000   0.000  -0.000   0.000   0.000   0.000
 -0.000   0.000  -0.000   0.000  -0.000   0.000   0.000   0.000  -0.000   0.000  -0.000   0.000  -0.000   0.000  -0.000   0.000
 -0.000   0.000  -0.000   0.000  -0.000   0.000  -0.000   0.000   0.000   0.000  -0.000   0.000  -0.000   0.000  -0.000   0.000
  0.000   0.000  -0.000   0.000   0.000   0.000  -0.000   0.000   0.000   0.000   0.000   0.000  -0.000   0.000   0.000   0.000
 -0.000   0.000  -0.000   0.000  -0.000   0.000   0.000   0.000  -0.000   0.000  -0.000   0.000  -0.000   0.000  -0.000   0.000
 -0.000   0.000  -0.000   0.000  -0.000   0.000  -0.000   0.000   0.000   0.000  -0.000   0.000  -0.000   0.000  -0.000   0.000
 total augmentation occupancy for first ion, spin component:           1
  1.400   0.000   0.000   0.000   0.000   0.000   0.000   0.000   0.000   0.000   0.000   0.000   0.000   0.000   0.000   0.000
  0.000   1.400   0.000   0.000   0.000   0.000   0.000   0.000   0.000   0.000   0.000   0.000   0.000   0.000   0.000   0.000
  0.000   0.000   1.400   0.000   0.000   0.000   0.000   0.000   0.000   0.000   0.000   0.000   0.000   0.000   0.000   0.000
  0.000   0.000   0.000   1.400   0.000   0.000   0.000   0.000   0.000   0.000   0.000   0.000   0.000   0.000   0.000   0.000
  0.000   0.000   0.000   0.000   1.400   0.000   0.000   0.000   0.000   0.000   0.000   0.000   0.000   0.000   0.000   0.000
  0.000   0.000   0.000   0.000   0.000   0.000   0.000   0.000   0.000   0.000   0.000   0.000   0.000   0.000   0.000   0.000
  0.000   0.000   0.000   0.000   0.000   0.000   0.000   0.000   0.000   0.000   0.000   0.000   0.000   0.000   0.000   0.000
  0.000   0.000   0.000   0.000   0.000   0.000   0.000   0.000   0.000   0.000   0.000   0.000   0.000   0.000   0.000   0.000
  0.000   0.000   0.000   0.000   0.000   0.000   0.000   0.000   0.000   0.000   0.000   0.000   0.000   0.000   0.000   0.000
  0.000   0.000   0.000   0.000   0.000   0.000   0.000   0.000   0.000   0.000   0.000   0.000   0.000   0.000   0.000   0.000
  0.000   0.000   0.000   0.000   0.000   0.000   0.000   0.000   0.000   0.000   1.000   0.000   0.000   0.000   0.000   0.000
  0.000   0.000   0.000   0.000   0.000   0.000   0.000   0.000   0.000   0.000   0.000   0.000   0.000   0.000   0.000   0.000
  0.000   0.000   0.000   0.000   0.000   0.000   0.000   0.000   0.000   0.000   0.000   0.000   0.000   0.000   0.000   0.000
  0.000   0.000   0.000   0.000   0.000   0.000   0.000   0.000   0.000   0.000   0.000   0.000   0.000   0.000   0.000   0.000
  0.000   0.000   0.000   0.000   0.000   0.000   0.000   0.000   0.000   0.000   0.000   0.000   0.000   0.000   0.000   0.000
  0.000   0.000   0.000   0.000   0.000   0.000   0.000   0.000   0.000   0.000   0.000   0.000   0.000   0.000   0.000   0.000
  0.000   0.000   0.000   0.000   0.000   0.000   0.000   0.000   0.000   0.000   0.000   0.000   0.000   0.000   0.000   0.000
  0.000   0.000   0.000   0.000   0.000   0.000   0.000   0.000   0.000   0.000   0.000   0.000   0.000   0.000   0.000   0.000
 total augmentation occupancy for first ion, spin component:           2
  0.525   0.000   0.000   0.000   0.000   0.000   0.000   0.000   0.000   0.000   0.000   0.000   0.000   0.000   0.000   0.000
  0.000   0.525   0.000   0.000   0.000   0.000   0.000   0.000   0.000   0.000   0.000   0.000   0.000   0.000   0.000   0.000
  0.000   0.000   0.525   0.000   0.000   0.000   0.000   0.000   0.000   0.000   0.000   0.000   0.000   0.000   0.000   0.000
  0.000   0.000   0.000   0.525   0.000   0.000   0.000   0.000   0.000   0.000   0.000   0.000   0.000   0.000   0.000   0.000
  0.000   0.000   0.000   0.000   0.525   0.000   0.000   0.000   0.000   0.000   0.000   0.000   0.000   0.000   0.000   0.000
  0.000   0.000   0.000   0.000   0.000   0.000   0.000   0.000   0.000   0.000   0.000   0.000   0.000   0.000   0.000   0.000
  0.000   0.000   0.000   0.000   0.000   0.000   0.000   0.000   0.000   0.000   0.000   0.000   0.000   0.000   0.000   0.000
  0.000   0.000   0.000   0.000   0.000   0.000   0.000   0.000   0.000   0.000   0.000   0.000   0.000   0.000   0.000   0.000
  0.000   0.000   0.000   0.000   0.000   0.000   0.000   0.000   0.000   0.000   0.000   0.000   0.000   0.000   0.000   0.000
  0.000   0.000   0.000   0.000   0.000   0.000   0.000   0.000   0.000   0.000   0.000   0.000   0.000   0.000   0.000   0.000
  0.000   0.000   0.000   0.000   0.000   0.000   0.000   0.000   0.000   0.000   0.375   0.000   0.000   0.000   0.000   0.000
  0.000   0.000   0.000   0.000   0.000   0.000   0.000   0.000   0.000   0.000   0.000   0.000   0.000   0.000   0.000   0.000
  0.000   0.000   0.000   0.000   0.000   0.000   0.000   0.000   0.000   0.000   0.000   0.000   0.000   0.000   0.000   0.000
  0.000   0.000   0.000   0.000   0.000   0.000   0.000   0.000   0.000   0.000   0.000   0.000   0.000   0.000   0.000   0.000
  0.000   0.000   0.000   0.000   0.000   0.000   0.000   0.000   0.000   0.000   0.000   0.000   0.000   0.000   0.000   0.000
  0.000   0.000   0.000   0.000   0.000   0.000   0.000   0.000   0.000   0.000   0.000   0.000   0.000   0.000   0.000   0.000
  0.000   0.000   0.000   0.000   0.000   0.000   0.000   0.000   0.000   0.000   0.000   0.000   0.000   0.000   0.000   0.000
  0.000   0.000   0.000   0.000   0.000   0.000   0.000   0.000   0.000   0.000   0.000   0.000   0.000   0.000   0.000   0.000


------------------------ aborting loop because EDIFF is reached ----------------------------------------


    CHARGE:  cpu time    0.0034: real time    0.0034
    FORLOC:  cpu time    0.0000: real time    0.0001
    FORNL :  cpu time    0.0085: real time    0.0093
    STRESS:  cpu time    0.0338: real time    0.0339
    FORCOR:  cpu time    0.0020: real time    0.0020
    FORHAR:  cpu time    0.0003: real time    0.0003
    OFIELD:  cpu time    0.0000: real time    0.0000

  FORCE on cell =-STRESS in cart. coord.  units (eV):
  Direction    XX          YY          ZZ          XY          YZ          ZX
  --------------------------------------------------------------------------------------
  Alpha Z    60.34604    60.34604    60.34604
  Ewald    -196.82462  -196.82462  -196.82462     0.00000     0.00000    -0.00000
  Hartree    33.98932    33.98932    33.98932    -0.00000    -0.00000    -0.00000
  E(xc)     -39.66862   -39.66862   -39.66862     0.00011     0.00011     0.00011
  Local      60.36752    60.36752    60.36752    -0.00028    -0.00028    -0.00028
  n-local   -26.40352   -26.85961   -24.39235    -1.59604    -0.17472    -0.17479
  augment    39.64450    39.64450    39.64450     0.00051     0.00051     0.00051
  Kinetic    72.79854    73.32665    72.10874     1.73514     0.34902     0.34904
  Fock        0.00000     0.00000     0.00000     0.00000     0.00000     0.00000
  -------------------------------------------------------------------------------------
  Total       4.71363     4.71363     4.71363     0.00000     0.00000     0.00000
  in kB     659.40132   659.40132   659.40132     0.00000     0.00000     0.00000
  external pressure =      659.40 kB  Pullay stress =        0.00 kB


 VOLUME and BASIS-vectors are now :
 -----------------------------------------------------------------------------
  energy-cutoff  :      268.00
  volume of cell :       11.45
      direct lattice vectors                 reciprocal lattice vectors
    -1.419990000  1.419990000  1.419990000     0.000000000  0.352115156  0.352115156
     1.419990000 -1.419990000  1.419990000     0.352115156  0.000000000  0.352115156
     1.419990000  1.419990000 -1.419990000     0.352115156  0.352115156  0.000000000

  length of vectors
     2.459494826  2.459494826  2.459494826     0.497966029  0.497966029  0.497966029


 FORCES acting on ions
    electron-ion (+dipol)            ewald-force                    non-local-force                 convergence-correction
 -----------------------------------------------------------------------------------------------
   0.109E-13 0.122E-13 0.958E-14   0.151E-14 -.129E-14 0.124E-14   0.000E+00 -.424E-21 0.000E+00   0.140E-14 0.213E-14 -.179E-14
 -----------------------------------------------------------------------------------------------
   0.109E-13 0.122E-13 0.958E-14   0.151E-14 -.129E-14 0.124E-14   0.000E+00 -.424E-21 0.000E+00   0.140E-14 0.213E-14 -.179E-14
 
 
 POSITION                                       TOTAL-FORCE (eV/Angst)
 -----------------------------------------------------------------------------------
      0.00000      0.00000      0.00000         0.000000      0.000000      0.000000
 -----------------------------------------------------------------------------------
    total drift:                                0.000000      0.000000      0.000000


--------------------------------------------------------------------------------------------------------



  FREE ENERGIE OF THE ION-ELECTRON SYSTEM (eV)
  ---------------------------------------------------
  free  energy   TOTEN  =        -9.14734809 eV

  energy  without entropy=       -9.14788898  energy(sigma->0) =       -9.14752839
 


--------------------------------------------------------------------------------------------------------


    POTLOK:  cpu time    0.0057: real time    0.0057


--------------------------------------------------------------------------------------------------------


 writing wavefunctions
     LOOP+:  cpu time    1.5870: real time    1.6340
    4ORBIT:  cpu time    0.0000: real time    0.0000

volume of typ            1:    80.7 %
 
total charge     
 
# of ion       s       p       d       tot
------------------------------------------
    1        0.467   0.310   6.297   7.074
 
magnetization (x)
 
# of ion       s       p       d       tot
------------------------------------------
    1       -0.001  -0.018   2.372   2.353
 
orbital moment (x)
 
# of ion     s             p             d             tot
-----------------------------------------------------------------
    1     0.000000E+00  0.117556E-08 -0.741307E-07 -0.729551E-07
 
orbital moment (y)
 
# of ion     s             p             d             tot
-----------------------------------------------------------------
    1     0.000000E+00  0.122790E-07  0.839888E-07  0.962678E-07
 
orbital moment (z)
 
# of ion     s             p             d             tot
-----------------------------------------------------------------
    1     0.000000E+00 -0.375825E-07 -0.111939E-06 -0.149521E-06
 
orbital moment (x)
 
# of ion     s             p             d             tot
-----------------------------------------------------------------
    1     0.000000E+00  0.314787E-08  0.609739E-07  0.641218E-07
 
orbital moment (y)
 
# of ion     s             p             d             tot
-----------------------------------------------------------------
    1     0.000000E+00  0.243526E-07 -0.802139E-07 -0.558613E-07
 
orbital moment (z)
 
# of ion     s             p             d             tot
-----------------------------------------------------------------
    1     0.000000E+00 -0.352788E-07 -0.105965E-06 -0.141244E-06
 

 total amount of memory used by VASP MPI-rank0    33950. kBytes
=======================================================================

   base      :      30000. kBytes
   nonl-proj :       1960. kBytes
   fftplans  :        142. kBytes
   grid      :        320. kBytes
   one-center:         31. kBytes
   wavefun   :       1497. kBytes
 
  
  
 General timing and accounting informations for this job:
 ========================================================
  
                  Total CPU time used (sec):        2.215
                            User time (sec):        1.654
                          System time (sec):        0.561
                         Elapsed time (sec):        2.627
  
                   Maximum memory used (kb):       61696.
                   Average memory used (kb):           0.
  
                          Minor page faults:        22819
                          Major page faults:           69
                 Voluntary context switches:         2332
