PROCAR new format
# of k-points:  100         # of bands:   12         # of ions:    1

 k-point     1 :    0.00000000 0.00000000 0.00000000     weight = 0.01000000

band     1 # energy   -2.65702898 # occ.  1.00000000
 
ion      s      p      d    tot
    1  0.610  0.000  0.000  0.610
 
band     2 # energy    3.36364080 # occ.  1.00000000
 
ion      s      p      d    tot
    1  0.000  0.000  0.970  0.970
 
band     3 # energy    3.36364080 # occ.  1.00000000
 
ion      s      p      d    tot
    1  0.000  0.000  0.970  0.970
 
band     4 # energy    3.36383623 # occ.  1.00000000
 
ion      s      p      d    tot
    1  0.000  0.000  0.970  0.970
 
band     5 # energy    4.75401314 # occ.  1.00000000
 
ion      s      p      d    tot
    1  0.000  0.000  0.970  0.970
 
band     6 # energy    4.75401314 # occ.  1.00000000
 
ion      s      p      d    tot
    1  0.000  0.000  0.970  0.970
 
band     7 # energy   30.67366692 # occ.  0.00000000
 
ion      s      p      d    tot
    1  0.000  0.000  0.000  0.000
 
band     8 # energy   30.67366723 # occ.  0.00000000
 
ion      s      p      d    tot
    1  0.000  0.000  0.000  0.000
 
band     9 # energy   30.67370685 # occ.  0.00000000
 
ion      s      p      d    tot
    1  0.000  0.000  0.000  0.000
 
band    10 # energy   35.79142492 # occ.  0.00000000
 
ion      s      p      d    tot
    1  0.000  0.000  0.359  0.359
 
band    11 # energy   35.79142776 # occ.  0.00000000
 
ion      s      p      d    tot
    1  0.000  0.000  0.359  0.359
 
band    12 # energy   37.95684431 # occ.  0.00000000
 
ion      s      p      d    tot
    1  0.000  0.001  0.788  0.789
 

 k-point     2 :    0.02631579-0.02631579 0.02631579     weight = 0.01000000

band     1 # energy   -2.59974926 # occ.  1.00000000
 
ion      s      p      d    tot
    1  0.607  0.003  0.000  0.610
 
band     2 # energy    3.36320836 # occ.  1.00000000
 
ion      s      p      d    tot
    1  0.000  0.000  0.970  0.970
 
band     3 # energy    3.36333790 # occ.  1.00000000
 
ion      s      p      d    tot
    1  0.000  0.000  0.970  0.970
 
band     4 # energy    3.37921954 # occ.  1.00000000
 
ion      s      p      d    tot
    1  0.000  0.000  0.970  0.970
 
band     5 # energy    4.72834509 # occ.  1.00000000
 
ion      s      p      d    tot
    1  0.000  0.000  0.968  0.968
 
band     6 # energy    4.76429920 # occ.  1.00000000
 
ion      s      p      d    tot
    1  0.000  0.000  0.970  0.970
 
band     7 # energy   30.26483394 # occ.  0.00000000
 
ion      s      p      d    tot
    1  0.000  0.000  0.043  0.043
 
band     8 # energy   30.62284829 # occ.  0.00000000
 
ion      s      p      d    tot
    1  0.000  0.001  0.023  0.024
 
band     9 # energy   30.62286608 # occ.  0.00000000
 
ion      s      p      d    tot
    1  0.000  0.001  0.023  0.024
 
band    10 # energy   35.16054834 # occ.  0.00000000
 
ion      s      p      d    tot
    1  0.002  0.151  0.265  0.418
 
band    11 # energy   36.33338535 # occ.  0.00000000
 
ion      s      p      d    tot
    1  0.000  0.000  0.319  0.319
 
band    12 # energy   36.83852276 # occ.  0.00000000
 
ion      s      p      d    tot
    1  0.000  0.391  0.391  0.782
 

 k-point     3 :    0.05263158-0.05263158 0.05263158     weight = 0.01000000

band     1 # energy   -2.42918323 # occ.  1.00000000
 
ion      s      p      d    tot
    1  0.597  0.013  0.000  0.611
 
band     2 # energy    3.37131879 # occ.  1.00000000
 
ion      s      p      d    tot
    1  0.000  0.001  0.967  0.968
 
band     3 # energy    3.37142972 # occ.  1.00000000
 
ion      s      p      d    tot
    1  0.000  0.001  0.967  0.968
 
band     4 # energy    3.42783227 # occ.  1.00000000
 
ion      s      p      d    tot
    1  0.000  0.000  0.970  0.970
 
band     5 # energy    4.65680112 # occ.  1.00000000
 
ion      s      p      d    tot
    1  0.000  0.000  0.965  0.965
 
band     6 # energy    4.79834616 # occ.  1.00000000
 
ion      s      p      d    tot
    1  0.000  0.000  0.971  0.971
 
band     7 # energy   29.36806005 # occ.  0.00000000
 
ion      s      p      d    tot
    1  0.000  0.000  0.111  0.111
 
band     8 # energy   30.44463828 # occ.  0.00000000
 
ion      s      p      d    tot
    1  0.000  0.012  0.090  0.102
 
band     9 # energy   30.44463995 # occ.  0.00000000
 
ion      s      p      d    tot
    1  0.000  0.012  0.090  0.102
 
band    10 # energy   33.95414937 # occ.  0.00000000
 
ion      s      p      d    tot
    1  0.013  0.274  0.167  0.454
 
band    11 # energy   35.90472232 # occ.  0.00000000
 
ion      s      p      d    tot
    1  0.000  0.459  0.270  0.728
 
band    12 # energy   35.90478345 # occ.  0.00000000
 
ion      s      p      d    tot
    1  0.000  0.459  0.270  0.728
 

 k-point     4 :    0.07894737-0.07894737 0.07894737     weight = 0.01000000

band     1 # energy   -2.14967256 # occ.  1.00000000
 
ion      s      p      d    tot
    1  0.581  0.029  0.002  0.612
 
band     2 # energy    3.37147644 # occ.  1.00000000
 
ion      s      p      d    tot
    1  0.000  0.003  0.963  0.966
 
band     3 # energy    3.37158891 # occ.  1.00000000
 
ion      s      p      d    tot
    1  0.000  0.003  0.963  0.966
 
band     4 # energy    3.50291789 # occ.  1.00000000
 
ion      s      p      d    tot
    1  0.000  0.000  0.970  0.970
 
band     5 # energy    4.53001663 # occ.  1.00000000
 
ion      s      p      d    tot
    1  0.000  0.000  0.959  0.959
 
band     6 # energy    4.84666703 # occ.  1.00000000
 
ion      s      p      d    tot
    1  0.001  0.000  0.972  0.973
 
band     7 # energy   28.32662157 # occ.  0.00000000
 
ion      s      p      d    tot
    1  0.000  0.000  0.171  0.171
 
band     8 # energy   29.99058106 # occ.  0.00000000
 
ion      s      p      d    tot
    1  0.000  0.056  0.191  0.247
 
band     9 # energy   29.99060739 # occ.  0.00000000
 
ion      s      p      d    tot
    1  0.000  0.056  0.191  0.247
 
band    10 # energy   32.60088621 # occ.  0.00000000
 
ion      s      p      d    tot
    1  0.033  0.326  0.103  0.462
 
band    11 # energy   35.28811360 # occ.  0.00000000
 
ion      s      p      d    tot
    1  0.000  0.460  0.154  0.615
 
band    12 # energy   35.28813908 # occ.  0.00000000
 
ion      s      p      d    tot
    1  0.000  0.461  0.154  0.615
 

 k-point     5 :    0.10526316-0.10526316 0.10526316     weight = 0.01000000

band     1 # energy   -1.76887667 # occ.  1.00000000
 
ion      s      p      d    tot
    1  0.557  0.051  0.005  0.613
 
band     2 # energy    3.38176523 # occ.  1.00000000
 
ion      s      p      d    tot
    1  0.000  0.005  0.958  0.963
 
band     3 # energy    3.38187270 # occ.  1.00000000
 
ion      s      p      d    tot
    1  0.000  0.005  0.958  0.963
 
band     4 # energy    3.61407676 # occ.  1.00000000
 
ion      s      p      d    tot
    1  0.000  0.000  0.970  0.970
 
band     5 # energy    4.35915335 # occ.  1.00000000
 
ion      s      p      d    tot
    1  0.000  0.000  0.952  0.952
 
band     6 # energy    4.91297861 # occ.  1.00000000
 
ion      s      p      d    tot
    1  0.003  0.001  0.971  0.975
 
band     7 # energy   27.31084135 # occ.  0.00000000
 
ion      s      p      d    tot
    1  0.000  0.000  0.222  0.222
 
band     8 # energy   29.21435817 # occ.  0.00000000
 
ion      s      p      d    tot
    1  0.000  0.132  0.276  0.408
 
band     9 # energy   29.21440190 # occ.  0.00000000
 
ion      s      p      d    tot
    1  0.000  0.132  0.276  0.408
 
band    10 # energy   31.24524578 # occ.  0.00000000
 
ion      s      p      d    tot
    1  0.060  0.341  0.058  0.458
 
band    11 # energy   35.17983514 # occ.  0.00000000
 
ion      s      p      d    tot
    1  0.000  0.426  0.059  0.485
 
band    12 # energy   35.17983889 # occ.  0.00000000
 
ion      s      p      d    tot
    1  0.000  0.426  0.059  0.485
 

 k-point     6 :    0.13157895-0.13157895 0.13157895     weight = 0.01000000

band     1 # energy   -1.29904961 # occ.  1.00000000
 
ion      s      p      d    tot
    1  0.525  0.077  0.013  0.616
 
band     2 # energy    3.40328948 # occ.  1.00000000
 
ion      s      p      d    tot
    1  0.000  0.008  0.952  0.960
 
band     3 # energy    3.40339865 # occ.  1.00000000
 
ion      s      p      d    tot
    1  0.000  0.008  0.952  0.960
 
band     4 # energy    3.74127966 # occ.  1.00000000
 
ion      s      p      d    tot
    1  0.000  0.000  0.970  0.970
 
band     5 # energy    4.14551389 # occ.  1.00000000
 
ion      s      p      d    tot
    1  0.000  0.000  0.943  0.943
 
band     6 # energy    4.99647021 # occ.  1.00000007
 
ion      s      p      d    tot
    1  0.008  0.001  0.966  0.976
 
band     7 # energy   26.36367443 # occ.  0.00000000
 
ion      s      p      d    tot
    1  0.000  0.000  0.269  0.269
 
band     8 # energy   28.17891144 # occ.  0.00000000
 
ion      s      p      d    tot
    1  0.000  0.213  0.319  0.531
 
band     9 # energy   28.17896296 # occ.  0.00000000
 
ion      s      p      d    tot
    1  0.000  0.213  0.319  0.531
 
band    10 # energy   29.94917783 # occ.  0.00000000
 
ion      s      p      d    tot
    1  0.092  0.334  0.026  0.452
 
band    11 # energy   35.47477066 # occ.  0.00000000
 
ion      s      p      d    tot
    1  0.000  0.381  0.012  0.393
 
band    12 # energy   35.47478673 # occ.  0.00000000
 
ion      s      p      d    tot
    1  0.000  0.381  0.012  0.393
 

 k-point     7 :    0.15789474-0.15789474 0.15789474     weight = 0.01000000

band     1 # energy   -0.75890146 # occ.  1.00000000
 
ion      s      p      d    tot
    1  0.484  0.106  0.031  0.621
 
band     2 # energy    3.44399890 # occ.  1.00000000
 
ion      s      p      d    tot
    1  0.000  0.011  0.946  0.957
 
band     3 # energy    3.44410994 # occ.  1.00000000
 
ion      s      p      d    tot
    1  0.000  0.011  0.946  0.957
 
band     4 # energy    3.89079146 # occ.  1.00000000
 
ion      s      p      d    tot
    1  0.000  0.000  0.970  0.970
 
band     5 # energy    3.89658387 # occ.  1.00000000
 
ion      s      p      d    tot
    1  0.000  0.000  0.934  0.934
 
band     6 # energy    5.10395044 # occ.  1.00000348
 
ion      s      p      d    tot
    1  0.018  0.004  0.953  0.974
 
band     7 # energy   25.51054437 # occ.  0.00000000
 
ion      s      p      d    tot
    1  0.000  0.000  0.312  0.312
 
band     8 # energy   27.00612736 # occ.  0.00000000
 
ion      s      p      d    tot
    1  0.000  0.281  0.328  0.609
 
band     9 # energy   27.00617729 # occ.  0.00000000
 
ion      s      p      d    tot
    1  0.000  0.281  0.328  0.609
 
band    10 # energy   28.74645204 # occ.  0.00000000
 
ion      s      p      d    tot
    1  0.127  0.313  0.007  0.447
 
band    11 # energy   36.06959409 # occ.  0.00000000
 
ion      s      p      d    tot
    1  0.000  0.346  0.000  0.346
 
band    12 # energy   36.06961280 # occ.  0.00000000
 
ion      s      p      d    tot
    1  0.000  0.346  0.000  0.346
 

 k-point     8 :    0.18421053-0.18421053 0.18421053     weight = 0.01000000

band     1 # energy   -0.17714455 # occ.  1.00000000
 
ion      s      p      d    tot
    1  0.431  0.134  0.065  0.630
 
band     2 # energy    3.50939161 # occ.  1.00000000
 
ion      s      p      d    tot
    1  0.000  0.015  0.939  0.954
 
band     3 # energy    3.50950484 # occ.  1.00000000
 
ion      s      p      d    tot
    1  0.000  0.015  0.939  0.954
 
band     4 # energy    3.61925679 # occ.  1.00000000
 
ion      s      p      d    tot
    1  0.000  0.000  0.923  0.923
 
band     5 # energy    4.05878670 # occ.  1.00000000
 
ion      s      p      d    tot
    1  0.000  0.000  0.970  0.970
 
band     6 # energy    5.25025060 # occ.  1.00027108
 
ion      s      p      d    tot
    1  0.036  0.009  0.923  0.968
 
band     7 # energy   24.75695604 # occ.  0.00000000
 
ion      s      p      d    tot
    1  0.000  0.000  0.352  0.352
 
band     8 # energy   25.77759823 # occ.  0.00000000
 
ion      s      p      d    tot
    1  0.000  0.337  0.318  0.655
 
band     9 # energy   25.77764157 # occ.  0.00000000
 
ion      s      p      d    tot
    1  0.000  0.337  0.318  0.655
 
band    10 # energy   27.66332084 # occ.  0.00000000
 
ion      s      p      d    tot
    1  0.164  0.281  0.000  0.445
 
band    11 # energy   36.87653832 # occ.  0.00000000
 
ion      s      p      d    tot
    1  0.000  0.320  0.009  0.329
 
band    12 # energy   36.87654737 # occ.  0.00000000
 
ion      s      p      d    tot
    1  0.000  0.320  0.009  0.329
 

 k-point     9 :    0.21052632-0.21052632 0.21052632     weight = 0.01000000

band     1 # energy    0.40303678 # occ.  1.00000000
 
ion      s      p      d    tot
    1  0.364  0.157  0.125  0.647
 
band     2 # energy    3.32151520 # occ.  1.00000000
 
ion      s      p      d    tot
    1  0.000  0.000  0.913  0.913
 
band     3 # energy    3.60433164 # occ.  1.00000000
 
ion      s      p      d    tot
    1  0.000  0.019  0.933  0.951
 
band     4 # energy    3.60444754 # occ.  1.00000000
 
ion      s      p      d    tot
    1  0.000  0.019  0.933  0.951
 
band     5 # energy    4.24091368 # occ.  1.00000000
 
ion      s      p      d    tot
    1  0.000  0.000  0.971  0.971
 
band     6 # energy    5.46566203 # occ.  1.01748728
 
ion      s      p      d    tot
    1  0.065  0.022  0.865  0.952
 
band     7 # energy   24.10151211 # occ.  0.00000000
 
ion      s      p      d    tot
    1  0.000  0.000  0.391  0.391
 
band     8 # energy   24.53923451 # occ.  0.00000000
 
ion      s      p      d    tot
    1  0.000  0.383  0.299  0.681
 
band     9 # energy   24.53926873 # occ.  0.00000000
 
ion      s      p      d    tot
    1  0.000  0.383  0.299  0.681
 
band    10 # energy   26.71750583 # occ.  0.00000000
 
ion      s      p      d    tot
    1  0.200  0.242  0.005  0.447
 
band    11 # energy   37.84294344 # occ.  0.00000000
 
ion      s      p      d    tot
    1  0.000  0.300  0.029  0.329
 
band    12 # energy   37.84320525 # occ.  0.00000000
 
ion      s      p      d    tot
    1  0.000  0.300  0.029  0.329
 

 k-point    10 :    0.23684211-0.23684211 0.23684211     weight = 0.01000000

band     1 # energy    0.92269083 # occ.  1.00000000
 
ion      s      p      d    tot
    1  0.283  0.169  0.223  0.675
 
band     2 # energy    3.01199353 # occ.  1.00000000
 
ion      s      p      d    tot
    1  0.000  0.000  0.903  0.903
 
band     3 # energy    3.73240621 # occ.  1.00000000
 
ion      s      p      d    tot
    1  0.000  0.022  0.927  0.949
 
band     4 # energy    3.73252540 # occ.  1.00000000
 
ion      s      p      d    tot
    1  0.000  0.022  0.927  0.949
 
band     5 # energy    4.43236213 # occ.  1.00000000
 
ion      s      p      d    tot
    1  0.000  0.000  0.971  0.971
 
band     6 # energy    5.79900891 # occ.  0.54890230
 
ion      s      p      d    tot
    1  0.107  0.046  0.770  0.924
 
band     7 # energy   23.31778339 # occ.  0.00000000
 
ion      s      p      d    tot
    1  0.000  0.422  0.273  0.695
 
band     8 # energy   23.31780707 # occ.  0.00000000
 
ion      s      p      d    tot
    1  0.000  0.422  0.273  0.695
 
band     9 # energy   23.53919860 # occ.  0.00000000
 
ion      s      p      d    tot
    1  0.000  0.000  0.427  0.427
 
band    10 # energy   25.91820229 # occ.  0.00000000
 
ion      s      p      d    tot
    1  0.234  0.199  0.021  0.454
 
band    11 # energy   38.93623785 # occ.  0.00000000
 
ion      s      p      d    tot
    1  0.000  0.285  0.054  0.339
 
band    12 # energy   38.93737743 # occ.  0.00000000
 
ion      s      p      d    tot
    1  0.000  0.284  0.054  0.338
 

 k-point    11 :    0.26315789-0.26315789 0.26315789     weight = 0.01000000

band     1 # energy    1.31783341 # occ.  1.00000000
 
ion      s      p      d    tot
    1  0.197  0.162  0.353  0.713
 
band     2 # energy    2.69968263 # occ.  1.00000000
 
ion      s      p      d    tot
    1  0.000  0.000  0.893  0.893
 
band     3 # energy    3.89632515 # occ.  1.00000000
 
ion      s      p      d    tot
    1  0.000  0.026  0.923  0.949
 
band     4 # energy    3.89644696 # occ.  1.00000000
 
ion      s      p      d    tot
    1  0.000  0.026  0.923  0.949
 
band     5 # energy    4.63023877 # occ.  1.00000000
 
ion      s      p      d    tot
    1  0.000  0.000  0.973  0.973
 
band     6 # energy    6.29822243 # occ. -0.00151954
 
ion      s      p      d    tot
    1  0.153  0.089  0.641  0.882
 
band     7 # energy   22.13478924 # occ.  0.00000000
 
ion      s      p      d    tot
    1  0.000  0.455  0.245  0.699
 
band     8 # energy   22.13480132 # occ.  0.00000000
 
ion      s      p      d    tot
    1  0.000  0.455  0.245  0.699
 
band     9 # energy   23.06303019 # occ.  0.00000000
 
ion      s      p      d    tot
    1  0.000  0.000  0.460  0.460
 
band    10 # energy   25.26247359 # occ.  0.00000000
 
ion      s      p      d    tot
    1  0.264  0.155  0.048  0.467
 
band    11 # energy   40.04544518 # occ.  0.00000000
 
ion      s      p      d    tot
    1  0.000  0.001  0.517  0.519
 
band    12 # energy   40.13329813 # occ.  0.00000000
 
ion      s      p      d    tot
    1  0.000  0.272  0.082  0.354
 

 k-point    12 :    0.28947368-0.28947368 0.28947368     weight = 0.01000000

band     1 # energy    1.55096415 # occ.  1.00000000
 
ion      s      p      d    tot
    1  0.122  0.141  0.492  0.755
 
band     2 # energy    2.39353723 # occ.  1.00000000
 
ion      s      p      d    tot
    1  0.000  0.000  0.885  0.885
 
band     3 # energy    4.09257706 # occ.  1.00000000
 
ion      s      p      d    tot
    1  0.000  0.028  0.921  0.949
 
band     4 # energy    4.09270510 # occ.  1.00000000
 
ion      s      p      d    tot
    1  0.000  0.028  0.921  0.949
 
band     5 # energy    4.82381899 # occ.  1.00000000
 
ion      s      p      d    tot
    1  0.000  0.000  0.974  0.974
 
band     6 # energy    7.01495482 # occ. -0.00000000
 
ion      s      p      d    tot
    1  0.188  0.145  0.502  0.835
 
band     7 # energy   20.99355174 # occ.  0.00000000
 
ion      s      p      d    tot
    1  0.000  0.484  0.215  0.699
 
band     8 # energy   20.99355177 # occ.  0.00000000
 
ion      s      p      d    tot
    1  0.000  0.484  0.215  0.699
 
band     9 # energy   22.66503829 # occ.  0.00000000
 
ion      s      p      d    tot
    1  0.000  0.000  0.491  0.491
 
band    10 # energy   24.74306164 # occ.  0.00000000
 
ion      s      p      d    tot
    1  0.288  0.111  0.085  0.483
 
band    11 # energy   38.19346889 # occ.  0.00000000
 
ion      s      p      d    tot
    1  0.074  0.307  0.228  0.609
 
band    12 # energy   40.52799267 # occ.  0.00000000
 
ion      s      p      d    tot
    1  0.000  0.000  0.468  0.469
 

 k-point    13 :    0.31578947-0.31578947 0.31578947     weight = 0.01000000

band     1 # energy    1.62955654 # occ.  1.00000000
 
ion      s      p      d    tot
    1  0.068  0.113  0.610  0.791
 
band     2 # energy    2.10208632 # occ.  1.00000000
 
ion      s      p      d    tot
    1  0.000  0.000  0.878  0.878
 
band     3 # energy    4.32061394 # occ.  1.00000000
 
ion      s      p      d    tot
    1  0.000  0.029  0.922  0.951
 
band     4 # energy    4.32074927 # occ.  1.00000000
 
ion      s      p      d    tot
    1  0.000  0.029  0.922  0.951
 
band     5 # energy    5.01082151 # occ.  1.00000012
 
ion      s      p      d    tot
    1  0.000  0.000  0.976  0.976
 
band     6 # energy    7.93713593 # occ. -0.00000000
 
ion      s      p      d    tot
    1  0.202  0.206  0.383  0.791
 
band     7 # energy   19.91434463 # occ.  0.00000000
 
ion      s      p      d    tot
    1  0.000  0.511  0.183  0.694
 
band     8 # energy   19.91435742 # occ.  0.00000000
 
ion      s      p      d    tot
    1  0.000  0.511  0.183  0.694
 
band     9 # energy   22.33708075 # occ.  0.00000000
 
ion      s      p      d    tot
    1  0.000  0.000  0.518  0.518
 
band    10 # energy   24.33869994 # occ.  0.00000000
 
ion      s      p      d    tot
    1  0.301  0.070  0.131  0.502
 
band    11 # energy   35.90102595 # occ.  0.00000000
 
ion      s      p      d    tot
    1  0.124  0.307  0.200  0.631
 
band    12 # energy   41.07623122 # occ.  0.00000000
 
ion      s      p      d    tot
    1  0.000  0.000  0.414  0.414
 

 k-point    14 :    0.34210526-0.34210526 0.34210526     weight = 0.01000000

band     1 # energy    1.59552366 # occ.  1.00000000
 
ion      s      p      d    tot
    1  0.034  0.085  0.697  0.817
 
band     2 # energy    1.83162706 # occ.  1.00000000
 
ion      s      p      d    tot
    1  0.000  0.000  0.871  0.871
 
band     3 # energy    4.57129825 # occ.  1.00000000
 
ion      s      p      d    tot
    1  0.000  0.029  0.925  0.954
 
band     4 # energy    4.57144693 # occ.  1.00000000
 
ion      s      p      d    tot
    1  0.000  0.029  0.925  0.954
 
band     5 # energy    5.18588215 # occ.  1.00004604
 
ion      s      p      d    tot
    1  0.000  0.000  0.979  0.979
 
band     6 # energy    9.03296696 # occ. -0.00000000
 
ion      s      p      d    tot
    1  0.196  0.268  0.293  0.756
 
band     7 # energy   18.90911183 # occ.  0.00000000
 
ion      s      p      d    tot
    1  0.000  0.535  0.150  0.685
 
band     8 # energy   18.90913833 # occ.  0.00000000
 
ion      s      p      d    tot
    1  0.000  0.535  0.150  0.685
 
band     9 # energy   22.05925770 # occ.  0.00000000
 
ion      s      p      d    tot
    1  0.000  0.000  0.543  0.543
 
band    10 # energy   24.03476816 # occ.  0.00000000
 
ion      s      p      d    tot
    1  0.301  0.036  0.185  0.521
 
band    11 # energy   33.71708374 # occ.  0.00000000
 
ion      s      p      d    tot
    1  0.185  0.296  0.173  0.654
 
band    12 # energy   41.69141467 # occ.  0.00000000
 
ion      s      p      d    tot
    1  0.000  0.000  0.356  0.356
 

 k-point    15 :    0.36842105-0.36842105 0.36842105     weight = 0.01000000

band     1 # energy    1.48874286 # occ.  1.00000000
 
ion      s      p      d    tot
    1  0.015  0.060  0.758  0.834
 
band     2 # energy    1.59185014 # occ.  1.00000000
 
ion      s      p      d    tot
    1  0.000  0.000  0.866  0.866
 
band     3 # energy    4.83900343 # occ.  1.00000000
 
ion      s      p      d    tot
    1  0.000  0.026  0.933  0.959
 
band     4 # energy    4.83916232 # occ.  1.00000000
 
ion      s      p      d    tot
    1  0.000  0.026  0.933  0.959
 
band     5 # energy    5.34385710 # occ.  1.00235690
 
ion      s      p      d    tot
    1  0.000  0.000  0.981  0.981
 
band     6 # energy   10.25098574 # occ. -0.00000000
 
ion      s      p      d    tot
    1  0.175  0.327  0.227  0.728
 
band     7 # energy   17.99772122 # occ.  0.00000000
 
ion      s      p      d    tot
    1  0.000  0.557  0.117  0.674
 
band     8 # energy   17.99776174 # occ.  0.00000000
 
ion      s      p      d    tot
    1  0.000  0.557  0.117  0.674
 
band     9 # energy   21.84539391 # occ.  0.00000000
 
ion      s      p      d    tot
    1  0.000  0.000  0.563  0.563
 
band    10 # energy   23.75513603 # occ.  0.00000000
 
ion      s      p      d    tot
    1  0.279  0.011  0.249  0.539
 
band    11 # energy   31.63477102 # occ.  0.00000000
 
ion      s      p      d    tot
    1  0.265  0.275  0.142  0.682
 
band    12 # energy   42.36220324 # occ.  0.00000000
 
ion      s      p      d    tot
    1  0.000  0.000  0.293  0.293
 

 k-point    16 :    0.39473684-0.39473684 0.39473684     weight = 0.01000000

band     1 # energy    1.35142970 # occ.  1.00000000
 
ion      s      p      d    tot
    1  0.006  0.039  0.799  0.844
 
band     2 # energy    1.38727510 # occ.  1.00000000
 
ion      s      p      d    tot
    1  0.000  0.000  0.863  0.863
 
band     3 # energy    5.10383735 # occ.  1.00000347
 
ion      s      p      d    tot
    1  0.000  0.021  0.944  0.965
 
band     4 # energy    5.10401344 # occ.  1.00000349
 
ion      s      p      d    tot
    1  0.000  0.021  0.944  0.965
 
band     5 # energy    5.48010140 # occ.  1.02066302
 
ion      s      p      d    tot
    1  0.000  0.000  0.983  0.983
 
band     6 # energy   11.54879266 # occ.  0.00000000
 
ion      s      p      d    tot
    1  0.142  0.385  0.176  0.704
 
band     7 # energy   17.19608397 # occ.  0.00000000
 
ion      s      p      d    tot
    1  0.000  0.578  0.084  0.662
 
band     8 # energy   17.19613822 # occ.  0.00000000
 
ion      s      p      d    tot
    1  0.000  0.578  0.084  0.662
 
band     9 # energy   21.67688787 # occ.  0.00000000
 
ion      s      p      d    tot
    1  0.000  0.000  0.580  0.580
 
band    10 # energy   23.43949912 # occ.  0.00000000
 
ion      s      p      d    tot
    1  0.226  0.000  0.327  0.553
 
band    11 # energy   29.75756900 # occ.  0.00000000
 
ion      s      p      d    tot
    1  0.376  0.235  0.103  0.714
 
band    12 # energy   43.06912669 # occ.  0.00000000
 
ion      s      p      d    tot
    1  0.000  0.000  0.225  0.225
 

 k-point    17 :    0.42105263-0.42105263 0.42105263     weight = 0.01000000

band     1 # energy    1.21604073 # occ.  1.00000000
 
ion      s      p      d    tot
    1  0.002  0.022  0.826  0.850
 
band     2 # energy    1.22324390 # occ.  1.00000000
 
ion      s      p      d    tot
    1  0.000  0.000  0.860  0.860
 
band     3 # energy    5.35126996 # occ.  1.00273660
 
ion      s      p      d    tot
    1  0.000  0.015  0.958  0.973
 
band     4 # energy    5.35145798 # occ.  1.00274687
 
ion      s      p      d    tot
    1  0.000  0.015  0.958  0.973
 
band     5 # energy    5.59057640 # occ.  1.03263710
 
ion      s      p      d    tot
    1  0.000  0.000  0.985  0.985
 
band     6 # energy   12.87863210 # occ.  0.00000000
 
ion      s      p      d    tot
    1  0.104  0.445  0.133  0.681
 
band     7 # energy   16.53110880 # occ.  0.00000000
 
ion      s      p      d    tot
    1  0.000  0.598  0.053  0.650
 
band     8 # energy   16.53117718 # occ.  0.00000000
 
ion      s      p      d    tot
    1  0.000  0.598  0.053  0.650
 
band     9 # energy   21.55307744 # occ.  0.00000000
 
ion      s      p      d    tot
    1  0.000  0.000  0.593  0.593
 
band    10 # energy   23.01674984 # occ.  0.00000000
 
ion      s      p      d    tot
    1  0.139  0.009  0.416  0.563
 
band    11 # energy   28.20094498 # occ.  0.00000000
 
ion      s      p      d    tot
    1  0.519  0.171  0.055  0.745
 
band    12 # energy   43.77485091 # occ.  0.00000000
 
ion      s      p      d    tot
    1  0.000  0.000  0.154  0.154
 

 k-point    18 :    0.44736842-0.44736842 0.44736842     weight = 0.01000000

band     1 # energy    1.10336670 # occ.  1.00000000
 
ion      s      p      d    tot
    1  0.000  0.000  0.858  0.858
 
band     2 # energy    1.10419229 # occ.  1.00000000
 
ion      s      p      d    tot
    1  0.000  0.010  0.843  0.854
 
band     3 # energy    5.55515469 # occ.  1.03506388
 
ion      s      p      d    tot
    1  0.000  0.008  0.972  0.980
 
band     4 # energy    5.55535330 # occ.  1.03507814
 
ion      s      p      d    tot
    1  0.000  0.008  0.972  0.980
 
band     5 # energy    5.67194968 # occ.  0.95747324
 
ion      s      p      d    tot
    1  0.000  0.000  0.986  0.986
 
band     6 # energy   14.14910124 # occ.  0.00000000
 
ion      s      p      d    tot
    1  0.061  0.513  0.086  0.660
 
band     7 # energy   16.02727405 # occ.  0.00000000
 
ion      s      p      d    tot
    1  0.000  0.614  0.026  0.639
 
band     8 # energy   16.02735466 # occ.  0.00000000
 
ion      s      p      d    tot
    1  0.000  0.614  0.026  0.639
 
band     9 # energy   21.46767277 # occ.  0.00000000
 
ion      s      p      d    tot
    1  0.000  0.000  0.603  0.603
 
band    10 # energy   22.40782633 # occ.  0.00000000
 
ion      s      p      d    tot
    1  0.047  0.026  0.504  0.577
 
band    11 # energy   27.09441318 # occ.  0.00000000
 
ion      s      p      d    tot
    1  0.664  0.089  0.016  0.769
 
band    12 # energy   44.41324649 # occ.  0.00000000
 
ion      s      p      d    tot
    1  0.000  0.000  0.083  0.083
 

 k-point    19 :    0.47368421-0.47368421 0.47368421     weight = 0.01000000

band     1 # energy    1.03036311 # occ.  1.00000000
 
ion      s      p      d    tot
    1  0.000  0.000  0.857  0.857
 
band     2 # energy    1.03116519 # occ.  1.00000000
 
ion      s      p      d    tot
    1  0.000  0.003  0.853  0.856
 
band     3 # energy    5.69072101 # occ.  0.91971451
 
ion      s      p      d    tot
    1  0.000  0.002  0.983  0.985
 
band     4 # energy    5.69092669 # occ.  0.91925180
 
ion      s      p      d    tot
    1  0.000  0.002  0.983  0.985
 
band     5 # energy    5.72176722 # occ.  0.83786985
 
ion      s      p      d    tot
    1  0.000  0.000  0.987  0.987
 
band     6 # energy   15.17524568 # occ.  0.00000000
 
ion      s      p      d    tot
    1  0.020  0.587  0.032  0.639
 
band     7 # energy   15.71105449 # occ.  0.00000000
 
ion      s      p      d    tot
    1  0.000  0.625  0.007  0.632
 
band     8 # energy   15.71114360 # occ.  0.00000000
 
ion      s      p      d    tot
    1  0.000  0.625  0.007  0.632
 
band     9 # energy   21.41764902 # occ.  0.00000000
 
ion      s      p      d    tot
    1  0.000  0.000  0.609  0.609
 
band    10 # energy   21.72975495 # occ.  0.00000000
 
ion      s      p      d    tot
    1  0.004  0.018  0.576  0.598
 
band    11 # energy   26.48689357 # occ.  0.00000000
 
ion      s      p      d    tot
    1  0.755  0.023  0.001  0.779
 
band    12 # energy   44.88011401 # occ.  0.00000000
 
ion      s      p      d    tot
    1  0.000  0.000  0.024  0.024
 

 k-point    20 :    0.50000000-0.50000000 0.50000000     weight = 0.01000000

band     1 # energy    1.00585223 # occ.  1.00000000
 
ion      s      p      d    tot
    1  0.000  0.000  0.856  0.856
 
band     2 # energy    1.00585224 # occ.  1.00000000
 
ion      s      p      d    tot
    1  0.000  0.000  0.856  0.856
 