fcc Au                                  
   3.80000000000000     
     0.000000    0.500000    0.500000
     0.500000    0.000000    0.500000
     0.500000    0.500000    0.000000
   Au
     1
Direct
  0.000000  0.000000  0.000000
 
   20   20   20
  65.748      62.757      55.197      45.910      36.741      27.955      19.639      12.723      8.2680      6.2247    
  5.6465      6.2247      8.2680      12.723      19.639      27.955      36.741      45.910      55.197      62.757    
  62.757      57.535      49.263      40.294      31.552      23.102      15.508      9.9160      6.8735      5.6948    
  5.6969      6.8763      9.9160      15.510      23.113      31.561      40.276      49.208      57.468      62.727    
  55.197      49.263      41.582      33.475      25.357      17.689      11.491      7.6148      5.8332      5.3122    
  5.8350      7.6143      11.490      17.698      25.375      33.480      41.551      49.202      55.146      57.468    
  45.910      40.294      33.475      26.136      18.871      12.615      8.2911      6.0203      5.0780      5.0784    
  6.0196      8.2875      12.612      18.875      26.147      33.483      40.292      45.900      49.202      49.208    
  36.741      31.552      25.357      18.871      13.021      8.6997      6.1871      4.9622      4.5910      4.9636    
  6.1870      8.6946      13.011      18.862      25.358      31.566      36.761      40.292      41.551      40.276    
  27.955      23.102      17.689      12.615      8.6997      6.2563      4.9217      4.3273      4.3281      4.9249    
  6.2610      8.7000      12.604      17.669      23.084      27.949      31.566      33.483      33.480      31.561    
  19.639      15.508      11.491      8.2911      6.1871      4.9217      4.2453      4.0398      4.2449      4.9267    
  6.1997      8.3036      11.491      15.489      19.608      23.084      25.358      26.147      25.375      23.113    
  12.723      9.9160      7.6148      6.0203      4.9622      4.3273      4.0398      4.0373      4.3228      4.9628    
  6.0325      7.6369      9.9354      12.724      15.489      17.669      18.862      18.875      17.698      15.510    
  8.2680      6.8735      5.8332      5.0780      4.5910      4.3281      4.2449      4.3228      4.5793      5.0655    
  5.8333      6.8937      8.2979      9.9354      11.491      12.604      13.011      12.612      11.490      9.9160    
  6.2247      5.6948      5.3122      5.0784      4.9636      4.9249      4.9267      4.9628      5.0655      5.2892    
  5.6765      6.2246      6.8937      7.6369      8.3036      8.7000      8.6946      8.2875      7.6143      6.8763    
  5.6465      5.6969      5.8350      6.0196      6.1870      6.2610      6.1997      6.0325      5.8333      5.6765    
  5.6177      5.6765      5.8333      6.0325      6.1997      6.2610      6.1870      6.0196      5.8350      5.6969    
  6.2247      6.8763      7.6143      8.2875      8.6946      8.7000      8.3036      7.6369      6.8937      6.2246    
  5.6765      5.2892      5.0655      4.9628      4.9267      4.9249      4.9636      5.0784      5.3122      5.6948    
  8.2680      9.9160      11.490      12.612      13.011      12.604      11.491      9.9354      8.2979      6.8937    
  5.8333      5.0655      4.5793      4.3228      4.2449      4.3281      4.5910      5.0780      5.8332      6.8735    
  12.723      15.510      17.698      18.875      18.862      17.669      15.489      12.724      9.9354      7.6369    
  6.0325      4.9628      4.3228      4.0373      4.0398      4.3273      4.9622      6.0203      7.6148      9.9160    
  19.639      23.113      25.375      26.147      25.358      23.084      19.608      15.489      11.491      8.3036    
  6.1997      4.9267      4.2449      4.0398      4.2453      4.9217      6.1871      8.2911      11.491      15.508    
  27.955      31.561      33.480      33.483      31.566      27.949      23.084      17.669      12.604      8.7000    
  6.2610      4.9249      4.3281      4.3273      4.9217      6.2563      8.6997      12.615      17.689      23.102    
  36.741      40.276      41.551      40.292      36.761      31.566      25.358      18.862      13.011      8.6946    
  6.1870      4.9636      4.5910      4.9622      6.1871      8.6997      13.021      18.871      25.357      31.552    
  45.910      49.208      49.202      45.900      40.292      33.483      26.147      18.875      12.612      8.2875    
  6.0196      5.0784      5.0780      6.0203      8.2911      12.615      18.871      26.136      33.475      40.294    
  55.197      57.468      55.146      49.202      41.551      33.480      25.375      17.698      11.490      7.6143    
  5.8350      5.3122      5.8332      7.6148      11.491      17.689      25.357      33.475      41.582      49.263    
  62.757      62.727      57.468      49.208      40.276      31.561      23.113      15.510      9.9160      6.8763    
  5.6969      5.6948      6.8735      9.9160      15.508      23.102      31.552      40.294      49.263      57.535    
  62.757      57.535      49.263      40.294      31.552      23.102      15.508      9.9160      6.8735      5.6948    
  5.6969      6.8763      9.9160      15.510      23.113      31.561      40.276      49.208      57.468      62.727    
  57.535      51.071      42.860      34.414      26.110      18.271      11.871      7.8241      5.9645      5.4264    
  5.9668      7.8235      11.872      18.285      26.134      34.417      42.807      50.974      57.455      60.022    
  49.263      42.860      35.413      27.682      20.094      13.463      8.7757      6.2874      5.2783      5.2791    
  6.2866      8.7719      13.465      20.112      27.706      35.412      42.819      49.206      53.100      53.127    
  40.294      34.414      27.682      20.726      14.348      9.4871      6.5984      5.2274      4.8141      5.2294    
  6.5966      9.4799      14.343      20.733      27.701      34.433      40.304      44.496      46.046      44.494    
  31.552      26.110      20.094      14.348      9.7525      6.7993      5.2309      4.5399      4.5417      5.2339    
  6.7981      9.7435      14.334      20.087      26.118      31.577      35.756      38.043      38.031      35.729    
  23.102      18.271      13.463      9.4871      6.7993      5.2411      4.4185      4.1708      4.4192      5.2456    
  6.8061      9.4875      13.450      18.251      23.088      27.148      29.822      30.749      29.817      27.149    
  15.508      11.871      8.7757      6.5984      5.2309      4.4185      4.0565      4.0547      4.4177      5.2389    
  6.6149      8.7899      11.871      15.490      18.981      21.684      23.144      23.152      21.706      19.008    
  9.9160      7.8241      6.2874      5.2274      4.5399      4.1708      4.0547      4.1660      4.5342      5.2284    
  6.3015      7.8483      9.9360      12.304      14.481      15.999      16.548      16.016      14.497      12.303    
  6.8735      5.9645      5.2783      4.8141      4.5417      4.4192      4.4177      4.5342      4.7986      5.2637    
  5.9655      6.8945      8.0609      9.3306      10.426      11.064      11.065      10.424      9.3136      8.0333    
  5.6948      5.4264      5.2791      5.2294      5.2339      5.2456      5.2389      5.2284      5.2637      5.4022    
  5.6772      6.0784      6.5576      7.0547      7.4436      7.5883      7.4321      7.0367      6.5432      6.0787    
  5.6969      5.9668      6.2866      6.5966      6.7981      6.8061      6.6149      6.3015      5.9655      5.6772    
  5.4914      5.4276      5.4643      5.5457      5.6049      5.5994      5.5365      5.4655      5.4458      5.5185    
  6.8763      7.8235      8.7719      9.4799      9.7435      9.4875      8.7899      7.8483      6.8945      6.0784    
  5.4276      4.9753      4.7085      4.5775      4.5383      4.5782      4.7171      4.9935      5.4441      6.0787    
  9.9160      11.872      13.465      14.343      14.334      13.450      11.871      9.9360      8.0609      6.5576    
  5.4643      4.7085      4.2614      4.0605      4.0632      4.2691      4.7173      5.4644      6.5409      8.0333    
  15.510      18.285      20.112      20.733      20.087      18.251      15.490      12.304      9.3306      7.0547    
  5.5457      4.5775      4.0605      3.9040      4.0632      4.5776      5.5374      7.0377      9.3142      12.303    
  23.113      26.134      27.706      27.701      26.118      23.088      18.981      14.481      10.426      7.4436    
  5.6049      4.5383      4.0632      4.0632      4.5358      5.5970      7.4349      10.427      14.497      19.008    
  31.561      34.417      35.412      34.433      31.577      27.148      21.684      15.999      11.064      7.5883    
  5.5994      4.5782      4.2691      4.5776      5.5970      7.5872      11.071      16.016      21.700      27.149    
  40.276      42.807      42.819      40.304      35.756      29.822      23.144      16.548      11.065      7.4321    
  5.5365      4.7171      4.7173      5.5374      7.4349      11.071      16.555      23.145      29.809      35.729    
  49.208      50.974      49.206      44.496      38.043      30.749      23.152      16.016      10.424      7.0367    
  5.4655      4.9935      5.4644      7.0377      10.427      16.016      23.145      30.736      38.033      44.494    
  57.468      57.455      53.100      46.046      38.031      29.817      21.706      14.497      9.3136      6.5432    
  5.4458      5.4441      6.5409      9.3142      14.497      21.700      29.809      38.033      46.066      53.127    
  62.727      60.022      53.127      44.494      35.729      27.149      19.008      12.303      8.0333      6.0787    
  5.5185      6.0787      8.0333      12.303      19.008      27.149      35.729      44.494      53.127      60.022    
  55.197      49.263      41.582      33.475      25.357      17.689      11.491      7.6148      5.8332      5.3122    
  5.8350      7.6143      11.490      17.698      25.375      33.480      41.551      49.202      55.146      57.468    
  49.263      42.860      35.413      27.682      20.094      13.463      8.7757      6.2874      5.2783      5.2791    
  6.2866      8.7719      13.465      20.112      27.706      35.412      42.819      49.206      53.100      53.127    
  41.582      35.413      28.473      21.360      14.811      9.7700      6.7471      5.3223      4.8940      5.3241    
  6.7444      9.7629      14.812      21.377      28.500      35.431      41.582      46.057      47.735      46.066    
  33.475      27.682      21.360      15.287      10.344      7.1083      5.4033      4.6594      4.6613      5.4052    
  7.1037      10.332      15.277      21.366      27.711      33.519      38.073      40.622      40.606      38.033    
  25.357      20.094      14.811      10.344      7.2472      5.4674      4.5432      4.2660      4.5446      5.4694    
  7.2453      10.332      14.794      20.086      25.374      29.846      32.835      33.876      32.804      29.809    
  17.689      13.463      9.7700      7.1083      5.4674      4.5103      4.0873      4.0862      4.5109      5.4741    
  7.1164      9.7684      13.448      17.671      21.692      24.792      26.465      26.462      24.790      21.700    
  11.491      8.7757      6.7471      5.4033      4.5432      4.0873      3.9464      4.0838      4.5433      5.4130    
  6.7637      8.7887      11.490      14.482      17.175      19.026      19.687      19.041      17.196      14.497    
  7.6148      6.2874      5.3223      4.6594      4.2660      4.0862      4.0838      4.2594      4.6522      5.3226    
  6.3014      7.6377      9.3317      11.129      12.636      13.497      13.503      12.646      11.127      9.3142    
  5.8332      5.2783      4.8940      4.6613      4.5446      4.5109      4.5433      4.6522      4.8762      5.2635    
  5.8346      6.5592      7.4083      8.2614      8.9053      9.1455      8.9013      8.2481      7.3863      6.5409    
  5.3122      5.2791      5.3241      5.4052      5.4694      5.4741      5.4130      5.3226      5.2635      5.2902    
  5.4290      5.6687      5.9604      6.2345      6.4039      6.3987      6.2220      5.9497      5.6693      5.4441    
  5.8350      6.2866      6.7444      7.1037      7.2453      7.1164      6.7637      6.3014      5.8346      5.4290    
  5.1398      4.9821      4.9286      4.9268      4.9292      4.9214      4.9284      4.9955      5.1622      5.4458    
  7.6143      8.7719      9.7629      10.332      10.332      9.7684      8.7887      7.6377      6.5592      5.6687    
  4.9821      4.5229      4.2592      4.1420      4.1425      4.2636      4.5343      4.9943      5.6693      6.5432    
  11.490      13.465      14.812      15.277      14.794      13.448      11.490      9.3317      7.4083      5.9604    
  4.9286      4.2592      3.9017      3.7926      3.9058      4.2645      4.9283      5.9482      7.3863      9.3136    
  17.698      20.112      21.377      21.366      20.086      17.671      14.482      11.129      8.2614      6.2345    
  4.9268      4.1420      3.7926      3.7938      4.1427      4.9219      6.2230      8.2497      11.127      14.497    
  25.375      27.706      28.500      27.711      25.374      21.692      17.175      12.636      8.9053      6.4039    
  4.9292      4.1425      3.9058      4.1427      4.9257      6.3976      8.9052      12.650      17.196      21.706    
  33.480      35.412      35.431      33.519      29.846      24.792      19.026      13.497      9.1455      6.3987    
  4.9214      4.2636      4.2645      4.9219      6.3976      9.1485      13.510      19.040      24.790      29.817    
  41.551      42.819      41.582      38.073      32.835      26.465      19.687      13.503      8.9013      6.2220    
  4.9284      4.5343      4.9283      6.2230      8.9052      13.510      19.690      26.454      32.804      38.031    
  49.202      49.206      46.057      40.622      33.876      26.462      19.041      12.646      8.2481      5.9497    
  4.9955      4.9943      5.9482      8.2497      12.650      19.040      26.454      33.861      40.606      46.046    
  55.146      53.100      47.735      40.606      32.804      24.790      17.196      11.127      7.3863      5.6693    
  5.1622      5.6693      7.3863      11.127      17.196      24.790      32.804      40.606      47.735      53.100    
  57.468      53.127      46.066      38.033      29.809      21.700      14.497      9.3142      6.5409      5.4441    
  5.4458      6.5432      9.3136      14.497      21.706      29.817      38.031      46.046      53.100      57.455    
  45.910      40.294      33.475      26.136      18.871      12.615      8.2911      6.0203      5.0780      5.0784    
  6.0196      8.2875      12.612      18.875      26.147      33.483      40.292      45.900      49.202      49.208    
  40.294      34.414      27.682      20.726      14.348      9.4871      6.5984      5.2274      4.8141      5.2294    
  6.5966      9.4799      14.343      20.733      27.701      34.433      40.304      44.496      46.046      44.494    
  33.475      27.682      21.360      15.287      10.344      7.1083      5.4033      4.6594      4.6613      5.4052    
  7.1037      10.332      15.277      21.366      27.711      33.519      38.073      40.622      40.606      38.033    
  26.136      20.726      15.287      10.652      7.4108      5.5488      4.5891      4.3012      4.5902      5.5497    
  7.4063      10.637      15.268      20.724      26.168      30.793      33.906      34.991      33.861      30.736    
  18.871      14.348      10.344      7.4108      5.6049      4.5670      4.1099      4.1092      4.5679      5.6091    
  7.4101      10.328      14.322      18.859      23.161      26.485      28.280      28.264      26.454      23.145    
  12.615      9.4871      7.1083      5.5488      4.5670      4.0504      3.8934      4.0485      4.5696      5.5578    
  7.1152      9.4816      12.597      15.998      19.030      21.102      21.834      21.104      19.040      16.016    
  8.2911      6.5984      5.4033      4.5891      4.1099      3.8934      3.8909      4.1057      4.5900      5.4130    
  6.6129      8.3011      10.425      12.635      14.458      15.486      15.494      14.475      12.650      10.427    
  6.0203      5.2274      4.6594      4.3012      4.1092      4.0485      4.1057      4.2937      4.6517      5.2274    
  6.0324      7.0557      8.2616      9.4438      10.315      10.638      10.319      9.4432      8.2497      7.0377    
  5.0780      4.8141      4.6613      4.5902      4.5679      4.5696      4.5900      4.6517      4.7968      5.0649    
  5.4655      5.9615      6.4927      6.9700      7.2578      7.2552      6.9609      6.4777      5.9482      5.4644    
  5.0784      5.2294      5.4052      5.5497      5.6091      5.5578      5.4130      5.2274      5.0649      4.9758    
  4.9826      5.0748      5.2105      5.3279      5.3714      5.3210      5.2033      5.0755      4.9943      4.9935    
  6.0196      6.5966      7.1037      7.4063      7.4101      7.1152      6.6129      6.0324      5.4655      4.9826    
  4.6345      4.4246      4.3205      4.2799      4.2779      4.3194      4.4324      4.6503      4.9955      5.4655    
  8.2875      9.4799      10.332      10.637      10.328      9.4816      8.3011      7.0557      5.9615      5.0748    
  4.4246      4.0114      3.7907      3.7220      3.7923      4.0168      4.4319      5.0755      5.9497      7.0367    
  12.612      14.343      15.277      15.268      14.322      12.597      10.425      8.2616      6.4927      5.2105    
  4.3205      3.7907      3.5525      3.5539      3.7935      4.3201      5.2025      6.4777      8.2481      10.424    
  18.875      20.733      21.366      20.724      18.859      15.998      12.635      9.4438      6.9700      5.3279    
  4.2799      3.7220      3.5539      3.7237      4.2784      5.3206      6.9618      9.4432      12.646      16.016    
  26.147      27.701      27.711      26.168      23.161      19.030      14.458      10.315      7.2578      5.3714    
  4.2779      3.7923      3.7935      4.2784      5.3680      7.2559      10.323      14.475      19.041      23.152    
  33.483      34.433      33.519      30.793      26.485      21.102      15.486      10.638      7.2552      5.3210    
  4.3194      4.0168      4.3201      5.3206      7.2559      10.645      15.499      21.104      26.462      30.749    
  40.292      40.304      38.073      33.906      28.280      21.834      15.494      10.319      6.9609      5.2033    
  4.4324      4.4319      5.2025      6.9618      10.323      15.499      21.833      28.264      33.876      38.043    
  45.900      44.496      40.622      34.991      28.264      21.104      14.475      9.4432      6.4777      5.0755    
  4.6503      5.0755      6.4777      9.4432      14.475      21.104      28.264      34.991      40.622      44.496    
  49.202      46.046      40.606      33.861      26.454      19.040      12.650      8.2497      5.9482      4.9943    
  4.9955      5.9497      8.2481      12.646      19.041      26.462      33.876      40.622      46.057      49.206    
  49.208      44.494      38.033      30.736      23.145      16.016      10.427      7.0377      5.4644      4.9935    
  5.4655      7.0367      10.424      16.016      23.152      30.749      38.043      44.496      49.206      50.974    
  36.741      31.552      25.357      18.871      13.021      8.6997      6.1871      4.9622      4.5910      4.9636    
  6.1870      8.6946      13.011      18.862      25.358      31.566      36.761      40.292      41.551      40.276    
  31.552      26.110      20.094      14.348      9.7525      6.7993      5.2309      4.5399      4.5417      5.2339    
  6.7981      9.7435      14.334      20.087      26.118      31.577      35.756      38.043      38.031      35.729    
  25.357      20.094      14.811      10.344      7.2472      5.4674      4.5432      4.2660      4.5446      5.4694    
  7.2453      10.332      14.794      20.086      25.374      29.846      32.835      33.876      32.804      29.809    
  18.871      14.348      10.344      7.4108      5.6049      4.5670      4.1099      4.1092      4.5679      5.6091    
  7.4101      10.328      14.322      18.859      23.161      26.485      28.280      28.264      26.454      23.145    
  13.021      9.7525      7.2472      5.6049      4.5784      4.0402      3.8781      4.0395      4.5822      5.6125    
  7.2474      9.7362      12.996      16.538      19.690      21.840      22.596      21.833      19.690      16.555    
  8.6997      6.7993      5.4674      4.5670      4.0402      3.8058      3.8043      4.0392      4.5717      5.4769    
  6.8054      8.6945      11.055      13.490      15.484      16.601      16.607      15.499      13.510      11.071    
  6.1871      5.2309      4.5432      4.1099      3.8781      3.8043      3.8747      4.1067      4.5449      5.2396    
  6.1991      7.4422      8.9016      10.311      11.335      11.713      11.346      10.323      8.9052      7.4349    
  4.9622      4.5399      4.2660      4.1092      4.0395      4.0392      4.1067      4.2595      4.5332      4.9621    
  5.5463      6.2350      6.9689      7.6143      7.9970      7.9978      7.6135      6.9618      6.2230      5.5374    
  4.5910      4.5417      4.5446      4.5679      4.5822      4.5717      4.5449      4.5332      4.5773      4.7076    
  4.9286      5.2104      5.4930      5.7055      5.7842      5.7002      5.4840      5.2025      4.9283      4.7173    
  4.9636      5.2339      5.4694      5.6091      5.6125      5.4769      5.2396      4.9621      4.7076      4.5218    
  4.4237      4.4026      4.4244      4.4476      4.4451      4.4202      4.4030      4.4319      4.5343      4.7171    
  6.1870      6.7981      7.2453      7.4101      7.2474      6.8054      6.1991      5.5463      4.9286      4.4237    
  4.0662      3.8458      3.7309      3.6948      3.7301      3.8491      4.0754      4.4324      4.9284      5.5365    
  8.6946      9.7435      10.332      10.328      9.7362      8.6945      7.4422      6.2350      5.2104      4.4026    
  3.8458      3.5136      3.3611      3.3615      3.5155      3.8490      4.4030      5.2033      6.2220      7.4321    
  13.011      14.334      14.794      14.322      12.996      11.055      8.9016      6.9689      5.4930      4.4244    
  3.7309      3.3611      3.2480      3.3628      3.7310      4.4197      5.4840      6.9609      8.9013      11.065    
  18.862      20.087      20.086      18.859      16.538      13.490      10.311      7.6143      5.7055      4.4476    
  3.6948      3.3615      3.3628      3.6958      4.4445      5.7000      7.6135      10.319      13.503      16.548    
  25.358      26.118      25.374      23.161      19.690      15.484      11.335      7.9970      5.7842      4.4451    
  3.7301      3.5155      3.7310      4.4445      5.7829      8.0006      11.346      15.494      19.687      23.144    
  31.566      31.577      29.846      26.485      21.840      16.601      11.713      7.9978      5.7002      4.4202    
  3.8491      3.8490      4.4197      5.7000      8.0006      11.720      16.607      21.834      26.465      29.822    
  36.761      35.756      32.835      28.280      22.596      16.607      11.346      7.6135      5.4840      4.4030    
  4.0754      4.4030      5.4840      7.6135      11.346      16.607      22.596      28.280      32.835      35.756    
  40.292      38.043      33.876      28.264      21.833      15.499      10.323      6.9618      5.2025      4.4319    
  4.4324      5.2033      6.9609      10.319      15.494      21.834      28.280      33.906      38.073      40.304    
  41.551      38.031      32.804      26.454      19.690      13.510      8.9052      6.2230      4.9283      4.5343    
  4.9284      6.2220      8.9013      13.503      19.687      26.465      32.835      38.073      41.582      42.819    
  40.276      35.729      29.809      23.145      16.555      11.071      7.4349      5.5374      4.7173      4.7171    
  5.5365      7.4321      11.065      16.548      23.144      29.822      35.756      40.304      42.819      42.807    
  27.955      23.102      17.689      12.615      8.6997      6.2563      4.9217      4.3273      4.3281      4.9249    
  6.2610      8.7000      12.604      17.669      23.084      27.949      31.566      33.483      33.480      31.561    
  23.102      18.271      13.463      9.4871      6.7993      5.2411      4.4185      4.1708      4.4192      5.2456    
  6.8061      9.4875      13.450      18.251      23.088      27.148      29.822      30.749      29.817      27.149    
  17.689      13.463      9.7700      7.1083      5.4674      4.5103      4.0873      4.0862      4.5109      5.4741    
  7.1164      9.7684      13.448      17.671      21.692      24.792      26.465      26.462      24.790      21.700    
  12.615      9.4871      7.1083      5.5488      4.5670      4.0504      3.8934      4.0485      4.5696      5.5578    
  7.1152      9.4816      12.597      15.998      19.030      21.102      21.834      21.104      19.040      16.016    
  8.6997      6.7993      5.4674      4.5670      4.0402      3.8058      3.8043      4.0392      4.5717      5.4769    
  6.8054      8.6945      11.055      13.490      15.484      16.601      16.607      15.499      13.510      11.071    
  6.2563      5.2411      4.5103      4.0504      3.8058      3.7287      3.8038      4.0497      4.5146      5.2503    
  6.2654      7.5888      9.1390      10.629      11.708      12.105      11.720      10.645      9.1485      7.5872    
  4.9217      4.4185      4.0873      3.8934      3.8043      3.8038      3.8917      4.0851      4.4194      4.9289    
  5.6081      6.4050      7.2541      7.9931      8.4285      8.4327      8.0006      7.2559      6.3976      5.5970    
  4.3273      4.1708      4.0862      4.0485      4.0392      4.0497      4.0851      4.1659      4.3224      4.5781    
  4.9282      5.3280      5.7041      5.9818      6.0857      5.9810      5.7000      5.3206      4.9219      4.5776    
  4.3281      4.4192      4.5109      4.5696      4.5717      4.5146      4.4194      4.3224      4.2605      4.2584    
  4.3195      4.4236      4.5312      4.5982      4.5962      4.5265      4.4197      4.3201      4.2645      4.2691    
  4.9249      5.2456      5.4741      5.5578      5.4769      5.2503      4.9289      4.5781      4.2584      4.0095    
  3.8443      3.7525      3.7108      3.6985      3.7091      3.7526      3.8490      4.0168      4.2636      4.5782    
  6.2610      6.8061      7.1164      7.1152      6.8054      6.2654      5.6081      4.9282      4.3195      3.8443    
  3.5160      3.3166      3.2228      3.2227      3.3176      3.5202      3.8491      4.3194      4.9214      5.5994    
  8.7000      9.4875      9.7684      9.4816      8.6945      7.5888      6.4050      5.3280      4.4236      3.7525    
  3.3166      3.0783      3.0031      3.0789      3.3178      3.7526      4.4202      5.3210      6.3987      7.5883    
  12.604      13.450      13.448      12.597      11.055      9.1390      7.2541      5.7041      4.5312      3.7108    
  3.2228      3.0031      3.0041      3.2239      3.7090      4.5265      5.7002      7.2552      9.1455      11.064    
  17.669      18.251      17.671      15.998      13.490      10.629      7.9931      5.9818      4.5982      3.6985    
  3.2227      3.0789      3.2239      3.6982      4.5958      5.9810      7.9978      10.638      13.497      15.999    
  23.084      23.088      21.692      19.030      15.484      11.708      8.4285      6.0857      4.5962      3.7091    
  3.3176      3.3178      3.7090      4.5958      6.0866      8.4327      11.713      15.486      19.026      21.684    
  27.949      27.148      24.792      21.102      16.601      12.105      8.4327      5.9810      4.5265      3.7526    
  3.5202      3.7526      4.5265      5.9810      8.4327      12.105      16.601      21.102      24.792      27.148    
  31.566      29.822      26.465      21.834      16.607      11.720      8.0006      5.7000      4.4197      3.8490    
  3.8491      4.4202      5.7002      7.9978      11.713      16.601      21.840      26.485      29.846      31.577    
  33.483      30.749      26.462      21.104      15.499      10.645      7.2559      5.3206      4.3201      4.0168    
  4.3194      5.3210      7.2552      10.638      15.486      21.102      26.485      30.793      33.519      34.433    
  33.480      29.817      24.790      19.040      13.510      9.1485      6.3976      4.9219      4.2645      4.2636    
  4.9214      6.3987      9.1455      13.497      19.026      24.792      29.846      33.519      35.431      35.412    
  31.561      27.149      21.700      16.016      11.071      7.5872      5.5970      4.5776      4.2691      4.5782    
  5.5994      7.5883      11.064      15.999      21.684      27.148      31.577      34.433      35.412      34.417    
  19.639      15.508      11.491      8.2911      6.1871      4.9217      4.2453      4.0398      4.2449      4.9267    
  6.1997      8.3036      11.491      15.489      19.608      23.084      25.358      26.147      25.375      23.113    
  15.508      11.871      8.7757      6.5984      5.2309      4.4185      4.0565      4.0547      4.4177      5.2389    
  6.6149      8.7899      11.871      15.490      18.981      21.684      23.144      23.152      21.706      19.008    
  11.491      8.7757      6.7471      5.4033      4.5432      4.0873      3.9464      4.0838      4.5433      5.4130    