fcc Au                                  
   3.80000000000000     
     0.000000    0.500000    0.500000
     0.500000    0.000000    0.500000
     0.500000    0.500000    0.000000
   Au
     1
Direct
  0.000000  0.000000  0.000000
 
   20   20   20
 0.65747801174E+02 0.62756701943E+02 0.55197160101E+02 0.45909989819E+02 0.36740602873E+02
 0.27955181683E+02 0.19638830284E+02 0.12723003653E+02 0.82680165174E+01 0.62247209498E+01
 0.56465185347E+01 0.62247209498E+01 0.82680165174E+01 0.12723003653E+02 0.19638830284E+02
 0.27955181683E+02 0.36740602873E+02 0.45909989819E+02 0.55197160101E+02 0.62756701943E+02
 0.62756701943E+02 0.57534701933E+02 0.49263481822E+02 0.40294142000E+02 0.31552468827E+02
 0.23101769071E+02 0.15507757962E+02 0.99160075099E+01 0.68735332679E+01 0.56947709524E+01
 0.56968855607E+01 0.68762803735E+01 0.99159687281E+01 0.15510407725E+02 0.23112959260E+02
 0.31561372738E+02 0.40275872453E+02 0.49207717238E+02 0.57468203690E+02 0.62726663975E+02
 0.55197160101E+02 0.49263481822E+02 0.41582398198E+02 0.33474703874E+02 0.25357268039E+02
 0.17689240259E+02 0.11490836092E+02 0.76147651210E+01 0.58331572873E+01 0.53122358869E+01
 0.58350388551E+01 0.76143282275E+01 0.11490359692E+02 0.17697970595E+02 0.25374665438E+02
 0.33479661054E+02 0.41551247744E+02 0.49202000349E+02 0.55146129366E+02 0.57468203690E+02
 0.45909989819E+02 0.40294142000E+02 0.33474703874E+02 0.26136241695E+02 0.18870925015E+02
 0.12614636495E+02 0.82911433894E+01 0.60202877664E+01 0.50779613089E+01 0.50784182540E+01
 0.60196363783E+01 0.82874804487E+01 0.12611790900E+02 0.18875307693E+02 0.26147463587E+02
 0.33483257338E+02 0.40291555826E+02 0.45899681517E+02 0.49202000349E+02 0.49207717238E+02
 0.36740602873E+02 0.31552468827E+02 0.25357268039E+02 0.18870925015E+02 0.13021331017E+02
 0.86996706116E+01 0.61871030641E+01 0.49621899808E+01 0.45910199586E+01 0.49636388694E+01
 0.61869560355E+01 0.86945637268E+01 0.13011482383E+02 0.18862037269E+02 0.25357563058E+02
 0.31565819564E+02 0.36761441111E+02 0.40291555826E+02 0.41551247744E+02 0.40275872453E+02
 0.27955181683E+02 0.23101769071E+02 0.17689240259E+02 0.12614636495E+02 0.86996706116E+01
 0.62562558929E+01 0.49217233860E+01 0.43272675395E+01 0.43280572335E+01 0.49248863496E+01
 0.62609930192E+01 0.87000197283E+01 0.12603932384E+02 0.17669215181E+02 0.23083781180E+02
 0.27949380041E+02 0.31565819564E+02 0.33483257338E+02 0.33479661054E+02 0.31561372738E+02
 0.19638830284E+02 0.15507757962E+02 0.11490836092E+02 0.82911433894E+01 0.61871030641E+01
 0.49217233860E+01 0.42453462506E+01 0.40397920240E+01 0.42448630848E+01 0.49266513866E+01
 0.61997227621E+01 0.83035982248E+01 0.11490567249E+02 0.15489161541E+02 0.19608423133E+02
 0.23083781180E+02 0.25357563058E+02 0.26147463587E+02 0.25374665438E+02 0.23112959260E+02
 0.12723003653E+02 0.99160075099E+01 0.76147651210E+01 0.60202877664E+01 0.49621899808E+01
 0.43272675395E+01 0.40397920240E+01 0.40373386241E+01 0.43227775239E+01 0.49628308049E+01
 0.60324897708E+01 0.76368816862E+01 0.99354150917E+01 0.12724058041E+02 0.15489161541E+02
 0.17669215181E+02 0.18862037269E+02 0.18875307693E+02 0.17697970595E+02 0.15510407725E+02
 0.82680165174E+01 0.68735332679E+01 0.58331572873E+01 0.50779613089E+01 0.45910199586E+01
 0.43280572335E+01 0.42448630848E+01 0.43227775239E+01 0.45792794330E+01 0.50655308440E+01
 0.58333346392E+01 0.68936855158E+01 0.82978554468E+01 0.99354150917E+01 0.11490567249E+02
 0.12603932384E+02 0.13011482383E+02 0.12611790900E+02 0.11490359692E+02 0.99159687281E+01
 0.62247209498E+01 0.56947709524E+01 0.53122358869E+01 0.50784182540E+01 0.49636388694E+01
 0.49248863496E+01 0.49266513866E+01 0.49628308049E+01 0.50655308440E+01 0.52892205858E+01
 0.56764826559E+01 0.62246471043E+01 0.68936855158E+01 0.76368816862E+01 0.83035982248E+01
 0.87000197283E+01 0.86945637268E+01 0.82874804487E+01 0.76143282275E+01 0.68762803735E+01
 0.56465185347E+01 0.56968855607E+01 0.58350388551E+01 0.60196363783E+01 0.61869560355E+01
 0.62609930192E+01 0.61997227621E+01 0.60324897708E+01 0.58333346392E+01 0.56764826559E+01
 0.56176865770E+01 0.56764826559E+01 0.58333346392E+01 0.60324897708E+01 0.61997227621E+01
 0.62609930192E+01 0.61869560355E+01 0.60196363783E+01 0.58350388551E+01 0.56968855607E+01
 0.62247209498E+01 0.68762803735E+01 0.76143282275E+01 0.82874804487E+01 0.86945637268E+01
 0.87000197283E+01 0.83035982248E+01 0.76368816862E+01 0.68936855158E+01 0.62246471043E+01
 0.56764826559E+01 0.52892205858E+01 0.50655308440E+01 0.49628308049E+01 0.49266513866E+01
 0.49248863496E+01 0.49636388694E+01 0.50784182540E+01 0.53122358869E+01 0.56947709524E+01
 0.82680165174E+01 0.99159687281E+01 0.11490359692E+02 0.12611790900E+02 0.13011482383E+02
 0.12603932384E+02 0.11490567249E+02 0.99354150917E+01 0.82978554468E+01 0.68936855158E+01
 0.58333346392E+01 0.50655308440E+01 0.45792794330E+01 0.43227775239E+01 0.42448630848E+01
 0.43280572335E+01 0.45910199586E+01 0.50779613089E+01 0.58331572873E+01 0.68735332679E+01
 0.12723003653E+02 0.15510407725E+02 0.17697970595E+02 0.18875307693E+02 0.18862037269E+02
 0.17669215181E+02 0.15489161541E+02 0.12724058041E+02 0.99354150917E+01 0.76368816862E+01
 0.60324897708E+01 0.49628308049E+01 0.43227775239E+01 0.40373386241E+01 0.40397920240E+01
 0.43272675395E+01 0.49621899808E+01 0.60202877664E+01 0.76147651210E+01 0.99160075099E+01
 0.19638830284E+02 0.23112959260E+02 0.25374665438E+02 0.26147463587E+02 0.25357563058E+02
 0.23083781180E+02 0.19608423133E+02 0.15489161541E+02 0.11490567249E+02 0.83035982248E+01
 0.61997227621E+01 0.49266513866E+01 0.42448630848E+01 0.40397920240E+01 0.42453462506E+01
 0.49217233860E+01 0.61871030641E+01 0.82911433894E+01 0.11490836092E+02 0.15507757962E+02
 0.27955181683E+02 0.31561372738E+02 0.33479661054E+02 0.33483257338E+02 0.31565819564E+02
 0.27949380041E+02 0.23083781180E+02 0.17669215181E+02 0.12603932384E+02 0.87000197283E+01
 0.62609930192E+01 0.49248863496E+01 0.43280572335E+01 0.43272675395E+01 0.49217233860E+01
 0.62562558929E+01 0.86996706116E+01 0.12614636495E+02 0.17689240259E+02 0.23101769071E+02
 0.36740602873E+02 0.40275872453E+02 0.41551247744E+02 0.40291555826E+02 0.36761441111E+02
 0.31565819564E+02 0.25357563058E+02 0.18862037269E+02 0.13011482383E+02 0.86945637268E+01
 0.61869560355E+01 0.49636388694E+01 0.45910199586E+01 0.49621899808E+01 0.61871030641E+01
 0.86996706116E+01 0.13021331017E+02 0.18870925015E+02 0.25357268039E+02 0.31552468827E+02
 0.45909989819E+02 0.49207717238E+02 0.49202000349E+02 0.45899681517E+02 0.40291555826E+02
 0.33483257338E+02 0.26147463587E+02 0.18875307693E+02 0.12611790900E+02 0.82874804487E+01
 0.60196363783E+01 0.50784182540E+01 0.50779613089E+01 0.60202877664E+01 0.82911433894E+01
 0.12614636495E+02 0.18870925015E+02 0.26136241695E+02 0.33474703874E+02 0.40294142000E+02
 0.55197160101E+02 0.57468203690E+02 0.55146129366E+02 0.49202000349E+02 0.41551247744E+02
 0.33479661054E+02 0.25374665438E+02 0.17697970595E+02 0.11490359692E+02 0.76143282275E+01
 0.58350388551E+01 0.53122358869E+01 0.58331572873E+01 0.76147651210E+01 0.11490836092E+02
 0.17689240259E+02 0.25357268039E+02 0.33474703874E+02 0.41582398198E+02 0.49263481822E+02
 0.62756701943E+02 0.62726663975E+02 0.57468203690E+02 0.49207717238E+02 0.40275872453E+02
 0.31561372738E+02 0.23112959260E+02 0.15510407725E+02 0.99159687281E+01 0.68762803735E+01
 0.56968855607E+01 0.56947709524E+01 0.68735332679E+01 0.99160075099E+01 0.15507757962E+02
 0.23101769071E+02 0.31552468827E+02 0.40294142000E+02 0.49263481822E+02 0.57534701933E+02
 0.62756701943E+02 0.57534701933E+02 0.49263481822E+02 0.40294142000E+02 0.31552468827E+02
 0.23101769071E+02 0.15507757962E+02 0.99160075099E+01 0.68735332679E+01 0.56947709524E+01
 0.56968855607E+01 0.68762803735E+01 0.99159687281E+01 0.15510407725E+02 0.23112959260E+02
 0.31561372738E+02 0.40275872453E+02 0.49207717238E+02 0.57468203690E+02 0.62726663975E+02
 0.57534701933E+02 0.51071212105E+02 0.42860131557E+02 0.34414394773E+02 0.26109716317E+02
 0.18271087073E+02 0.11871482008E+02 0.78240895308E+01 0.59644974237E+01 0.54263760922E+01
 0.59667773002E+01 0.78235413691E+01 0.11871972207E+02 0.18284961534E+02 0.26133951181E+02
 0.34416785801E+02 0.42806961119E+02 0.50973640942E+02 0.57455338068E+02 0.60021816288E+02
 0.49263481822E+02 0.42860131557E+02 0.35412756761E+02 0.27682153646E+02 0.20094015138E+02
 0.13462533920E+02 0.87757141695E+01 0.62874061777E+01 0.52783358359E+01 0.52791323104E+01
 0.62866387628E+01 0.87719324380E+01 0.13465061676E+02 0.20112361605E+02 0.27705596125E+02
 0.35412069307E+02 0.42819261662E+02 0.49205918480E+02 0.53100247569E+02 0.53127470080E+02
 0.40294142000E+02 0.34414394773E+02 0.27682153646E+02 0.20726003438E+02 0.14347509404E+02
 0.94871146736E+01 0.65984014057E+01 0.52273692467E+01 0.48141387081E+01 0.52293852605E+01
 0.65966152141E+01 0.94799001622E+01 0.14342786474E+02 0.20733202954E+02 0.27700571563E+02
 0.34433261898E+02 0.40304396987E+02 0.44496099709E+02 0.46046005248E+02 0.44493662261E+02
 0.31552468827E+02 0.26109716317E+02 0.20094015138E+02 0.14347509404E+02 0.97525083637E+01
 0.67993364334E+01 0.52309167907E+01 0.45399274600E+01 0.45417154266E+01 0.52338622297E+01
 0.67980522502E+01 0.97435115246E+01 0.14334127497E+02 0.20086512623E+02 0.26118149087E+02
 0.31576802641E+02 0.35755881141E+02 0.38043079434E+02 0.38031337364E+02 0.35728913819E+02
 0.23101769071E+02 0.18271087073E+02 0.13462533920E+02 0.94871146736E+01 0.67993364334E+01
 0.52410846010E+01 0.44184779560E+01 0.41708055837E+01 0.44192328583E+01 0.52456139353E+01
 0.68060593029E+01 0.94874676938E+01 0.13450108807E+02 0.18251256519E+02 0.23087746214E+02
 0.27147978445E+02 0.29821584184E+02 0.30749153951E+02 0.29817190455E+02 0.27149472233E+02
 0.15507757962E+02 0.11871482008E+02 0.87757141695E+01 0.65984014057E+01 0.52309167907E+01
 0.44184779560E+01 0.40564812323E+01 0.40546832565E+01 0.44177250466E+01 0.52389337979E+01
 0.66149167992E+01 0.87899029266E+01 0.11871120255E+02 0.15490067829E+02 0.18981257712E+02
 0.21683609601E+02 0.23143692655E+02 0.23152260317E+02 0.21705976184E+02 0.19007739709E+02
 0.99160075099E+01 0.78240895308E+01 0.62874061777E+01 0.52273692467E+01 0.45399274600E+01
 0.41708055837E+01 0.40546832565E+01 0.41659510350E+01 0.45341766060E+01 0.52283599811E+01
 0.63015349380E+01 0.78482725433E+01 0.99360428107E+01 0.12304412991E+02 0.14480783003E+02
 0.15999005347E+02 0.16547963059E+02 0.16015640499E+02 0.14496752022E+02 0.12302707492E+02
 0.68735332679E+01 0.59644974237E+01 0.52783358359E+01 0.48141387081E+01 0.45417154266E+01
 0.44192328583E+01 0.44177250466E+01 0.45341766060E+01 0.47986004093E+01 0.52636741868E+01
 0.59655300691E+01 0.68944553680E+01 0.80608992255E+01 0.93305745204E+01 0.10426295973E+02
 0.11063514478E+02 0.11064843996E+02 0.10423512234E+02 0.93136416661E+01 0.80333445336E+01
 0.56947709524E+01 0.54263760922E+01 0.52791323104E+01 0.52293852605E+01 0.52338622297E+01
 0.52456139353E+01 0.52389337979E+01 0.52283599811E+01 0.52636741868E+01 0.54022119210E+01
 0.56772285819E+01 0.60783782634E+01 0.65575605320E+01 0.70547123226E+01 0.74436119407E+01
 0.75882612832E+01 0.74321393337E+01 0.70366721748E+01 0.65431911895E+01 0.60787248392E+01
 0.56968855607E+01 0.59667773002E+01 0.62866387628E+01 0.65966152141E+01 0.67980522502E+01
 0.68060593029E+01 0.66149167992E+01 0.63015349380E+01 0.59655300691E+01 0.56772285819E+01
 0.54914269458E+01 0.54275785883E+01 0.54642985227E+01 0.55457461091E+01 0.56048768658E+01
 0.55993809769E+01 0.55364777368E+01 0.54654839406E+01 0.54458136823E+01 0.55185122436E+01
 0.68762803735E+01 0.78235413691E+01 0.87719324380E+01 0.94799001622E+01 0.97435115246E+01
 0.94874676938E+01 0.87899029266E+01 0.78482725433E+01 0.68944553680E+01 0.60783782634E+01
 0.54275785883E+01 0.49753332444E+01 0.47084666768E+01 0.45775001073E+01 0.45383496354E+01
 0.45781833498E+01 0.47170741340E+01 0.49935281413E+01 0.54441094801E+01 0.60787248392E+01
 0.99159687281E+01 0.11871972207E+02 0.13465061676E+02 0.14342786474E+02 0.14334127497E+02
 0.13450108807E+02 0.11871120255E+02 0.99360428107E+01 0.80608992255E+01 0.65575605320E+01
 0.54642985227E+01 0.47084666768E+01 0.42613907986E+01 0.40605026995E+01 0.40631581049E+01
 0.42690879346E+01 0.47172813412E+01 0.54643623436E+01 0.65409288701E+01 0.80333445336E+01
 0.15510407725E+02 0.18284961534E+02 0.20112361605E+02 0.20733202954E+02 0.20086512623E+02
 0.18251256519E+02 0.15490067829E+02 0.12304412991E+02 0.93305745204E+01 0.70547123226E+01
 0.55457461091E+01 0.45775001073E+01 0.40605026995E+01 0.39040499800E+01 0.40631620097E+01
 0.45776312402E+01 0.55373913020E+01 0.70377148583E+01 0.93141697795E+01 0.12302707492E+02
 0.23112959260E+02 0.26133951181E+02 0.27705596125E+02 0.27700571563E+02 0.26118149087E+02
 0.23087746214E+02 0.18981257712E+02 0.14480783003E+02 0.10426295973E+02 0.74436119407E+01
 0.56048768658E+01 0.45383496354E+01 0.40631581049E+01 0.40631620097E+01 0.45358144981E+01
 0.55970340990E+01 0.74349449107E+01 0.10427088856E+02 0.14496985674E+02 0.19007739709E+02
 0.31561372738E+02 0.34416785801E+02 0.35412069307E+02 0.34433261898E+02 0.31576802641E+02
 0.27147978445E+02 0.21683609601E+02 0.15999005347E+02 0.11063514478E+02 0.75882612832E+01
 0.55993809769E+01 0.45781833498E+01 0.42690879346E+01 0.45776312402E+01 0.55970340990E+01
 0.75871620519E+01 0.11070847648E+02 0.16016428590E+02 0.21700385058E+02 0.27149472233E+02
 0.40275872453E+02 0.42806961119E+02 0.42819261662E+02 0.40304396987E+02 0.35755881141E+02
 0.29821584184E+02 0.23143692655E+02 0.16547963059E+02 0.11064843996E+02 0.74321393337E+01
 0.55364777368E+01 0.47170741340E+01 0.47172813412E+01 0.55373913020E+01 0.74349449107E+01
 0.11070847648E+02 0.16555297442E+02 0.23145133409E+02 0.29808851656E+02 0.35728913819E+02
 0.49207717238E+02 0.50973640942E+02 0.49205918480E+02 0.44496099709E+02 0.38043079434E+02
 0.30749153951E+02 0.23152260317E+02 0.16015640499E+02 0.10423512234E+02 0.70366721748E+01
 0.54654839406E+01 0.49935281413E+01 0.54643623436E+01 0.70377148583E+01 0.10427088856E+02
 0.16016428590E+02 0.23145133409E+02 0.30736453932E+02 0.38033035714E+02 0.44493662261E+02
 0.57468203690E+02 0.57455338068E+02 0.53100247569E+02 0.46046005248E+02 0.38031337364E+02
 0.29817190455E+02 0.21705976184E+02 0.14496752022E+02 0.93136416661E+01 0.65431911895E+01
 0.54458136823E+01 0.54441094801E+01 0.65409288701E+01 0.93141697795E+01 0.14496985674E+02
 0.21700385058E+02 0.29808851656E+02 0.38033035714E+02 0.46065660738E+02 0.53127470080E+02
 0.62726663975E+02 0.60021816288E+02 0.53127470080E+02 0.44493662261E+02 0.35728913819E+02
 0.27149472233E+02 0.19007739709E+02 0.12302707492E+02 0.80333445336E+01 0.60787248392E+01
 0.55185122436E+01 0.60787248392E+01 0.80333445336E+01 0.12302707492E+02 0.19007739709E+02
 0.27149472233E+02 0.35728913819E+02 0.44493662261E+02 0.53127470080E+02 0.60021816288E+02
 0.55197160101E+02 0.49263481822E+02 0.41582398198E+02 0.33474703874E+02 0.25357268039E+02
 0.17689240259E+02 0.11490836092E+02 0.76147651210E+01 0.58331572873E+01 0.53122358869E+01
 0.58350388551E+01 0.76143282275E+01 0.11490359692E+02 0.17697970595E+02 0.25374665438E+02
 0.33479661054E+02 0.41551247744E+02 0.49202000349E+02 0.55146129366E+02 0.57468203690E+02
 0.49263481822E+02 0.42860131557E+02 0.35412756761E+02 0.27682153646E+02 0.20094015138E+02
 0.13462533920E+02 0.87757141695E+01 0.62874061777E+01 0.52783358359E+01 0.52791323104E+01
 0.62866387628E+01 0.87719324380E+01 0.13465061676E+02 0.20112361605E+02 0.27705596125E+02
 0.35412069307E+02 0.42819261662E+02 0.49205918480E+02 0.53100247569E+02 0.53127470080E+02
 0.41582398198E+02 0.35412756761E+02 0.28473118784E+02 0.21359831539E+02 0.14811429512E+02
 0.97700013594E+01 0.67471321793E+01 0.53222849157E+01 0.48939526252E+01 0.53240758794E+01
 0.67443985224E+01 0.97629140130E+01 0.14811629711E+02 0.21377039234E+02 0.28500072669E+02
 0.35430526713E+02 0.41581742188E+02 0.46057343731E+02 0.47734772822E+02 0.46065660738E+02
 0.33474703874E+02 0.27682153646E+02 0.21359831539E+02 0.15286935646E+02 0.10343519041E+02
 0.71082760885E+01 0.54032804356E+01 0.46594101301E+01 0.46612967511E+01 0.54052364927E+01
 0.71037086793E+01 0.10331828611E+02 0.15277475932E+02 0.21366238717E+02 0.27711237947E+02
 0.33519008949E+02 0.38073295315E+02 0.40622049245E+02 0.40605823726E+02 0.38033035714E+02
 0.25357268039E+02 0.20094015138E+02 0.14811429512E+02 0.10343519041E+02 0.72472490691E+01
 0.54673687272E+01 0.45432011333E+01 0.42660289834E+01 0.45445765072E+01 0.54693619578E+01
 0.72453185931E+01 0.10332154562E+02 0.14793945723E+02 0.20086177252E+02 0.25374208831E+02
 0.29845985847E+02 0.32835240530E+02 0.33876124717E+02 0.32804011641E+02 0.29808851656E+02
 0.17689240259E+02 0.13462533920E+02 0.97700013594E+01 0.71082760885E+01 0.54673687272E+01
 0.45103200258E+01 0.40872810123E+01 0.40862102926E+01 0.45108712119E+01 0.54740677872E+01
 0.71164085648E+01 0.97684358629E+01 0.13447540743E+02 0.17670871357E+02 0.21691633958E+02
 0.24792298850E+02 0.26464771539E+02 0.26461964285E+02 0.24790246150E+02 0.21700385058E+02
 0.11490836092E+02 0.87757141695E+01 0.67471321793E+01 0.54032804356E+01 0.45432011333E+01
 0.40872810123E+01 0.39463977927E+01 0.40838267595E+01 0.45433371677E+01 0.54129737073E+01
 0.67636860657E+01 0.87886591977E+01 0.11490371170E+02 0.14481969358E+02 0.17174922064E+02
 0.19025694653E+02 0.19686731703E+02 0.19040509137E+02 0.17195996835E+02 0.14496985674E+02
 0.76147651210E+01 0.62874061777E+01 0.53222849157E+01 0.46594101301E+01 0.42660289834E+01
 0.40862102926E+01 0.40838267595E+01 0.42593983034E+01 0.46522161467E+01 0.53225966630E+01
 0.63013624413E+01 0.76376947477E+01 0.93317055965E+01 0.11128610441E+02 0.12636305178E+02
 0.13496960718E+02 0.13502915157E+02 0.12646014097E+02 0.11127061052E+02 0.93141697795E+01
 0.58331572873E+01 0.52783358359E+01 0.48939526252E+01 0.46612967511E+01 0.45445765072E+01
 0.45108712119E+01 0.45433371677E+01 0.46522161467E+01 0.48762291266E+01 0.52634705840E+01
 0.58346316931E+01 0.65591750423E+01 0.74082509236E+01 0.82613648502E+01 0.89053162231E+01
 0.91455314716E+01 0.89013371484E+01 0.82480556144E+01 0.73863479923E+01 0.65409288701E+01
 0.53122358869E+01 0.52791323104E+01 0.53240758794E+01 0.54052364927E+01 0.54693619578E+01
 0.54740677872E+01 0.54129737073E+01 0.53225966630E+01 0.52634705840E+01 0.52901571707E+01
 0.54289786462E+01 0.56686830375E+01 0.59604029105E+01 0.62344507866E+01 0.64039491813E+01
 0.63986574361E+01 0.62219976697E+01 0.59496904397E+01 0.56693351810E+01 0.54441094801E+01
 0.58350388551E+01 0.62866387628E+01 0.67443985224E+01 0.71037086793E+01 0.72453185931E+01
 0.71164085648E+01 0.67636860657E+01 0.63013624413E+01 0.58346316931E+01 0.54289786462E+01
 0.51398109388E+01 0.49820580086E+01 0.49285517778E+01 0.49268075341E+01 0.49292299313E+01
 0.49214245218E+01 0.49284215282E+01 0.49955347557E+01 0.51621690253E+01 0.54458136823E+01
 0.76143282275E+01 0.87719324380E+01 0.97629140130E+01 0.10331828611E+02 0.10332154562E+02
 0.97684358629E+01 0.87886591977E+01 0.76376947477E+01 0.65591750423E+01 0.56686830375E+01
 0.49820580086E+01 0.45228505296E+01 0.42592007723E+01 0.41420136559E+01 0.41424547772E+01
 0.42636211533E+01 0.45342813242E+01 0.49943098803E+01 0.56693351810E+01 0.65431911895E+01
 0.11490359692E+02 0.13465061676E+02 0.14811629711E+02 0.15277475932E+02 0.14793945723E+02
 0.13447540743E+02 0.11490371170E+02 0.93317055965E+01 0.74082509236E+01 0.59604029105E+01
 0.49285517778E+01 0.42592007723E+01 0.39017383688E+01 0.37926365885E+01 0.39058461232E+01
 0.42644876885E+01 0.49283388445E+01 0.59482284512E+01 0.73863479923E+01 0.93136416661E+01
 0.17697970595E+02 0.20112361605E+02 0.21377039234E+02 0.21366238717E+02 0.20086177252E+02
 0.17670871357E+02 0.14481969358E+02 0.11128610441E+02 0.82613648502E+01 0.62344507866E+01
 0.49268075341E+01 0.41420136559E+01 0.37926365885E+01 0.37937950740E+01 0.41427109338E+01
 0.49219111522E+01 0.62229515493E+01 0.82496841362E+01 0.11127061052E+02 0.14496752022E+02
 0.25374665438E+02 0.27705596125E+02 0.28500072669E+02 0.27711237947E+02 0.25374208831E+02
 0.21691633958E+02 0.17174922064E+02 0.12636305178E+02 0.89053162231E+01 0.64039491813E+01
 0.49292299313E+01 0.41424547772E+01 0.39058461232E+01 0.41427109338E+01 0.49257044490E+01
 0.63975912525E+01 0.89052380670E+01 0.12649674370E+02 0.17195996835E+02 0.21705976184E+02
 0.33479661054E+02 0.35412069307E+02 0.35430526713E+02 0.33519008949E+02 0.29845985847E+02
 0.24792298850E+02 0.19025694653E+02 0.13496960718E+02 0.91455314716E+01 0.63986574361E+01
 0.49214245218E+01 0.42636211533E+01 0.42644876885E+01 0.49219111522E+01 0.63975912525E+01
 0.91485114729E+01 0.13509566811E+02 0.19040486669E+02 0.24790246150E+02 0.29817190455E+02
 0.41551247744E+02 0.42819261662E+02 0.41581742188E+02 0.38073295315E+02 0.32835240530E+02
 0.26464771539E+02 0.19686731703E+02 0.13502915157E+02 0.89013371484E+01 0.62219976697E+01
 0.49284215282E+01 0.45342813242E+01 0.49283388445E+01 0.62229515493E+01 0.89052380670E+01
 0.13509566811E+02 0.19689890794E+02 0.26453601163E+02 0.32804011641E+02 0.38031337364E+02
 0.49202000349E+02 0.49205918480E+02 0.46057343731E+02 0.40622049245E+02 0.33876124717E+02
 0.26461964285E+02 0.19040509137E+02 0.12646014097E+02 0.82480556144E+01 0.59496904397E+01
 0.49955347557E+01 0.49943098803E+01 0.59482284512E+01 0.82496841362E+01 0.12649674370E+02
 0.19040486669E+02 0.26453601163E+02 0.33860773533E+02 0.40605823726E+02 0.46046005248E+02
 0.55146129366E+02 0.53100247569E+02 0.47734772822E+02 0.40605823726E+02 0.32804011641E+02
 0.24790246150E+02 0.17195996835E+02 0.11127061052E+02 0.73863479923E+01 0.56693351810E+01
 0.51621690253E+01 0.56693351810E+01 0.73863479923E+01 0.11127061052E+02 0.17195996835E+02
 0.24790246150E+02 0.32804011641E+02 0.40605823726E+02 0.47734772822E+02 0.53100247569E+02
 0.57468203690E+02 0.53127470080E+02 0.46065660738E+02 0.38033035714E+02 0.29808851656E+02
 0.21700385058E+02 0.14496985674E+02 0.93141697795E+01 0.65409288701E+01 0.54441094801E+01
 0.54458136823E+01 0.65431911895E+01 0.93136416661E+01 0.14496752022E+02 0.21705976184E+02
 0.29817190455E+02 0.38031337364E+02 0.46046005248E+02 0.53100247569E+02 0.57455338068E+02
 0.45909989819E+02 0.40294142000E+02 0.33474703874E+02 0.26136241695E+02 0.18870925015E+02
 0.12614636495E+02 0.82911433894E+01 0.60202877664E+01 0.50779613089E+01 0.50784182540E+01
 0.60196363783E+01 0.82874804487E+01 0.12611790900E+02 0.18875307693E+02 0.26147463587E+02
 0.33483257338E+02 0.40291555826E+02 0.45899681517E+02 0.49202000349E+02 0.49207717238E+02
 0.40294142000E+02 0.34414394773E+02 0.27682153646E+02 0.20726003438E+02 0.14347509404E+02
 0.94871146736E+01 0.65984014057E+01 0.52273692467E+01 0.48141387081E+01 0.52293852605E+01
 0.65966152141E+01 0.94799001622E+01 0.14342786474E+02 0.20733202954E+02 0.27700571563E+02
 0.34433261898E+02 0.40304396987E+02 0.44496099709E+02 0.46046005248E+02 0.44493662261E+02
 0.33474703874E+02 0.27682153646E+02 0.21359831539E+02 0.15286935646E+02 0.10343519041E+02
 0.71082760885E+01 0.54032804356E+01 0.46594101301E+01 0.46612967511E+01 0.54052364927E+01
 0.71037086793E+01 0.10331828611E+02 0.15277475932E+02 0.21366238717E+02 0.27711237947E+02
 0.33519008949E+02 0.38073295315E+02 0.40622049245E+02 0.40605823726E+02 0.38033035714E+02
 0.26136241695E+02 0.20726003438E+02 0.15286935646E+02 0.10651940361E+02 0.74108290091E+01
 0.55488085406E+01 0.45890829329E+01 0.43011792931E+01 0.45901538882E+01 0.55496831177E+01
 0.74062896623E+01 0.10636977886E+02 0.15268017433E+02 0.20723715158E+02 0.26167889660E+02
 0.30792893665E+02 0.33905875996E+02 0.34991028654E+02 0.33860773533E+02 0.30736453932E+02
 0.18870925015E+02 0.14347509404E+02 0.10343519041E+02 0.74108290091E+01 0.56049156507E+01
 0.45669608336E+01 0.41098780194E+01 0.41092467831E+01 0.45679480649E+01 0.56091392381E+01
 0.74101300721E+01 0.10327858351E+02 0.14322413876E+02 0.18858592683E+02 0.23161108743E+02
 0.26485236292E+02 0.28279781584E+02 0.28263715228E+02 0.26453601163E+02 0.23145133409E+02
 0.12614636495E+02 0.94871146736E+01 0.71082760885E+01 0.55488085406E+01 0.45669608336E+01
 0.40503673525E+01 0.38933861471E+01 0.40484917243E+01 0.45695764873E+01 0.55578194695E+01
 0.71152082063E+01 0.94816115113E+01 0.12596987456E+02 0.15997748662E+02 0.19030350484E+02
 0.21102098492E+02 0.21834370269E+02 0.21104387086E+02 0.19040486669E+02 0.16016428590E+02
 0.82911433894E+01 0.65984014057E+01 0.54032804356E+01 0.45890829329E+01 0.41098780194E+01
 0.38933861471E+01 0.38909008384E+01 0.41057148333E+01 0.45900201873E+01 0.54129624676E+01
 0.66129406607E+01 0.83010662178E+01 0.10424528854E+02 0.12635164202E+02 0.14458262338E+02
 0.15486144017E+02 0.15493560734E+02 0.14475178748E+02 0.12649674370E+02 0.10427088856E+02
 0.60202877664E+01 0.52273692467E+01 0.46594101301E+01 0.43011792931E+01 0.41092467831E+01
 0.40484917243E+01 0.41057148333E+01 0.42936935843E+01 0.46516850960E+01 0.52273838537E+01
 0.60323598561E+01 0.70556878266E+01 0.82616231653E+01 0.94437503679E+01 0.10314692854E+02
 0.10637814091E+02 0.10319052254E+02 0.94431827043E+01 0.82496841362E+01 0.70377148583E+01
 0.50779613089E+01 0.48141387081E+01 0.46612967511E+01 0.45901538882E+01 0.45679480649E+01
 0.45695764873E+01 0.45900201873E+01 0.46516850960E+01 0.47968366018E+01 0.50649304251E+01
 0.54655328444E+01 0.59615004832E+01 0.64926808538E+01 0.69699973002E+01 0.72577852617E+01
 0.72551661912E+01 0.69609308739E+01 0.64777102760E+01 0.59482284512E+01 0.54643623436E+01
 0.50784182540E+01 0.52293852605E+01 0.54052364927E+01 0.55496831177E+01 0.56091392381E+01
 0.55578194695E+01 0.54129624676E+01 0.52273838537E+01 0.50649304251E+01 0.49758261658E+01
 0.49825569274E+01 0.50747827508E+01 0.52104905455E+01 0.53278907925E+01 0.53714379484E+01
 0.53210129028E+01 0.52033042240E+01 0.50754739999E+01 0.49943098803E+01 0.49935281413E+01
 0.60196363783E+01 0.65966152141E+01 0.71037086793E+01 0.74062896623E+01 0.74101300721E+01
 0.71152082063E+01 0.66129406607E+01 0.60323598561E+01 0.54655328444E+01 0.49825569274E+01
 0.46344756032E+01 0.44246315798E+01 0.43205014129E+01 0.42799299265E+01 0.42779389616E+01
 0.43194338072E+01 0.44323772539E+01 0.46502675017E+01 0.49955347557E+01 0.54654839406E+01
 0.82874804487E+01 0.94799001622E+01 0.10331828611E+02 0.10636977886E+02 0.10327858351E+02
 0.94816115113E+01 0.83010662178E+01 0.70556878266E+01 0.59615004832E+01 0.50747827508E+01
 0.44246315798E+01 0.40114129392E+01 0.37907319665E+01 0.37220478549E+01 0.37922828314E+01
 0.40168488116E+01 0.44318682503E+01 0.50754739999E+01 0.59496904397E+01 0.70366721748E+01
 0.12611790900E+02 0.14342786474E+02 0.15277475932E+02 0.15268017433E+02 0.14322413876E+02
 0.12596987456E+02 0.10424528854E+02 0.82616231653E+01 0.64926808538E+01 0.52104905455E+01
 0.43205014129E+01 0.37907319665E+01 0.35524732107E+01 0.35539336684E+01 0.37934627322E+01
 0.43200950784E+01 0.52025049102E+01 0.64777102760E+01 0.82480556144E+01 0.10423512234E+02
 0.18875307693E+02 0.20733202954E+02 0.21366238717E+02 0.20723715158E+02 0.18858592683E+02
 0.15997748662E+02 0.12635164202E+02 0.94437503679E+01 0.69699973002E+01 0.53278907925E+01
 0.42799299265E+01 0.37220478549E+01 0.35539336684E+01 0.37236943968E+01 0.42783552658E+01
 0.53205651781E+01 0.69617997216E+01 0.94431827043E+01 0.12646014097E+02 0.16015640499E+02
 0.26147463587E+02 0.27700571563E+02 0.27711237947E+02 0.26167889660E+02 0.23161108743E+02
 0.19030350484E+02 0.14458262338E+02 0.10314692854E+02 0.72577852617E+01 0.53714379484E+01
 0.42779389616E+01 0.37922828314E+01 0.37934627322E+01 0.42783552658E+01 0.53680114775E+01
 0.72558743581E+01 0.10323113846E+02 0.14475178748E+02 0.19040509137E+02 0.23152260317E+02
 0.33483257338E+02 0.34433261898E+02 0.33519008949E+02 0.30792893665E+02 0.26485236292E+02
 0.21102098492E+02 0.15486144017E+02 0.10637814091E+02 0.72551661912E+01 0.53210129028E+01
 0.43194338072E+01 0.40168488116E+01 0.43200950784E+01 0.53205651781E+01 0.72558743581E+01
 0.10645266185E+02 0.15498534044E+02 0.21104387086E+02 0.26461964285E+02 0.30749153951E+02
 0.40291555826E+02 0.40304396987E+02 0.38073295315E+02 0.33905875996E+02 0.28279781584E+02
 0.21834370269E+02 0.15493560734E+02 0.10319052254E+02 0.69609308739E+01 0.52033042240E+01
 0.44323772539E+01 0.44318682503E+01 0.52025049102E+01 0.69617997216E+01 0.10323113846E+02
 0.15498534044E+02 0.21832751348E+02 0.28263715228E+02 0.33876124717E+02 0.38043079434E+02
 0.45899681517E+02 0.44496099709E+02 0.40622049245E+02 0.34991028654E+02 0.28263715228E+02
 0.21104387086E+02 0.14475178748E+02 0.94431827043E+01 0.64777102760E+01 0.50754739999E+01
 0.46502675017E+01 0.50754739999E+01 0.64777102760E+01 0.94431827043E+01 0.14475178748E+02
 0.21104387086E+02 0.28263715228E+02 0.34991028654E+02 0.40622049245E+02 0.44496099709E+02
 0.49202000349E+02 0.46046005248E+02 0.40605823726E+02 0.33860773533E+02 0.26453601163E+02
 0.19040486669E+02 0.12649674370E+02 0.82496841362E+01 0.59482284512E+01 0.49943098803E+01
 0.49955347557E+01 0.59496904397E+01 0.82480556144E+01 0.12646014097E+02 0.19040509137E+02
 0.26461964285E+02 0.33876124717E+02 0.40622049245E+02 0.46057343731E+02 0.49205918480E+02
 0.49207717238E+02 0.44493662261E+02 0.38033035714E+02 0.30736453932E+02 0.23145133409E+02
 0.16016428590E+02 0.10427088856E+02 0.70377148583E+01 0.54643623436E+01 0.49935281413E+01
 0.54654839406E+01 0.70366721748E+01 0.10423512234E+02 0.16015640499E+02 0.23152260317E+02
 0.30749153951E+02 0.38043079434E+02 0.44496099709E+02 0.49205918480E+02 0.50973640942E+02
 0.36740602873E+02 0.31552468827E+02 0.25357268039E+02 0.18870925015E+02 0.13021331017E+02
 0.86996706116E+01 0.61871030641E+01 0.49621899808E+01 0.45910199586E+01 0.49636388694E+01
 0.61869560355E+01 0.86945637268E+01 0.13011482383E+02 0.18862037269E+02 0.25357563058E+02
 0.31565819564E+02 0.36761441111E+02 0.40291555826E+02 0.41551247744E+02 0.40275872453E+02
 0.31552468827E+02 0.26109716317E+02 0.20094015138E+02 0.14347509404E+02 0.97525083637E+01
 0.67993364334E+01 0.52309167907E+01 0.45399274600E+01 0.45417154266E+01 0.52338622297E+01