   1   1   1   0
  0.1371800E+02  0.2687006E-09  0.2687006E-09  0.2687006E-09  0.5000000E-15
  1.000000000000000E-004
  CAR 
 fcc Au                                  
     43.12613033     -5.79614056  301      8.97146659      1.00000000
     -5.796  0.0000E+00  0.0000E+00
     -5.633  0.0000E+00  0.0000E+00
     -5.470  0.0000E+00  0.0000E+00
     -5.307 -0.1298E-33 -0.2117E-34
     -5.144 -0.8391E-28 -0.1368E-28
     -4.981 -0.1420E-22 -0.2315E-23
     -4.818 -0.6269E-18 -0.1022E-18
     -4.655 -0.6955E-14 -0.1134E-14
     -4.492 -0.2037E-10 -0.3324E-11
     -4.328 -0.1514E-07 -0.2472E-08
     -4.165 -0.2768E-05 -0.4538E-06
     -4.002 -0.1148E-03 -0.1918E-04
     -3.839 -0.7390E-03 -0.1397E-03
     -3.676  0.3072E-02  0.3613E-03
     -3.513  0.1335E-01  0.2539E-02
     -3.350  0.2702E-01  0.6946E-02
     -3.187  0.4611E-01  0.1447E-01
     -3.024  0.4339E-01  0.2154E-01
     -2.861  0.4641E-01  0.2911E-01
     -2.698  0.5942E-01  0.3880E-01
     -2.535  0.8056E-01  0.5194E-01
     -2.372  0.9613E-01  0.6761E-01
     -2.209  0.5675E-01  0.7687E-01
     -2.045  0.6140E-01  0.8688E-01
     -1.882  0.1297E+00  0.1080E+00
     -1.719  0.1537E+00  0.1331E+00
     -1.556  0.9962E-01  0.1493E+00
     -1.393  0.9816E-01  0.1653E+00
     -1.230  0.1941E+00  0.1970E+00
     -1.067  0.1621E+00  0.2234E+00
     -0.904  0.2243E+00  0.2600E+00
     -0.741  0.4391E+00  0.3316E+00
     -0.578  0.6350E+00  0.4352E+00
     -0.415  0.6651E+00  0.5436E+00
     -0.252  0.8724E+00  0.6859E+00
     -0.089  0.1126E+01  0.8695E+00
      0.075  0.1436E+01  0.1104E+01
      0.238  0.1416E+01  0.1335E+01
      0.401  0.1381E+01  0.1560E+01
      0.564  0.1507E+01  0.1805E+01
      0.727  0.1087E+01  0.1983E+01
      0.890  0.1215E+01  0.2181E+01
      1.053  0.1257E+01  0.2386E+01
      1.216  0.7805E+00  0.2513E+01
      1.379  0.8603E+00  0.2654E+01
      1.542  0.1271E+01  0.2861E+01
      1.705  0.1302E+01  0.3073E+01
      1.868  0.1368E+01  0.3296E+01
      2.031  0.1272E+01  0.3504E+01
      2.194  0.1190E+01  0.3698E+01
      2.358  0.1501E+01  0.3943E+01
      2.521  0.1606E+01  0.4205E+01
      2.684  0.1477E+01  0.4445E+01
      2.847  0.1625E+01  0.4710E+01
      3.010  0.1882E+01  0.5017E+01
      3.173  0.2529E+01  0.5430E+01
      3.336  0.2006E+01  0.5757E+01
      3.499  0.1331E+01  0.5974E+01
      3.662  0.1198E+01  0.6169E+01
      3.825  0.1037E+01  0.6338E+01
      3.988  0.1145E+01  0.6525E+01
      4.151  0.1101E+01  0.6705E+01
      4.314  0.1209E+01  0.6902E+01
      4.478  0.1426E+01  0.7134E+01
      4.641  0.1468E+01  0.7373E+01
      4.804  0.1477E+01  0.7614E+01
      4.967  0.1027E+01  0.7782E+01
      5.130  0.1306E+01  0.7995E+01
      5.293  0.1530E+01  0.8244E+01
      5.456  0.8153E+00  0.8377E+01
      5.619  0.7447E+00  0.8499E+01
      5.782  0.1373E+01  0.8723E+01
      5.945  0.1247E+01  0.8926E+01
      6.108  0.8479E+00  0.9064E+01
      6.271  0.1273E+01  0.9272E+01
      6.434  0.1761E+01  0.9559E+01
      6.598  0.1674E+01  0.9832E+01
      6.761  0.1712E+01  0.1011E+02
      6.924  0.1452E+01  0.1035E+02
      7.087  0.1067E+01  0.1052E+02
      7.250  0.6475E+00  0.1063E+02
      7.413  0.5388E-01  0.1064E+02
      7.576  0.2888E-01  0.1064E+02
      7.739  0.2099E+00  0.1068E+02
      7.902  0.3566E+00  0.1073E+02
      8.065  0.4744E+00  0.1081E+02
      8.228  0.2964E+00  0.1086E+02
      8.391  0.1009E+00  0.1088E+02
      8.554  0.1350E+00  0.1090E+02
      8.717  0.1969E+00  0.1093E+02
      8.881  0.2652E+00  0.1097E+02
      9.044  0.2909E+00  0.1102E+02
      9.207  0.2376E+00  0.1106E+02
      9.370  0.1938E+00  0.1109E+02
      9.533  0.3254E+00  0.1114E+02
      9.696  0.3192E+00  0.1120E+02
      9.859  0.2575E+00  0.1124E+02
     10.022  0.2321E+00  0.1128E+02
     10.185  0.1518E+00  0.1130E+02
     10.348  0.1406E+00  0.1132E+02
     10.511  0.1210E+00  0.1134E+02
     10.674  0.3945E+00  0.1141E+02
     10.837  0.3665E+00  0.1147E+02
     11.001  0.1540E+00  0.1149E+02
     11.164  0.1935E+00  0.1152E+02
     11.327  0.2085E+00  0.1156E+02
     11.490  0.1843E+00  0.1159E+02
     11.653  0.2006E+00  0.1162E+02
     11.816  0.2251E+00  0.1166E+02
     11.979  0.2085E+00  0.1169E+02
     12.142  0.2110E+00  0.1173E+02
     12.305  0.2211E+00  0.1176E+02
     12.468  0.7391E-01  0.1177E+02
     12.631  0.1478E+00  0.1180E+02
     12.794  0.2117E+00  0.1183E+02
     12.957  0.1566E+00  0.1186E+02
     13.120  0.4304E+00  0.1193E+02
     13.284  0.5508E+00  0.1202E+02
     13.447  0.3222E+00  0.1207E+02
     13.610  0.9664E-01  0.1209E+02
     13.773  0.1598E+00  0.1211E+02
     13.936  0.4744E+00  0.1219E+02
     14.099  0.4994E+00  0.1227E+02
     14.262  0.2546E+00  0.1231E+02
     14.425  0.1282E+00  0.1233E+02
     14.588  0.1566E+00  0.1236E+02
     14.751  0.3457E+00  0.1242E+02
     14.914  0.2017E+00  0.1245E+02
     15.077  0.3047E+00  0.1250E+02
     15.240  0.3222E+00  0.1255E+02
     15.404  0.2683E+00  0.1259E+02
     15.567  0.4570E+00  0.1267E+02
     15.730  0.3658E+00  0.1273E+02
     15.893  0.1149E+00  0.1275E+02
     16.056  0.2124E+00  0.1278E+02
     16.219  0.2718E+00  0.1283E+02
     16.382  0.3357E+00  0.1288E+02
     16.545  0.2246E+00  0.1292E+02
     16.708  0.4763E+00  0.1300E+02
     16.871  0.4140E+00  0.1306E+02
     17.034  0.1216E+00  0.1308E+02
     17.197  0.8976E-01  0.1310E+02
     17.360  0.1229E+00  0.1312E+02
     17.523  0.2256E+00  0.1315E+02
     17.687  0.2833E+00  0.1320E+02
     17.850  0.3032E+00  0.1325E+02
     18.013  0.5194E+00  0.1333E+02
     18.176  0.5114E+00  0.1342E+02
     18.339  0.4741E+00  0.1350E+02
     18.502  0.4003E+00  0.1356E+02
     18.665  0.1059E+00  0.1358E+02
     18.828  0.1593E+00  0.1360E+02
     18.991  0.2307E+00  0.1364E+02
     19.154  0.3486E+00  0.1370E+02
     19.317  0.4202E+00  0.1377E+02
     19.480  0.4023E+00  0.1383E+02
     19.643  0.3447E+00  0.1389E+02
     19.807  0.1952E+00  0.1392E+02
     19.970  0.3413E+00  0.1398E+02
     20.133  0.5999E+00  0.1407E+02
     20.296  0.7139E+00  0.1419E+02
     20.459  0.3875E+00  0.1425E+02
     20.622  0.2909E+00  0.1430E+02
     20.785  0.4154E+00  0.1437E+02
     20.948  0.4802E+00  0.1445E+02
     21.111  0.3802E+00  0.1451E+02
     21.274  0.3844E+00  0.1457E+02
     21.437  0.4667E+00  0.1465E+02
     21.600  0.3298E+00  0.1470E+02
     21.763  0.4437E+00  0.1477E+02
     21.926  0.4912E+00  0.1485E+02
     22.090  0.5643E+00  0.1495E+02
     22.253  0.6117E+00  0.1505E+02
     22.416  0.4026E+00  0.1511E+02
     22.579  0.4064E+00  0.1518E+02
     22.742  0.3128E+00  0.1523E+02
     22.905  0.3508E+00  0.1529E+02
     23.068  0.6910E+00  0.1540E+02
     23.231  0.6660E+00  0.1551E+02
     23.394  0.2584E+00  0.1555E+02
     23.557  0.2581E+00  0.1559E+02
     23.720  0.6151E+00  0.1569E+02
     23.883  0.7809E+00  0.1582E+02
     24.046  0.9764E+00  0.1598E+02
     24.210  0.9595E+00  0.1613E+02
     24.373  0.6134E+00  0.1623E+02
     24.536  0.5367E+00  0.1632E+02
     24.699  0.4287E+00  0.1639E+02
     24.862  0.4965E+00  0.1647E+02
     25.025  0.5899E+00  0.1657E+02
     25.188  0.5133E+00  0.1665E+02
     25.351  0.3684E+00  0.1671E+02
     25.514  0.3472E+00  0.1677E+02
     25.677  0.6933E+00  0.1688E+02
     25.840  0.8623E+00  0.1702E+02
     26.003  0.7888E+00  0.1715E+02
     26.166  0.6519E+00  0.1726E+02
     26.329  0.3986E+00  0.1732E+02
     26.493  0.3785E+00  0.1739E+02
     26.656  0.2609E+00  0.1743E+02
     26.819  0.2375E+00  0.1747E+02
     26.982  0.2894E+00  0.1751E+02
     27.145  0.2535E+00  0.1756E+02
     27.308  0.2036E+00  0.1759E+02
     27.471  0.3182E+00  0.1764E+02
     27.634  0.6089E+00  0.1774E+02
     27.797  0.4818E+00  0.1782E+02
     27.960  0.3757E+00  0.1788E+02
     28.123  0.5362E+00  0.1797E+02
     28.286  0.6567E+00  0.1807E+02
     28.449  0.6976E+00  0.1819E+02
     28.613  0.6774E+00  0.1830E+02
     28.776  0.7476E+00  0.1842E+02
     28.939  0.6671E+00  0.1853E+02
     29.102  0.7584E+00  0.1865E+02
     29.265  0.9186E+00  0.1880E+02
     29.428  0.7274E+00  0.1892E+02
     29.591  0.5385E+00  0.1901E+02
     29.754  0.6276E+00  0.1911E+02
     29.917  0.6437E+00  0.1922E+02
     30.080  0.5950E+00  0.1931E+02
     30.243  0.4995E+00  0.1939E+02
     30.406  0.4497E+00  0.1947E+02
     30.569  0.4899E+00  0.1955E+02
     30.732  0.3853E+00  0.1961E+02
     30.896  0.5205E+00  0.1970E+02
     31.059  0.5865E+00  0.1979E+02
     31.222  0.4957E+00  0.1987E+02
     31.385  0.2525E+00  0.1991E+02
     31.548  0.2637E+00  0.1996E+02
     31.711  0.2876E+00  0.2000E+02
     31.874  0.3408E+00  0.2006E+02
     32.037  0.2852E+00  0.2011E+02
     32.200  0.3563E+00  0.2016E+02
     32.363  0.3385E+00  0.2022E+02
     32.526  0.3341E+00  0.2027E+02
     32.689  0.6247E+00  0.2037E+02
     32.852  0.5314E+00  0.2046E+02
     33.016  0.1792E+00  0.2049E+02
     33.179  0.2613E+00  0.2053E+02
     33.342  0.4097E+00  0.2060E+02
     33.505  0.2703E+00  0.2064E+02
     33.668  0.2121E+00  0.2068E+02
     33.831  0.3868E+00  0.2074E+02
     33.994  0.4995E+00  0.2082E+02
     34.157  0.5955E+00  0.2092E+02
     34.320  0.6968E+00  0.2103E+02
     34.483  0.5917E+00  0.2113E+02
     34.646  0.4319E+00  0.2120E+02
     34.809  0.4030E+00  0.2127E+02
     34.972  0.3982E+00  0.2133E+02
     35.135  0.6118E+00  0.2143E+02
     35.299  0.3749E+00  0.2149E+02
     35.462  0.3224E+00  0.2155E+02
     35.625  0.5110E+00  0.2163E+02
     35.788  0.3254E+00  0.2168E+02
     35.951  0.3190E+00  0.2173E+02
     36.114  0.5136E+00  0.2182E+02
     36.277  0.6953E+00  0.2193E+02
     36.440  0.6923E+00  0.2204E+02
     36.603  0.6053E+00  0.2214E+02
     36.766  0.7184E+00  0.2226E+02
     36.929  0.7695E+00  0.2238E+02
     37.092  0.4517E+00  0.2246E+02
     37.255  0.3866E+00  0.2252E+02
     37.419  0.6570E+00  0.2263E+02
     37.582  0.7244E+00  0.2275E+02
     37.745  0.6771E+00  0.2286E+02
     37.908  0.5009E+00  0.2294E+02
     38.071  0.5104E+00  0.2302E+02
     38.234  0.7672E+00  0.2315E+02
     38.397  0.1172E+01  0.2334E+02
     38.560  0.1189E+01  0.2353E+02
     38.723  0.5501E+00  0.2362E+02
     38.886  0.1824E+00  0.2365E+02
     39.049  0.1774E+00  0.2368E+02
     39.212  0.2231E+00  0.2372E+02
     39.375  0.1489E+00  0.2374E+02
     39.538  0.2488E+00  0.2378E+02
     39.702  0.3186E+00  0.2383E+02
     39.865  0.3589E+00  0.2389E+02
     40.028  0.3012E+00  0.2394E+02
     40.191  0.1383E+00  0.2396E+02
     40.354  0.1759E-01  0.2397E+02
     40.517  0.3794E-01  0.2397E+02
     40.680  0.3969E-01  0.2398E+02
     40.843  0.6440E-01  0.2399E+02
     41.006  0.5450E-01  0.2400E+02
     41.169  0.9192E-02  0.2400E+02
     41.332 -0.2431E-02  0.2400E+02
     41.495 -0.3503E-03  0.2400E+02
     41.658 -0.8335E-05  0.2400E+02
     41.822 -0.4545E-07  0.2400E+02
     41.985 -0.6113E-10  0.2400E+02
     42.148 -0.2087E-13  0.2400E+02
     42.311  0.0000E+00  0.2400E+02
     42.474  0.0000E+00  0.2400E+02
     42.637  0.0000E+00  0.2400E+02
     42.800  0.0000E+00  0.2400E+02
     42.963  0.0000E+00  0.2400E+02
     43.126  0.0000E+00  0.2400E+02
     43.12613033     -5.79614056  301      8.97146659      1.00000000
     -5.796  0.0000E+00  0.0000E+00  0.0000E+00
     -5.633  0.0000E+00  0.0000E+00  0.0000E+00
     -5.470  0.0000E+00  0.0000E+00  0.0000E+00
     -5.307 -0.1091E-33 -0.9445E-36 -0.1815E-37
     -5.144 -0.7054E-28 -0.6105E-30 -0.1173E-31
     -4.981 -0.1193E-22 -0.1033E-24 -0.1985E-26
     -4.818 -0.5270E-18 -0.4561E-20 -0.8763E-22
     -4.655 -0.5847E-14 -0.5060E-16 -0.9723E-18
     -4.492 -0.1713E-10 -0.1482E-12 -0.2848E-14
     -4.328 -0.1272E-07 -0.1101E-09 -0.2116E-11
     -4.165 -0.2327E-05 -0.2014E-07 -0.3874E-09
     -4.002 -0.9653E-04 -0.8393E-06 -0.1631E-07
     -3.839 -0.6208E-03 -0.5858E-05 -0.1352E-06
     -3.676  0.2596E-02  0.9260E-05 -0.4413E-06
     -3.513  0.1126E-01  0.6100E-04 -0.7813E-06
     -3.350  0.2237E-01  0.5452E-03  0.2302E-04
     -3.187  0.3786E-01  0.1223E-02  0.6666E-04
     -3.024  0.3507E-01  0.1627E-02  0.1720E-03
     -2.861  0.3699E-01  0.2190E-02  0.2874E-03
     -2.698  0.4653E-01  0.3510E-02  0.5134E-03
     -2.535  0.6198E-01  0.5600E-02  0.1047E-02
     -2.372  0.7294E-01  0.7274E-02  0.1779E-02
     -2.209  0.4230E-01  0.4521E-02  0.1704E-02
     -2.045  0.4443E-01  0.5969E-02  0.2119E-02
     -1.882  0.9190E-01  0.1349E-01  0.5668E-02
     -1.719  0.1068E+00  0.1681E-01  0.8220E-02
     -1.556  0.6766E-01  0.1117E-01  0.6852E-02
     -1.393  0.6351E-01  0.1181E-01  0.9568E-02
     -1.230  0.1217E+00  0.2366E-01  0.2302E-01
     -1.067  0.9773E-01  0.1995E-01  0.2318E-01
     -0.904  0.1177E+00  0.2497E-01  0.5547E-01
     -0.741  0.1907E+00  0.3561E-01  0.1706E+00
     -0.578  0.2308E+00  0.4293E-01  0.3047E+00
     -0.415  0.1925E+00  0.3906E-01  0.3743E+00
     -0.252  0.2087E+00  0.5052E-01  0.5374E+00
     -0.089  0.2497E+00  0.7196E-01  0.7082E+00
      0.075  0.2411E+00  0.7941E-01  0.1004E+01
      0.238  0.1972E+00  0.7025E-01  0.1050E+01
      0.401  0.1551E+00  0.7270E-01  0.1060E+01
      0.564  0.1437E+00  0.7880E-01  0.1186E+01
      0.727  0.8387E-01  0.6424E-01  0.8690E+00
      0.890  0.8123E-01  0.8170E-01  0.9693E+00
      1.053  0.5220E-01  0.8065E-01  0.1043E+01
      1.216  0.2165E-01  0.6332E-01  0.6450E+00
      1.379  0.1623E-01  0.7298E-01  0.7122E+00
      1.542  0.1981E-01  0.1174E+00  0.1047E+01
      1.705  0.1951E-01  0.1169E+00  0.1075E+01
      1.868  0.1670E-01  0.1038E+00  0.1153E+01
      2.031  0.2113E-01  0.8974E-01  0.1081E+01
      2.194  0.2445E-01  0.7193E-01  0.1022E+01
      2.358  0.3268E-01  0.1097E+00  0.1268E+01
      2.521  0.3890E-01  0.1400E+00  0.1336E+01
      2.684  0.4383E-01  0.1133E+00  0.1237E+01
      2.847  0.4624E-01  0.1120E+00  0.1377E+01
      3.010  0.3939E-01  0.1419E+00  0.1602E+01
      3.173  0.4808E-01  0.1964E+00  0.2156E+01
      3.336  0.4573E-01  0.1510E+00  0.1707E+01
      3.499  0.3364E-01  0.9968E-01  0.1129E+01
      3.662  0.2400E-01  0.8090E-01  0.1031E+01
      3.825  0.1941E-01  0.1093E+00  0.8460E+00
      3.988  0.2177E-01  0.1051E+00  0.9522E+00
      4.151  0.1693E-01  0.7632E-01  0.9486E+00
      4.314  0.2574E-01  0.1045E+00  0.1009E+01
      4.478  0.2336E-01  0.9138E-01  0.1237E+01
      4.641  0.1553E-01  0.5379E-01  0.1328E+01
      4.804  0.1899E-01  0.7141E-01  0.1309E+01
      4.967  0.1148E-01  0.7433E-01  0.8841E+00
      5.130  0.1736E-01  0.7025E-01  0.1156E+01
      5.293  0.2397E-01  0.6819E-01  0.1368E+01
      5.456  0.1220E-01  0.2870E-01  0.7401E+00
      5.619  0.2200E-02  0.2933E-01  0.6826E+00
      5.782  0.7933E-02  0.6052E-01  0.1246E+01
      5.945  0.1686E-01  0.4443E-01  0.1136E+01
      6.108  0.1217E-01  0.2842E-01  0.7744E+00
      6.271  0.9314E-02  0.3862E-01  0.1179E+01
      6.434  0.1510E-01  0.3656E-01  0.1650E+01
      6.598  0.9158E-02  0.1851E-01  0.1596E+01
      6.761  0.4429E-02  0.1582E-01  0.1645E+01
      6.924  0.1769E-01  0.3279E-01  0.1359E+01
      7.087  0.3815E-01  0.5339E-01  0.9387E+00
      7.250  0.2475E-01  0.3202E-01  0.5690E+00
      7.413  0.2957E-02  0.2572E-02  0.4658E-01
      7.576  0.2862E-02  0.8770E-02  0.1442E-01
      7.739  0.1432E-01  0.4643E-01  0.1331E+00
      7.902  0.3425E-01  0.5558E-01  0.2457E+00
      8.065  0.5510E-01  0.7036E-01  0.3230E+00
      8.228  0.3008E-01  0.7161E-01  0.1726E+00
      8.391  0.8830E-02  0.3951E-01  0.4219E-01
      8.554  0.1582E-01  0.3407E-01  0.7451E-01
      8.717  0.2579E-01  0.3899E-01  0.1186E+00
      8.881  0.3720E-01  0.4715E-01  0.1631E+00
      9.044  0.4225E-01  0.5702E-01  0.1715E+00
      9.207  0.3522E-01  0.5384E-01  0.1314E+00
      9.370  0.2244E-01  0.6684E-01  0.8730E-01
      9.533  0.2955E-01  0.1324E+00  0.1304E+00
      9.696  0.3767E-01  0.1046E+00  0.1458E+00
      9.859  0.4840E-01  0.5495E-01  0.1320E+00
     10.022  0.4084E-01  0.5532E-01  0.1156E+00
     10.185  0.2449E-01  0.4508E-01  0.6939E-01
     10.348  0.2618E-01  0.3807E-01  0.6551E-01
     10.511  0.2170E-01  0.3609E-01  0.5258E-01
     10.674  0.6075E-01  0.1422E+00  0.1498E+00
     10.837  0.5935E-01  0.1276E+00  0.1393E+00
     11.001  0.2689E-01  0.4732E-01  0.6395E-01
     11.164  0.3535E-01  0.6090E-01  0.7774E-01
     11.327  0.3640E-01  0.6956E-01  0.8173E-01
     11.490  0.3555E-01  0.6153E-01  0.6682E-01
     11.653  0.2921E-01  0.7844E-01  0.6816E-01
     11.816  0.5298E-01  0.6979E-01  0.7411E-01
     11.979  0.5624E-01  0.6110E-01  0.6541E-01
     12.142  0.3333E-01  0.8589E-01  0.6841E-01
     12.305  0.4651E-01  0.7506E-01  0.7488E-01
     12.468  0.2239E-01  0.1859E-01  0.2389E-01
     12.631  0.5738E-01  0.3388E-01  0.3352E-01
     12.794  0.5352E-01  0.7287E-01  0.5762E-01
     12.957  0.2669E-01  0.6152E-01  0.5029E-01
     13.120  0.1720E+00  0.7374E-01  0.1321E+00
     13.284  0.2589E+00  0.5626E-01  0.1724E+00
     13.447  0.1309E+00  0.5877E-01  0.9417E-01
     13.610  0.2983E-01  0.3299E-01  0.1914E-01
     13.773  0.6391E-01  0.3299E-01  0.4086E-01
     13.936  0.1559E+00  0.1142E+00  0.1446E+00
     14.099  0.1576E+00  0.1302E+00  0.1436E+00
     14.262  0.8756E-01  0.7013E-01  0.5698E-01
     14.425  0.2671E-01  0.5469E-01  0.2681E-01
     14.588  0.4267E-01  0.5527E-01  0.3108E-01
     14.751  0.1202E+00  0.9747E-01  0.6589E-01
     14.914  0.6711E-01  0.5345E-01  0.4979E-01
     15.077  0.8225E-01  0.8898E-01  0.9276E-01
     15.240  0.9548E-01  0.9524E-01  0.8295E-01
     15.404  0.7200E-01  0.9857E-01  0.5270E-01
     15.567  0.1402E+00  0.1541E+00  0.7785E-01
     15.730  0.1391E+00  0.9553E-01  0.6402E-01
     15.893  0.3230E-01  0.3696E-01  0.2760E-01
     16.056  0.3125E-01  0.9086E-01  0.5973E-01
     16.219  0.9122E-01  0.7349E-01  0.6393E-01
     16.382  0.1274E+00  0.7917E-01  0.6904E-01
     16.545  0.7052E-01  0.6841E-01  0.4061E-01
     16.708  0.1431E+00  0.1496E+00  0.9024E-01
     16.871  0.1303E+00  0.1249E+00  0.8008E-01
     17.034  0.3043E-01  0.4862E-01  0.1998E-01
     17.197  0.1038E-01  0.4653E-01  0.1697E-01
     17.360  0.3209E-01  0.4456E-01  0.1861E-01
     17.523  0.6474E-01  0.6883E-01  0.4287E-01
     17.687  0.8717E-01  0.8164E-01  0.5605E-01
     17.850  0.7082E-01  0.1063E+00  0.6536E-01
     18.013  0.9319E-01  0.2057E+00  0.1152E+00
     18.176  0.9060E-01  0.2030E+00  0.1194E+00
     18.339  0.1009E+00  0.1701E+00  0.1090E+00
     18.502  0.8371E-01  0.1374E+00  0.9827E-01
     18.665  0.1093E-01  0.4569E-01  0.2634E-01
     18.828  0.5082E-02  0.8274E-01  0.3518E-01
     18.991  0.2242E-01  0.1043E+00  0.5512E-01
     19.154  0.4026E-01  0.1477E+00  0.8633E-01
     19.317  0.6265E-01  0.1726E+00  0.8081E-01
     19.480  0.7964E-01  0.1542E+00  0.5863E-01
     19.643  0.5427E-01  0.1465E+00  0.4816E-01
     19.807  0.1998E-01  0.9449E-01  0.3640E-01
     19.970  0.3163E-01  0.1567E+00  0.8345E-01
     20.133  0.3139E-01  0.2758E+00  0.1581E+00
     20.296  0.2359E-01  0.3130E+00  0.2009E+00
     20.459  0.2731E-01  0.1563E+00  0.9709E-01
     20.622  0.4364E-01  0.1079E+00  0.5077E-01
     20.785  0.4930E-01  0.1634E+00  0.8393E-01
     20.948  0.4392E-01  0.2092E+00  0.9048E-01
     21.111  0.2392E-01  0.1634E+00  0.8498E-01
     21.274  0.1303E-01  0.1665E+00  0.1129E+00
     21.437  0.1683E-01  0.2099E+00  0.1360E+00
     21.600  0.7229E-02  0.1556E+00  0.7608E-01
     21.763  0.1862E-01  0.2015E+00  0.7967E-01
     21.926  0.3293E-01  0.1942E+00  0.1091E+00
     22.090  0.3643E-01  0.2101E+00  0.1454E+00
     22.253  0.2989E-01  0.2506E+00  0.1521E+00
     22.416  0.2252E-01  0.1659E+00  0.9836E-01
     22.579  0.2195E-01  0.1590E+00  0.1086E+00
     22.742  0.8629E-02  0.1218E+00  0.9728E-01
     22.905  0.1180E-01  0.1268E+00  0.9317E-01
     23.068  0.2531E-01  0.2615E+00  0.1598E+00
     23.231  0.2264E-01  0.2464E+00  0.1542E+00
     23.394  0.5421E-02  0.8216E-01  0.4611E-01
     23.557  0.6895E-02  0.7614E-01  0.4390E-01
     23.720  0.1150E-01  0.1743E+00  0.1243E+00
     23.883  0.6982E-02  0.2382E+00  0.1545E+00
     24.046  0.1707E-01  0.2709E+00  0.1845E+00
     24.210  0.2807E-01  0.2229E+00  0.2063E+00
     24.373  0.1941E-01  0.1368E+00  0.1433E+00
     24.536  0.1222E-01  0.1028E+00  0.9722E-01
     24.699  0.6541E-02  0.9298E-01  0.7623E-01
     24.862  0.6543E-02  0.1206E+00  0.1058E+00
     25.025  0.6725E-02  0.1615E+00  0.1334E+00
     25.188  0.8301E-02  0.1359E+00  0.9535E-01
     25.351  0.7068E-02  0.6785E-01  0.5066E-01
     25.514  0.4216E-02  0.5717E-01  0.5451E-01
     25.677  0.5562E-02  0.1223E+00  0.1308E+00
     25.840  0.1258E-01  0.1991E+00  0.1528E+00
     26.003  0.1681E-01  0.2068E+00  0.1422E+00
     26.166  0.1314E-01  0.1451E+00  0.1267E+00
     26.329  0.6770E-02  0.7001E-01  0.5798E-01
     26.493  0.7560E-02  0.9356E-01  0.4289E-01
     26.656  0.4294E-02  0.9460E-01  0.3137E-01
     26.819  0.4399E-02  0.8266E-01  0.2895E-01
     26.982  0.6240E-02  0.8130E-01  0.3304E-01
     27.145  0.4924E-02  0.7184E-01  0.3103E-01
     27.308  0.3606E-02  0.6868E-01  0.1925E-01
     27.471  0.4941E-02  0.1065E+00  0.3776E-01
     27.634  0.9996E-02  0.1876E+00  0.8233E-01
     27.797  0.9055E-02  0.1405E+00  0.7156E-01
     27.960  0.5381E-02  0.1336E+00  0.4831E-01
     28.123  0.1273E-01  0.2110E+00  0.5314E-01
     28.286  0.2003E-01  0.2205E+00  0.8280E-01
     28.449  0.1664E-01  0.2135E+00  0.1003E+00
     28.613  0.2497E-01  0.1785E+00  0.1315E+00
     28.776  0.3011E-01  0.1555E+00  0.1635E+00
     28.939  0.1894E-01  0.1691E+00  0.1276E+00
     29.102  0.1648E-01  0.2180E+00  0.1227E+00
     29.265  0.4152E-01  0.2308E+00  0.1499E+00
     29.428  0.3816E-01  0.1504E+00  0.1271E+00
     29.591  0.2661E-01  0.9831E-01  0.1022E+00
     29.754  0.2391E-01  0.1410E+00  0.1261E+00
     29.917  0.1305E-01  0.1342E+00  0.1199E+00
     30.080  0.7469E-02  0.1304E+00  0.1141E+00
     30.243  0.7388E-02  0.1493E+00  0.9249E-01
     30.406  0.8425E-02  0.1183E+00  0.8459E-01
     30.569  0.7814E-02  0.1017E+00  0.7635E-01
     30.732  0.8672E-02  0.7154E-01  0.6842E-01
     30.896  0.1451E-01  0.9161E-01  0.1084E+00
     31.059  0.2286E-01  0.1328E+00  0.1066E+00
     31.222  0.1839E-01  0.1095E+00  0.8941E-01
     31.385  0.4826E-02  0.3400E-01  0.7496E-01
     31.548  0.9357E-02  0.4825E-01  0.7280E-01
     31.711  0.7836E-02  0.5942E-01  0.7302E-01
     31.874  0.4987E-02  0.5605E-01  0.1262E+00
     32.037  0.5095E-02  0.5244E-01  0.1102E+00
     32.200  0.9143E-02  0.5414E-01  0.1169E+00
     32.363  0.8961E-02  0.5265E-01  0.8559E-01
     32.526  0.8789E-02  0.6402E-01  0.6113E-01
     32.689  0.2641E-01  0.1335E+00  0.1113E+00
     32.852  0.3014E-01  0.1225E+00  0.1081E+00
     33.016  0.8667E-02  0.2106E-01  0.6030E-01
     33.179  0.2218E-02  0.4657E-01  0.6929E-01
     33.342  0.3455E-02  0.8272E-01  0.8098E-01
     33.505  0.4823E-02  0.5768E-01  0.3852E-01
     33.668  0.4888E-02  0.5325E-01  0.3563E-01
     33.831  0.9194E-02  0.6972E-01  0.6093E-01
     33.994  0.8318E-02  0.7950E-01  0.7534E-01
     34.157  0.1042E-01  0.1106E+00  0.1093E+00
     34.320  0.3354E-01  0.1960E+00  0.1140E+00
     34.483  0.3382E-01  0.1539E+00  0.1123E+00
     34.646  0.8336E-02  0.4220E-01  0.9441E-01
     34.809  0.1002E-03  0.2563E-01  0.7540E-01
     34.972  0.1136E-03  0.3980E-01  0.8373E-01
     35.135  0.1111E-02  0.5441E-01  0.1511E+00
     35.299  0.1824E-02  0.3715E-01  0.9559E-01
     35.462  0.4349E-02  0.2171E-01  0.8175E-01
     35.625  0.5384E-02  0.2236E-01  0.1281E+00
     35.788  0.1379E-02  0.1925E-01  0.7339E-01
     35.951  0.7612E-03  0.3109E-01  0.8529E-01
     36.114  0.7276E-02  0.5722E-01  0.1512E+00
     36.277  0.1541E-01  0.1111E+00  0.1740E+00
     36.440  0.1264E-01  0.1123E+00  0.1669E+00
     36.603  0.8129E-02  0.7706E-01  0.1609E+00
     36.766  0.7346E-02  0.3613E-01  0.2063E+00
     36.929  0.6274E-02  0.4090E-01  0.2237E+00
     37.092  0.4389E-02  0.2355E-01  0.1527E+00
     37.255  0.1820E-02  0.2845E-01  0.1244E+00
     37.419  0.2428E-02  0.5495E-01  0.2326E+00
     37.582  0.8684E-02  0.2980E-01  0.2809E+00
     37.745  0.1179E-01  0.2348E-01  0.2473E+00
     37.908  0.8329E-02  0.2214E-01  0.1839E+00
     38.071  0.7591E-02  0.1942E-01  0.1732E+00
     38.234  0.1816E-01  0.2862E-01  0.2114E+00
     38.397  0.3159E-01  0.4404E-01  0.2916E+00
     38.560  0.2833E-01  0.6680E-01  0.2775E+00
     38.723  0.1565E-01  0.4568E-01  0.1258E+00
     38.886  0.5561E-02  0.1009E-01  0.4939E-01
     39.049  0.7543E-03  0.3610E-02  0.4752E-01
     39.212 -0.5616E-04  0.1610E-02  0.5200E-01
     39.375  0.2304E-02  0.9495E-02  0.2762E-01
     39.538  0.5101E-02  0.1925E-01  0.3313E-01
     39.702  0.1291E-02  0.7000E-02  0.3345E-01
     39.865  0.1180E-02  0.7847E-02  0.3968E-01
     40.028  0.6373E-02  0.1957E-01  0.5645E-01
     40.191  0.4194E-02  0.1164E-01  0.3290E-01
     40.354 -0.3049E-04 -0.5670E-04  0.9909E-03
     40.517 -0.1553E-03 -0.4517E-03 -0.8936E-03
     40.680 -0.9111E-05 -0.2386E-04  0.7624E-03
     40.843 -0.1183E-06  0.2687E-03  0.2440E-02
     41.006  0.9142E-09  0.4923E-03  0.2564E-02
     41.169  0.3265E-09  0.1182E-03  0.4999E-03
     41.332 -0.6191E-10 -0.2298E-04 -0.1159E-03
     41.495 -0.9948E-11 -0.3657E-05 -0.1738E-04
     41.658 -0.2401E-12 -0.8819E-07 -0.4159E-06
     41.822 -0.1313E-14 -0.4822E-09 -0.2270E-08
     41.985 -0.1768E-17 -0.6491E-12 -0.3055E-11
     42.148 -0.6036E-21 -0.2216E-15 -0.1043E-14
     42.311  0.0000E+00  0.0000E+00  0.0000E+00
     42.474  0.0000E+00  0.0000E+00  0.0000E+00
     42.637  0.0000E+00  0.0000E+00  0.0000E+00
     42.800  0.0000E+00  0.0000E+00  0.0000E+00
     42.963  0.0000E+00  0.0000E+00  0.0000E+00
     43.126  0.0000E+00  0.0000E+00  0.0000E+00
