    1    1    1    1
  0.1371800E+02  0.2687006E-09  0.2687006E-09  0.2687006E-09  0.5000000E-15
  1.000000000000000E-004
  CAR 
 fcc Au                                  
     11    110     12
 
  0.5000000E-01  0.5000000E-01  0.5000000E-01  0.2000000E-02
    1       -3.572401   1.000000
    2        2.654904   1.000000
    3        2.742905   1.000000
    4        2.742905   1.000000
    5        4.919550   1.000000
    6        4.919550   1.000000
    7       24.096716   0.000000
    8       28.419499   0.000000
    9       29.285858   0.000000
   10       29.285858   0.000000
   11       34.613948   0.000000
   12       39.818327   0.000000
 
  0.1500000E+00  0.5000000E-01  0.5000000E-01  0.6000000E-02
    1       -3.017169   1.000000
    2        2.424818   1.000000
    3        2.936559   1.000000
    4        2.981861   1.000000
    5        4.688790   1.000000
    6        4.985384   1.000000
    7       24.830132   0.000000
    8       26.349459   0.000000
    9       29.244770   0.000000
   10       30.462751   0.000000
   11       35.209876   0.000000
   12       38.203051   0.000000
 
  0.2500000E+00  0.5000000E-01  0.5000000E-01  0.6000000E-02
    1       -1.851864   1.000000
    2        2.239566   1.000000
    3        3.142684   1.000000
    4        3.178154   1.000000
    5        4.688118   1.000000
    6        5.283954   1.000000
    7       22.917260   0.000000
    8       25.709228   0.000000
    9       30.116714   0.000000
   10       32.338331   0.000000
   11       32.520435   0.000000
   12       35.887671   0.000000
 
  0.3500000E+00  0.5000000E-01  0.5000000E-01  0.6000000E-02
    1       -0.920081   1.000000
    2        2.876419   1.000000
    3        3.007433   1.000000
    4        3.104665   1.000000
    5        5.398800   1.000000
    6        6.094312   1.000000
    7       18.939242   0.000000
    8       24.804303   0.000000
    9       29.388197   0.000000
   10       31.967039   0.000000
   11       33.458366   0.000000
   12       35.179923   0.000000
 
  0.4500000E+00  0.5000000E-01  0.5000000E-01  0.6000000E-02
    1       -0.762685   1.000000
    2        2.662131   1.000000
    3        2.764283   1.000000
    4        4.986636   1.000000
    5        6.283343   1.000000
    6        7.103712   1.000000
    7       14.947470   0.000000
    8       23.690980   0.000000
    9       28.039326   0.000000
   10       29.259365   0.000000
   11       36.171658   0.000000
   12       36.906132   0.000000
 
 -0.4500000E+00  0.5000000E-01  0.5000000E-01  0.6000000E-02
    1       -0.779523   1.000000
    2        2.566489   1.000000
    3        2.709132   1.000000
    4        5.677837   1.000000
    5        6.715172   1.000000
    6        7.720285   1.000000
    7       13.290426  -0.000000
    8       23.390817   0.000000
    9       28.005113   0.000000
   10       28.088744   0.000000
   11       37.164411   0.000000
   12       37.304149   0.000000
 
 -0.3500000E+00  0.5000000E-01  0.5000000E-01  0.6000000E-02
    1       -0.770488   1.000000
    2        2.704691   1.000000
    3        2.866448   1.000000
    4        4.269729   1.000000
    5        6.409985   1.000000
    6        6.422785   1.000000
    7       16.185415   0.000000
    8       23.992727   0.000000
    9       28.662418   0.000000
   10       29.631757   0.000000
   11       36.078624   0.000000
   12       36.137510   0.000000
 
 -0.2500000E+00  0.5000000E-01  0.5000000E-01  0.6000000E-02
    1       -1.136509   1.000000
    2        2.569539   1.000000
    3        3.016753   1.000000
    4        3.117446   1.000000
    5        5.251289   1.000000
    6        5.664634   1.000000
    7       20.321354   0.000000
    8       25.272227   0.000000
    9       30.048984   0.000000
   10       31.908652   0.000000
   11       33.450308   0.000000
   12       35.022170   0.000000
 
 -0.1500000E+00  0.5000000E-01  0.5000000E-01  0.6000000E-02
    1       -2.272257   1.000000
    2        2.230055   1.000000
    3        3.134564   1.000000
    4        3.157266   1.000000
    5        4.626305   1.000000
    6        5.110847   1.000000
    7       24.129363   0.000000
    8       25.609798   0.000000
    9       29.989143   0.000000
   10       31.182552   0.000000
   11       33.689029   0.000000
   12       36.278333   0.000000
 
 -0.5000000E-01  0.5000000E-01  0.5000000E-01  0.6000000E-02
    1       -3.289015   1.000000
    2        2.495063   1.000000
    3        2.876367   1.000000
    4        2.884434   1.000000
    5        4.728053   1.000000
    6        5.002141   1.000000
    7       24.497957   0.000000
    8       27.459183   0.000000
    9       29.232086   0.000000
   10       29.538837   0.000000
   11       35.882828   0.000000
   12       38.600061   0.000000
 
  0.1500000E+00  0.1500000E+00  0.5000000E-01  0.6000000E-02
    1       -2.742444   1.000000
    2        2.179145   1.000000
    3        3.157179   1.000000
    4        3.162960   1.000000
    5        4.394999   1.000000
    6        5.161420   1.000000
    7       25.243278   0.000000
    8       26.567445   0.000000
    9       28.928879   0.000000
   10       29.378123   0.000000
   11       36.061586   0.000000
   12       37.274027   0.000000
 
  0.2500000E+00  0.1500000E+00  0.5000000E-01  0.1200000E-01
    1       -1.765106   1.000000
    2        1.819906   1.000000
    3        3.280334   1.000000
    4        3.552975   1.000000
    5        4.304919   1.000000
    6        5.473957   1.000000
    7       24.434986   0.000000
    8       26.079624   0.000000
    9       28.362548   0.000000
   10       29.750453   0.000000
   11       33.888635   0.000000
   12       36.462109   0.000000
 
  0.3500000E+00  0.1500000E+00  0.5000000E-01  0.1200000E-01
    1       -0.638406   1.000000
    2        1.936530   1.000000
    3        2.832197   1.000000
    4        3.559789   1.000000
    5        5.235103   1.000000
    6        6.284295   1.000000
    7       20.602014   0.000000
    8       25.561981   0.000000
    9       27.481296   0.000000
   10       30.065876   0.000000
   11       34.346604   0.000000
   12       35.592769   0.000000
 
  0.4500000E+00  0.1500000E+00  0.5000000E-01  0.1200000E-01
    1       -0.298665   1.000000
    2        2.392540   1.000000
    3        3.125308   1.000000
    4        3.365076   1.000000
    5        6.354590   1.000000
    6        7.699129   1.000000
    7       16.316405   0.000000
    8       24.476774   0.000000
    9       26.397223   0.000000
   10       28.863305   0.000000
   11       35.695258   0.000000
   12       37.506391   0.000000
 
 -0.4500000E+00  0.1500000E+00  0.5000000E-01  0.1200000E-01
    1       -0.308077   1.000000
    2        2.210963   1.000000
    3        3.125902   1.000000
    4        4.274377   1.000000
    5        6.638760   1.000000
    6        9.590227  -0.000055
    7       13.175114  -0.000000
    8       23.917500   0.000000
    9       26.075605   0.000000
   10       27.609307   0.000000
   11       36.857026   0.000000
   12       37.789519   0.000000
 
 -0.3500000E+00  0.1500000E+00  0.5000000E-01  0.1200000E-01
    1       -0.265697   1.000000
    2        2.330767   1.000000
    3        3.160579   1.000000
    4        3.818691   1.000000
    5        6.150676   1.000000
    6        8.547738   1.005348
    7       15.105064   0.000000
    8       24.056040   0.000000
    9       25.945870   0.000000
   10       28.966480   0.000000
   11       35.415432   0.000000
   12       37.647596   0.000000
 
 -0.2500000E+00  0.1500000E+00  0.5000000E-01  0.1200000E-01
    1       -0.385602   1.000000
    2        2.329517   1.000000
    3        2.737284   1.000000
    4        3.432017   1.000000
    5        5.126122   1.000000
    6        7.012135   1.000000
    7       19.192627   0.000000
    8       24.774956   0.000000
    9       26.964277   0.000000
   10       31.111724   0.000000
   11       33.267243   0.000000
   12       36.554816   0.000000
 
 -0.1500000E+00  0.1500000E+00  0.5000000E-01  0.1200000E-01
    1       -1.347760   1.000000
    2        1.879976   1.000000
    3        3.120903   1.000000
    4        3.584529   1.000000
    5        4.298772   1.000000
    6        5.839176   1.000000
    7       23.063790   0.000000
    8       25.606964   0.000000
    9       28.720300   0.000000
   10       29.890084   0.000000
   11       34.064171   0.000000
   12       36.245215   0.000000
 
 -0.5000000E-01  0.1500000E+00  0.5000000E-01  0.1200000E-01
    1       -2.492904   1.000000
    2        2.182081   1.000000
    3        3.157350   1.000000
    4        3.174979   1.000000
    5        4.453098   1.000000
    6        5.169182   1.000000
    7       25.215310   0.000000
    8       25.534661   0.000000
    9       28.966715   0.000000
   10       30.822571   0.000000
   11       34.120373   0.000000
   12       37.367646   0.000000
 
  0.2500000E+00  0.2500000E+00  0.5000000E-01  0.6000000E-02
    1       -1.137493   1.000000
    2        1.315823   1.000000
    3        3.477887   1.000000
    4        4.096230   1.000000
    5        4.359623   1.000000
    6        5.660815   1.000000
    7       25.157408   0.000000
    8       26.659320   0.000000
    9       26.992159   0.000000
   10       27.932463   0.000000
   11       31.516124   0.000000
   12       37.060874   0.000000
 
  0.3500000E+00  0.2500000E+00  0.5000000E-01  0.1200000E-01
    1       -0.263127   1.000000
    2        1.002633   1.000000
    3        3.105315   1.000000
    4        4.587411   1.000000
    5        5.273773   1.000000
    6        6.321710   1.000000
    7       22.438755   0.000000
    8       24.599433   0.000000
    9       26.034128   0.000000
   10       29.053093   0.000000
   11       31.026591   0.000000
   12       37.269692   0.000000
 
  0.4500000E+00  0.2500000E+00  0.5000000E-01  0.1200000E-01
    1        0.189535   1.000000
    2        1.347306   1.000000
    3        2.766082   1.000000
    4        4.388072   1.000000
    5        6.491858   1.000000
    6        8.059814   1.000000
    7       17.950902   0.000000
    8       23.884447   0.000000
    9       24.214698   0.000000
   10       28.617460   0.000000
   11       34.213597   0.000000
   12       37.647960   0.000000
 
 -0.4500000E+00  0.2500000E+00  0.5000000E-01  0.1200000E-01
    1        0.322643   1.000000
    2        1.681360   1.000000
    3        3.017158   1.000000
    4        4.096469   1.000000
    5        6.690381   1.000000
    6       10.954152  -0.000000
    7       13.952026  -0.000000
    8       22.515774   0.000000
    9       24.359616   0.000000
   10       27.746847   0.000000
   11       36.751571   0.000000
   12       38.943166   0.000000
 
 -0.3500000E+00  0.2500000E+00  0.5000000E-01  0.1200000E-01
    1        0.574376   1.000000
    2        1.777758   1.000000
    3        3.015847   1.000000
    4        3.944426   1.000000
    5        6.087897   1.000000
    6       10.784474  -0.000000
    7       14.699318   0.000000
    8       21.325451   0.000000
    9       25.538595   0.000000
   10       28.005479   0.000000
   11       35.518247   0.000000
   12       38.293728   0.000000
 
 -0.2500000E+00  0.2500000E+00  0.5000000E-01  0.1200000E-01
    1        0.751632   1.000000
    2        1.932662   1.000000
    3        2.230001   1.000000
    4        4.054022   1.000000
    5        5.075343   1.000000
    6        8.822442   0.974646
    7       18.380548   0.000000
    8       21.379060   0.000000
    9       26.342749   0.000000
   10       30.331835   0.000000
   11       32.623283   0.000000
   12       38.339306   0.000000
 
 -0.1500000E+00  0.2500000E+00  0.5000000E-01  0.1200000E-01
    1       -0.135193   1.000000
    2        1.770860   1.000000
    3        2.703646   1.000000
    4        3.895888   1.000000
    5        4.494577   1.000000
    6        7.149679   1.000000
    7       20.661612   0.000000
    8       23.834780   0.000000
    9       27.249708   0.000000
   10       30.503309   0.000000
   11       33.177865   0.000000
   12       37.297197   0.000000
 
 -0.5000000E-01  0.2500000E+00  0.5000000E-01  0.1200000E-01
    1       -1.278357   1.000000
    2        2.129991   1.000000
    3        3.084947   1.000000
    4        3.311531   1.000000
    5        4.766722   1.000000
    6        5.735184   1.000000
    7       21.771947   0.000000
    8       25.724721   0.000000
    9       29.141048   0.000000
   10       31.093242   0.000000
   11       34.002825   0.000000
   12       34.976578   0.000000
 
  0.3500000E+00  0.3500000E+00  0.5000000E-01  0.6000000E-02
    1       -0.218833   1.000000
    2        0.475531   1.000000
    3        4.265060   1.000000
    4        5.357397   1.000000
    5        5.880879   1.000000
    6        6.262144   1.000000
    7       22.387168   0.000000
    8       23.223830   0.000000
    9       24.022238   0.000000
   10       28.092962   0.000000
   11       30.012266   0.000000
   12       39.717574   0.000000
 
  0.4500000E+00  0.3500000E+00  0.5000000E-01  0.1200000E-01
    1       -0.115283   1.000000
    2        0.330312   1.000000
    3        4.356079   1.000000
    4        5.779368   1.000000
    5        6.511497   1.000000
    6        8.039445   1.000000
    7       19.322260   0.000000
    8       21.472515   0.000000
    9       22.207477   0.000000
   10       29.226394   0.000000
   11       31.316619   0.000000
   12       39.489772   0.000000
 
 -0.4500000E+00  0.3500000E+00  0.5000000E-01  0.1200000E-01
    1        0.080295   1.000000
    2        0.752154   1.000000
    3        3.867220   1.000000
    4        5.336308   1.000000
    5        6.837556   1.000000
    6       11.227461  -0.000000
    7       15.511750   0.000000
    8       19.962313   0.000000
    9       22.122051   0.000000
   10       29.329567   0.000000
   11       34.370350   0.000000
   12       38.477145   0.000000
 
 -0.3500000E+00  0.3500000E+00  0.5000000E-01  0.1200000E-01
    1        0.483189   1.000000
    2        1.438525   1.000000
    3        3.116182   1.000000
    4        4.851598   1.000000
    5        6.346748   1.000000
    6       12.598764  -0.000000
    7       15.034164   0.000000
    8       18.106730   0.000000
    9       23.821746   0.000000
   10       28.733706   0.000000
   11       36.859430   0.000000
   12       38.293757   0.000000
 
 -0.2500000E+00  0.3500000E+00  0.5000000E-01  0.1200000E-01
    1        0.925396   1.000000
    2        1.833064   1.000000
    3        2.426453   1.000000
    4        4.330471   1.000000
    5        5.733722   1.000000
    6       10.648626  -0.000000
    7       16.751115   0.000000
    8       19.107087   0.000000
    9       25.731126   0.000000
   10       28.487588   0.000000
   11       34.792932   0.000000
   12       38.427719   0.000000
 
 -0.1500000E+00  0.3500000E+00  0.5000000E-01  0.1200000E-01
    1        0.217559   1.000000
    2        2.182833   1.000000
    3        2.829321   1.000000
    4        3.622535   1.000000
    5        5.599263   1.000000
    6        8.745545   1.033876
    7       16.707259   0.000000
    8       23.067476   0.000000
    9       25.863950   0.000000
   10       29.676708   0.000000
   11       33.873118   0.000000
   12       37.979029   0.000000
 
 -0.5000000E-01  0.3500000E+00  0.5000000E-01  0.1200000E-01
    1       -0.634311   1.000000
    2        2.706205   1.000000
    3        3.060114   1.000000
    4        3.289941   1.000000
    5        5.780794   1.000000
    6        6.749568   1.000000
    7       17.614911   0.000000
    8       24.547707   0.000000
    9       27.874107   0.000000
   10       30.537252   0.000000
   11       34.530027   0.000000
   12       36.280721   0.000000
 
  0.4500000E+00  0.4500000E+00  0.5000000E-01  0.6000000E-02
    1       -0.499627   1.000000
    2       -0.068850   1.000000
    3        6.233904   1.000000
    4        6.382560   1.000000
    5        6.881737   1.000000
    6        8.276925   1.000005
    7       18.333681   0.000000
    8       20.312278   0.000000
    9       20.553102   0.000000
   10       28.552783   0.000000
   11       31.524389   0.000000
   12       40.730123   0.000000
 
 -0.4500000E+00  0.4500000E+00  0.5000000E-01  0.1200000E-01
    1       -0.419609   1.000000
    2        0.005080   1.000000
    3        5.667661   1.000000
    4        6.299186   1.000000
    5        7.102979   1.000000
    6       10.639240  -0.000000
    7       16.217688   0.000000
    8       19.237726   0.000000
    9       20.181057   0.000000
   10       29.679076   0.000000
   11       32.091553   0.000000
   12       39.767947   0.000000
 
 -0.3500000E+00  0.4500000E+00  0.5000000E-01  0.1200000E-01
    1       -0.007860   1.000000
    2        0.632049   1.000000
    3        4.262216   1.000000
    4        5.589041   1.000000
    5        6.828018   1.000000
    6       12.748607  -0.000000
    7       14.683871   0.000000
    8       18.402036   0.000000
    9       21.699259   0.000000
   10       29.676389   0.000000
   11       34.448269   0.000000
   12       38.485140   0.000000
 
 -0.2500000E+00  0.4500000E+00  0.5000000E-01  0.1200000E-01
    1        0.461733   1.000000
    2        1.494037   1.000000
    3        3.057834   1.000000
    4        4.533981   1.000000
    5        6.534947   1.000000
    6       12.985172  -0.000000
    7       13.087081  -0.000000
    8       20.293881   0.000000
    9       24.001720   0.000000
   10       28.280836   0.000000
   11       36.816821   0.000000
   12       38.705934   0.000000
 
 -0.1500000E+00  0.4500000E+00  0.5000000E-01  0.1200000E-01
    1        0.105408   1.000000
    2        1.950341   1.000000
    3        3.498350   1.000000
    4        3.659238   1.000000
    5        6.445718   1.000000
    6       10.675504  -0.000000
    7       13.246120  -0.000000
    8       23.270850   0.000000
    9       25.341226   0.000000
   10       27.570546   0.000000
   11       36.399236   0.000000
   12       38.055579   0.000000
 
 -0.5000000E-01  0.4500000E+00  0.5000000E-01  0.1200000E-01
    1       -0.605669   1.000000
    2        2.470754   1.000000
    3        2.871254   1.000000
    4        4.809509   1.000000
    5        6.566507   1.000000
    6        8.169420   1.000000
    7       13.910841  -0.000000
    8       23.722134   0.000000
    9       27.165240   0.000000
   10       28.374597   0.000000
   11       36.659221   0.000000
   12       37.427517   0.000000
 
 -0.4500000E+00 -0.4500000E+00  0.5000000E-01  0.6000000E-02
    1       -0.616423   1.000000
    2       -0.183462   1.000000
    3        6.563188   1.000000
    4        6.709041   1.000000
    5        7.123650   1.000000
    6        9.456262  -0.001615
    7       16.699942   0.000000
    8       19.592397   0.000000
    9       19.924074   0.000000
   10       28.785881   0.000000
   11       31.861617   0.000000
   12       40.442628   0.000000
 
 -0.3500000E+00 -0.4500000E+00  0.5000000E-01  0.1200000E-01
    1       -0.300233   1.000000
    2        0.115326   1.000000
    3        5.144430   1.000000
    4        6.184006   1.000000
    5        6.866045   1.000000
    6        9.422053  -0.003249
    7       17.616919   0.000000
    8       20.075921   0.000000
    9       20.830764   0.000000
   10       29.469641   0.000000
   11       31.815885   0.000000
   12       39.796191   0.000000
 
 -0.2500000E+00 -0.4500000E+00  0.5000000E-01  0.1200000E-01
    1        0.189765   1.000000
    2        0.998868   1.000000
    3        3.283601   1.000000
    4        4.891899   1.000000
    5        6.760281   1.000000
    6        9.543100  -0.000202
    7       16.632167   0.000000
    8       22.035925   0.000000
    9       22.947628   0.000000
   10       28.845522   0.000000
   11       34.266948   0.000000
   12       38.248145   0.000000
 
 -0.1500000E+00 -0.4500000E+00  0.5000000E-01  0.1200000E-01
    1        0.044417   1.000000
    2        2.012045   1.000000
    3        3.048866   1.000000
    4        3.677636   1.000000
    5        6.662495   1.000000
    6        9.145225  -0.005614
    7       15.069084   0.000000
    8       24.149490   0.000000
    9       25.043020   0.000000
   10       27.772860   0.000000
   11       36.447164   0.000000
   12       38.531999   0.000000
 
 -0.3500000E+00 -0.3500000E+00  0.5000000E-01  0.6000000E-02
    1       -0.319023   1.000000
    2        0.155523   1.000000
    3        5.333014   1.000000
    4        5.961952   1.000000
    5        6.566345   1.000000
    6        6.942282   1.000000
    7       20.491965   0.000000
    8       21.704297   0.000000
    9       21.788044   0.000000
   10       28.225814   0.000000
   11       30.909037   0.000000
   12       40.902391   0.000000
 
 -0.2500000E+00 -0.3500000E+00  0.5000000E-01  0.1200000E-01
    1       -0.012854   1.000000
    2        0.634163   1.000000
    3        3.551649   1.000000
    4        5.196278   1.000000
    5        5.990407   1.000000
    6        6.973949   1.000000
    7       20.967771   0.000000
    8       23.011152   0.000000
    9       24.156193   0.000000
   10       29.189594   0.000000
   11       30.744054   0.000000
   12       38.529205   0.000000
 
 -0.1500000E+00 -0.3500000E+00  0.5000000E-01  0.1200000E-01
    1       -0.086448   1.000000
    2        1.689232   1.000000
    3        2.603932   1.000000
    4        3.926348   1.000000
    5        5.940363   1.000000
    6        6.979111   1.000000
    7       19.316509   0.000000
    8       25.043234   0.000000
    9       25.807191   0.000000
   10       29.058765   0.000000
   11       34.239181   0.000000
   12       36.734976   0.000000
 
 -0.2500000E+00 -0.2500000E+00  0.5000000E-01  0.6000000E-02
    1       -0.458076   1.000000
    2        0.872028   1.000000
    3        3.571293   1.000000
    4        4.709145   1.000000
    5        5.035496   1.000000
    6        5.958807   1.000000
    7       24.011951   0.000000
    8       24.947325   0.000000
    9       26.031095   0.000000
   10       28.635410   0.000000
   11       29.276172   0.000000
   12       38.177177   0.000000
 
 -0.1500000E+00 -0.2500000E+00  0.5000000E-01  0.1200000E-01
    1       -0.943074   1.000000
    2        1.410198   1.000000
    3        3.145497   1.000000
    4        4.029859   1.000000
    5        4.623097   1.000000
    6        5.859898   1.000000
    7       23.575741   0.000000
    8       25.895865   0.000000
    9       27.588274   0.000000
   10       28.655978   0.000000
   11       32.718881   0.000000
   12       36.220468   0.000000
 
 -0.1500000E+00 -0.1500000E+00  0.5000000E-01  0.6000000E-02
    1       -1.984798   1.000000
    2        1.768037   1.000000
    3        3.489734   1.000000
    4        3.571137   1.000000
    5        4.086758   1.000000
    6        5.385906   1.000000
    7       25.811244   0.000000
    8       26.295211   0.000000
    9       28.079562   0.000000
   10       28.652298   0.000000
   11       34.314017   0.000000
   12       36.675509   0.000000
 
  0.1500000E+00  0.1500000E+00  0.1500000E+00  0.2000000E-02
    1       -2.762231   1.000000
    2        2.395651   1.000000
    3        3.006482   1.000000
    4        3.006482   1.000000
    5        4.835921   1.000000
    6        4.835921   1.000000
    7       24.973708   0.000000
    8       25.407034   0.000000
    9       30.391722   0.000000
   10       30.391722   0.000000
   11       34.554980   0.000000
   12       37.689100   0.000000
 
  0.2500000E+00  0.1500000E+00  0.1500000E+00  0.6000000E-02
    1       -2.013074   1.000000
    2        2.097950   1.000000
    3        3.175347   1.000000
    4        3.296244   1.000000
    5        4.369375   1.000000
    6        5.392542   1.000000
    7       24.101271   0.000000
    8       25.678383   0.000000
    9       28.865279   0.000000
   10       31.788026   0.000000
   11       32.595055   0.000000
   12       37.769473   0.000000
 
  0.3500000E+00  0.1500000E+00  0.1500000E+00  0.6000000E-02
    1       -0.779665   1.000000
    2        1.872905   1.000000
    3        2.992388   1.000000
    4        3.691170   1.000000
    5        4.230048   1.000000
    6        6.435945   1.000000
    7       21.828879   0.000000
    8       24.855917   0.000000
    9       28.329139   0.000000
   10       29.902061   0.000000
   11       34.112098   0.000000
   12       36.464994   0.000000
 
  0.4500000E+00  0.1500000E+00  0.1500000E+00  0.6000000E-02
    1       -0.097755   1.000000
    2        2.416438   1.000000
    3        2.848212   1.000000
    4        3.391826   1.000000
    5        5.209652   1.000000
    6        7.825481   1.000000
    7       17.903682   0.000000
    8       23.966999   0.000000
    9       26.377822   0.000000
   10       31.065658   0.000000
   11       32.857145   0.000000
   12       37.427736   0.000000
 
 -0.4500000E+00  0.1500000E+00  0.1500000E+00  0.6000000E-02
    1       -0.131955   1.000000
    2        2.189026   1.000000
    3        3.231585   1.000000
    4        3.962875   1.000000
    5        6.228633   1.000000
    6        9.506442  -0.000512
    7       14.073829  -0.000000
    8       23.639849   0.000000
    9       25.824350   0.000000
   10       28.154374   0.000000
   11       35.987184   0.000000
   12       37.605953   0.000000
 
 -0.3500000E+00  0.1500000E+00  0.1500000E+00  0.6000000E-02
    1       -0.190187   1.000000
    2        2.143785   1.000000
    3        3.304526   1.000000
    4        3.758503   1.000000
    5        6.763043   1.000000
    6        9.382695  -0.006640
    7       13.849800  -0.000000
    8       23.985578   0.000000
    9       26.605563   0.000000
   10       26.733489   0.000000
   11       37.230549   0.000000
   12       37.842773   0.000000
 
 -0.2500000E+00  0.1500000E+00  0.1500000E+00  0.6000000E-02
    1       -0.234616   1.000000
    2        2.259163   1.000000
    3        2.642354   1.000000
    4        3.539369   1.000000
    5        6.539543   1.000000
    6        6.970861   1.000000
    7       17.727063   0.000000
    8       24.946547   0.000000
    9       26.543700   0.000000
   10       28.467411   0.000000
   11       36.171053   0.000000
   12       36.596809   0.000000
 
 -0.1500000E+00  0.1500000E+00  0.1500000E+00  0.6000000E-02
    1       -0.834355   1.000000
    2        1.593059   1.000000
    3        3.008776   1.000000
    4        3.738245   1.000000
    5        5.113452   1.000000
    6        5.871273   1.000000
    7       22.114437   0.000000
    8       26.307427   0.000000
    9       27.315325   0.000000
   10       29.315202   0.000000
   11       33.392359   0.000000
   12       36.295699   0.000000
 
  0.2500000E+00  0.2500000E+00  0.1500000E+00  0.6000000E-02
    1       -1.595451   1.000000
    2        1.938526   1.000000
    3        3.196204   1.000000
    4        3.398660   1.000000
    5        4.623399   1.000000
    6        5.469475   1.000000
    7       23.150404   0.000000
    8       26.088553   0.000000
    9       28.918019   0.000000
   10       30.489189   0.000000
   11       33.712822   0.000000
   12       35.830830   0.000000
 
  0.3500000E+00  0.2500000E+00  0.1500000E+00  0.1200000E-01
    1       -0.586843   1.000000
    2        1.578677   1.000000
    3        2.861254   1.000000
    4        3.984125   1.000000
    5        4.589532   1.000000
    6        6.407461   1.000000
    7       22.033931   0.000000
    8       24.914390   0.000000
    9       27.595938   0.000000
   10       29.481290   0.000000
   11       34.311476   0.000000
   12       35.438398   0.000000
 
  0.4500000E+00  0.2500000E+00  0.1500000E+00  0.1200000E-01
    1        0.470996   1.000000
    2        1.616093   1.000000
    3        2.285353   1.000000
    4        4.287561   1.000000
    5        5.040422   1.000000
    6        7.961649   1.000000
    7       19.494302   0.000000
    8       22.601647   0.000000
    9       26.059108   0.000000
   10       30.853960   0.000000
   11       32.487302   0.000000
   12       38.020892   0.000000
 
 -0.4500000E+00  0.2500000E+00  0.1500000E+00  0.1200000E-01
    1        0.554710   1.000000
    2        1.810692   1.000000
    3        2.704622   1.000000
    4        4.001789   1.000000
    5        6.064831   1.000000
    6        9.901134  -0.000000
    7       15.608739   0.000000
    8       22.170746   0.000000
    9       24.811236   0.000000
   10       29.110920   0.000000
   11       34.646160   0.000000
   12       38.802984   0.000000
 
 -0.3500000E+00  0.2500000E+00  0.1500000E+00  0.1200000E-01
    1        0.445588   1.000000
    2        1.680150   1.000000
    3        3.157320   1.000000
    4        3.910299   1.000000
    5        6.512415   1.000000
    6       11.608687  -0.000000
    7       13.136162  -0.000000
    8       22.912484   0.000000
    9       23.751188   0.000000
   10       28.325669   0.000000
   11       35.961353   0.000000
   12       39.143175   0.000000
 
 -0.2500000E+00  0.2500000E+00  0.1500000E+00  0.1200000E-01
    1        0.390322   1.000000
    2        1.803854   1.000000
    3        2.423515   1.000000
    4        4.188334   1.000000
    5        6.244217   1.000000
    6        9.006758   0.353217
    7       16.668505   0.000000
    8       23.122621   0.000000
    9       24.380822   0.000000
   10       29.178725   0.000000
   11       34.672621   0.000000
   12       38.490439   0.000000
 
 -0.1500000E+00  0.2500000E+00  0.1500000E+00  0.1200000E-01
    1        0.082205   1.000000
    2        1.259364   1.000000
    3        2.617425   1.000000
    4        4.480007   1.000000
    5        5.171407   1.000000
    6        7.092452   1.000000
    7       20.862532   0.000000
    8       23.711690   0.000000
    9       25.997950   0.000000
   10       29.913622   0.000000
   11       32.714823   0.000000