 running on    4 total cores
 distrk:  each k-point on    4 cores,    1 groups
 distr:  one band on    1 cores,    4 groups
 using from now: INCAR     
 vasp.5.4.4.18Apr17-6-g9f103f2a35 (build May 18 2018 14:42:58) complex          
  
 POSCAR found type information on POSCAR  Au
 POSCAR found :  1 types and       1 ions
 scaLAPACK will be used
 LDA part: xc-table for Ceperly-Alder, standard interpolation
 POSCAR, INCAR and KPOINTS ok, starting setup
 FFT: planning ...
 WAVECAR not read
 entering main loop
       N       E                     dE             d eps       ncg     rms          rms(c)
DAV:   1     0.317027542136E+02    0.31703E+02   -0.35460E+03  3224   0.441E+02
DAV:   2    -0.386924503671E+01   -0.35572E+02   -0.33510E+02  3052   0.148E+02
DAV:   3    -0.417023716246E+01   -0.30099E+00   -0.30087E+00  3216   0.139E+01
DAV:   4    -0.417103071571E+01   -0.79355E-03   -0.79353E-03  3156   0.751E-01
DAV:   5    -0.417103556542E+01   -0.48497E-05   -0.48489E-05  2972   0.550E-02    0.311E+00
DAV:   6    -0.392891567894E+01    0.24212E+00   -0.43235E-01  3116   0.686E+00    0.104E+00
DAV:   7    -0.388499676588E+01    0.43919E-01   -0.69451E-02  3184   0.242E+00    0.215E-01
DAV:   8    -0.387835364444E+01    0.66431E-02   -0.21286E-03  2924   0.529E-01    0.865E-03
DAV:   9    -0.387833413250E+01    0.19512E-04   -0.11823E-05  2072   0.273E-02
   1 F= -.38783341E+01 E0= -.38782010E+01  d E =-.399278E-03
 writing wavefunctions
