 vasp.5.4.4.18Apr17-6-g9f103f2a35 (build May 18 2018 14:42:58) complex          
  
 executed on             LinuxIFC date 2020.06.30  13:40:34
 running on    4 total cores
 distrk:  each k-point on    4 cores,    1 groups
 distr:  one band on NCORES_PER_BAND=   1 cores,    4 groups


--------------------------------------------------------------------------------------------------------


 INCAR:
 POTCAR:   PAW Au 04Feb1998                       
 POTCAR:   PAW Au 04Feb1998                       
   VRHFIN =Au: s1d10                                                            
   LEXCH  = CA                                                                  
   EATOM  =   929.4667 eV,   68.3139 Ry                                         
                                                                                
   TITEL  = PAW Au 04Feb1998                                                    
   LULTRA =        F    use ultrasoft PP ?                                      
   IUNSCR =        1    unscreen: 0-lin 1-nonlin 2-no                           
   RPACOR =    2.330    partial core radius                                     
   POMASS =  196.966; ZVAL   =   11.000    mass and valenz                      
   RCORE  =    2.500    outmost cutoff radius                                   
   RWIGS  =    2.840; RWIGS  =    1.503    wigner-seitz radius (au A)           
   ENMAX  =  229.869; ENMIN  =  172.402 eV                                      
   RCLOC  =    1.964    cutoff for local pot                                    
   LCOR   =        T    correct aug charges                                     
   LPAW   =        T    paw PP                                                  
   EAUG   =  356.670                                                            
   DEXC   =    -.020                                                            
   RMAX   =    3.041    core radius for proj-oper                               
   RDEP   =    2.598    core radius for depl-charge                             
   QCUT   =   -4.110; QGAM   =    8.221    optimization parameters              
                                                                                
   Description                                                                  
     l     E      TYP  RCUT    TYP  RCUT                                        
     2   .000     23  2.500                                                     
     2   .000     23  2.500                                                     
     0   .000     23  2.500                                                     
     0   .000     23  2.500                                                     
     1  -.200     23  2.500                                                     
     1   .000     23  2.500                                                     
     3   .000      7   .000                                                     
  local pseudopotential read in
  partial core-charges read in
  atomic valenz-charges read in
  non local Contribution for L=           2  read in
    real space projection operators read in
  non local Contribution for L=           2  read in
    real space projection operators read in
  non local Contribution for L=           0  read in
    real space projection operators read in
  non local Contribution for L=           0  read in
    real space projection operators read in
  non local Contribution for L=           1  read in
    real space projection operators read in
  non local Contribution for L=           1  read in
    real space projection operators read in
    PAW grid and wavefunctions read in
 
   number of l-projection  operators is LMAX  =           6
   number of lm-projection operators is LMMAX =          18
 
 PAW Au 04Feb1998                       :
 energy of atom  1       EATOM= -929.4667
 kinetic energy error for atom=    0.0706 (will be added to EATOM!!)
 
 
 POSCAR: FCC Au Bulk                             
  positions in direct lattice
  No initial velocities read in
 exchange correlation table for  LEXCH =        2
   RHO(1)=    0.500       N(1)  =     2000
   RHO(2)=  100.500       N(2)  =     4000
 


--------------------------------------------------------------------------------------------------------


 ion  position               nearest neighbor table
   1  0.000  0.000  0.000-
 
  LATTYP: Found a face centered cubic cell.
 ALAT       =     3.8000000000
  
  Lattice vectors:
  
 A1 = (   0.0000000000,   1.9000000000,   1.9000000000)
 A2 = (   1.9000000000,   0.0000000000,   1.9000000000)
 A3 = (   1.9000000000,   1.9000000000,   0.0000000000)


Analysis of symmetry for initial positions (statically):
=====================================================================
 Subroutine PRICEL returns:
 Original cell was already a primitive cell.
 

 Routine SETGRP: Setting up the symmetry group for a 
 face centered cubic supercell.


 Subroutine GETGRP returns: Found 48 space group operations
 (whereof 48 operations were pure point group operations)
 out of a pool of 48 trial point group operations.


The static configuration has the point symmetry O_h .


Analysis of symmetry for dynamics (positions and initial velocities):
=====================================================================
 Subroutine PRICEL returns:
 Original cell was already a primitive cell.
 

 Routine SETGRP: Setting up the symmetry group for a 
 face centered cubic supercell.


 Subroutine GETGRP returns: Found 48 space group operations
 (whereof 48 operations were pure point group operations)
 out of a pool of 48 trial point group operations.


The dynamic configuration has the point symmetry O_h .


 Subroutine INISYM returns: Found 48 space group operations
 (whereof 48 operations are pure point group operations),
 and found     1 'primitive' translations

 
 
 KPOINTS: 10x10x10                                

Automatic generation of k-mesh.
Space group operators:
 irot       det(A)        alpha          n_x          n_y          n_z        tau_x        tau_y        tau_z
    1     1.000000     0.000001     1.000000     0.000000     0.000000     0.000000     0.000000     0.000000
    2    -1.000000     0.000001     1.000000     0.000000     0.000000     0.000000     0.000000     0.000000
    3     1.000000   120.000000    -0.577350    -0.577350    -0.577350     0.000000     0.000000     0.000000
    4    -1.000000   120.000000    -0.577350    -0.577350    -0.577350     0.000000     0.000000     0.000000
    5     1.000000   120.000000     0.577350     0.577350     0.577350     0.000000     0.000000     0.000000
    6    -1.000000   120.000000     0.577350     0.577350     0.577350     0.000000     0.000000     0.000000
    7     1.000000    90.000000     0.000000     0.000000    -1.000000     0.000000     0.000000     0.000000
    8    -1.000000    90.000000     0.000000     0.000000    -1.000000     0.000000     0.000000     0.000000
    9     1.000000   180.000000     0.000000     0.707107     0.707107     0.000000     0.000000     0.000000
   10    -1.000000   180.000000     0.000000     0.707107     0.707107     0.000000     0.000000     0.000000
   11     1.000000    90.000000     0.000000     1.000000     0.000000     0.000000     0.000000     0.000000
   12    -1.000000    90.000000     0.000000     1.000000     0.000000     0.000000     0.000000     0.000000
   13     1.000000   180.000000     0.000000     0.000000     1.000000     0.000000     0.000000     0.000000
   14    -1.000000   180.000000     0.000000     0.000000     1.000000     0.000000     0.000000     0.000000
   15     1.000000   120.000000    -0.577350     0.577350     0.577350     0.000000     0.000000     0.000000
   16    -1.000000   120.000000    -0.577350     0.577350     0.577350     0.000000     0.000000     0.000000
   17     1.000000   120.000000    -0.577350     0.577350    -0.577350     0.000000     0.000000     0.000000
   18    -1.000000   120.000000    -0.577350     0.577350    -0.577350     0.000000     0.000000     0.000000
   19     1.000000    90.000000     0.000000     0.000000     1.000000     0.000000     0.000000     0.000000
   20    -1.000000    90.000000     0.000000     0.000000     1.000000     0.000000     0.000000     0.000000
   21     1.000000    90.000000    -1.000000     0.000000     0.000000     0.000000     0.000000     0.000000
   22    -1.000000    90.000000    -1.000000     0.000000     0.000000     0.000000     0.000000     0.000000
   23     1.000000   180.000000     0.707107     0.000000     0.707107     0.000000     0.000000     0.000000
   24    -1.000000   180.000000     0.707107     0.000000     0.707107     0.000000     0.000000     0.000000
   25     1.000000   120.000000     0.577350    -0.577350     0.577350     0.000000     0.000000     0.000000
   26    -1.000000   120.000000     0.577350    -0.577350     0.577350     0.000000     0.000000     0.000000
   27     1.000000   120.000000    -0.577350    -0.577350     0.577350     0.000000     0.000000     0.000000
   28    -1.000000   120.000000    -0.577350    -0.577350     0.577350     0.000000     0.000000     0.000000
   29     1.000000   180.000000     1.000000     0.000000     0.000000     0.000000     0.000000     0.000000
   30    -1.000000   180.000000     1.000000     0.000000     0.000000     0.000000     0.000000     0.000000
   31     1.000000    90.000000     0.000000    -1.000000     0.000000     0.000000     0.000000     0.000000
   32    -1.000000    90.000000     0.000000    -1.000000     0.000000     0.000000     0.000000     0.000000
   33     1.000000   180.000000     0.707107     0.707107     0.000000     0.000000     0.000000     0.000000
   34    -1.000000   180.000000     0.707107     0.707107     0.000000     0.000000     0.000000     0.000000
   35     1.000000    90.000000     1.000000     0.000000     0.000000     0.000000     0.000000     0.000000
   36    -1.000000    90.000000     1.000000     0.000000     0.000000     0.000000     0.000000     0.000000
   37     1.000000   120.000000     0.577350    -0.577350    -0.577350     0.000000     0.000000     0.000000
   38    -1.000000   120.000000     0.577350    -0.577350    -0.577350     0.000000     0.000000     0.000000
   39     1.000000   180.000000     0.000000     1.000000     0.000000     0.000000     0.000000     0.000000
   40    -1.000000   180.000000     0.000000     1.000000     0.000000     0.000000     0.000000     0.000000
   41     1.000000   120.000000     0.577350     0.577350    -0.577350     0.000000     0.000000     0.000000
   42    -1.000000   120.000000     0.577350     0.577350    -0.577350     0.000000     0.000000     0.000000
   43     1.000000   180.000000     0.000000    -0.707107     0.707107     0.000000     0.000000     0.000000
   44    -1.000000   180.000000     0.000000    -0.707107     0.707107     0.000000     0.000000     0.000000
   45     1.000000   180.000000     0.707107    -0.707107     0.000000     0.000000     0.000000     0.000000
   46    -1.000000   180.000000     0.707107    -0.707107     0.000000     0.000000     0.000000     0.000000
   47     1.000000   180.000000     0.707107     0.000000    -0.707107     0.000000     0.000000     0.000000
   48    -1.000000   180.000000     0.707107     0.000000    -0.707107     0.000000     0.000000     0.000000
 
 Subroutine IBZKPT returns following result:
 ===========================================
 
 Found    110 irreducible k-points:
 
 Following reciprocal coordinates:
            Coordinates               Weight
  0.050000  0.050000  0.050000     96.000000
  0.150000  0.050000  0.050000    288.000000
  0.250000  0.050000  0.050000    288.000000
  0.350000  0.050000  0.050000    288.000000
  0.450000  0.050000  0.050000    288.000000
 -0.450000  0.050000  0.050000    288.000000
 -0.350000  0.050000  0.050000    288.000000
 -0.250000  0.050000  0.050000    288.000000
 -0.150000  0.050000  0.050000    288.000000
 -0.050000  0.050000  0.050000    288.000000
  0.150000  0.150000  0.050000    288.000000
  0.250000  0.150000  0.050000    576.000000
  0.350000  0.150000  0.050000    576.000000
  0.450000  0.150000  0.050000    576.000000
 -0.450000  0.150000  0.050000    576.000000
 -0.350000  0.150000  0.050000    576.000000
 -0.250000  0.150000  0.050000    576.000000
 -0.150000  0.150000  0.050000    576.000000
 -0.050000  0.150000  0.050000    576.000000
  0.250000  0.250000  0.050000    288.000000
  0.350000  0.250000  0.050000    576.000000
  0.450000  0.250000  0.050000    576.000000
 -0.450000  0.250000  0.050000    576.000000
 -0.350000  0.250000  0.050000    576.000000
 -0.250000  0.250000  0.050000    576.000000
 -0.150000  0.250000  0.050000    576.000000
 -0.050000  0.250000  0.050000    576.000000
  0.350000  0.350000  0.050000    288.000000
  0.450000  0.350000  0.050000    576.000000
 -0.450000  0.350000  0.050000    576.000000
 -0.350000  0.350000  0.050000    576.000000
 -0.250000  0.350000  0.050000    576.000000
 -0.150000  0.350000  0.050000    576.000000
 -0.050000  0.350000  0.050000    576.000000
  0.450000  0.450000  0.050000    288.000000
 -0.450000  0.450000  0.050000    576.000000
 -0.350000  0.450000  0.050000    576.000000
 -0.250000  0.450000  0.050000    576.000000
 -0.150000  0.450000  0.050000    576.000000
 -0.050000  0.450000  0.050000    576.000000
 -0.450000 -0.450000  0.050000    288.000000
 -0.350000 -0.450000  0.050000    576.000000
 -0.250000 -0.450000  0.050000    576.000000
 -0.150000 -0.450000  0.050000    576.000000
 -0.350000 -0.350000  0.050000    288.000000
 -0.250000 -0.350000  0.050000    576.000000
 -0.150000 -0.350000  0.050000    576.000000
 -0.250000 -0.250000  0.050000    288.000000
 -0.150000 -0.250000  0.050000    576.000000
 -0.150000 -0.150000  0.050000    288.000000
  0.150000  0.150000  0.150000     96.000000
  0.250000  0.150000  0.150000    288.000000
  0.350000  0.150000  0.150000    288.000000
  0.450000  0.150000  0.150000    288.000000
 -0.450000  0.150000  0.150000    288.000000
 -0.350000  0.150000  0.150000    288.000000
 -0.250000  0.150000  0.150000    288.000000
 -0.150000  0.150000  0.150000    288.000000
  0.250000  0.250000  0.150000    288.000000
  0.350000  0.250000  0.150000    576.000000
  0.450000  0.250000  0.150000    576.000000
 -0.450000  0.250000  0.150000    576.000000
 -0.350000  0.250000  0.150000    576.000000
 -0.250000  0.250000  0.150000    576.000000
 -0.150000  0.250000  0.150000    576.000000
  0.350000  0.350000  0.150000    288.000000
  0.450000  0.350000  0.150000    576.000000
 -0.450000  0.350000  0.150000    576.000000
 -0.350000  0.350000  0.150000    576.000000
 -0.250000  0.350000  0.150000    576.000000
 -0.150000  0.350000  0.150000    576.000000
  0.450000  0.450000  0.150000    288.000000
 -0.450000  0.450000  0.150000    576.000000
 -0.350000  0.450000  0.150000    576.000000
 -0.250000  0.450000  0.150000    576.000000
 -0.150000  0.450000  0.150000    576.000000
 -0.450000 -0.450000  0.150000    288.000000
 -0.350000 -0.450000  0.150000    576.000000
 -0.250000 -0.450000  0.150000    576.000000
 -0.350000 -0.350000  0.150000    288.000000
 -0.250000 -0.350000  0.150000    576.000000
 -0.250000 -0.250000  0.150000    288.000000
  0.250000  0.250000  0.250000     96.000000
  0.350000  0.250000  0.250000    288.000000
  0.450000  0.250000  0.250000    288.000000
 -0.450000  0.250000  0.250000    288.000000
 -0.350000  0.250000  0.250000    288.000000
 -0.250000  0.250000  0.250000    288.000000
  0.350000  0.350000  0.250000    288.000000
  0.450000  0.350000  0.250000    576.000000
 -0.450000  0.350000  0.250000    576.000000
 -0.350000  0.350000  0.250000    576.000000
 -0.250000  0.350000  0.250000    576.000000
  0.450000  0.450000  0.250000    288.000000
 -0.450000  0.450000  0.250000    576.000000
 -0.350000  0.450000  0.250000    576.000000
 -0.250000  0.450000  0.250000    576.000000
 -0.450000 -0.450000  0.250000    288.000000
 -0.350000 -0.450000  0.250000    576.000000
 -0.350000 -0.350000  0.250000    288.000000
  0.350000  0.350000  0.350000     96.000000
  0.450000  0.350000  0.350000    288.000000
 -0.450000  0.350000  0.350000    288.000000
 -0.350000  0.350000  0.350000    288.000000
  0.450000  0.450000  0.350000    288.000000
 -0.450000  0.450000  0.350000    576.000000
 -0.350000  0.450000  0.350000    576.000000
 -0.450000 -0.450000  0.350000    288.000000
  0.450000  0.450000  0.450000     96.000000
 -0.450000  0.450000  0.450000    288.000000
 
 Following cartesian coordinates:
            Coordinates               Weight
  0.050000  0.050000  0.050000     96.000000
 -0.050000  0.150000  0.150000    288.000000
 -0.150000  0.250000  0.250000    288.000000
 -0.250000  0.350000  0.350000    288.000000
 -0.350000  0.450000  0.450000    288.000000
  0.550000 -0.450000 -0.450000    288.000000
  0.450000 -0.350000 -0.350000    288.000000
  0.350000 -0.250000 -0.250000    288.000000
  0.250000 -0.150000 -0.150000    288.000000
  0.150000 -0.050000 -0.050000    288.000000
  0.050000  0.050000  0.250000    288.000000
 -0.050000  0.150000  0.350000    576.000000
 -0.150000  0.250000  0.450000    576.000000
 -0.250000  0.350000  0.550000    576.000000
  0.650000 -0.550000 -0.350000    576.000000
  0.550000 -0.450000 -0.250000    576.000000
  0.450000 -0.350000 -0.150000    576.000000
  0.350000 -0.250000 -0.050000    576.000000
  0.250000 -0.150000  0.050000    576.000000
  0.050000  0.050000  0.450000    288.000000
 -0.050000  0.150000  0.550000    576.000000
 -0.150000  0.250000  0.650000    576.000000
  0.750000 -0.650000 -0.250000    576.000000
  0.650000 -0.550000 -0.150000    576.000000
  0.550000 -0.450000 -0.050000    576.000000
  0.450000 -0.350000  0.050000    576.000000
  0.350000 -0.250000  0.150000    576.000000
  0.050000  0.050000  0.650000    288.000000
 -0.050000  0.150000  0.750000    576.000000
  0.850000 -0.750000 -0.150000    576.000000
  0.750000 -0.650000 -0.050000    576.000000
  0.650000 -0.550000  0.050000    576.000000
  0.550000 -0.450000  0.150000    576.000000
  0.450000 -0.350000  0.250000    576.000000
  0.050000  0.050000  0.850000    288.000000
  0.950000 -0.850000 -0.050000    576.000000
  0.850000 -0.750000  0.050000    576.000000
  0.750000 -0.650000  0.150000    576.000000
  0.650000 -0.550000  0.250000    576.000000
  0.550000 -0.450000  0.350000    576.000000
  0.050000  0.050000 -0.950000    288.000000
 -0.050000  0.150000 -0.850000    576.000000
 -0.150000  0.250000 -0.750000    576.000000
 -0.250000  0.350000 -0.650000    576.000000
  0.050000  0.050000 -0.750000    288.000000
 -0.050000  0.150000 -0.650000    576.000000
 -0.150000  0.250000 -0.550000    576.000000
  0.050000  0.050000 -0.550000    288.000000
 -0.050000  0.150000 -0.450000    576.000000
  0.050000  0.050000 -0.350000    288.000000
  0.150000  0.150000  0.150000     96.000000
  0.050000  0.250000  0.250000    288.000000
 -0.050000  0.350000  0.350000    288.000000
 -0.150000  0.450000  0.450000    288.000000
  0.750000 -0.450000 -0.450000    288.000000
  0.650000 -0.350000 -0.350000    288.000000
  0.550000 -0.250000 -0.250000    288.000000
  0.450000 -0.150000 -0.150000    288.000000
  0.150000  0.150000  0.350000    288.000000
  0.050000  0.250000  0.450000    576.000000
 -0.050000  0.350000  0.550000    576.000000
  0.850000 -0.550000 -0.350000    576.000000
  0.750000 -0.450000 -0.250000    576.000000
  0.650000 -0.350000 -0.150000    576.000000
  0.550000 -0.250000 -0.050000    576.000000
  0.150000  0.150000  0.550000    288.000000
  0.050000  0.250000  0.650000    576.000000
  0.950000 -0.650000 -0.250000    576.000000
  0.850000 -0.550000 -0.150000    576.000000
  0.750000 -0.450000 -0.050000    576.000000
  0.650000 -0.350000  0.050000    576.000000
  0.150000  0.150000  0.750000    288.000000
  1.050000 -0.750000 -0.150000    576.000000
  0.950000 -0.650000 -0.050000    576.000000
  0.850000 -0.550000  0.050000    576.000000
  0.750000 -0.450000  0.150000    576.000000
  0.150000  0.150000 -1.050000    288.000000
  0.050000  0.250000 -0.950000    576.000000
 -0.050000  0.350000 -0.850000    576.000000
  0.150000  0.150000 -0.850000    288.000000
  0.050000  0.250000 -0.750000    576.000000
  0.150000  0.150000 -0.650000    288.000000
  0.250000  0.250000  0.250000     96.000000
  0.150000  0.350000  0.350000    288.000000
  0.050000  0.450000  0.450000    288.000000
  0.950000 -0.450000 -0.450000    288.000000
  0.850000 -0.350000 -0.350000    288.000000
  0.750000 -0.250000 -0.250000    288.000000
  0.250000  0.250000  0.450000    288.000000
  0.150000  0.350000  0.550000    576.000000
  1.050000 -0.550000 -0.350000    576.000000
  0.950000 -0.450000 -0.250000    576.000000
  0.850000 -0.350000 -0.150000    576.000000
  0.250000  0.250000  0.650000    288.000000
  1.150000 -0.650000 -0.250000    576.000000
  1.050000 -0.550000 -0.150000    576.000000
  0.950000 -0.450000 -0.050000    576.000000
  0.250000  0.250000 -1.150000    288.000000
  0.150000  0.350000 -1.050000    576.000000
  0.250000  0.250000 -0.950000    288.000000
  0.350000  0.350000  0.350000     96.000000
  0.250000  0.450000  0.450000    288.000000
  1.150000 -0.450000 -0.450000    288.000000
  1.050000 -0.350000 -0.350000    288.000000
  0.350000  0.350000  0.550000    288.000000
  1.250000 -0.550000 -0.350000    576.000000
  1.150000 -0.450000 -0.250000    576.000000
  0.350000  0.350000 -1.250000    288.000000
  0.450000  0.450000  0.450000     96.000000
  1.350000 -0.450000 -0.450000    288.000000
 


--------------------------------------------------------------------------------------------------------




 Dimension of arrays:
   k-points           NKPTS =    110   k-points in BZ     NKDIM =    110   number of bands    NBANDS=     12
   number of dos      NEDOS =    301   number of ions     NIONS =      1
   non local maximal  LDIM  =      6   non local SUM 2l+1 LMDIM =     18
   total plane-waves  NPLWV =   1000
   max r-space proj   IRMAX =      1   max aug-charges    IRDMAX=   4657
   dimension x,y,z NGX =    10 NGY =   10 NGZ =   10
   dimension x,y,z NGXF=    20 NGYF=   20 NGZF=   20
   support grid    NGXF=    20 NGYF=   20 NGZF=   20
   ions per type =               1
   NGX,Y,Z   is equivalent  to a cutoff of   6.19,  6.19,  6.19 a.u.
   NGXF,Y,Z  is equivalent  to a cutoff of  12.37, 12.37, 12.37 a.u.

 SYSTEM =  fcc Au                                  
 POSCAR =  FCC Au Bulk                             

 Startparameter for this run:
   NWRITE =      2    write-flag & timer
   PREC   = normal    normal or accurate (medium, high low for compatibility)
   ISTART =      0    job   : 0-new  1-cont  2-samecut
   ICHARG =      2    charge: 1-file 2-atom 10-const
   ISPIN  =      1    spin polarized calculation?
   LNONCOLLINEAR =      F non collinear calculations
   LSORBIT =      F    spin-orbit coupling
   INIWAV =      1    electr: 0-lowe 1-rand  2-diag
   LASPH  =      F    aspherical Exc in radial PAW
   METAGGA=      F    non-selfconsistent MetaGGA calc.

 Electronic Relaxation 1
   ENCUT  =  229.9 eV  16.89 Ry    4.11 a.u.   3.32  3.32  3.32*2*pi/ulx,y,z
   ENINI  =  229.9     initial cutoff
   ENAUG  =  356.7 eV  augmentation charge cutoff
   NELM   =     60;   NELMIN=  2; NELMDL= -5     # of ELM steps 
   EDIFF  = 0.1E-03   stopping-criterion for ELM
   LREAL  =      F    real-space projection
   NLSPLINE    = F    spline interpolate recip. space projectors
   LCOMPAT=      F    compatible to vasp.4.4
   GGA_COMPAT  = T    GGA compatible to vasp.4.4-vasp.4.6
   LMAXPAW     = -100 max onsite density
   LMAXMIX     =    2 max onsite mixed and CHGCAR
   VOSKOWN=      0    Vosko Wilk Nusair interpolation
   ROPT   =    0.00000
 Ionic relaxation
   EDIFFG = 0.1E-02   stopping-criterion for IOM
   NSW    =      0    number of steps for IOM
   NBLOCK =      1;   KBLOCK =      1    inner block; outer block 
   IBRION =     -1    ionic relax: 0-MD 1-quasi-New 2-CG
   NFREE  =      0    steps in history (QN), initial steepest desc. (CG)
   ISIF   =      2    stress and relaxation
   IWAVPR =     10    prediction:  0-non 1-charg 2-wave 3-comb
   ISYM   =      2    0-nonsym 1-usesym 2-fastsym
   LCORR  =      T    Harris-Foulkes like correction to forces

   POTIM  = 0.5000    time-step for ionic-motion
   TEIN   =    0.0    initial temperature
   TEBEG  =    0.0;   TEEND  =   0.0 temperature during run
   SMASS  =  -3.00    Nose mass-parameter (am)
   estimated Nose-frequenzy (Omega)   =  0.10E-29 period in steps =****** mass=  -0.165E-27a.u.
   SCALEE = 1.0000    scale energy and forces
   NPACO  =    256;   APACO  = 16.0  distance and # of slots for P.C.
   PSTRESS=    0.0 pullay stress

  Mass of Ions in am
   POMASS = 196.97
  Ionic Valenz
   ZVAL   =  11.00
  Atomic Wigner-Seitz radii
   RWIGS  =   1.50
  virtual crystal weights 
   VCA    =   1.00
   NELECT =      11.0000    total number of electrons
   NUPDOWN=      -1.0000    fix difference up-down

 DOS related values:
   EMIN   =  10.00;   EMAX   =-10.00  energy-range for DOS
   EFERMI =   0.00
   ISMEAR =     1;   SIGMA  =   0.20  broadening in eV -4-tet -1-fermi 0-gaus

 Electronic relaxation 2 (details)
   IALGO  =     38    algorithm
   LDIAG  =      T    sub-space diagonalisation (order eigenvalues)
   LSUBROT=      F    optimize rotation matrix (better conditioning)
   TURBO    =      0    0=normal 1=particle mesh
   IRESTART =      0    0=no restart 2=restart with 2 vectors
   NREBOOT  =      0    no. of reboots
   NMIN     =      0    reboot dimension
   EREF     =   0.00    reference energy to select bands
   IMIX   =      4    mixing-type and parameters
     AMIX     =   0.40;   BMIX     =  1.00
     AMIX_MAG =   1.60;   BMIX_MAG =  1.00
     AMIN     =   0.10
     WC   =   100.;   INIMIX=   1;  MIXPRE=   1;  MAXMIX= -45

 Intra band minimization:
   WEIMIN = 0.0000     energy-eigenvalue tresh-hold
   EBREAK =  0.21E-05  absolut break condition
   DEPER  =   0.30     relativ break condition  

   TIME   =   0.40     timestep for ELM

  volume/ion in A,a.u.               =      13.72        92.57
  Fermi-wavevector in a.u.,A,eV,Ry     =   1.520928  2.874138 31.473316  2.313223
  Thomas-Fermi vector in A             =   2.629713
 
 Write flags
   LWAVE        =      T    write WAVECAR
   LDOWNSAMPLE  =      F    k-point downsampling of WAVECAR
   LCHARG       =      T    write CHGCAR
   LVTOT        =      F    write LOCPOT, total local potential
   LVHAR        =      F    write LOCPOT, Hartree potential only
   LELF         =      F    write electronic localiz. function (ELF)
   LORBIT       =      0    0 simple, 1 ext, 2 COOP (PROOUT), +10 PAW based schemes


 Dipole corrections
   LMONO  =      F    monopole corrections only (constant potential shift)
   LDIPOL =      F    correct potential (dipole corrections)
   IDIPOL =      0    1-x, 2-y, 3-z, 4-all directions 
   EPSILON=  1.0000000 bulk dielectric constant

 Exchange correlation treatment:
   GGA     =    --    GGA type
   LEXCH   =     2    internal setting for exchange type
   VOSKOWN=      0    Vosko Wilk Nusair interpolation
   LHFCALC =     F    Hartree Fock is set to
   LHFONE  =     F    Hartree Fock one center treatment
   AEXX    =    0.0000 exact exchange contribution

 Linear response parameters
   LEPSILON=     F    determine dielectric tensor
   LRPA    =     F    only Hartree local field effects (RPA)
   LNABLA  =     F    use nabla operator in PAW spheres
   LVEL    =     F    velocity operator in full k-point grid
   LINTERFAST=   F  fast interpolation
   KINTER  =     0    interpolate to denser k-point grid
   CSHIFT  =0.1000    complex shift for real part using Kramers Kronig
   OMEGAMAX=  -1.0    maximum frequency
   DEG_THRESHOLD= 0.2000000E-02 threshold for treating states as degnerate
   RTIME   =   -0.100 relaxation time in fs
  (WPLASMAI=    0.000 imaginary part of plasma frequency in eV, 0.658/RTIME)
   DFIELD  = 0.0000000 0.0000000 0.0000000 field for delta impulse in time
 
 Orbital magnetization related:
   ORBITALMAG=     F  switch on orbital magnetization
   LCHIMAG   =     F  perturbation theory with respect to B field
   DQ        =  0.001000  dq finite difference perturbation B field
   LLRAUG    =     F  two centre corrections for induced B field



--------------------------------------------------------------------------------------------------------


 Static calculation
 charge density and potential will be updated during run
 non-spin polarized calculation
 Variant of blocked Davidson
 Davidson routine will perform the subspace rotation
 perform sub-space diagonalisation
    after iterative eigenvector-optimisation
 modified Broyden-mixing scheme, WC =      100.0
 initial mixing is a Kerker type mixing with AMIX =  0.4000 and BMIX =      1.0000
 Hartree-type preconditioning will be used
 using additional bands            6
 reciprocal scheme for non local part
 use partial core corrections
 calculate Harris-corrections to forces 
   (improved forces if not selfconsistent)
 use of overlap-Matrix (Vanderbilt PP)
 Methfessel and Paxton  Order N= 1 SIGMA  =   0.20


--------------------------------------------------------------------------------------------------------


  energy-cutoff  :      229.87
  volume of cell :       13.72
      direct lattice vectors                 reciprocal lattice vectors
     0.000000000  1.900000000  1.900000000    -0.263157895  0.263157895  0.263157895
     1.900000000  0.000000000  1.900000000     0.263157895 -0.263157895  0.263157895
     1.900000000  1.900000000  0.000000000     0.263157895  0.263157895 -0.263157895

  length of vectors
     2.687005769  2.687005769  2.687005769     0.455802844  0.455802844  0.455802844


 
 k-points in units of 2pi/SCALE and weight: 10x10x10                                
   0.05000000  0.05000000  0.05000000       0.002
  -0.05000000  0.15000000  0.15000000       0.006
  -0.15000000  0.25000000  0.25000000       0.006
  -0.25000000  0.35000000  0.35000000       0.006
  -0.35000000  0.45000000  0.45000000       0.006
   0.55000000 -0.45000000 -0.45000000       0.006
   0.45000000 -0.35000000 -0.35000000       0.006
   0.35000000 -0.25000000 -0.25000000       0.006
   0.25000000 -0.15000000 -0.15000000       0.006
   0.15000000 -0.05000000 -0.05000000       0.006
   0.05000000  0.05000000  0.25000000       0.006
  -0.05000000  0.15000000  0.35000000       0.012
  -0.15000000  0.25000000  0.45000000       0.012
  -0.25000000  0.35000000  0.55000000       0.012
   0.65000000 -0.55000000 -0.35000000       0.012
   0.55000000 -0.45000000 -0.25000000       0.012
   0.45000000 -0.35000000 -0.15000000       0.012
   0.35000000 -0.25000000 -0.05000000       0.012
   0.25000000 -0.15000000  0.05000000       0.012
   0.05000000  0.05000000  0.45000000       0.006
  -0.05000000  0.15000000  0.55000000       0.012
  -0.15000000  0.25000000  0.65000000       0.012
   0.75000000 -0.65000000 -0.25000000       0.012
   0.65000000 -0.55000000 -0.15000000       0.012
   0.55000000 -0.45000000 -0.05000000       0.012
   0.45000000 -0.35000000  0.05000000       0.012
   0.35000000 -0.25000000  0.15000000       0.012
   0.05000000  0.05000000  0.65000000       0.006
  -0.05000000  0.15000000  0.75000000       0.012
   0.85000000 -0.75000000 -0.15000000       0.012
   0.75000000 -0.65000000 -0.05000000       0.012
   0.65000000 -0.55000000  0.05000000       0.012
   0.55000000 -0.45000000  0.15000000       0.012
   0.45000000 -0.35000000  0.25000000       0.012
   0.05000000  0.05000000  0.85000000       0.006
   0.95000000 -0.85000000 -0.05000000       0.012
   0.85000000 -0.75000000  0.05000000       0.012
   0.75000000 -0.65000000  0.15000000       0.012
   0.65000000 -0.55000000  0.25000000       0.012
   0.55000000 -0.45000000  0.35000000       0.012
   0.05000000  0.05000000 -0.95000000       0.006
  -0.05000000  0.15000000 -0.85000000       0.012
  -0.15000000  0.25000000 -0.75000000       0.012
  -0.25000000  0.35000000 -0.65000000       0.012
   0.05000000  0.05000000 -0.75000000       0.006
  -0.05000000  0.15000000 -0.65000000       0.012
  -0.15000000  0.25000000 -0.55000000       0.012
   0.05000000  0.05000000 -0.55000000       0.006
  -0.05000000  0.15000000 -0.45000000       0.012
   0.05000000  0.05000000 -0.35000000       0.006
   0.15000000  0.15000000  0.15000000       0.002
   0.05000000  0.25000000  0.25000000       0.006
  -0.05000000  0.35000000  0.35000000       0.006
  -0.15000000  0.45000000  0.45000000       0.006
   0.75000000 -0.45000000 -0.45000000       0.006
   0.65000000 -0.35000000 -0.35000000       0.006
   0.55000000 -0.25000000 -0.25000000       0.006
   0.45000000 -0.15000000 -0.15000000       0.006
   0.15000000  0.15000000  0.35000000       0.006
   0.05000000  0.25000000  0.45000000       0.012
  -0.05000000  0.35000000  0.55000000       0.012
   0.85000000 -0.55000000 -0.35000000       0.012
   0.75000000 -0.45000000 -0.25000000       0.012
   0.65000000 -0.35000000 -0.15000000       0.012
   0.55000000 -0.25000000 -0.05000000       0.012
   0.15000000  0.15000000  0.55000000       0.006
   0.05000000  0.25000000  0.65000000       0.012
   0.95000000 -0.65000000 -0.25000000       0.012
   0.85000000 -0.55000000 -0.15000000       0.012
   0.75000000 -0.45000000 -0.05000000       0.012
   0.65000000 -0.35000000  0.05000000       0.012
   0.15000000  0.15000000  0.75000000       0.006
   1.05000000 -0.75000000 -0.15000000       0.012
   0.95000000 -0.65000000 -0.05000000       0.012
   0.85000000 -0.55000000  0.05000000       0.012
   0.75000000 -0.45000000  0.15000000       0.012
   0.15000000  0.15000000 -1.05000000       0.006
   0.05000000  0.25000000 -0.95000000       0.012
  -0.05000000  0.35000000 -0.85000000       0.012
   0.15000000  0.15000000 -0.85000000       0.006
   0.05000000  0.25000000 -0.75000000       0.012
   0.15000000  0.15000000 -0.65000000       0.006
   0.25000000  0.25000000  0.25000000       0.002
   0.15000000  0.35000000  0.35000000       0.006
   0.05000000  0.45000000  0.45000000       0.006
   0.95000000 -0.45000000 -0.45000000       0.006
   0.85000000 -0.35000000 -0.35000000       0.006
   0.75000000 -0.25000000 -0.25000000       0.006
   0.25000000  0.25000000  0.45000000       0.006
   0.15000000  0.35000000  0.55000000       0.012
   1.05000000 -0.55000000 -0.35000000       0.012
   0.95000000 -0.45000000 -0.25000000       0.012
   0.85000000 -0.35000000 -0.15000000       0.012
   0.25000000  0.25000000  0.65000000       0.006
   1.15000000 -0.65000000 -0.25000000       0.012
   1.05000000 -0.55000000 -0.15000000       0.012
   0.95000000 -0.45000000 -0.05000000       0.012
   0.25000000  0.25000000 -1.15000000       0.006
   0.15000000  0.35000000 -1.05000000       0.012
   0.25000000  0.25000000 -0.95000000       0.006
   0.35000000  0.35000000  0.35000000       0.002
   0.25000000  0.45000000  0.45000000       0.006
   1.15000000 -0.45000000 -0.45000000       0.006
   1.05000000 -0.35000000 -0.35000000       0.006
   0.35000000  0.35000000  0.55000000       0.006
   1.25000000 -0.55000000 -0.35000000       0.012
   1.15000000 -0.45000000 -0.25000000       0.012
   0.35000000  0.35000000 -1.25000000       0.006
   0.45000000  0.45000000  0.45000000       0.002
   1.35000000 -0.45000000 -0.45000000       0.006
 
 k-points in reciprocal lattice and weights: 10x10x10                                
   0.05000000  0.05000000  0.05000000       0.002
   0.15000000  0.05000000  0.05000000       0.006
   0.25000000  0.05000000  0.05000000       0.006
   0.35000000  0.05000000  0.05000000       0.006
   0.45000000  0.05000000  0.05000000       0.006
  -0.45000000  0.05000000  0.05000000       0.006
  -0.35000000  0.05000000  0.05000000       0.006
  -0.25000000  0.05000000  0.05000000       0.006
  -0.15000000  0.05000000  0.05000000       0.006
  -0.05000000  0.05000000  0.05000000       0.006
   0.15000000  0.15000000  0.05000000       0.006
   0.25000000  0.15000000  0.05000000       0.012
   0.35000000  0.15000000  0.05000000       0.012
   0.45000000  0.15000000  0.05000000       0.012
  -0.45000000  0.15000000  0.05000000       0.012
  -0.35000000  0.15000000  0.05000000       0.012
  -0.25000000  0.15000000  0.05000000       0.012
  -0.15000000  0.15000000  0.05000000       0.012
  -0.05000000  0.15000000  0.05000000       0.012
   0.25000000  0.25000000  0.05000000       0.006
   0.35000000  0.25000000  0.05000000       0.012
   0.45000000  0.25000000  0.05000000       0.012
  -0.45000000  0.25000000  0.05000000       0.012
  -0.35000000  0.25000000  0.05000000       0.012
  -0.25000000  0.25000000  0.05000000       0.012
  -0.15000000  0.25000000  0.05000000       0.012
  -0.05000000  0.25000000  0.05000000       0.012
   0.35000000  0.35000000  0.05000000       0.006
   0.45000000  0.35000000  0.05000000       0.012
  -0.45000000  0.35000000  0.05000000       0.012
  -0.35000000  0.35000000  0.05000000       0.012
  -0.25000000  0.35000000  0.05000000       0.012
  -0.15000000  0.35000000  0.05000000       0.012
  -0.05000000  0.35000000  0.05000000       0.012
   0.45000000  0.45000000  0.05000000       0.006
  -0.45000000  0.45000000  0.05000000       0.012
  -0.35000000  0.45000000  0.05000000       0.012
  -0.25000000  0.45000000  0.05000000       0.012
  -0.15000000  0.45000000  0.05000000       0.012
  -0.05000000  0.45000000  0.05000000       0.012
  -0.45000000 -0.45000000  0.05000000       0.006
  -0.35000000 -0.45000000  0.05000000       0.012
  -0.25000000 -0.45000000  0.05000000       0.012
  -0.15000000 -0.45000000  0.05000000       0.012
  -0.35000000 -0.35000000  0.05000000       0.006
  -0.25000000 -0.35000000  0.05000000       0.012
  -0.15000000 -0.35000000  0.05000000       0.012
  -0.25000000 -0.25000000  0.05000000       0.006
  -0.15000000 -0.25000000  0.05000000       0.012
  -0.15000000 -0.15000000  0.05000000       0.006
   0.15000000  0.15000000  0.15000000       0.002
   0.25000000  0.15000000  0.15000000       0.006
   0.35000000  0.15000000  0.15000000       0.006
   0.45000000  0.15000000  0.15000000       0.006
  -0.45000000  0.15000000  0.15000000       0.006
  -0.35000000  0.15000000  0.15000000       0.006
  -0.25000000  0.15000000  0.15000000       0.006
  -0.15000000  0.15000000  0.15000000       0.006
   0.25000000  0.25000000  0.15000000       0.006
   0.35000000  0.25000000  0.15000000       0.012
   0.45000000  0.25000000  0.15000000       0.012
  -0.45000000  0.25000000  0.15000000       0.012
  -0.35000000  0.25000000  0.15000000       0.012
  -0.25000000  0.25000000  0.15000000       0.012
  -0.15000000  0.25000000  0.15000000       0.012
   0.35000000  0.35000000  0.15000000       0.006
   0.45000000  0.35000000  0.15000000       0.012
  -0.45000000  0.35000000  0.15000000       0.012
  -0.35000000  0.35000000  0.15000000       0.012
  -0.25000000  0.35000000  0.15000000       0.012
  -0.15000000  0.35000000  0.15000000       0.012
   0.45000000  0.45000000  0.15000000       0.006
  -0.45000000  0.45000000  0.15000000       0.012
  -0.35000000  0.45000000  0.15000000       0.012
  -0.25000000  0.45000000  0.15000000       0.012
  -0.15000000  0.45000000  0.15000000       0.012
  -0.45000000 -0.45000000  0.15000000       0.006
  -0.35000000 -0.45000000  0.15000000       0.012
  -0.25000000 -0.45000000  0.15000000       0.012
  -0.35000000 -0.35000000  0.15000000       0.006
  -0.25000000 -0.35000000  0.15000000       0.012
  -0.25000000 -0.25000000  0.15000000       0.006
   0.25000000  0.25000000  0.25000000       0.002
   0.35000000  0.25000000  0.25000000       0.006
   0.45000000  0.25000000  0.25000000       0.006
  -0.45000000  0.25000000  0.25000000       0.006
  -0.35000000  0.25000000  0.25000000       0.006
  -0.25000000  0.25000000  0.25000000       0.006
   0.35000000  0.35000000  0.25000000       0.006
   0.45000000  0.35000000  0.25000000       0.012
  -0.45000000  0.35000000  0.25000000       0.012
  -0.35000000  0.35000000  0.25000000       0.012
  -0.25000000  0.35000000  0.25000000       0.012
   0.45000000  0.45000000  0.25000000       0.006
  -0.45000000  0.45000000  0.25000000       0.012
  -0.35000000  0.45000000  0.25000000       0.012
  -0.25000000  0.45000000  0.25000000       0.012
  -0.45000000 -0.45000000  0.25000000       0.006
  -0.35000000 -0.45000000  0.25000000       0.012
  -0.35000000 -0.35000000  0.25000000       0.006
   0.35000000  0.35000000  0.35000000       0.002
   0.45000000  0.35000000  0.35000000       0.006
  -0.45000000  0.35000000  0.35000000       0.006
  -0.35000000  0.35000000  0.35000000       0.006
   0.45000000  0.45000000  0.35000000       0.006
  -0.45000000  0.45000000  0.35000000       0.012
  -0.35000000  0.45000000  0.35000000       0.012
  -0.45000000 -0.45000000  0.35000000       0.006
   0.45000000  0.45000000  0.45000000       0.002
  -0.45000000  0.45000000  0.45000000       0.006
 
 position of ions in fractional coordinates (direct lattice) 
   0.00000000  0.00000000  0.00000000
 
 position of ions in cartesian coordinates  (Angst):
   0.00000000  0.00000000  0.00000000
 


--------------------------------------------------------------------------------------------------------


 k-point  1 :   0.0500 0.0500 0.0500  plane waves:     113
 k-point  2 :   0.1500 0.0500 0.0500  plane waves:     115
 k-point  3 :   0.2500 0.0500 0.0500  plane waves:     111
 k-point  4 :   0.3500 0.0500 0.0500  plane waves:     107
 k-point  5 :   0.4500 0.0500 0.0500  plane waves:     109
 k-point  6 :  -0.4500 0.0500 0.0500  plane waves:     108
 k-point  7 :  -0.3500 0.0500 0.0500  plane waves:     110
 k-point  8 :  -0.2500 0.0500 0.0500  plane waves:     109
 k-point  9 :  -0.1500 0.0500 0.0500  plane waves:     112
 k-point 10 :  -0.0500 0.0500 0.0500  plane waves:     113
 k-point 11 :   0.1500 0.1500 0.0500  plane waves:     114
 k-point 12 :   0.2500 0.1500 0.0500  plane waves:     113
 k-point 13 :   0.3500 0.1500 0.0500  plane waves:     107
 k-point 14 :   0.4500 0.1500 0.0500  plane waves:     109
 k-point 15 :  -0.4500 0.1500 0.0500  plane waves:     110
 k-point 16 :  -0.3500 0.1500 0.0500  plane waves:     107
 k-point 17 :  -0.2500 0.1500 0.0500  plane waves:     107
 k-point 18 :  -0.1500 0.1500 0.0500  plane waves:     110
 k-point 19 :  -0.0500 0.1500 0.0500  plane waves:     113
 k-point 20 :   0.2500 0.2500 0.0500  plane waves:     109
 k-point 21 :   0.3500 0.2500 0.0500  plane waves:     112
 k-point 22 :   0.4500 0.2500 0.0500  plane waves:     111
 k-point 23 :  -0.4500 0.2500 0.0500  plane waves:     109
 k-point 24 :  -0.3500 0.2500 0.0500  plane waves:     108
 k-point 25 :  -0.2500 0.2500 0.0500  plane waves:     109
 k-point 26 :  -0.1500 0.2500 0.0500  plane waves:     107
 k-point 27 :  -0.0500 0.2500 0.0500  plane waves:     108
 k-point 28 :   0.3500 0.3500 0.0500  plane waves:     111
 k-point 29 :   0.4500 0.3500 0.0500  plane waves:     109
 k-point 30 :  -0.4500 0.3500 0.0500  plane waves:     105
 k-point 31 :  -0.3500 0.3500 0.0500  plane waves:     106
 k-point 32 :  -0.2500 0.3500 0.0500  plane waves:     107
 k-point 33 :  -0.1500 0.3500 0.0500  plane waves:     108
 k-point 34 :  -0.0500 0.3500 0.0500  plane waves:     107
 k-point 35 :   0.4500 0.4500 0.0500  plane waves:     113
 k-point 36 :  -0.4500 0.4500 0.0500  plane waves:     108
 k-point 37 :  -0.3500 0.4500 0.0500  plane waves:     106
 k-point 38 :  -0.2500 0.4500 0.0500  plane waves:     105
 k-point 39 :  -0.1500 0.4500 0.0500  plane waves:     109
 k-point 40 :  -0.0500 0.4500 0.0500  plane waves:     110
 k-point 41 :  -0.4500-0.4500 0.0500  plane waves:     112
 k-point 42 :  -0.3500-0.4500 0.0500  plane waves:     109
 k-point 43 :  -0.2500-0.4500 0.0500  plane waves:     108
 k-point 44 :  -0.1500-0.4500 0.0500  plane waves:     110
 k-point 45 :  -0.3500-0.3500 0.0500  plane waves:     110
 k-point 46 :  -0.2500-0.3500 0.0500  plane waves:     111
 k-point 47 :  -0.1500-0.3500 0.0500  plane waves:     110
 k-point 48 :  -0.2500-0.2500 0.0500  plane waves:     109
 k-point 49 :  -0.1500-0.2500 0.0500  plane waves:     111
 k-point 50 :  -0.1500-0.1500 0.0500  plane waves:     113
 k-point 51 :   0.1500 0.1500 0.1500  plane waves:     116
 k-point 52 :   0.2500 0.1500 0.1500  plane waves:     113
 k-point 53 :   0.3500 0.1500 0.1500  plane waves:     109
 k-point 54 :   0.4500 0.1500 0.1500  plane waves:     106
 k-point 55 :  -0.4500 0.1500 0.1500  plane waves:     107
 k-point 56 :  -0.3500 0.1500 0.1500  plane waves:     108
 k-point 57 :  -0.2500 0.1500 0.1500  plane waves:     112
 k-point 58 :  -0.1500 0.1500 0.1500  plane waves:     111
 k-point 59 :   0.2500 0.2500 0.1500  plane waves:     110
 k-point 60 :   0.3500 0.2500 0.1500  plane waves:     110
 k-point 61 :   0.4500 0.2500 0.1500  plane waves:     107
 k-point 62 :  -0.4500 0.2500 0.1500  plane waves:     111
 k-point 63 :  -0.3500 0.2500 0.1500  plane waves:     109
 k-point 64 :  -0.2500 0.2500 0.1500  plane waves:     111
 k-point 65 :  -0.1500 0.2500 0.1500  plane waves:     108
 k-point 66 :   0.3500 0.3500 0.1500  plane waves:     111
 k-point 67 :   0.4500 0.3500 0.1500  plane waves:     110
 k-point 68 :  -0.4500 0.3500 0.1500  plane waves:     107
 k-point 69 :  -0.3500 0.3500 0.1500  plane waves:     109
 k-point 70 :  -0.2500 0.3500 0.1500  plane waves:     109
 k-point 71 :  -0.1500 0.3500 0.1500  plane waves:     109
 k-point 72 :   0.4500 0.4500 0.1500  plane waves:     106
 k-point 73 :  -0.4500 0.4500 0.1500  plane waves:     106
 k-point 74 :  -0.3500 0.4500 0.1500  plane waves:     106
 k-point 75 :  -0.2500 0.4500 0.1500  plane waves:     110
 k-point 76 :  -0.1500 0.4500 0.1500  plane waves:     109
 k-point 77 :  -0.4500-0.4500 0.1500  plane waves:     108
 k-point 78 :  -0.3500-0.4500 0.1500  plane waves:     106
 k-point 79 :  -0.2500-0.4500 0.1500  plane waves:     106
 k-point 80 :  -0.3500-0.3500 0.1500  plane waves:     108
 k-point 81 :  -0.2500-0.3500 0.1500  plane waves:     107
 k-point 82 :  -0.2500-0.2500 0.1500  plane waves:     109
 k-point 83 :   0.2500 0.2500 0.2500  plane waves:     107
 k-point 84 :   0.3500 0.2500 0.2500  plane waves:     106
 k-point 85 :   0.4500 0.2500 0.2500  plane waves:     106
 k-point 86 :  -0.4500 0.2500 0.2500  plane waves:     105
 k-point 87 :  -0.3500 0.2500 0.2500  plane waves:     107
 k-point 88 :  -0.2500 0.2500 0.2500  plane waves:     108
 k-point 89 :   0.3500 0.3500 0.2500  plane waves:     109
 k-point 90 :   0.4500 0.3500 0.2500  plane waves:     109
 k-point 91 :  -0.4500 0.3500 0.2500  plane waves:     110
 k-point 92 :  -0.3500 0.3500 0.2500  plane waves:     108
 k-point 93 :  -0.2500 0.3500 0.2500  plane waves:     107
 k-point 94 :   0.4500 0.4500 0.2500  plane waves:     111
 k-point 95 :  -0.4500 0.4500 0.2500  plane waves:     108
 k-point 96 :  -0.3500 0.4500 0.2500  plane waves:     107
 k-point 97 :  -0.2500 0.4500 0.2500  plane waves:     108
 k-point 98 :  -0.4500-0.4500 0.2500  plane waves:     106
 k-point 99 :  -0.3500-0.4500 0.2500  plane waves:     107
 k-point ** :  -0.3500-0.3500 0.2500  plane waves:     106
 k-point ** :   0.3500 0.3500 0.3500  plane waves:     111
 k-point ** :   0.4500 0.3500 0.3500  plane waves:     107
 k-point ** :  -0.4500 0.3500 0.3500  plane waves:     109
 k-point ** :  -0.3500 0.3500 0.3500  plane waves:     105
 k-point ** :   0.4500 0.4500 0.3500  plane waves:     110
 k-point ** :  -0.4500 0.4500 0.3500  plane waves:     108
 k-point ** :  -0.3500 0.4500 0.3500  plane waves:     108
 k-point ** :  -0.4500-0.4500 0.3500  plane waves:     107
 k-point ** :   0.4500 0.4500 0.4500  plane waves:     108
 k-point ** :  -0.4500 0.4500 0.4500  plane waves:     112

 maximum and minimum number of plane-waves per node :       116      105

 maximum number of plane-waves:       116
 maximum index in each direction: 
   IXMAX=    3   IYMAX=    3   IZMAX=    3
   IXMIN=   -3   IYMIN=   -3   IZMIN=   -3


 serial   3D FFT for wavefunctions
 parallel 3D FFT for charge:
    minimum data exchange during FFTs selected (reduces bandwidth)


 total amount of memory used by VASP MPI-rank0    32906. kBytes
=======================================================================

   base      :      30000. kBytes
   nonl-proj :       1839. kBytes
   fftplans  :        142. kBytes
   grid      :        192. kBytes
   one-center:         15. kBytes
   wavefun   :        718. kBytes
 
     INWAV:  cpu time    0.0000: real time    0.0000
 Broyden mixing: mesh for mixing (old mesh)
   NGX =  7   NGY =  7   NGZ =  7
  (NGX  = 20   NGY  = 20   NGZ  = 20)
  gives a total of    343 points

 initial charge density was supplied:
 charge density of overlapping atoms calculated
 number of electron      11.0000000 magnetization 
 keeping initial charge density in first step


--------------------------------------------------------------------------------------------------------


 Maximum index for augmentation-charges         1099 (set IRDMAX)


--------------------------------------------------------------------------------------------------------


 First call to EWALD:  gamma=   0.740
 Maximum number of real-space cells 3x 3x 3
 Maximum number of reciprocal cells 3x 3x 3

    FEWALD:  cpu time    0.0012: real time    0.0012


--------------------------------------- Iteration      1(   1)  ---------------------------------------


    POTLOK:  cpu time    0.0027: real time    0.0066
    SETDIJ:  cpu time    0.0022: real time    0.0026
     EDDAV:  cpu time    0.2537: real time    0.2718
       DOS:  cpu time    0.0013: real time    0.0013
    --------------------------------------------
      LOOP:  cpu time    0.2600: real time    0.2823

 eigenvalue-minimisations  :  3224
 total energy-change (2. order) : 0.3170275E+02  (-0.3545992E+03)
 number of electron      11.0000000 magnetization 
 augmentation part       11.0000000 magnetization 

 Free energy of the ion-electron system (eV)
  ---------------------------------------------------
  alpha Z        PSCENC =       133.97575011
  Ewald energy   TEWEN  =     -1051.12442154
  -Hartree energ DENC   =       -96.40115791
  -exchange      EXHF   =         0.00000000
  -V(xc)+E(xc)   XCENC  =        17.07666435
  PAW double counting   =       746.10209728     -725.46159323
  entropy T*S    EENTRO =        -0.00057256
  eigenvalues    EBANDS =        78.13983792
  atomic energy  EATOM  =       929.39614979
  Solvation  Ediel_sol  =         0.00000000
  ---------------------------------------------------
  free energy    TOTEN  =        31.70275421 eV

  energy without entropy =       31.70332677  energy(sigma->0) =       31.70294507


--------------------------------------------------------------------------------------------------------




--------------------------------------- Iteration      1(   2)  ---------------------------------------


     EDDAV:  cpu time    0.2266: real time    0.2327
       DOS:  cpu time    0.0013: real time    0.0013
    --------------------------------------------
      LOOP:  cpu time    0.2279: real time    0.2341

 eigenvalue-minimisations  :  3052
 total energy-change (2. order) :-0.3557200E+02  (-0.3350984E+02)
 number of electron      11.0000000 magnetization 
 augmentation part       11.0000000 magnetization 

 Free energy of the ion-electron system (eV)
  ---------------------------------------------------
  alpha Z        PSCENC =       133.97575011
  Ewald energy   TEWEN  =     -1051.12442154
  -Hartree energ DENC   =       -96.40115791
  -exchange      EXHF   =         0.00000000
  -V(xc)+E(xc)   XCENC  =        17.07666435
  PAW double counting   =       746.10209728     -725.46159323
  entropy T*S    EENTRO =        -0.00108848
  eigenvalues    EBANDS =        42.56835459
  atomic energy  EATOM  =       929.39614979
  Solvation  Ediel_sol  =         0.00000000
  ---------------------------------------------------
  free energy    TOTEN  =        -3.86924504 eV

  energy without entropy =       -3.86815656  energy(sigma->0) =       -3.86888221


--------------------------------------------------------------------------------------------------------




--------------------------------------- Iteration      1(   3)  ---------------------------------------


     EDDAV:  cpu time    0.2398: real time    0.2453
       DOS:  cpu time    0.0014: real time    0.0014
    --------------------------------------------
      LOOP:  cpu time    0.2412: real time    0.2467

 eigenvalue-minimisations  :  3216
 total energy-change (2. order) :-0.3009921E+00  (-0.3008701E+00)
 number of electron      11.0000000 magnetization 
 augmentation part       11.0000000 magnetization 

 Free energy of the ion-electron system (eV)
  ---------------------------------------------------
  alpha Z        PSCENC =       133.97575011
  Ewald energy   TEWEN  =     -1051.12442154
  -Hartree energ DENC   =       -96.40115791
  -exchange      EXHF   =         0.00000000
  -V(xc)+E(xc)   XCENC  =        17.07666435
  PAW double counting   =       746.10209728     -725.46159323
  entropy T*S    EENTRO =        -0.00104741
  eigenvalues    EBANDS =        42.26732139
  atomic energy  EATOM  =       929.39614979
  Solvation  Ediel_sol  =         0.00000000
  ---------------------------------------------------
  free energy    TOTEN  =        -4.17023716 eV

  energy without entropy =       -4.16918976  energy(sigma->0) =       -4.16988803


--------------------------------------------------------------------------------------------------------




--------------------------------------- Iteration      1(   4)  ---------------------------------------


     EDDAV:  cpu time    0.2499: real time    0.2562
       DOS:  cpu time    0.0015: real time    0.0014
    --------------------------------------------
      LOOP:  cpu time    0.2513: real time    0.2576

 eigenvalue-minimisations  :  3156
 total energy-change (2. order) :-0.7935533E-03  (-0.7935277E-03)
 number of electron      11.0000000 magnetization 
 augmentation part       11.0000000 magnetization 

 Free energy of the ion-electron system (eV)
  ---------------------------------------------------
  alpha Z        PSCENC =       133.97575011
  Ewald energy   TEWEN  =     -1051.12442154
  -Hartree energ DENC   =       -96.40115791
  -exchange      EXHF   =         0.00000000
  -V(xc)+E(xc)   XCENC  =        17.07666435
  PAW double counting   =       746.10209728     -725.46159323
  entropy T*S    EENTRO =        -0.00104756
  eigenvalues    EBANDS =        42.26652800
  atomic energy  EATOM  =       929.39614979
  Solvation  Ediel_sol  =         0.00000000
  ---------------------------------------------------
  free energy    TOTEN  =        -4.17103072 eV

  energy without entropy =       -4.16998315  energy(sigma->0) =       -4.17068153


--------------------------------------------------------------------------------------------------------




--------------------------------------- Iteration      1(   5)  ---------------------------------------


     EDDAV:  cpu time    0.2472: real time    0.2531
       DOS:  cpu time    0.0014: real time    0.0014
    CHARGE:  cpu time    0.0032: real time    0.0032
    MIXING:  cpu time    0.0005: real time    0.0004
    --------------------------------------------
      LOOP:  cpu time    0.2523: real time    0.2581

 eigenvalue-minimisations  :  2972
 total energy-change (2. order) :-0.4849704E-05  (-0.4848853E-05)
 number of electron      10.9999991 magnetization 
 augmentation part        3.8224248 magnetization 

 Broyden mixing:
  rms(total) = 0.31064E+00    rms(broyden)= 0.31035E+00
  rms(prec ) = 0.12852E+01
  weight for this iteration     100.00

 Free energy of the ion-electron system (eV)
  ---------------------------------------------------
  alpha Z        PSCENC =       133.97575011
  Ewald energy   TEWEN  =     -1051.12442154
  -Hartree energ DENC   =       -96.40115791
  -exchange      EXHF   =         0.00000000
  -V(xc)+E(xc)   XCENC  =        17.07666435
  PAW double counting   =       746.10209728     -725.46159323
  entropy T*S    EENTRO =        -0.00104756
  eigenvalues    EBANDS =        42.26652315
  atomic energy  EATOM  =       929.39614979
  Solvation  Ediel_sol  =         0.00000000
  ---------------------------------------------------
  free energy    TOTEN  =        -4.17103557 eV

  energy without entropy =       -4.16998800  energy(sigma->0) =       -4.17068638


--------------------------------------------------------------------------------------------------------




--------------------------------------- Iteration      1(   6)  ---------------------------------------


    POTLOK:  cpu time    0.0014: real time    0.0016
    SETDIJ:  cpu time    0.0015: real time    0.0014
     EDDAV:  cpu time    0.2534: real time    0.2599
       DOS:  cpu time    0.0014: real time    0.0014
    CHARGE:  cpu time    0.0029: real time    0.0029
    MIXING:  cpu time    0.0004: real time    0.0004
    --------------------------------------------
      LOOP:  cpu time    0.2611: real time    0.2676

 eigenvalue-minimisations  :  3116
 total energy-change (2. order) : 0.2421199E+00  (-0.4323454E-01)
 number of electron      10.9999991 magnetization 
 augmentation part        3.9233704 magnetization 

 Broyden mixing:
  rms(total) = 0.10428E+00    rms(broyden)= 0.10426E+00
  rms(prec ) = 0.43445E+00
  weight for this iteration     100.00

 eigenvalues of (default mixing * dielectric matrix)
  average eigenvalue GAMMA=   1.4511
  1.4511

 Free energy of the ion-electron system (eV)
  ---------------------------------------------------
  alpha Z        PSCENC =       133.97575011
  Ewald energy   TEWEN  =     -1051.12442154
  -Hartree energ DENC   =       -89.84170642
  -exchange      EXHF   =         0.00000000
  -V(xc)+E(xc)   XCENC  =        16.74019508
  PAW double counting   =       762.66172921     -743.87657604
  entropy T*S    EENTRO =        -0.00038984
  eigenvalues    EBANDS =        38.14035397
  atomic energy  EATOM  =       929.39614979
  Solvation  Ediel_sol  =         0.00000000
  ---------------------------------------------------
  free energy    TOTEN  =        -3.92891568 eV

  energy without entropy =       -3.92852584  energy(sigma->0) =       -3.92878573


--------------------------------------------------------------------------------------------------------




--------------------------------------- Iteration      1(   7)  ---------------------------------------


    POTLOK:  cpu time    0.0014: real time    0.0015
    SETDIJ:  cpu time    0.0013: real time    0.0013
     EDDAV:  cpu time    0.2332: real time    0.2384
       DOS:  cpu time    0.0014: real time    0.0014
    CHARGE:  cpu time    0.0034: real time    0.0034
    MIXING:  cpu time    0.0009: real time    0.0005
    --------------------------------------------
      LOOP:  cpu time    0.2416: real time    0.2465

 eigenvalue-minimisations  :  3184
 total energy-change (2. order) : 0.4391891E-01  (-0.6945076E-02)
 number of electron      10.9999991 magnetization 
 augmentation part        3.9618582 magnetization 

 Broyden mixing:
  rms(total) = 0.21522E-01    rms(broyden)= 0.21513E-01
  rms(prec ) = 0.57291E-01
  weight for this iteration     100.00

 eigenvalues of (default mixing * dielectric matrix)
  average eigenvalue GAMMA=   1.8435
  1.3142  2.3727

 Free energy of the ion-electron system (eV)
  ---------------------------------------------------
  alpha Z        PSCENC =       133.97575011
  Ewald energy   TEWEN  =     -1051.12442154
  -Hartree energ DENC   =       -86.62183117
  -exchange      EXHF   =         0.00000000
  -V(xc)+E(xc)   XCENC  =        16.57478375
  PAW double counting   =       783.02717590     -765.74213748
  entropy T*S    EENTRO =        -0.00040316
  eigenvalues    EBANDS =        36.62993703
  atomic energy  EATOM  =       929.39614979
  Solvation  Ediel_sol  =         0.00000000
  ---------------------------------------------------
  free energy    TOTEN  =        -3.88499677 eV

  energy without entropy =       -3.88459361  energy(sigma->0) =       -3.88486238


--------------------------------------------------------------------------------------------------------




--------------------------------------- Iteration      1(   8)  ---------------------------------------


    POTLOK:  cpu time    0.0011: real time    0.0016
    SETDIJ:  cpu time    0.0015: real time    0.0014
     EDDAV:  cpu time    0.2156: real time    0.2212
       DOS:  cpu time    0.0013: real time    0.0013
    CHARGE:  cpu time    0.0028: real time    0.0028
    MIXING:  cpu time    0.0002: real time    0.0002
    --------------------------------------------
      LOOP:  cpu time    0.2225: real time    0.2285

 eigenvalue-minimisations  :  2924
 total energy-change (2. order) : 0.6643121E-02  (-0.2128560E-03)
 number of electron      10.9999991 magnetization 
 augmentation part        3.9597428 magnetization 

 Broyden mixing:
  rms(total) = 0.86450E-03    rms(broyden)= 0.86035E-03
  rms(prec ) = 0.25207E-02
  weight for this iteration     100.00

 eigenvalues of (default mixing * dielectric matrix)
  average eigenvalue GAMMA=   1.7228
  1.3501  1.4018  2.4166

 Free energy of the ion-electron system (eV)
  ---------------------------------------------------
  alpha Z        PSCENC =       133.97575011
  Ewald energy   TEWEN  =     -1051.12442154
  -Hartree energ DENC   =       -85.92282566
  -exchange      EXHF   =         0.00000000
  -V(xc)+E(xc)   XCENC  =        16.53684256
  PAW double counting   =       799.15132053     -782.72947477
  entropy T*S    EENTRO =        -0.00039978
  eigenvalues    EBANDS =        36.83870512
  atomic energy  EATOM  =       929.39614979
  Solvation  Ediel_sol  =         0.00000000
  ---------------------------------------------------
  free energy    TOTEN  =        -3.87835364 eV

  energy without entropy =       -3.87795386  energy(sigma->0) =       -3.87822038


--------------------------------------------------------------------------------------------------------




--------------------------------------- Iteration      1(   9)  ---------------------------------------


    POTLOK:  cpu time    0.0012: real time    0.0013
    SETDIJ:  cpu time    0.0011: real time    0.0011
     EDDAV:  cpu time    0.1597: real time    0.1639
       DOS:  cpu time    0.0013: real time    0.0014
    --------------------------------------------
      LOOP:  cpu time    0.1634: real time    0.1676

 eigenvalue-minimisations  :  2072
 total energy-change (2. order) : 0.1951194E-04  (-0.1182265E-05)
 number of electron      10.9999991 magnetization 
 augmentation part        3.9597428 magnetization 

 Free energy of the ion-electron system (eV)
  ---------------------------------------------------
  alpha Z        PSCENC =       133.97575011
  Ewald energy   TEWEN  =     -1051.12442154
  -Hartree energ DENC   =       -85.89753111
  -exchange      EXHF   =         0.00000000
  -V(xc)+E(xc)   XCENC  =        16.53546036
  PAW double counting   =       800.30130915     -783.90712640
  entropy T*S    EENTRO =        -0.00039928
  eigenvalues    EBANDS =        36.84247478
  atomic energy  EATOM  =       929.39614979
  Solvation  Ediel_sol  =         0.00000000
  ---------------------------------------------------
  free energy    TOTEN  =        -3.87833413 eV

  energy without entropy =       -3.87793485  energy(sigma->0) =       -3.87820104


--------------------------------------------------------------------------------------------------------




 average (electrostatic) potential at core
  the test charge radii are     1.2098
  (the norm of the test charge is              1.0000)
       1 -43.4236
 
 
 
 E-fermi :   8.9715     XC(G=0): -14.2692     alpha+bet :-12.7847


 k-point     1 :       0.0500    0.0500    0.0500
  band No.  band energies     occupation 
      1      -3.5724      2.00000
      2       2.6549      2.00000
      3       2.7429      2.00000
      4       2.7429      2.00000
      5       4.9196      2.00000
      6       4.9196      2.00000
      7      24.0967      0.00000
      8      28.4195      0.00000
      9      29.2859      0.00000
     10      29.2859      0.00000
     11      34.6139      0.00000
     12      39.8183      0.00000

 k-point     2 :       0.1500    0.0500    0.0500
  band No.  band energies     occupation 
      1      -3.0172      2.00000
      2       2.4248      2.00000
      3       2.9366      2.00000
      4       2.9819      2.00000
      5       4.6888      2.00000
      6       4.9854      2.00000
      7      24.8301      0.00000
      8      26.3495      0.00000
      9      29.2448      0.00000
     10      30.4628      0.00000
     11      35.2099      0.00000
     12      38.2031      0.00000

 k-point     3 :       0.2500    0.0500    0.0500
  band No.  band energies     occupation 
      1      -1.8519      2.00000
      2       2.2396      2.00000
      3       3.1427      2.00000
      4       3.1782      2.00000
      5       4.6881      2.00000
      6       5.2840      2.00000
      7      22.9173      0.00000
      8      25.7092      0.00000
      9      30.1167      0.00000
     10      32.3383      0.00000
     11      32.5204      0.00000
     12      35.8877      0.00000

 k-point     4 :       0.3500    0.0500    0.0500
  band No.  band energies     occupation 
      1      -0.9201      2.00000
      2       2.8764      2.00000
      3       3.0074      2.00000
      4       3.1047      2.00000
      5       5.3988      2.00000
      6       6.0943      2.00000
      7      18.9392      0.00000
      8      24.8043      0.00000
      9      29.3882      0.00000
     10      31.9670      0.00000
     11      33.4584      0.00000
     12      35.1799      0.00000

 k-point     5 :       0.4500    0.0500    0.0500
  band No.  band energies     occupation 
      1      -0.7627      2.00000
      2       2.6621      2.00000
      3       2.7643      2.00000
      4       4.9866      2.00000
      5       6.2833      2.00000
      6       7.1037      2.00000
      7      14.9475      0.00000
      8      23.6910      0.00000
      9      28.0393      0.00000
     10      29.2594      0.00000
     11      36.1717      0.00000
     12      36.9061      0.00000

 k-point     6 :      -0.4500    0.0500    0.0500
  band No.  band energies     occupation 
      1      -0.7795      2.00000
      2       2.5665      2.00000
      3       2.7091      2.00000
      4       5.6778      2.00000
      5       6.7152      2.00000
      6       7.7203      2.00000
      7      13.2904     -0.00000
      8      23.3908      0.00000
      9      28.0051      0.00000
     10      28.0887      0.00000
     11      37.1644      0.00000
     12      37.3041      0.00000

 k-point     7 :      -0.3500    0.0500    0.0500
  band No.  band energies     occupation 
      1      -0.7705      2.00000
      2       2.7047      2.00000
      3       2.8664      2.00000
      4       4.2697      2.00000
      5       6.4100      2.00000
      6       6.4228      2.00000
      7      16.1854      0.00000
      8      23.9927      0.00000
      9      28.6624      0.00000
     10      29.6318      0.00000
     11      36.0786      0.00000
     12      36.1375      0.00000

 k-point     8 :      -0.2500    0.0500    0.0500
  band No.  band energies     occupation 
      1      -1.1365      2.00000
      2       2.5695      2.00000
      3       3.0168      2.00000
      4       3.1174      2.00000
      5       5.2513      2.00000
      6       5.6646      2.00000
      7      20.3214      0.00000
      8      25.2722      0.00000
      9      30.0490      0.00000
     10      31.9087      0.00000
     11      33.4503      0.00000
     12      35.0222      0.00000

 k-point     9 :      -0.1500    0.0500    0.0500
  band No.  band energies     occupation 
      1      -2.2723      2.00000
      2       2.2301      2.00000
      3       3.1346      2.00000
      4       3.1573      2.00000
      5       4.6263      2.00000
      6       5.1108      2.00000
      7      24.1294      0.00000
      8      25.6098      0.00000
      9      29.9891      0.00000
     10      31.1826      0.00000
     11      33.6890      0.00000
     12      36.2783      0.00000

 k-point    10 :      -0.0500    0.0500    0.0500
  band No.  band energies     occupation 
      1      -3.2890      2.00000
      2       2.4951      2.00000
      3       2.8764      2.00000
      4       2.8844      2.00000
      5       4.7281      2.00000
      6       5.0021      2.00000
      7      24.4980      0.00000
      8      27.4592      0.00000
      9      29.2321      0.00000
     10      29.5388      0.00000
     11      35.8828      0.00000
     12      38.6001      0.00000

 k-point    11 :       0.1500    0.1500    0.0500
  band No.  band energies     occupation 
      1      -2.7424      2.00000
      2       2.1791      2.00000
      3       3.1572      2.00000
      4       3.1630      2.00000
      5       4.3950      2.00000
      6       5.1614      2.00000
      7      25.2433      0.00000
      8      26.5674      0.00000
      9      28.9289      0.00000
     10      29.3781      0.00000
     11      36.0616      0.00000
     12      37.2740      0.00000

 k-point    12 :       0.2500    0.1500    0.0500
  band No.  band energies     occupation 
      1      -1.7651      2.00000
      2       1.8199      2.00000
      3       3.2803      2.00000
      4       3.5530      2.00000
      5       4.3049      2.00000
      6       5.4740      2.00000
      7      24.4350      0.00000
      8      26.0796      0.00000
      9      28.3625      0.00000
     10      29.7505      0.00000
     11      33.8886      0.00000
     12      36.4621      0.00000

 k-point    13 :       0.3500    0.1500    0.0500
  band No.  band energies     occupation 
      1      -0.6384      2.00000
      2       1.9365      2.00000
      3       2.8322      2.00000
      4       3.5598      2.00000
      5       5.2351      2.00000
      6       6.2843      2.00000
      7      20.6020      0.00000
      8      25.5620      0.00000
      9      27.4813      0.00000
     10      30.0659      0.00000
     11      34.3466      0.00000
     12      35.5928      0.00000

 k-point    14 :       0.4500    0.1500    0.0500
  band No.  band energies     occupation 
      1      -0.2987      2.00000
      2       2.3925      2.00000
      3       3.1253      2.00000
      4       3.3651      2.00000
      5       6.3546      2.00000
      6       7.6991      2.00000
      7      16.3164      0.00000
      8      24.4768      0.00000
      9      26.3972      0.00000
     10      28.8633      0.00000
     11      35.6953      0.00000
     12      37.5064      0.00000

 k-point    15 :      -0.4500    0.1500    0.0500
  band No.  band energies     occupation 
      1      -0.3081      2.00000
      2       2.2110      2.00000
      3       3.1259      2.00000
      4       4.2744      2.00000
      5       6.6388      2.00000
      6       9.5902     -0.00011
      7      13.1751     -0.00000
      8      23.9175      0.00000
      9      26.0756      0.00000
     10      27.6093      0.00000
     11      36.8570      0.00000
     12      37.7895      0.00000

 k-point    16 :      -0.3500    0.1500    0.0500
  band No.  band energies     occupation 
      1      -0.2657      2.00000
      2       2.3308      2.00000
      3       3.1606      2.00000
      4       3.8187      2.00000
      5       6.1507      2.00000
      6       8.5477      2.01070
      7      15.1051      0.00000
      8      24.0560      0.00000
      9      25.9459      0.00000
     10      28.9665      0.00000
     11      35.4154      0.00000
     12      37.6476      0.00000

 k-point    17 :      -0.2500    0.1500    0.0500
  band No.  band energies     occupation 
      1      -0.3856      2.00000
      2       2.3295      2.00000
      3       2.7373      2.00000
      4       3.4320      2.00000
      5       5.1261      2.00000
      6       7.0121      2.00000
      7      19.1926      0.00000
      8      24.7750      0.00000
      9      26.9643      0.00000
     10      31.1117      0.00000
     11      33.2672      0.00000
     12      36.5548      0.00000

 k-point    18 :      -0.1500    0.1500    0.0500
  band No.  band energies     occupation 
      1      -1.3478      2.00000
      2       1.8800      2.00000
      3       3.1209      2.00000
      4       3.5845      2.00000
      5       4.2988      2.00000
      6       5.8392      2.00000
      7      23.0638      0.00000
      8      25.6070      0.00000
      9      28.7203      0.00000
     10      29.8901      0.00000
     11      34.0642      0.00000
     12      36.2452      0.00000

 k-point    19 :      -0.0500    0.1500    0.0500
  band No.  band energies     occupation 
      1      -2.4929      2.00000
      2       2.1821      2.00000
      3       3.1573      2.00000
      4       3.1750      2.00000
      5       4.4531      2.00000
      6       5.1692      2.00000
      7      25.2153      0.00000
      8      25.5347      0.00000
      9      28.9667      0.00000
     10      30.8226      0.00000
     11      34.1204      0.00000
     12      37.3676      0.00000

 k-point    20 :       0.2500    0.2500    0.0500
  band No.  band energies     occupation 
      1      -1.1375      2.00000
      2       1.3158      2.00000
      3       3.4779      2.00000
      4       4.0962      2.00000
      5       4.3596      2.00000
      6       5.6608      2.00000
      7      25.1574      0.00000
      8      26.6593      0.00000
      9      26.9922      0.00000
     10      27.9325      0.00000
     11      31.5161      0.00000
     12      37.0609      0.00000

 k-point    21 :       0.3500    0.2500    0.0500
  band No.  band energies     occupation 
      1      -0.2631      2.00000
      2       1.0026      2.00000
      3       3.1053      2.00000
      4       4.5874      2.00000
      5       5.2738      2.00000
      6       6.3217      2.00000
      7      22.4388      0.00000
      8      24.5994      0.00000
      9      26.0341      0.00000
     10      29.0531      0.00000
     11      31.0266      0.00000
     12      37.2697      0.00000

 k-point    22 :       0.4500    0.2500    0.0500
  band No.  band energies     occupation 
      1       0.1895      2.00000
      2       1.3473      2.00000
      3       2.7661      2.00000
      4       4.3881      2.00000
      5       6.4919      2.00000
      6       8.0598      2.00000
      7      17.9509      0.00000
      8      23.8844      0.00000
      9      24.2147      0.00000
     10      28.6175      0.00000
     11      34.2136      0.00000
     12      37.6480      0.00000

 k-point    23 :      -0.4500    0.2500    0.0500
  band No.  band energies     occupation 
      1       0.3226      2.00000
      2       1.6814      2.00000
      3       3.0172      2.00000
      4       4.0965      2.00000
      5       6.6904      2.00000
      6      10.9542     -0.00000
      7      13.9520     -0.00000
      8      22.5158      0.00000
      9      24.3596      0.00000
     10      27.7468      0.00000
     11      36.7516      0.00000
     12      38.9432      0.00000

 k-point    24 :      -0.3500    0.2500    0.0500
  band No.  band energies     occupation 
      1       0.5744      2.00000
      2       1.7778      2.00000
      3       3.0158      2.00000
      4       3.9444      2.00000
      5       6.0879      2.00000
      6      10.7845     -0.00000
      7      14.6993      0.00000
      8      21.3255      0.00000
      9      25.5386      0.00000
     10      28.0055      0.00000
     11      35.5182      0.00000
     12      38.2937      0.00000

 k-point    25 :      -0.2500    0.2500    0.0500
  band No.  band energies     occupation 
      1       0.7516      2.00000
      2       1.9327      2.00000
      3       2.2300      2.00000
      4       4.0540      2.00000
      5       5.0753      2.00000
      6       8.8224      1.94929
      7      18.3805      0.00000
      8      21.3791      0.00000
      9      26.3427      0.00000
     10      30.3318      0.00000
     11      32.6233      0.00000
     12      38.3393      0.00000

 k-point    26 :      -0.1500    0.2500    0.0500
  band No.  band energies     occupation 
      1      -0.1352      2.00000
      2       1.7709      2.00000
      3       2.7036      2.00000
      4       3.8959      2.00000
      5       4.4946      2.00000
      6       7.1497      2.00000
      7      20.6616      0.00000
      8      23.8348      0.00000
      9      27.2497      0.00000
     10      30.5033      0.00000
     11      33.1779      0.00000
     12      37.2972      0.00000

 k-point    27 :      -0.0500    0.2500    0.0500
  band No.  band energies     occupation 
      1      -1.2784      2.00000
      2       2.1300      2.00000
      3       3.0849      2.00000
      4       3.3115      2.00000
      5       4.7667      2.00000
      6       5.7352      2.00000
      7      21.7719      0.00000
      8      25.7247      0.00000
      9      29.1410      0.00000
     10      31.0932      0.00000
     11      34.0028      0.00000
     12      34.9766      0.00000

 k-point    28 :       0.3500    0.3500    0.0500
  band No.  band energies     occupation 
      1      -0.2188      2.00000
      2       0.4755      2.00000
      3       4.2651      2.00000
      4       5.3574      2.00000
      5       5.8809      2.00000
      6       6.2621      2.00000
      7      22.3872      0.00000
      8      23.2238      0.00000
      9      24.0222      0.00000
     10      28.0930      0.00000
     11      30.0123      0.00000
     12      39.7176      0.00000

 k-point    29 :       0.4500    0.3500    0.0500
  band No.  band energies     occupation 
      1      -0.1153      2.00000
      2       0.3303      2.00000
      3       4.3561      2.00000
      4       5.7794      2.00000
      5       6.5115      2.00000
      6       8.0394      2.00000
      7      19.3223      0.00000
      8      21.4725      0.00000
      9      22.2075      0.00000
     10      29.2264      0.00000
     11      31.3166      0.00000
     12      39.4898      0.00000

 k-point    30 :      -0.4500    0.3500    0.0500
  band No.  band energies     occupation 
      1       0.0803      2.00000
      2       0.7522      2.00000
      3       3.8672      2.00000
      4       5.3363      2.00000
      5       6.8376      2.00000
      6      11.2275     -0.00000
      7      15.5118      0.00000
      8      19.9623      0.00000
      9      22.1221      0.00000
     10      29.3296      0.00000
     11      34.3704      0.00000
     12      38.4771      0.00000

 k-point    31 :      -0.3500    0.3500    0.0500
  band No.  band energies     occupation 
      1       0.4832      2.00000
      2       1.4385      2.00000
      3       3.1162      2.00000
      4       4.8516      2.00000
      5       6.3467      2.00000
      6      12.5988     -0.00000
      7      15.0342      0.00000
      8      18.1067      0.00000
      9      23.8217      0.00000
     10      28.7337      0.00000
     11      36.8594      0.00000
     12      38.2938      0.00000

 k-point    32 :      -0.2500    0.3500    0.0500
  band No.  band energies     occupation 
      1       0.9254      2.00000
      2       1.8331      2.00000
      3       2.4265      2.00000
      4       4.3305      2.00000
      5       5.7337      2.00000
      6      10.6486     -0.00000
      7      16.7511      0.00000
      8      19.1071      0.00000
      9      25.7311      0.00000
     10      28.4876      0.00000
     11      34.7929      0.00000
     12      38.4277      0.00000

 k-point    33 :      -0.1500    0.3500    0.0500
  band No.  band energies     occupation 
      1       0.2176      2.00000
      2       2.1828      2.00000
[...]
      1       0.4819      2.00000
      2       1.2014      2.00000
      3       3.0281      2.00000
      4       4.9575      2.00000
      5       6.6946      2.00000
      6      12.2583     -0.00000
      7      14.6475      0.00000
      8      19.8762      0.00000
      9      22.1131      0.00000
     10      29.9404      0.00000
     11      35.5357      0.00000
     12      37.8303      0.00000

 k-point    94 :       0.4500    0.4500    0.2500
  band No.  band energies     occupation 
      1       0.0794      2.00000
      2       1.7970      2.00000
      3       2.7934      2.00000
      4       3.9252      2.00000
      5       6.7840      2.00000
      6       8.4480      2.00135
      7      16.3893      0.00000
      8      24.1307      0.00000
      9      25.1763      0.00000
     10      27.5548      0.00000
     11      36.5152      0.00000
     12      37.4585      0.00000

 k-point    95 :      -0.4500    0.4500    0.2500
  band No.  band energies     occupation 
      1       0.5213      2.00000
      2       1.4244      2.00000
      3       2.6732      2.00000
      4       4.6359      2.00000
      5       6.5510      2.00000
      6      10.5122     -0.00000
      7      15.5337      0.00000
      8      21.8181      0.00000
      9      22.9289      0.00000
     10      29.3686      0.00000
     11      35.1229      0.00000
     12      38.4109      0.00000

 k-point    96 :      -0.3500    0.4500    0.2500
  band No.  band energies     occupation 
      1       0.9510      2.00000
      2       1.5610      2.00000
      3       2.1950      2.00000
      4       4.7847      2.00000
      5       6.7588      2.00000
      6      12.6616     -0.00000
      7      15.9668      0.00000
      8      18.1177      0.00000
      9      21.2863      0.00000
     10      32.2157      0.00000
     11      34.0754      0.00000
     12      38.5680      0.00000

 k-point    97 :      -0.2500    0.4500    0.2500
  band No.  band energies     occupation 
      1       0.7800      2.00000
      2       1.5680      2.00000
      3       2.4049      2.00000
      4       4.7181      2.00000
      5       7.0927      2.00000
      6      14.2276     -0.00000
      7      15.4865      0.00000
      8      17.0644      0.00000
      9      20.2106      0.00000
     10      33.2051      0.00000
     11      34.7137      0.00000
     12      36.8820      0.00000

 k-point    98 :      -0.4500   -0.4500    0.2500
  band No.  band energies     occupation 
      1       0.2056      2.00000
      2       1.1488      2.00000
      3       3.5123      2.00000
      4       4.8749      2.00000
      5       6.7258      2.00000
      6      12.0821     -0.00000
      7      14.1658     -0.00000
      8      20.0916      0.00000
      9      23.4796      0.00000
     10      28.2986      0.00000
     11      36.2609      0.00000
     12      38.4973      0.00000

 k-point    99 :      -0.3500   -0.4500    0.2500
  band No.  band energies     occupation 
      1       0.4097      2.00000
      2       1.1116      2.00000
      3       3.3035      2.00000
      4       5.0767      2.00000
      5       6.7747      2.00000
      6      13.6978     -0.00000
      7      14.3472     -0.00000
      8      18.0363      0.00000
      9      21.7696      0.00000
     10      30.3960      0.00000
     11      36.1054      0.00000
     12      37.0117      0.00000

 k-point   100 :      -0.3500   -0.3500    0.2500
  band No.  band energies     occupation 
      1       0.1645      2.00000
      2       1.0312      2.00000
      3       3.7777      2.00000
      4       5.2463      2.00000
      5       6.5411      2.00000
      6      13.4420     -0.00000
      7      13.9516     -0.00000
      8      18.1911      0.00000
      9      23.1507      0.00000
     10      28.7104      0.00000
     11      36.2558      0.00000
     12      38.6360      0.00000

 k-point   101 :       0.3500    0.3500    0.3500
  band No.  band energies     occupation 
      1      -0.9014      2.00000
      2       2.8622      2.00000
      3       2.8622      2.00000
      4       3.8634      2.00000
      5       5.9550      2.00000
      6       5.9550      2.00000
      7      17.5074      0.00000
      8      24.2640      0.00000
      9      30.1984      0.00000
     10      30.1984      0.00000
     11      35.2681      0.00000
     12      35.5428      0.00000

 k-point   102 :       0.4500    0.3500    0.3500
  band No.  band energies     occupation 
      1      -0.5003      2.00000
      2       2.5882      2.00000
      3       3.0153      2.00000
      4       3.7941      2.00000
      5       5.7897      2.00000
      6       7.5467      2.00000
      7      16.3057      0.00000
      8      24.2087      0.00000
      9      26.9100      0.00000
     10      30.1859      0.00000
     11      34.5735      0.00000
     12      37.0186      0.00000

 k-point   103 :      -0.4500    0.3500    0.3500
  band No.  band energies     occupation 
      1       0.3820      2.00000
      2       2.0211      2.00000
      3       3.1043      2.00000
      4       3.6528      2.00000
      5       5.7535      2.00000
      6       9.6720     -0.00001
      7      15.6486      0.00000
      8      22.1085      0.00000
      9      26.1890      0.00000
     10      28.4189      0.00000
     11      34.7358      0.00000
     12      37.8472      0.00000

 k-point   104 :      -0.3500    0.3500    0.3500
  band No.  band energies     occupation 
      1       0.6563      2.00000
      2       1.7563      2.00000
      3       2.8040      2.00000
      4       4.5409      2.00000
      5       5.9761      2.00000
      6      11.5220     -0.00000
      7      15.9795      0.00000
      8      18.3922      0.00000
      9      25.7347      0.00000
     10      27.5493      0.00000
     11      36.3834      0.00000
     12      38.1023      0.00000

 k-point   105 :       0.4500    0.4500    0.3500
  band No.  band energies     occupation 
      1      -0.5264      2.00000
      2       2.4517      2.00000
      3       3.0179      2.00000
      4       4.0956      2.00000
      5       6.6927      2.00000
      6       7.7046      2.00000
      7      14.9556      0.00000
      8      24.0179      0.00000
      9      27.4535      0.00000
     10      28.1748      0.00000
     11      36.6657      0.00000
     12      37.4470      0.00000

 k-point   106 :      -0.4500    0.4500    0.3500
  band No.  band energies     occupation 
      1       0.0597      2.00000
      2       1.9971      2.00000
      3       3.3878      2.00000
      4       3.6329      2.00000
      5       6.4567      2.00000
      6       9.9177     -0.00000
      7      14.0207     -0.00000
      8      23.9202      0.00000
      9      24.7522      0.00000
     10      28.1286      0.00000
     11      35.9829      0.00000
     12      38.3782      0.00000

 k-point   107 :      -0.3500    0.4500    0.3500
  band No.  band energies     occupation 
      1       0.8020      2.00000
      2       1.5044      2.00000
      3       2.7858      2.00000
      4       4.3116      2.00000
      5       6.3917      2.00000
      6      12.2028     -0.00000
      7      13.8460     -0.00000
      8      20.6878      0.00000
      9      23.6322      0.00000
     10      29.0910      0.00000
     11      35.5571      0.00000
     12      39.6664      0.00000

 k-point   108 :      -0.4500   -0.4500    0.3500
  band No.  band energies     occupation 
      1       0.1870      2.00000
      2       1.8636      2.00000
      3       3.4034      2.00000
      4       3.7016      2.00000
      5       6.6122      2.00000
      6      11.1792     -0.00000
      7      13.0367     -0.00000
      8      22.8048      0.00000
      9      26.0899      0.00000
     10      26.4643      0.00000
     11      37.4835      0.00000
     12      37.6756      0.00000

 k-point   109 :       0.4500    0.4500    0.4500
  band No.  band energies     occupation 
      1      -0.8579      2.00000
      2       2.6612      2.00000
      3       2.6612      2.00000
      4       6.1866      2.00000
      5       6.6110      2.00000
      6       6.6110      2.00000
      7      13.9187     -0.00000
      8      23.3595      0.00000
      9      28.5179      0.00000
     10      28.5179      0.00000
     11      36.9927      0.00000
     12      36.9927      0.00000

 k-point   110 :      -0.4500    0.4500    0.4500
  band No.  band energies     occupation 
      1      -0.5324      2.00000
      2       2.3922      2.00000
      3       2.9036      2.00000
      4       4.8390      2.00000
      5       6.5743      2.00000
      6       8.8715      1.74005
      7      13.2466     -0.00000
      8      23.7075      0.00000
      9      26.7999      0.00000
     10      27.9928      0.00000
     11      36.9914      0.00000
     12      37.3425      0.00000


--------------------------------------------------------------------------------------------------------


 soft charge-density along one line, spin component           1
         0         1         2         3         4         5         6         7         8         9
 total charge-density along one line
 
 pseudopotential strength for first ion, spin component:           1
 -8.755   0.000   0.000   0.000   0.000   0.000   0.000   0.000  -0.000   0.000  -0.247   0.000  -0.000   0.000  -0.000   0.000
  0.000   0.000  -8.755   0.000  -0.000   0.000   0.000   0.000   0.000   0.000  -0.000   0.000  -0.247   0.000   0.000   0.000
  0.000   0.000  -0.000   0.000  -8.731   0.000  -0.000   0.000  -0.000   0.000  -0.000   0.000   0.000   0.000  -0.250   0.000
  0.000   0.000   0.000   0.000  -0.000   0.000  -8.755   0.000  -0.000   0.000  -0.000   0.000  -0.000   0.000   0.000   0.000
 -0.000   0.000   0.000   0.000  -0.000   0.000  -0.000   0.000  -8.731   0.000   0.000   0.000  -0.000   0.000   0.000   0.000
 -0.247   0.000  -0.000   0.000  -0.000   0.000  -0.000   0.000   0.000   0.000   0.305   0.000   0.000   0.000   0.000   0.000
 -0.000   0.000  -0.247   0.000   0.000   0.000  -0.000   0.000  -0.000   0.000   0.000   0.000   0.305   0.000  -0.000   0.000
 -0.000   0.000   0.000   0.000  -0.250   0.000   0.000   0.000   0.000   0.000   0.000   0.000  -0.000   0.000   0.305   0.000
 -0.000   0.000  -0.000   0.000   0.000   0.000  -0.247   0.000   0.000   0.000   0.000   0.000   0.000   0.000  -0.000   0.000
  0.000   0.000  -0.000   0.000   0.000   0.000   0.000   0.000  -0.250   0.000  -0.000   0.000   0.000   0.000  -0.000   0.000
  0.000   0.000   0.000   0.000   0.000   0.000   0.000   0.000  -0.000   0.000   0.000   0.000   0.000   0.000  -0.000   0.000
 -0.000   0.000  -0.000   0.000  -0.000   0.000  -0.000   0.000   0.000   0.000   0.000   0.000   0.000   0.000   0.000   0.000
 -0.000   0.000  -0.000   0.000   0.000   0.000  -0.000   0.000   0.000   0.000   0.000   0.000   0.000   0.000  -0.000   0.000
 -0.000   0.000  -0.000   0.000  -0.000   0.000  -0.000   0.000  -0.000   0.000   0.000   0.000   0.000   0.000   0.000   0.000
 -0.000   0.000  -0.000   0.000   0.000   0.000  -0.000   0.000  -0.000   0.000   0.000   0.000   0.000   0.000  -0.000   0.000
  0.000   0.000   0.000   0.000  -0.000   0.000   0.000   0.000  -0.000   0.000  -0.000   0.000  -0.000   0.000   0.000   0.000
  0.000   0.000   0.000   0.000   0.000   0.000   0.000   0.000   0.000   0.000  -0.000   0.000  -0.000   0.000  -0.000   0.000
  0.000   0.000   0.000   0.000  -0.000   0.000   0.000   0.000   0.000   0.000  -0.000   0.000  -0.000   0.000   0.000   0.000
 total augmentation occupancy for first ion, spin component:           1
  1.914  -0.000  -0.000   0.000   0.000   0.050   0.000   0.000   0.000   0.000  -0.000   0.000   0.000   0.000   0.000   0.000
 -0.000   1.914   0.000  -0.000   0.000  -0.000   0.050  -0.000   0.000   0.000   0.000   0.000   0.000   0.000   0.000   0.000
  0.000   0.000   1.965   0.000   0.000   0.000   0.000  -0.012  -0.000  -0.000   0.000   0.000   0.000   0.000   0.000   0.000
  0.000   0.000   0.000   1.914   0.000  -0.000  -0.000  -0.000   0.050  -0.000   0.000   0.000   0.000   0.000   0.000   0.000
  0.000  -0.000   0.000  -0.000   1.965  -0.000  -0.000   0.000   0.000  -0.012   0.000   0.000   0.000   0.000   0.000   0.000
  0.050   0.000  -0.000   0.000   0.000   0.439  -0.000  -0.000   0.000   0.000   0.000   0.000   0.000   0.000   0.000   0.000
  0.000   0.050   0.000  -0.000   0.000   0.000   0.439  -0.000  -0.000  -0.000   0.000   0.000   0.000   0.000   0.000   0.000
  0.000   0.000  -0.012   0.000   0.000   0.000  -0.000   0.346   0.000   0.000  -0.000   0.000   0.000   0.000   0.000   0.000
 -0.000   0.000  -0.000   0.050   0.000   0.000   0.000   0.000   0.439   0.000   0.000  -0.000   0.000   0.000   0.000   0.000
 -0.000   0.000   0.000  -0.000  -0.012   0.000  -0.000   0.000   0.000   0.346  -0.000   0.000   0.000   0.000   0.000   0.000
  0.000   0.000   0.000  -0.000   0.000   0.000   0.000  -0.000   0.000  -0.000   1.220  -0.571   0.000   0.000   0.000   0.000
  0.000   0.000   0.000  -0.000  -0.000   0.000   0.000  -0.000   0.000   0.000  -0.571   0.466   0.000   0.000   0.000   0.000
  0.000   0.000   0.000   0.000   0.000   0.000   0.000   0.000   0.000   0.000   0.000   0.000   0.266  -0.000   0.000  -0.020
  0.000   0.000   0.000   0.000   0.000   0.000   0.000   0.000   0.000   0.000   0.000   0.000  -0.000   0.266  -0.000   0.000
  0.000   0.000   0.000   0.000   0.000   0.000   0.000   0.000   0.000   0.000   0.000   0.000   0.000  -0.000   0.266  -0.000
  0.000   0.000   0.000   0.000   0.000   0.000   0.000   0.000   0.000   0.000   0.000   0.000  -0.020  -0.000   0.000   0.002
  0.000   0.000   0.000   0.000   0.000   0.000   0.000   0.000   0.000   0.000   0.000   0.000   0.000  -0.020  -0.000  -0.000
  0.000   0.000   0.000   0.000   0.000   0.000   0.000   0.000   0.000   0.000   0.000   0.000  -0.000  -0.000  -0.020   0.000


------------------------ aborting loop because EDIFF is reached ----------------------------------------


    CHARGE:  cpu time    0.0029: real time    0.0029
    FORLOC:  cpu time    0.0001: real time    0.0001
    FORNL :  cpu time    0.0070: real time    0.0070
    STRESS:  cpu time    0.0430: real time    0.0431
    FORCOR:  cpu time    0.0007: real time    0.0007
    FORHAR:  cpu time    0.0004: real time    0.0005
    MIXING:  cpu time    0.0004: real time    0.0003
    OFIELD:  cpu time    0.0000: real time    0.0000

  FORCE on cell =-STRESS in cart. coord.  units (eV):
  Direction    XX          YY          ZZ          XY          YZ          ZX
  --------------------------------------------------------------------------------------
  Alpha Z   133.97575   133.97575   133.97575
  Ewald    -350.37482  -350.37482  -350.37482    -0.00000     0.00000     0.00000
  Hartree    28.63366    28.63366    28.63366     0.00001     0.00001     0.00001
  E(xc)     -50.23882   -50.23882   -50.23882     0.00002     0.00002     0.00002
  Local      88.65601    88.65601    88.65601     0.00029     0.00029     0.00029
  n-local   -44.02060   -40.46026   -44.53856     0.71123    -0.62771     0.04552
  augment    41.89624    41.89624    41.89624    -0.00025    -0.00025    -0.00025
  Kinetic   155.79485   155.00713   157.02051    -0.05340     0.01598     0.04298
  Fock        0.00000     0.00000     0.00000     0.00000     0.00000     0.00000
  -------------------------------------------------------------------------------------
  Total       5.48239     5.48239     5.48239     0.00000     0.00000    -0.00000
  in kB     640.30910   640.30910   640.30910     0.00000     0.00000    -0.00000
  external pressure =      640.31 kB  Pullay stress =        0.00 kB


 VOLUME and BASIS-vectors are now :
 -----------------------------------------------------------------------------
  energy-cutoff  :      229.87
  volume of cell :       13.72
      direct lattice vectors                 reciprocal lattice vectors
     0.000000000  1.900000000  1.900000000    -0.263157895  0.263157895  0.263157895
     1.900000000  0.000000000  1.900000000     0.263157895 -0.263157895  0.263157895
     1.900000000  1.900000000  0.000000000     0.263157895  0.263157895 -0.263157895

  length of vectors
     2.687005769  2.687005769  2.687005769     0.455802844  0.455802844  0.455802844


 FORCES acting on ions
    electron-ion (+dipol)            ewald-force                    non-local-force                 convergence-correction
 -----------------------------------------------------------------------------------------------
   0.886E-14 0.990E-14 0.128E-13   -.107E-14 -.258E-15 0.532E-14   -.132E-22 -.199E-22 -.165E-22   0.131E-13 0.423E-15 -.285E-14
 -----------------------------------------------------------------------------------------------
   0.886E-14 0.990E-14 0.128E-13   -.107E-14 -.258E-15 0.532E-14   -.132E-22 -.199E-22 -.165E-22   0.131E-13 0.423E-15 -.285E-14
 
 
 POSITION                                       TOTAL-FORCE (eV/Angst)
 -----------------------------------------------------------------------------------
      0.00000      0.00000      0.00000        -0.000000     -0.000000     -0.000000
 -----------------------------------------------------------------------------------
    total drift:                                0.000000      0.000000      0.000000


--------------------------------------------------------------------------------------------------------



  FREE ENERGIE OF THE ION-ELECTRON SYSTEM (eV)
  ---------------------------------------------------
  free  energy   TOTEN  =        -3.87833413 eV

  energy  without entropy=       -3.87793485  energy(sigma->0) =       -3.87820104
 


--------------------------------------------------------------------------------------------------------


    POTLOK:  cpu time    0.0027: real time    0.0027


--------------------------------------------------------------------------------------------------------


 writing wavefunctions
     LOOP+:  cpu time    2.2474: real time    2.3282
    4ORBIT:  cpu time    0.0000: real time    0.0000

volume of typ            1:   103.7 %
 
total charge     
 
# of ion       s       p       d       tot
------------------------------------------
    1        0.687   0.717   8.966  10.369
 
orbital moment (x)
 
# of ion     s             p             d             tot
-----------------------------------------------------------------
    1     0.000000E+00  0.374558E-08 -0.321428E-08  0.531299E-09
 
orbital moment (y)
 
# of ion     s             p             d             tot
-----------------------------------------------------------------
    1     0.000000E+00  0.565565E-08  0.308854E-08  0.874419E-08
 
orbital moment (z)
 
# of ion     s             p             d             tot
-----------------------------------------------------------------
    1     0.000000E+00  0.459961E-08  0.330617E-08  0.790578E-08
 

 total amount of memory used by VASP MPI-rank0    32906. kBytes
=======================================================================

   base      :      30000. kBytes
   nonl-proj :       1839. kBytes
   fftplans  :        142. kBytes
   grid      :        192. kBytes
   one-center:         15. kBytes
   wavefun   :        718. kBytes
 
  
  
 General timing and accounting informations for this job:
 ========================================================
  
                  Total CPU time used (sec):        2.914
                            User time (sec):        2.302
                          System time (sec):        0.612
                         Elapsed time (sec):        3.717
  
                   Maximum memory used (kb):       54420.
                   Average memory used (kb):           0.
  
                          Minor page faults:        21028
                          Major page faults:           75
                 Voluntary context switches:         2377
