PROCAR new format
# of k-points:  110         # of bands:   12         # of ions:    1

 k-point     1 :    0.05000000 0.05000000 0.05000000     weight = 0.00200000

band     1 # energy   -3.57240097 # occ.  2.00000000
 
ion      s      p      d    tot
    1  0.841  0.007  0.000  0.848
 
band     2 # energy    2.65490435 # occ.  2.00000000
 
ion      s      p      d    tot
    1  0.000  0.002  0.975  0.977
 
band     3 # energy    2.74290528 # occ.  2.00000000
 
ion      s      p      d    tot
    1  0.000  0.000  0.977  0.978
 
band     4 # energy    2.74290528 # occ.  2.00000000
 
ion      s      p      d    tot
    1  0.000  0.000  0.977  0.978
 
band     5 # energy    4.91955012 # occ.  2.00000000
 
ion      s      p      d    tot
    1  0.000  0.000  0.978  0.978
 
band     6 # energy    4.91955012 # occ.  2.00000000
 
ion      s      p      d    tot
    1  0.000  0.000  0.978  0.978
 
band     7 # energy   24.09671568 # occ.  0.00000000
 
ion      s      p      d    tot
    1  0.000  0.000  0.011  0.011
 
band     8 # energy   28.41949933 # occ.  0.00000000
 
ion      s      p      d    tot
    1  0.011  0.152  0.011  0.173
 
band     9 # energy   29.28585821 # occ.  0.00000000
 
ion      s      p      d    tot
    1  0.000  0.166  0.009  0.175
 
band    10 # energy   29.28585821 # occ.  0.00000000
 
ion      s      p      d    tot
    1  0.000  0.166  0.009  0.175
 
band    11 # energy   34.61394849 # occ.  0.00000000
 
ion      s      p      d    tot
    1  0.039  0.038  0.006  0.083
 
band    12 # energy   39.81832699 # occ.  0.00000000
 
ion      s      p      d    tot
    1  0.007  0.204  0.511  0.721
 

 k-point     2 :    0.15000000 0.05000000 0.05000000     weight = 0.00600000

band     1 # energy   -3.01716948 # occ.  2.00000000
 
ion      s      p      d    tot
    1  0.802  0.043  0.005  0.850
 
band     2 # energy    2.42481777 # occ.  2.00000000
 
ion      s      p      d    tot
    1  0.001  0.010  0.958  0.969
 
band     3 # energy    2.93655894 # occ.  2.00000000
 
ion      s      p      d    tot
    1  0.000  0.000  0.974  0.974
 
band     4 # energy    2.98186067 # occ.  2.00000000
 
ion      s      p      d    tot
    1  0.001  0.007  0.966  0.974
 
band     5 # energy    4.68878952 # occ.  2.00000000
 
ion      s      p      d    tot
    1  0.000  0.000  0.970  0.971
 
band     6 # energy    4.98538434 # occ.  2.00000000
 
ion      s      p      d    tot
    1  0.001  0.001  0.973  0.974
 
band     7 # energy   24.83013185 # occ.  0.00000000
 
ion      s      p      d    tot
    1  0.000  0.006  0.074  0.081
 
band     8 # energy   26.34945905 # occ.  0.00000000
 
ion      s      p      d    tot
    1  0.038  0.143  0.044  0.225
 
band     9 # energy   29.24476994 # occ.  0.00000000
 
ion      s      p      d    tot
    1  0.000  0.223  0.057  0.281
 
band    10 # energy   30.46275080 # occ.  0.00000000
 
ion      s      p      d    tot
    1  0.000  0.152  0.053  0.204
 
band    11 # energy   35.20987571 # occ.  0.00000000
 
ion      s      p      d    tot
    1  0.001  0.316  0.191  0.508
 
band    12 # energy   38.20305076 # occ.  0.00000000
 
ion      s      p      d    tot
    1  0.006  0.209  0.324  0.539
 

 k-point     3 :    0.25000000 0.05000000 0.05000000     weight = 0.00600000

band     1 # energy   -1.85186389 # occ.  2.00000000
 
ion      s      p      d    tot
    1  0.687  0.097  0.078  0.863
 
band     2 # energy    2.23956611 # occ.  2.00000000
 
ion      s      p      d    tot
    1  0.022  0.062  0.865  0.950
 
band     3 # energy    3.14268369 # occ.  2.00000000
 
ion      s      p      d    tot
    1  0.002  0.013  0.952  0.967
 
band     4 # energy    3.17815375 # occ.  2.00000000
 
ion      s      p      d    tot
    1  0.000  0.001  0.968  0.969
 
band     5 # energy    4.68811775 # occ.  2.00000000
 
ion      s      p      d    tot
    1  0.000  0.002  0.960  0.962
 
band     6 # energy    5.28395383 # occ.  2.00000000
 
ion      s      p      d    tot
    1  0.004  0.006  0.957  0.967
 
band     7 # energy   22.91726042 # occ.  0.00000000
 
ion      s      p      d    tot
    1  0.094  0.229  0.161  0.484
 
band     8 # energy   25.70922766 # occ.  0.00000000
 
ion      s      p      d    tot
    1  0.000  0.025  0.149  0.175
 
band     9 # energy   30.11671421 # occ.  0.00000000
 
ion      s      p      d    tot
    1  0.002  0.329  0.150  0.480
 
band    10 # energy   32.33833090 # occ.  0.00000000
 
ion      s      p      d    tot
    1  0.028  0.269  0.069  0.366
 
band    11 # energy   32.52043451 # occ.  0.00000000
 
ion      s      p      d    tot
    1  0.000  0.174  0.164  0.338
 
band    12 # energy   35.88767113 # occ.  0.00000000
 
ion      s      p      d    tot
    1  0.000  0.326  0.277  0.603
 

 k-point     4 :    0.35000000 0.05000000 0.05000000     weight = 0.00600000

band     1 # energy   -0.92008052 # occ.  2.00000000
 
ion      s      p      d    tot
    1  0.445  0.066  0.397  0.907
 
band     2 # energy    2.87641909 # occ.  2.00000000
 
ion      s      p      d    tot
    1  0.026  0.046  0.885  0.957
 
band     3 # energy    3.00743282 # occ.  2.00000000
 
ion      s      p      d    tot
    1  0.000  0.000  0.965  0.965
 
band     4 # energy    3.10466528 # occ.  2.00000000
 
ion      s      p      d    tot
    1  0.096  0.215  0.592  0.904
 
band     5 # energy    5.39880020 # occ.  2.00000000
 
ion      s      p      d    tot
    1  0.000  0.004  0.956  0.961
 
band     6 # energy    6.09431204 # occ.  2.00000000
 
ion      s      p      d    tot
    1  0.015  0.022  0.927  0.964
 
band     7 # energy   18.93924239 # occ.  0.00000000
 
ion      s      p      d    tot
    1  0.204  0.282  0.248  0.734
 
band     8 # energy   24.80430273 # occ.  0.00000000
 
ion      s      p      d    tot
    1  0.002  0.050  0.094  0.145
 
band     9 # energy   29.38819715 # occ.  0.00000000
 
ion      s      p      d    tot
    1  0.010  0.478  0.147  0.635
 
band    10 # energy   31.96703886 # occ.  0.00000000
 
ion      s      p      d    tot
    1  0.000  0.479  0.131  0.610
 
band    11 # energy   33.45836607 # occ.  0.00000000
 
ion      s      p      d    tot
    1  0.019  0.085  0.138  0.242
 
band    12 # energy   35.17992302 # occ.  0.00000000
 
ion      s      p      d    tot
    1  0.000  0.018  0.398  0.417
 

 k-point     5 :    0.45000000 0.05000000 0.05000000     weight = 0.00600000

band     1 # energy   -0.76268517 # occ.  2.00000000
 
ion      s      p      d    tot
    1  0.279  0.015  0.647  0.941
 
band     2 # energy    2.66213056 # occ.  2.00000000
 
ion      s      p      d    tot
    1  0.000  0.003  0.960  0.963
 
band     3 # energy    2.76428320 # occ.  2.00000000
 
ion      s      p      d    tot
    1  0.000  0.000  0.964  0.964
 
band     4 # energy    4.98663575 # occ.  2.00000000
 
ion      s      p      d    tot
    1  0.077  0.428  0.359  0.864
 
band     5 # energy    6.28334312 # occ.  2.00000000
 
ion      s      p      d    tot
    1  0.000  0.002  0.967  0.969
 
band     6 # energy    7.10371155 # occ.  2.00000000
 
ion      s      p      d    tot
    1  0.039  0.143  0.758  0.941
 
band     7 # energy   14.94746996 # occ.  0.00000000
 
ion      s      p      d    tot
    1  0.374  0.170  0.333  0.878
 
band     8 # energy   23.69098002 # occ.  0.00000000
 
ion      s      p      d    tot
    1  0.000  0.034  0.028  0.063
 
band     9 # energy   28.03932627 # occ.  0.00000000
 
ion      s      p      d    tot
    1  0.007  0.489  0.058  0.554
 
band    10 # energy   29.25936524 # occ.  0.00000000
 
ion      s      p      d    tot
    1  0.000  0.476  0.045  0.521
 
band    11 # energy   36.17165833 # occ.  0.00000000
 
ion      s      p      d    tot
    1  0.010  0.019  0.440  0.469
 
band    12 # energy   36.90613214 # occ.  0.00000000
 
ion      s      p      d    tot
    1  0.000  0.008  0.628  0.636
 

 k-point     6 :   -0.45000000 0.05000000 0.05000000     weight = 0.00600000

band     1 # energy   -0.77952305 # occ.  2.00000000
 
ion      s      p      d    tot
    1  0.248  0.005  0.695  0.948
 
band     2 # energy    2.56648923 # occ.  2.00000000
 
ion      s      p      d    tot
    1  0.000  0.002  0.960  0.962
 
band     3 # energy    2.70913210 # occ.  2.00000000
 
ion      s      p      d    tot
    1  0.000  0.001  0.963  0.964
 
band     4 # energy    5.67783660 # occ.  2.00000000
 
ion      s      p      d    tot
    1  0.004  0.354  0.531  0.889
 
band     5 # energy    6.71517182 # occ.  2.00000000
 
ion      s      p      d    tot
    1  0.000  0.000  0.976  0.976
 
band     6 # energy    7.72028450 # occ.  2.00000000
 
ion      s      p      d    tot
    1  0.005  0.415  0.458  0.878
 
band     7 # energy   13.29042611 # occ. -0.00000000
 
ion      s      p      d    tot
    1  0.507  0.013  0.412  0.933
 
band     8 # energy   23.39081678 # occ.  0.00000000
 
ion      s      p      d    tot
    1  0.000  0.029  0.015  0.044
 
band     9 # energy   28.00511264 # occ.  0.00000000
 
ion      s      p      d    tot
    1  0.006  0.480  0.034  0.520
 
band    10 # energy   28.08874350 # occ.  0.00000000
 
ion      s      p      d    tot
    1  0.000  0.492  0.016  0.507
 
band    11 # energy   37.16441051 # occ.  0.00000000
 
ion      s      p      d    tot
    1  0.000  0.000  0.639  0.639
 
band    12 # energy   37.30414937 # occ.  0.00000000
 
ion      s      p      d    tot
    1  0.001  0.001  0.656  0.658
 

 k-point     7 :   -0.35000000 0.05000000 0.05000000     weight = 0.00600000

band     1 # energy   -0.77048809 # occ.  2.00000000
 
ion      s      p      d    tot
    1  0.314  0.026  0.594  0.933
 
band     2 # energy    2.70469117 # occ.  2.00000000
 
ion      s      p      d    tot
    1  0.000  0.001  0.961  0.962
 
band     3 # energy    2.86644780 # occ.  2.00000000
 
ion      s      p      d    tot
    1  0.000  0.003  0.962  0.965
 
band     4 # energy    4.26972907 # occ.  2.00000000
 
ion      s      p      d    tot
    1  0.113  0.373  0.385  0.872
 
band     5 # energy    6.40998530 # occ.  2.00000000
 
ion      s      p      d    tot
    1  0.000  0.002  0.970  0.972
 
band     6 # energy    6.42278515 # occ.  2.00000000
 
ion      s      p      d    tot
    1  0.037  0.097  0.812  0.946
 
band     7 # energy   16.18541463 # occ.  0.00000000
 
ion      s      p      d    tot
    1  0.309  0.231  0.299  0.839
 
band     8 # energy   23.99272666 # occ.  0.00000000
 
ion      s      p      d    tot
    1  0.001  0.037  0.040  0.079
 
band     9 # energy   28.66241761 # occ.  0.00000000
 
ion      s      p      d    tot
    1  0.000  0.499  0.077  0.576
 
band    10 # energy   29.63175739 # occ.  0.00000000
 
ion      s      p      d    tot
    1  0.010  0.452  0.093  0.555
 
band    11 # energy   36.07862426 # occ.  0.00000000
 
ion      s      p      d    tot
    1  0.000  0.000  0.425  0.426
 
band    12 # energy   36.13751008 # occ.  0.00000000
 
ion      s      p      d    tot
    1  0.012  0.072  0.363  0.447
 

 k-point     8 :   -0.25000000 0.05000000 0.05000000     weight = 0.00600000

band     1 # energy   -1.13650904 # occ.  2.00000000
 
ion      s      p      d    tot
    1  0.533  0.087  0.269  0.889
 
band     2 # energy    2.56953851 # occ.  2.00000000
 
ion      s      p      d    tot
    1  0.083  0.160  0.679  0.922
 
band     3 # energy    3.01675277 # occ.  2.00000000
 
ion      s      p      d    tot
    1  0.003  0.014  0.942  0.959
 
band     4 # energy    3.11744577 # occ.  2.00000000
 
ion      s      p      d    tot
    1  0.000  0.005  0.962  0.967
 
band     5 # energy    5.25128906 # occ.  2.00000000
 
ion      s      p      d    tot
    1  0.012  0.020  0.926  0.958
 
band     6 # energy    5.66463406 # occ.  2.00000000
 
ion      s      p      d    tot
    1  0.000  0.004  0.963  0.967
 
band     7 # energy   20.32135380 # occ.  0.00000000
 
ion      s      p      d    tot
    1  0.161  0.278  0.222  0.661
 
band     8 # energy   25.27222707 # occ.  0.00000000
 
ion      s      p      d    tot
    1  0.002  0.047  0.120  0.169
 
band     9 # energy   30.04898374 # occ.  0.00000000
 
ion      s      p      d    tot
    1  0.000  0.465  0.192  0.657
 
band    10 # energy   31.90865180 # occ.  0.00000000
 
ion      s      p      d    tot
    1  0.030  0.294  0.134  0.458
 
band    11 # energy   33.45030805 # occ.  0.00000000
 
ion      s      p      d    tot
    1  0.000  0.286  0.157  0.444
 
band    12 # energy   35.02216971 # occ.  0.00000000
 
ion      s      p      d    tot
    1  0.000  0.026  0.197  0.224
 

 k-point     9 :   -0.15000000 0.05000000 0.05000000     weight = 0.00600000

band     1 # energy   -2.27225651 # occ.  2.00000000
 
ion      s      p      d    tot
    1  0.737  0.083  0.036  0.856
 
band     2 # energy    2.23005483 # occ.  2.00000000
 
ion      s      p      d    tot
    1  0.009  0.033  0.916  0.959
 
band     3 # energy    3.13456387 # occ.  2.00000000
 
ion      s      p      d    tot
    1  0.001  0.007  0.961  0.969
 
band     4 # energy    3.15726643 # occ.  2.00000000
 
ion      s      p      d    tot
    1  0.000  0.007  0.964  0.971
 
band     5 # energy    4.62630514 # occ.  2.00000000
 
ion      s      p      d    tot
    1  0.003  0.003  0.957  0.963
 
band     6 # energy    5.11084671 # occ.  2.00000000
 
ion      s      p      d    tot
    1  0.000  0.001  0.969  0.970
 
band     7 # energy   24.12936336 # occ.  0.00000000
 
ion      s      p      d    tot
    1  0.068  0.202  0.139  0.409
 
band     8 # energy   25.60979849 # occ.  0.00000000
 
ion      s      p      d    tot
    1  0.001  0.004  0.105  0.109
 
band     9 # energy   29.98914259 # occ.  0.00000000
 
ion      s      p      d    tot
    1  0.000  0.287  0.137  0.424
 
band    10 # energy   31.18255189 # occ.  0.00000000
 
ion      s      p      d    tot
    1  0.000  0.170  0.113  0.283
 
band    11 # energy   33.68902941 # occ.  0.00000000
 
ion      s      p      d    tot
    1  0.027  0.336  0.097  0.459
 
band    12 # energy   36.27833272 # occ.  0.00000000
 
ion      s      p      d    tot
    1  0.000  0.181  0.245  0.426
 

 k-point    10 :   -0.05000000 0.05000000 0.05000000     weight = 0.00600000

band     1 # energy   -3.28901457 # occ.  2.00000000
 
ion      s      p      d    tot
    1  0.821  0.026  0.001  0.849
 
band     2 # energy    2.49506253 # occ.  2.00000000
 
ion      s      p      d    tot
    1  0.000  0.003  0.970  0.973
 
band     3 # energy    2.87636727 # occ.  2.00000000
 
ion      s      p      d    tot
    1  0.000  0.003  0.972  0.975
 
band     4 # energy    2.88443380 # occ.  2.00000000
 
ion      s      p      d    tot
    1  0.000  0.004  0.972  0.976
 
band     5 # energy    4.72805292 # occ.  2.00000000
 
ion      s      p      d    tot
    1  0.000  0.000  0.972  0.973
 
band     6 # energy    5.00214090 # occ.  2.00000000
 
ion      s      p      d    tot
    1  0.000  0.000  0.977  0.977
 
band     7 # energy   24.49795729 # occ.  0.00000000
 
ion      s      p      d    tot
    1  0.000  0.001  0.039  0.040
 
band     8 # energy   27.45918265 # occ.  0.00000000
 
ion      s      p      d    tot
    1  0.026  0.133  0.031  0.190
 
band     9 # energy   29.23208626 # occ.  0.00000000
 
ion      s      p      d    tot
    1  0.000  0.199  0.036  0.235
 
band    10 # energy   29.53883670 # occ.  0.00000000
 
ion      s      p      d    tot
    1  0.001  0.171  0.034  0.207
 
band    11 # energy   35.88282808 # occ.  0.00000000
 
ion      s      p      d    tot
    1  0.012  0.153  0.059  0.223
 
band    12 # energy   38.60006072 # occ.  0.00000000
 
ion      s      p      d    tot
    1  0.029  0.170  0.314  0.513
 

 k-point    11 :    0.15000000 0.15000000 0.05000000     weight = 0.00600000

band     1 # energy   -2.74244372 # occ.  2.00000000
 
ion      s      p      d    tot
    1  0.782  0.061  0.007  0.851
 
band     2 # energy    2.17914546 # occ.  2.00000000
 
ion      s      p      d    tot
    1  0.000  0.003  0.965  0.968
 
band     3 # energy    3.15717869 # occ.  2.00000000
 
ion      s      p      d    tot
    1  0.000  0.010  0.961  0.971
 
band     4 # energy    3.16296043 # occ.  2.00000000
 
ion      s      p      d    tot
    1  0.000  0.010  0.962  0.972
 
band     5 # energy    4.39499910 # occ.  2.00000000
 
ion      s      p      d    tot
    1  0.004  0.002  0.957  0.964
 
band     6 # energy    5.16141974 # occ.  2.00000000
 
ion      s      p      d    tot
    1  0.000  0.000  0.976  0.976
 
band     7 # energy   25.24327777 # occ.  0.00000000
 
ion      s      p      d    tot
    1  0.000  0.005  0.098  0.103
 
band     8 # energy   26.56744540 # occ.  0.00000000
 
ion      s      p      d    tot
    1  0.040  0.116  0.067  0.223
 
band     9 # energy   28.92887902 # occ.  0.00000000
 
ion      s      p      d    tot
    1  0.000  0.271  0.096  0.367
 
band    10 # energy   29.37812346 # occ.  0.00000000
 
ion      s      p      d    tot
    1  0.001  0.214  0.092  0.308
 
band    11 # energy   36.06158552 # occ.  0.00000000
 
ion      s      p      d    tot
    1  0.021  0.364  0.153  0.538
 
band    12 # energy   37.27402662 # occ.  0.00000000
 
ion      s      p      d    tot
    1  0.000  0.183  0.293  0.476
 

 k-point    12 :    0.25000000 0.15000000 0.05000000     weight = 0.01200000

band     1 # energy   -1.76510585 # occ.  2.00000000
 
ion      s      p      d    tot
    1  0.696  0.116  0.044  0.856
 
band     2 # energy    1.81990571 # occ.  2.00000000
 
ion      s      p      d    tot
    1  0.002  0.015  0.945  0.961
 
band     3 # energy    3.28033437 # occ.  2.00000000
 
ion      s      p      d    tot
    1  0.000  0.013  0.947  0.961
 
band     4 # energy    3.55297475 # occ.  2.00000000
 
ion      s      p      d    tot
    1  0.000  0.012  0.955  0.967
 
band     5 # energy    4.30491929 # occ.  2.00000000
 
ion      s      p      d    tot
    1  0.017  0.017  0.923  0.957
 
band     6 # energy    5.47395681 # occ.  2.00000000
 
ion      s      p      d    tot
    1  0.003  0.004  0.965  0.972
 
band     7 # energy   24.43498641 # occ.  0.00000000
 
ion      s      p      d    tot
    1  0.071  0.196  0.143  0.410
 
band     8 # energy   26.07962445 # occ.  0.00000000
 
ion      s      p      d    tot
    1  0.001  0.073  0.229  0.303
 
band     9 # energy   28.36254783 # occ.  0.00000000
 
ion      s      p      d    tot
    1  0.000  0.313  0.111  0.424
 
band    10 # energy   29.75045252 # occ.  0.00000000
 
ion      s      p      d    tot
    1  0.006  0.219  0.176  0.401
 
band    11 # energy   33.88863505 # occ.  0.00000000
 
ion      s      p      d    tot
    1  0.072  0.355  0.026  0.454
 
band    12 # energy   36.46210873 # occ.  0.00000000
 
ion      s      p      d    tot
    1  0.020  0.273  0.198  0.492
 

 k-point    13 :    0.35000000 0.15000000 0.05000000     weight = 0.01200000

band     1 # energy   -0.63840551 # occ.  2.00000000
 
ion      s      p      d    tot
    1  0.494  0.121  0.270  0.886
 
band     2 # energy    1.93653048 # occ.  2.00000000
 
ion      s      p      d    tot
    1  0.053  0.102  0.781  0.936
 
band     3 # energy    2.83219673 # occ.  2.00000000
 
ion      s      p      d    tot
    1  0.002  0.010  0.939  0.950
 
band     4 # energy    3.55978882 # occ.  2.00000000
 
ion      s      p      d    tot
    1  0.002  0.013  0.948  0.963
 
band     5 # energy    5.23510289 # occ.  2.00000000
 
ion      s      p      d    tot
    1  0.029  0.045  0.878  0.952
 
band     6 # energy    6.28429538 # occ.  2.00000000
 
ion      s      p      d    tot
    1  0.026  0.030  0.911  0.966
 
band     7 # energy   20.60201389 # occ.  0.00000000
 
ion      s      p      d    tot
    1  0.160  0.307  0.216  0.683
 
band     8 # energy   25.56198113 # occ.  0.00000000
 
ion      s      p      d    tot
    1  0.000  0.113  0.215  0.327
 
band     9 # energy   27.48129558 # occ.  0.00000000
 
ion      s      p      d    tot
    1  0.017  0.419  0.146  0.583
 
band    10 # energy   30.06587617 # occ.  0.00000000
 
ion      s      p      d    tot
    1  0.028  0.185  0.201  0.414
 
band    11 # energy   34.34660444 # occ.  0.00000000
 
ion      s      p      d    tot
    1  0.026  0.458  0.038  0.522
 
band    12 # energy   35.59276855 # occ.  0.00000000
 
ion      s      p      d    tot
    1  0.012  0.027  0.245  0.285
 

 k-point    14 :    0.45000000 0.15000000 0.05000000     weight = 0.01200000

band     1 # energy   -0.29866473 # occ.  2.00000000
 
ion      s      p      d    tot
    1  0.270  0.051  0.611  0.932
 
band     2 # energy    2.39254045 # occ.  2.00000000
 
ion      s      p      d    tot
    1  0.000  0.018  0.924  0.942
 
band     3 # energy    3.12530780 # occ.  2.00000000
 
ion      s      p      d    tot
    1  0.056  0.167  0.700  0.923
 
band     4 # energy    3.36507600 # occ.  2.00000000
 
ion      s      p      d    tot
    1  0.028  0.078  0.838  0.944
 
band     5 # energy    6.35459009 # occ.  2.00000000
 
ion      s      p      d    tot
    1  0.006  0.028  0.932  0.965
 
band     6 # energy    7.69912915 # occ.  2.00000000
 
ion      s      p      d    tot
    1  0.091  0.169  0.676  0.936
 
band     7 # energy   16.31640480 # occ.  0.00000000
 
ion      s      p      d    tot
    1  0.296  0.265  0.265  0.826
 
band     8 # energy   24.47677446 # occ.  0.00000000
 
ion      s      p      d    tot
    1  0.001  0.064  0.131  0.196
 
band     9 # energy   26.39722263 # occ.  0.00000000
 
ion      s      p      d    tot
    1  0.021  0.486  0.131  0.638
 
band    10 # energy   28.86330466 # occ.  0.00000000
 
ion      s      p      d    tot
    1  0.021  0.405  0.170  0.596
 
band    11 # energy   35.69525843 # occ.  0.00000000
 
ion      s      p      d    tot
    1  0.001  0.073  0.229  0.303
 
band    12 # energy   37.50639065 # occ.  0.00000000
 
ion      s      p      d    tot
    1  0.007  0.052  0.448  0.508
 

 k-point    15 :   -0.45000000 0.15000000 0.05000000     weight = 0.01200000

band     1 # energy   -0.30807743 # occ.  2.00000000
 
ion      s      p      d    tot
    1  0.212  0.031  0.704  0.946
 
band     2 # energy    2.21096319 # occ.  2.00000000
 
ion      s      p      d    tot
    1  0.000  0.016  0.928  0.944
 
band     3 # energy    3.12590218 # occ.  2.00000000
 
ion      s      p      d    tot
    1  0.000  0.008  0.952  0.959
 
band     4 # energy    4.27437679 # occ.  2.00000000
 
ion      s      p      d    tot
    1  0.004  0.286  0.616  0.906
 
band     5 # energy    6.63875977 # occ.  2.00000000
 
ion      s      p      d    tot
    1  0.001  0.001  0.972  0.974
 
band     6 # energy    9.59022701 # occ. -0.00010950
 
ion      s      p      d    tot
    1  0.009  0.459  0.406  0.874
 
band     7 # energy   13.17511389 # occ. -0.00000000
 
ion      s      p      d    tot
    1  0.512  0.026  0.376  0.914
 
band     8 # energy   23.91750044 # occ.  0.00000000
 
ion      s      p      d    tot
    1  0.001  0.067  0.119  0.187
 
band     9 # energy   26.07560509 # occ.  0.00000000
 
ion      s      p      d    tot
    1  0.032  0.471  0.137  0.641
 
band    10 # energy   27.60930654 # occ.  0.00000000
 
ion      s      p      d    tot
    1  0.002  0.472  0.053  0.527
 
band    11 # energy   36.85702647 # occ.  0.00000000
 
ion      s      p      d    tot
    1  0.004  0.007  0.519  0.530
 
band    12 # energy   37.78951919 # occ.  0.00000000
 
ion      s      p      d    tot
    1  0.001  0.004  0.459  0.464
 

 k-point    16 :   -0.35000000 0.15000000 0.05000000     weight = 0.01200000

band     1 # energy   -0.26569742 # occ.  2.00000000
 
ion      s      p      d    tot
    1  0.242  0.042  0.656  0.940
 
band     2 # energy    2.33076743 # occ.  2.00000000
 
ion      s      p      d    tot
    1  0.000  0.013  0.934  0.947
 
band     3 # energy    3.16057880 # occ.  2.00000000
 
ion      s      p      d    tot
    1  0.000  0.010  0.947  0.958
 
band     4 # energy    3.81869139 # occ.  2.00000000
 
ion      s      p      d    tot
    1  0.049  0.289  0.559  0.898
 
band     5 # energy    6.15067641 # occ.  2.00000000
 
ion      s      p      d    tot
    1  0.001  0.013  0.951  0.964
 
band     6 # energy    8.54773768 # occ.  2.01069676
 
ion      s      p      d    tot
    1  0.104  0.218  0.603  0.925
 
band     7 # energy   15.10506391 # occ.  0.00000000
 
ion      s      p      d    tot
    1  0.349  0.212  0.300  0.861
 
band     8 # energy   24.05603992 # occ.  0.00000000
 
ion      s      p      d    tot
    1  0.002  0.115  0.160  0.276
 
band     9 # energy   25.94586992 # occ.  0.00000000
 
ion      s      p      d    tot
    1  0.030  0.422  0.083  0.535
 
band    10 # energy   28.96647953 # occ.  0.00000000
 
ion      s      p      d    tot
    1  0.003  0.462  0.113  0.578
 
band    11 # energy   35.41543198 # occ.  0.00000000
 
ion      s      p      d    tot
    1  0.005  0.039  0.299  0.343
 
band    12 # energy   37.64759573 # occ.  0.00000000
 
ion      s      p      d    tot
    1  0.000  0.011  0.541  0.552
 

 k-point    17 :   -0.25000000 0.15000000 0.05000000     weight = 0.01200000

band     1 # energy   -0.38560171 # occ.  2.00000000
 
ion      s      p      d    tot
    1  0.412  0.101  0.391  0.904
 
band     2 # energy    2.32951663 # occ.  2.00000000
 
ion      s      p      d    tot
    1  0.070  0.134  0.729  0.933
 
band     3 # energy    2.73728400 # occ.  2.00000000
 
ion      s      p      d    tot
    1  0.008  0.051  0.876  0.935
 
band     4 # energy    3.43201692 # occ.  2.00000000
 
ion      s      p      d    tot
    1  0.004  0.011  0.944  0.959
 
band     5 # energy    5.12612234 # occ.  2.00000000
 
ion      s      p      d    tot
    1  0.007  0.019  0.930  0.956
 
band     6 # energy    7.01213506 # occ.  2.00000000
 
ion      s      p      d    tot
    1  0.060  0.061  0.841  0.962
 
band     7 # energy   19.19262744 # occ.  0.00000000
 
ion      s      p      d    tot
    1  0.204  0.303  0.231  0.738
 
band     8 # energy   24.77495610 # occ.  0.00000000
 
ion      s      p      d    tot
    1  0.002  0.185  0.248  0.436
 
band     9 # energy   26.96427731 # occ.  0.00000000
 
ion      s      p      d    tot
    1  0.029  0.352  0.068  0.450
 
band    10 # energy   31.11172397 # occ.  0.00000000
 
ion      s      p      d    tot
    1  0.010  0.234  0.181  0.426
 
band    11 # energy   33.26724273 # occ.  0.00000000
 
ion      s      p      d    tot
    1  0.000  0.262  0.133  0.394
 
band    12 # energy   36.55481567 # occ.  0.00000000
 
ion      s      p      d    tot
    1  0.007  0.111  0.368  0.485
 

 k-point    18 :   -0.15000000 0.15000000 0.05000000     weight = 0.01200000

band     1 # energy   -1.34776026 # occ.  2.00000000
 
ion      s      p      d    tot
    1  0.653  0.131  0.078  0.862
 
band     2 # energy    1.87997609 # occ.  2.00000000
 
ion      s      p      d    tot
    1  0.004  0.036  0.916  0.957
 
band     3 # energy    3.12090329 # occ.  2.00000000
 
ion      s      p      d    tot
    1  0.002  0.022  0.933  0.957
 
band     4 # energy    3.58452869 # occ.  2.00000000
 
ion      s      p      d    tot
    1  0.000  0.004  0.961  0.965
 
band     5 # energy    4.29877228 # occ.  2.00000000
 
ion      s      p      d    tot
    1  0.007  0.010  0.940  0.957
 
band     6 # energy    5.83917582 # occ.  2.00000000
 
ion      s      p      d    tot
    1  0.018  0.017  0.932  0.968
 
band     7 # energy   23.06379038 # occ.  0.00000000
 
ion      s      p      d    tot
    1  0.107  0.223  0.154  0.484
 
band     8 # energy   25.60696412 # occ.  0.00000000
 
ion      s      p      d    tot
    1  0.001  0.189  0.314  0.503
 
band     9 # energy   28.72029977 # occ.  0.00000000
 
ion      s      p      d    tot
    1  0.007  0.260  0.053  0.320
 
band    10 # energy   29.89008420 # occ.  0.00000000
 
ion      s      p      d    tot
    1  0.026  0.214  0.094  0.333
 
band    11 # energy   34.06417143 # occ.  0.00000000
 
ion      s      p      d    tot
    1  0.010  0.064  0.200  0.273
 
band    12 # energy   36.24521506 # occ.  0.00000000
 
ion      s      p      d    tot
    1  0.018  0.589  0.155  0.762
 

 k-point    19 :   -0.05000000 0.15000000 0.05000000     weight = 0.01200000

band     1 # energy   -2.49290427 # occ.  2.00000000
 
ion      s      p      d    tot
    1  0.761  0.075  0.016  0.852
 
band     2 # energy    2.18208114 # occ.  2.00000000
 
ion      s      p      d    tot
    1  0.001  0.014  0.950  0.965
 
band     3 # energy    3.15734992 # occ.  2.00000000
 
ion      s      p      d    tot
    1  0.001  0.012  0.956  0.969
 
band     4 # energy    3.17497870 # occ.  2.00000000
 
ion      s      p      d    tot
    1  0.000  0.005  0.966  0.971
 
band     5 # energy    4.45309802 # occ.  2.00000000
 
ion      s      p      d    tot
    1  0.003  0.002  0.958  0.964
 
band     6 # energy    5.16918186 # occ.  2.00000000
 
ion      s      p      d    tot
    1  0.002  0.002  0.970  0.973
 
band     7 # energy   25.21531018 # occ.  0.00000000
 
ion      s      p      d    tot
    1  0.039  0.135  0.143  0.316
 
band     8 # energy   25.53466124 # occ.  0.00000000
 
ion      s      p      d    tot
    1  0.016  0.037  0.075  0.128
 
band     9 # energy   28.96671536 # occ.  0.00000000
 
ion      s      p      d    tot
    1  0.000  0.281  0.092  0.373
 
band    10 # energy   30.82257057 # occ.  0.00000000
 
ion      s      p      d    tot
    1  0.000  0.175  0.119  0.294
 
band    11 # energy   34.12037309 # occ.  0.00000000
 
ion      s      p      d    tot
    1  0.024  0.322  0.139  0.484
 
band    12 # energy   37.36764626 # occ.  0.00000000
 
ion      s      p      d    tot
    1  0.000  0.195  0.236  0.432
 

 k-point    20 :    0.25000000 0.25000000 0.05000000     weight = 0.00600000

band     1 # energy   -1.13749303 # occ.  2.00000000
 
ion      s      p      d    tot
    1  0.608  0.146  0.104  0.858
 
band     2 # energy    1.31582303 # occ.  2.00000000
 
ion      s      p      d    tot
    1  0.000  0.003  0.958  0.961
 