<?xml version="1.0" encoding="ISO-8859-1"?>
<modeling>
 <generator>
  <i name="program" type="string">vasp </i>
  <i name="version" type="string">5.4.4.18Apr17-6-g9f103f2a35  </i>
  <i name="subversion" type="string">(build May 18 2018 14:42:58) complex            parallel </i>
  <i name="platform" type="string">LinuxIFC </i>
  <i name="date" type="string">2020 06 30 </i>
  <i name="time" type="string">13:40:34 </i>
 </generator>
 <incar>
  <i type="string" name="SYSTEM"> fcc Au</i>
  <i type="string" name="PREC">normal</i>
  <v name="RWIGS">      1.50300000</v>
  <v type="int" name="KPOINT_BSE">    -1     0     0     0</v>
 </incar>
 <structure name="primitive_cell" >
  <crystal>
   <varray name="basis" >
    <v>       0.00000000       1.90000000       1.90000000 </v>
    <v>       1.90000000       0.00000000       1.90000000 </v>
    <v>       1.90000000       1.90000000       0.00000000 </v>
   </varray>
   <i name="volume">     13.71800000 </i>
   <varray name="rec_basis" >
    <v>      -0.26315789       0.26315789       0.26315789 </v>
    <v>       0.26315789      -0.26315789       0.26315789 </v>
    <v>       0.26315789       0.26315789      -0.26315789 </v>
   </varray>
  </crystal>
  <varray name="positions" >
   <v>       0.00000000       0.00000000       0.00000000 </v>
  </varray>
 </structure>
 <varray name="primitive_index" >
  <v type="int" >        1 </v>
 </varray>
 <kpoints>
  <generation param="Monkhorst-Pack">
   <v type="int" name="divisions">      10       10       10 </v>
   <v name="usershift">      0.00000000       0.00000000       0.00000000 </v>
   <v name="genvec1">      0.10000000       0.00000000       0.00000000 </v>
   <v name="genvec2">      0.00000000       0.10000000       0.00000000 </v>
   <v name="genvec3">      0.00000000       0.00000000       0.10000000 </v>
   <v name="shift">      0.50000000       0.50000000       0.50000000 </v>
  </generation>
  <varray name="kpointlist" >
   <v>       0.05000000       0.05000000       0.05000000 </v>
   <v>       0.15000000       0.05000000       0.05000000 </v>
   <v>       0.25000000       0.05000000       0.05000000 </v>
   <v>       0.35000000       0.05000000       0.05000000 </v>
   <v>       0.45000000       0.05000000       0.05000000 </v>
   <v>      -0.45000000       0.05000000       0.05000000 </v>
   <v>      -0.35000000       0.05000000       0.05000000 </v>
   <v>      -0.25000000       0.05000000       0.05000000 </v>
   <v>      -0.15000000       0.05000000       0.05000000 </v>
   <v>      -0.05000000       0.05000000       0.05000000 </v>
   <v>       0.15000000       0.15000000       0.05000000 </v>
   <v>       0.25000000       0.15000000       0.05000000 </v>
   <v>       0.35000000       0.15000000       0.05000000 </v>
   <v>       0.45000000       0.15000000       0.05000000 </v>
   <v>      -0.45000000       0.15000000       0.05000000 </v>
   <v>      -0.35000000       0.15000000       0.05000000 </v>
   <v>      -0.25000000       0.15000000       0.05000000 </v>
   <v>      -0.15000000       0.15000000       0.05000000 </v>
   <v>      -0.05000000       0.15000000       0.05000000 </v>
   <v>       0.25000000       0.25000000       0.05000000 </v>
   <v>       0.35000000       0.25000000       0.05000000 </v>
   <v>       0.45000000       0.25000000       0.05000000 </v>
   <v>      -0.45000000       0.25000000       0.05000000 </v>
   <v>      -0.35000000       0.25000000       0.05000000 </v>
   <v>      -0.25000000       0.25000000       0.05000000 </v>
   <v>      -0.15000000       0.25000000       0.05000000 </v>
   <v>      -0.05000000       0.25000000       0.05000000 </v>
   <v>       0.35000000       0.35000000       0.05000000 </v>
   <v>       0.45000000       0.35000000       0.05000000 </v>
   <v>      -0.45000000       0.35000000       0.05000000 </v>
   <v>      -0.35000000       0.35000000       0.05000000 </v>
   <v>      -0.25000000       0.35000000       0.05000000 </v>
   <v>      -0.15000000       0.35000000       0.05000000 </v>
   <v>      -0.05000000       0.35000000       0.05000000 </v>
   <v>       0.45000000       0.45000000       0.05000000 </v>
   <v>      -0.45000000       0.45000000       0.05000000 </v>
   <v>      -0.35000000       0.45000000       0.05000000 </v>
   <v>      -0.25000000       0.45000000       0.05000000 </v>
   <v>      -0.15000000       0.45000000       0.05000000 </v>
   <v>      -0.05000000       0.45000000       0.05000000 </v>
   <v>      -0.45000000      -0.45000000       0.05000000 </v>
   <v>      -0.35000000      -0.45000000       0.05000000 </v>
   <v>      -0.25000000      -0.45000000       0.05000000 </v>
   <v>      -0.15000000      -0.45000000       0.05000000 </v>
   <v>      -0.35000000      -0.35000000       0.05000000 </v>
   <v>      -0.25000000      -0.35000000       0.05000000 </v>
   <v>      -0.15000000      -0.35000000       0.05000000 </v>
   <v>      -0.25000000      -0.25000000       0.05000000 </v>
   <v>      -0.15000000      -0.25000000       0.05000000 </v>
   <v>      -0.15000000      -0.15000000       0.05000000 </v>
   <v>       0.15000000       0.15000000       0.15000000 </v>
   <v>       0.25000000       0.15000000       0.15000000 </v>
   <v>       0.35000000       0.15000000       0.15000000 </v>
   <v>       0.45000000       0.15000000       0.15000000 </v>
   <v>      -0.45000000       0.15000000       0.15000000 </v>
   <v>      -0.35000000       0.15000000       0.15000000 </v>
   <v>      -0.25000000       0.15000000       0.15000000 </v>
   <v>      -0.15000000       0.15000000       0.15000000 </v>
   <v>       0.25000000       0.25000000       0.15000000 </v>
   <v>       0.35000000       0.25000000       0.15000000 </v>
   <v>       0.45000000       0.25000000       0.15000000 </v>
   <v>      -0.45000000       0.25000000       0.15000000 </v>
   <v>      -0.35000000       0.25000000       0.15000000 </v>
   <v>      -0.25000000       0.25000000       0.15000000 </v>
   <v>      -0.15000000       0.25000000       0.15000000 </v>
   <v>       0.35000000       0.35000000       0.15000000 </v>
   <v>       0.45000000       0.35000000       0.15000000 </v>
   <v>      -0.45000000       0.35000000       0.15000000 </v>
   <v>      -0.35000000       0.35000000       0.15000000 </v>
   <v>      -0.25000000       0.35000000       0.15000000 </v>
   <v>      -0.15000000       0.35000000       0.15000000 </v>
   <v>       0.45000000       0.45000000       0.15000000 </v>
   <v>      -0.45000000       0.45000000       0.15000000 </v>
   <v>      -0.35000000       0.45000000       0.15000000 </v>
   <v>      -0.25000000       0.45000000       0.15000000 </v>
   <v>      -0.15000000       0.45000000       0.15000000 </v>
   <v>      -0.45000000      -0.45000000       0.15000000 </v>
   <v>      -0.35000000      -0.45000000       0.15000000 </v>
   <v>      -0.25000000      -0.45000000       0.15000000 </v>
   <v>      -0.35000000      -0.35000000       0.15000000 </v>
   <v>      -0.25000000      -0.35000000       0.15000000 </v>
   <v>      -0.25000000      -0.25000000       0.15000000 </v>
   <v>       0.25000000       0.25000000       0.25000000 </v>
   <v>       0.35000000       0.25000000       0.25000000 </v>
   <v>       0.45000000       0.25000000       0.25000000 </v>
   <v>      -0.45000000       0.25000000       0.25000000 </v>
   <v>      -0.35000000       0.25000000       0.25000000 </v>
   <v>      -0.25000000       0.25000000       0.25000000 </v>
   <v>       0.35000000       0.35000000       0.25000000 </v>
   <v>       0.45000000       0.35000000       0.25000000 </v>
   <v>      -0.45000000       0.35000000       0.25000000 </v>
   <v>      -0.35000000       0.35000000       0.25000000 </v>
   <v>      -0.25000000       0.35000000       0.25000000 </v>
   <v>       0.45000000       0.45000000       0.25000000 </v>
   <v>      -0.45000000       0.45000000       0.25000000 </v>
   <v>      -0.35000000       0.45000000       0.25000000 </v>
   <v>      -0.25000000       0.45000000       0.25000000 </v>
   <v>      -0.45000000      -0.45000000       0.25000000 </v>
   <v>      -0.35000000      -0.45000000       0.25000000 </v>
   <v>      -0.35000000      -0.35000000       0.25000000 </v>
   <v>       0.35000000       0.35000000       0.35000000 </v>
   <v>       0.45000000       0.35000000       0.35000000 </v>
   <v>      -0.45000000       0.35000000       0.35000000 </v>
   <v>      -0.35000000       0.35000000       0.35000000 </v>
   <v>       0.45000000       0.45000000       0.35000000 </v>
   <v>      -0.45000000       0.45000000       0.35000000 </v>
   <v>      -0.35000000       0.45000000       0.35000000 </v>
   <v>      -0.45000000      -0.45000000       0.35000000 </v>
   <v>       0.45000000       0.45000000       0.45000000 </v>
   <v>      -0.45000000       0.45000000       0.45000000 </v>
  </varray>
  <varray name="weights" >
   <v>       0.00200000 </v>
   <v>       0.00600000 </v>
   <v>       0.00600000 </v>
   <v>       0.00600000 </v>
   <v>       0.00600000 </v>
   <v>       0.00600000 </v>
   <v>       0.00600000 </v>
   <v>       0.00600000 </v>
   <v>       0.00600000 </v>
   <v>       0.00600000 </v>
   <v>       0.00600000 </v>
   <v>       0.01200000 </v>
   <v>       0.01200000 </v>
   <v>       0.01200000 </v>
   <v>       0.01200000 </v>
   <v>       0.01200000 </v>
   <v>       0.01200000 </v>
   <v>       0.01200000 </v>
   <v>       0.01200000 </v>
   <v>       0.00600000 </v>
   <v>       0.01200000 </v>
   <v>       0.01200000 </v>
   <v>       0.01200000 </v>
   <v>       0.01200000 </v>
   <v>       0.01200000 </v>
   <v>       0.01200000 </v>
   <v>       0.01200000 </v>
   <v>       0.00600000 </v>
   <v>       0.01200000 </v>
   <v>       0.01200000 </v>
   <v>       0.01200000 </v>
   <v>       0.01200000 </v>
   <v>       0.01200000 </v>
   <v>       0.01200000 </v>
   <v>       0.00600000 </v>
   <v>       0.01200000 </v>
   <v>       0.01200000 </v>
   <v>       0.01200000 </v>
   <v>       0.01200000 </v>
   <v>       0.01200000 </v>
   <v>       0.00600000 </v>
   <v>       0.01200000 </v>
   <v>       0.01200000 </v>
   <v>       0.01200000 </v>
   <v>       0.00600000 </v>
   <v>       0.01200000 </v>
   <v>       0.01200000 </v>
   <v>       0.00600000 </v>
   <v>       0.01200000 </v>
   <v>       0.00600000 </v>
   <v>       0.00200000 </v>
   <v>       0.00600000 </v>
   <v>       0.00600000 </v>
   <v>       0.00600000 </v>
   <v>       0.00600000 </v>
   <v>       0.00600000 </v>
   <v>       0.00600000 </v>
   <v>       0.00600000 </v>
   <v>       0.00600000 </v>
   <v>       0.01200000 </v>
   <v>       0.01200000 </v>
   <v>       0.01200000 </v>
   <v>       0.01200000 </v>
   <v>       0.01200000 </v>
   <v>       0.01200000 </v>
   <v>       0.00600000 </v>
   <v>       0.01200000 </v>
   <v>       0.01200000 </v>
   <v>       0.01200000 </v>
   <v>       0.01200000 </v>
   <v>       0.01200000 </v>
   <v>       0.00600000 </v>
   <v>       0.01200000 </v>
   <v>       0.01200000 </v>
   <v>       0.01200000 </v>
   <v>       0.01200000 </v>
   <v>       0.00600000 </v>
   <v>       0.01200000 </v>
   <v>       0.01200000 </v>
   <v>       0.00600000 </v>
   <v>       0.01200000 </v>
   <v>       0.00600000 </v>
   <v>       0.00200000 </v>
   <v>       0.00600000 </v>
   <v>       0.00600000 </v>
   <v>       0.00600000 </v>
   <v>       0.00600000 </v>
   <v>       0.00600000 </v>
   <v>       0.00600000 </v>
   <v>       0.01200000 </v>
   <v>       0.01200000 </v>
   <v>       0.01200000 </v>
   <v>       0.01200000 </v>
   <v>       0.00600000 </v>
   <v>       0.01200000 </v>
   <v>       0.01200000 </v>
   <v>       0.01200000 </v>
   <v>       0.00600000 </v>
   <v>       0.01200000 </v>
   <v>       0.00600000 </v>
   <v>       0.00200000 </v>
   <v>       0.00600000 </v>
   <v>       0.00600000 </v>
   <v>       0.00600000 </v>
   <v>       0.00600000 </v>
   <v>       0.01200000 </v>
   <v>       0.01200000 </v>
   <v>       0.00600000 </v>
   <v>       0.00200000 </v>
   <v>       0.00600000 </v>
  </varray>
 </kpoints>
 <parameters>
  <separator name="general" >
   <i type="string" name="SYSTEM">fcc Au</i>
   <i type="logical" name="LCOMPAT"> F  </i>
  </separator>
  <separator name="electronic" >
   <i type="string" name="PREC">normal</i>
   <i name="ENMAX">    229.86900000</i>
   <i name="ENAUG">    356.67000000</i>
   <i name="EDIFF">      0.00010000</i>
   <i type="int" name="IALGO">    38</i>
   <i type="int" name="IWAVPR">    10</i>
   <i type="int" name="NBANDS">    12</i>
   <i name="NELECT">     11.00000000</i>
   <i type="int" name="TURBO">     0</i>
   <i type="int" name="IRESTART">     0</i>
   <i type="int" name="NREBOOT">     0</i>
   <i type="int" name="NMIN">     0</i>
   <i name="EREF">      0.00000000</i>
   <separator name="electronic smearing" >
    <i type="int" name="ISMEAR">     1</i>
    <i name="SIGMA">      0.20000000</i>
    <i name="KSPACING">      0.50000000</i>
    <i type="logical" name="KGAMMA"> T  </i>
   </separator>
   <separator name="electronic projectors" >
    <i type="logical" name="LREAL"> F  </i>
    <v name="ROPT">      0.00000000</v>
    <i type="int" name="LMAXPAW">  -100</i>
    <i type="int" name="LMAXMIX">     2</i>
    <i type="logical" name="NLSPLINE"> F  </i>
   </separator>
   <separator name="electronic startup" >
    <i type="int" name="ISTART">     0</i>
    <i type="int" name="ICHARG">     2</i>
    <i type="int" name="INIWAV">     1</i>
   </separator>
   <separator name="electronic spin" >
    <i type="int" name="ISPIN">     1</i>
    <i type="logical" name="LNONCOLLINEAR"> F  </i>
    <v name="MAGMOM">      1.00000000</v>
    <i name="NUPDOWN">     -1.00000000</i>
    <i type="logical" name="LSORBIT"> F  </i>
    <v name="SAXIS">      0.00000000      0.00000000      1.00000000</v>
    <i type="logical" name="LSPIRAL"> F  </i>
    <v name="QSPIRAL">      0.00000000      0.00000000      0.00000000</v>
    <i type="logical" name="LZEROZ"> F  </i>
   </separator>
   <separator name="electronic exchange-correlation" >
    <i type="logical" name="LASPH"> F  </i>
    <i type="logical" name="LMETAGGA"> F  </i>
   </separator>
   <separator name="electronic convergence" >
    <i type="int" name="NELM">    60</i>
    <i type="int" name="NELMDL">    -5</i>
    <i type="int" name="NELMIN">     2</i>
    <i name="ENINI">    229.86900000</i>
    <separator name="electronic convergence detail" >
     <i type="logical" name="LDIAG"> T  </i>
     <i type="logical" name="LSUBROT"> F  </i>
     <i name="WEIMIN">      0.00000000</i>
     <i name="EBREAK">      0.00000208</i>
     <i name="DEPER">      0.30000000</i>
     <i type="int" name="NRMM">     4</i>
     <i name="TIME">      0.40000000</i>
    </separator>
   </separator>
   <separator name="electronic mixer" >
    <i name="AMIX">      0.40000000</i>
    <i name="BMIX">      1.00000000</i>
    <i name="AMIN">      0.10000000</i>
    <i name="AMIX_MAG">      1.60000000</i>
    <i name="BMIX_MAG">      1.00000000</i>
    <separator name="electronic mixer details" >
     <i type="int" name="IMIX">     4</i>
     <i type="logical" name="MIXFIRST"> F  </i>
     <i type="int" name="MAXMIX">   -45</i>
     <i name="WC">    100.00000000</i>
     <i type="int" name="INIMIX">     1</i>
     <i type="int" name="MIXPRE">     1</i>
     <i type="int" name="MREMOVE">     5</i>
    </separator>
   </separator>
   <separator name="electronic dipolcorrection" >
    <i type="logical" name="LDIPOL"> F  </i>
    <i type="logical" name="LMONO"> F  </i>
    <i type="int" name="IDIPOL">     0</i>
    <i name="EPSILON">      1.00000000</i>
    <v name="DIPOL">   -100.00000000   -100.00000000   -100.00000000</v>
    <i name="EFIELD">      0.00000000</i>
   </separator>
  </separator>
  <separator name="grids" >
   <i type="int" name="NGX">    10</i>
   <i type="int" name="NGY">    10</i>
   <i type="int" name="NGZ">    10</i>
   <i type="int" name="NGXF">    20</i>
   <i type="int" name="NGYF">    20</i>
   <i type="int" name="NGZF">    20</i>
   <i type="logical" name="ADDGRID"> F  </i>
  </separator>
  <separator name="ionic" >
   <i type="int" name="NSW">     0</i>
   <i type="int" name="IBRION">    -1</i>
   <i type="int" name="MDALGO">     0</i>
   <i type="int" name="ISIF">     2</i>
   <i name="PSTRESS">      0.00000000</i>
   <i name="EDIFFG">      0.00100000</i>
   <i type="int" name="NFREE">     0</i>
   <i name="POTIM">      0.50000000</i>
   <i name="SMASS">     -3.00000000</i>
   <i name="SCALEE">      1.00000000</i>
  </separator>
  <separator name="ionic md" >
   <i name="TEBEG">      0.00010000</i>
   <i name="TEEND">      0.00010000</i>
   <i type="int" name="NBLOCK">     1</i>
   <i type="int" name="KBLOCK">     1</i>
   <i type="int" name="NPACO">   256</i>
   <i name="APACO">     16.00000000</i>
  </separator>
  <separator name="symmetry" >
   <i type="int" name="ISYM">     2</i>
   <i name="SYMPREC">      0.00001000</i>
  </separator>
  <separator name="dos" >
   <i type="int" name="LORBIT">     0</i>
   <v name="RWIGS">      1.50300000</v>
   <i type="int" name="NEDOS">   301</i>
   <i name="EMIN">     10.00000000</i>
   <i name="EMAX">    -10.00000000</i>
   <i name="EFERMI">      0.00000000</i>
  </separator>
  <separator name="writing" >
   <i type="int" name="NWRITE">     2</i>
   <i type="logical" name="LWAVE"> T  </i>
   <i type="logical" name="LDOWNSAMPLE"> F  </i>
   <i type="logical" name="LCHARG"> T  </i>
   <i type="logical" name="LPARD"> F  </i>
   <i type="logical" name="LVTOT"> F  </i>
   <i type="logical" name="LVHAR"> F  </i>
   <i type="logical" name="LELF"> F  </i>
   <i type="logical" name="LOPTICS"> F  </i>
   <v name="STM">      0.00000000      0.00000000      0.00000000      0.00000000      0.00000000      0.00000000      0.00000000</v>
  </separator>
  <separator name="performance" >
   <i type="int" name="NPAR">     4</i>
   <i type="int" name="NSIM">     4</i>
   <i type="int" name="NBLK">    -1</i>
   <i type="logical" name="LPLANE"> T  </i>
   <i type="logical" name="LSCALAPACK"> T  </i>
   <i type="logical" name="LSCAAWARE"> F  </i>
   <i type="logical" name="LSCALU"> F  </i>
   <i type="logical" name="LASYNC"> F  </i>
   <i type="logical" name="LORBITALREAL"> F  </i>
  </separator>
  <separator name="miscellaneous" >
   <i type="int" name="IDIOT">     3</i>
   <i type="int" name="ISPECIAL">     0</i>
   <i type="logical" name="LMUSIC"> F  </i>
   <v name="POMASS">    196.96600000</v>
   <v name="DARWINR">      0.00000000</v>
   <v name="DARWINV">      1.00000000</v>
   <i type="logical" name="LCORR"> T  </i>
  </separator>
  <i type="logical" name="GGA_COMPAT"> T  </i>
  <i type="logical" name="LBERRY"> F  </i>
  <i type="int" name="ICORELEVEL">     0</i>
  <i type="logical" name="LDAU"> F  </i>
  <i type="int" name="I_CONSTRAINED_M">     0</i>
  <separator name="electronic exchange-correlation" >
   <i type="string" name="GGA">--</i>
   <i type="int" name="VOSKOWN">     0</i>
   <i type="logical" name="LHFCALC"> F  </i>
   <i type="string" name="PRECFOCK"></i>
   <i type="logical" name="LSYMGRAD"> F  </i>
   <i type="logical" name="LHFONE"> F  </i>
   <i type="logical" name="LRHFCALC"> F  </i>
   <i type="logical" name="LTHOMAS"> F  </i>
   <i type="logical" name="LMODELHF"> F  </i>
   <i name="ENCUT4O">     -1.00000000</i>
   <i type="int" name="EXXOEP">     0</i>
   <i type="int" name="FOURORBIT">     0</i>
   <i name="AEXX">      0.00000000</i>
   <i name="HFALPHA">      0.00000000</i>
   <i name="MCALPHA">      0.00000000</i>
   <i name="ALDAX">      1.00000000</i>
   <i name="AGGAX">      1.00000000</i>
   <i name="ALDAC">      1.00000000</i>
   <i name="AGGAC">      1.00000000</i>
   <i type="int" name="NKREDX">     1</i>
   <i type="int" name="NKREDY">     1</i>
   <i type="int" name="NKREDZ">     1</i>
   <i type="logical" name="SHIFTRED"> F  </i>
   <i type="logical" name="ODDONLY"> F  </i>
   <i type="logical" name="EVENONLY"> F  </i>
   <i type="int" name="LMAXFOCK">     0</i>
   <i type="int" name="NMAXFOCKAE">     0</i>
   <i type="logical" name="LFOCKAEDFT"> F  </i>
   <i name="HFSCREEN">      0.00000000</i>
   <i name="HFSCREENC">      0.00000000</i>
   <i type="int" name="NBANDSGWLOW">     0</i>
  </separator>
  <separator name="vdW DFT" >
   <i type="logical" name="LUSE_VDW"> F  </i>
   <i name="Zab_VDW">     -0.84910000</i>
   <i name="PARAM1">      0.12340000</i>
   <i name="PARAM2">      1.00000000</i>
   <i name="PARAM3">      0.00000000</i>
  </separator>
  <separator name="model GW" >
   <i type="int" name="MODEL_GW">     0</i>
   <i name="MODEL_EPS0">      8.23080000</i>
   <i name="MODEL_ALPHA">      1.00000000</i>
  </separator>
  <separator name="linear response parameters" >
   <i type="logical" name="LEPSILON"> F  </i>
   <i type="logical" name="LRPA"> F  </i>
   <i type="logical" name="LNABLA"> F  </i>
   <i type="logical" name="LVEL"> F  </i>
   <i type="int" name="KINTER">     0</i>
   <i name="CSHIFT">      0.10000000</i>
   <i name="OMEGAMAX">     -1.00000000</i>
   <i name="DEG_THRESHOLD">      0.00200000</i>
   <i name="RTIME">     -0.10000000</i>
   <i name="WPLASMAI">      0.00000000</i>
   <v name="DFIELD">      0.00000000      0.00000000      0.00000000</v>
   <v name="WPLASMA">      0.00000000      0.00000000      0.00000000      0.00000000      0.00000000      0.00000000      0.00000000      0.00000000      0.00000000</v>
  </separator>
  <separator name="orbital magnetization" >
   <i type="logical" name="NUCIND"> F  </i>
   <v name="MAGPOS">      0.00000000      0.00000000      0.00000000</v>
   <i type="logical" name="LNICSALL"> T  </i>
   <i type="logical" name="ORBITALMAG"> F  </i>
   <i type="logical" name="LMAGBLOCH"> F  </i>
   <i type="logical" name="LCHIMAG"> F  </i>
   <i type="logical" name="LGAUGE"> T  </i>
   <i type="int" name="MAGATOM">     0</i>
   <v name="MAGDIPOL">      0.00000000      0.00000000      0.00000000</v>
   <v name="AVECCONST">      0.00000000      0.00000000      0.00000000</v>
  </separator>
  <separator name="response functions" >
   <i type="logical" name="LADDER"> F  </i>
   <i type="logical" name="LRPAFORCE"> F  </i>
   <i type="logical" name="LFXC"> F  </i>
   <i type="logical" name="LHARTREE"> T  </i>
   <i type="int" name="IBSE">     0</i>
   <v type="int" name="KPOINT">    -1     0     0     0</v>
   <i type="logical" name="LTCTE"> F  </i>
   <i type="logical" name="LTETE"> F  </i>
   <i type="logical" name="LTRIPLET"> F  </i>
   <i type="logical" name="LFXCEPS"> F  </i>
   <i type="logical" name="LFXHEG"> F  </i>
   <i type="int" name="NATURALO">     2</i>
   <i type="logical" name="L2ORDER"> F  </i>
   <i type="logical" name="LMP2LT"> F  </i>
   <i type="logical" name="LUSEW"> F  </i>
   <i name="ENCUTGW">     -2.00000000</i>
   <i name="ENCUTGWSOFT">     -2.00000000</i>
   <i name="ENCUTLF">     -1.00000000</i>
   <i type="int" name="LMAXMP2">    -1</i>
   <i name="SCISSOR">      0.00000000</i>
   <i type="int" name="NOMEGA">     0</i>
   <i type="int" name="NOMEGAR">     0</i>
   <i type="int" name="NBANDSGW">    -1</i>
   <i type="int" name="NBANDSO">    -1</i>
   <i type="int" name="NBANDSV">    -1</i>
   <i type="int" name="NELM">     1</i>
   <i type="int" name="NELMHF">     1</i>
   <i type="int" name="DIM">     3</i>
   <i type="int" name="ANTIRES">     0</i>
   <i name="OMEGAMAX">    -30.00000000</i>
   <i name="OMEGAMIN">    -30.00000000</i>
   <i name="OMEGATL">   -200.00000000</i>
   <i type="int" name="OMEGAGRID">   140</i>
   <i name="CSHIFT">     -0.10000000</i>
   <i type="logical" name="SELFENERGY"> F  </i>
   <i type="logical" name="LSPECTRAL"> F  </i>
   <i type="logical" name="LSPECTRALGW"> F  </i>
   <i type="logical" name="LSINGLES"> F  </i>
   <i type="logical" name="LFERMIGW"> F  </i>
   <i type="logical" name="ODDONLYGW"> F  </i>
   <i type="logical" name="EVENONLYGW"> F  </i>
   <i type="int" name="NKREDLFX">     1</i>
   <i type="int" name="NKREDLFY">     1</i>
   <i type="int" name="NKREDLFZ">     1</i>
   <i type="int" name="MAXMEM">  2800</i>
   <i type="int" name="TELESCOPE">     0</i>
   <i type="int" name="TAUPAR">     1</i>
   <i type="int" name="OMEGAPAR">    -1</i>
   <i name="LAMBDA">      1.00000000</i>
  </separator>
  <separator name="External order field" >
   <i name="OFIELD_KAPPA">      0.00000000</i>
   <v name="OFIELD_K">      0.00000000      0.00000000      0.00000000</v>
   <i name="OFIELD_Q6_NEAR">      0.00000000</i>
   <i name="OFIELD_Q6_FAR">      0.00000000</i>
   <i name="OFIELD_A">      0.00000000</i>
  </separator>
 </parameters>
 <atominfo>
  <atoms>       1 </atoms>
  <types>       1 </types>
  <array name="atoms" >
   <dimension dim="1">ion</dimension>
   <field type="string">element</field>
   <field type="int">atomtype</field>
   <set>
    <rc><c>Au</c><c>   1</c></rc>
   </set>
  </array>
  <array name="atomtypes" >
   <dimension dim="1">type</dimension>
   <field type="int">atomspertype</field>
   <field type="string">element</field>
   <field>mass</field>
   <field>valence</field>
   <field type="string">pseudopotential</field>
   <set>
    <rc><c>   1</c><c>Au</c><c>    196.96600000</c><c>     11.00000000</c><c> PAW Au 04Feb1998                       </c></rc>
   </set>
  </array>
 </atominfo>
 <structure name="initialpos" >
  <crystal>
   <varray name="basis" >
    <v>       0.00000000       1.90000000       1.90000000 </v>
    <v>       1.90000000       0.00000000       1.90000000 </v>
    <v>       1.90000000       1.90000000       0.00000000 </v>
   </varray>
   <i name="volume">     13.71800000 </i>
   <varray name="rec_basis" >
    <v>      -0.26315789       0.26315789       0.26315789 </v>
    <v>       0.26315789      -0.26315789       0.26315789 </v>
    <v>       0.26315789       0.26315789      -0.26315789 </v>
   </varray>
  </crystal>
  <varray name="positions" >
   <v>       0.00000000       0.00000000       0.00000000 </v>
  </varray>
 </structure>
 <calculation>
  <scstep>
   <time name="dav">    0.25    0.27</time>
   <time name="total">    0.26    0.28</time>
   <energy>
    <i name="alphaZ">    133.97575011 </i>
    <i name="ewald">  -1051.12442154 </i>
    <i name="hartreedc">    -96.40115791 </i>
    <i name="XCdc">     17.07666435 </i>
    <i name="pawpsdc">    746.10209728 </i>
    <i name="pawaedc">   -725.46159323 </i>
    <i name="eentropy">     -0.00057256 </i>
    <i name="bandstr">     78.13983792 </i>
    <i name="atom">    929.39614979 </i>
    <i name="e_fr_energy">     31.70275421 </i>
    <i name="e_wo_entrp">     31.70332677 </i>
    <i name="e_0_energy">     31.70294507 </i>
   </energy>
  </scstep>
  <scstep>
   <time name="dav">    0.23    0.23</time>
   <time name="total">    0.23    0.23</time>
   <energy>
    <i name="e_fr_energy">     -3.86924504 </i>
    <i name="e_wo_entrp">     -3.86815656 </i>
    <i name="e_0_energy">     -3.86888221 </i>
   </energy>
  </scstep>
  <scstep>
   <time name="dav">    0.24    0.25</time>
   <time name="total">    0.24    0.25</time>
   <energy>
    <i name="e_fr_energy">     -4.17023716 </i>
    <i name="e_wo_entrp">     -4.16918976 </i>
    <i name="e_0_energy">     -4.16988803 </i>
   </energy>
  </scstep>
  <scstep>
   <time name="dav">    0.25    0.26</time>
   <time name="total">    0.25    0.26</time>
   <energy>
    <i name="e_fr_energy">     -4.17103072 </i>
    <i name="e_wo_entrp">     -4.16998315 </i>
    <i name="e_0_energy">     -4.17068153 </i>
   </energy>
  </scstep>
  <scstep>
   <time name="dav">    0.25    0.25</time>
   <time name="total">    0.25    0.26</time>
   <energy>
    <i name="e_fr_energy">     -4.17103557 </i>
    <i name="e_wo_entrp">     -4.16998800 </i>
    <i name="e_0_energy">     -4.17068638 </i>
   </energy>
  </scstep>
  <scstep>
   <time name="dav">    0.25    0.26</time>
   <time name="total">    0.26    0.27</time>
   <energy>
    <i name="e_fr_energy">     -3.92891568 </i>
    <i name="e_wo_entrp">     -3.92852584 </i>
    <i name="e_0_energy">     -3.92878573 </i>
   </energy>
  </scstep>
  <scstep>
   <time name="dav">    0.23    0.24</time>
   <time name="total">    0.24    0.25</time>
   <energy>
    <i name="e_fr_energy">     -3.88499677 </i>
    <i name="e_wo_entrp">     -3.88459361 </i>
    <i name="e_0_energy">     -3.88486238 </i>
   </energy>
  </scstep>
  <scstep>
   <time name="dav">    0.22    0.22</time>
   <time name="total">    0.22    0.23</time>
   <energy>
    <i name="e_fr_energy">     -3.87835364 </i>
    <i name="e_wo_entrp">     -3.87795386 </i>
    <i name="e_0_energy">     -3.87822038 </i>
   </energy>
  </scstep>
  <scstep>
   <time name="dav">    0.16    0.16</time>
   <time name="total">    0.16    0.17</time>
   <energy>
    <i name="alphaZ">    133.97575011 </i>
    <i name="ewald">  -1051.12442154 </i>
    <i name="hartreedc">    -85.89753111 </i>
    <i name="XCdc">     16.53546036 </i>
    <i name="pawpsdc">    800.30130915 </i>
    <i name="pawaedc">   -783.90712640 </i>
    <i name="eentropy">     -0.00039928 </i>
    <i name="bandstr">     36.84247478 </i>
    <i name="atom">    929.39614979 </i>
    <i name="e_fr_energy">     -3.87833413 </i>
    <i name="e_wo_entrp">     -3.87793485 </i>
    <i name="e_0_energy">     -3.87820104 </i>
   </energy>
  </scstep>
  <structure>
   <crystal>
    <varray name="basis" >
     <v>       0.00000000       1.90000000       1.90000000 </v>
     <v>       1.90000000       0.00000000       1.90000000 </v>
     <v>       1.90000000       1.90000000       0.00000000 </v>
    </varray>
    <i name="volume">     13.71800000 </i>
    <varray name="rec_basis" >
     <v>      -0.26315789       0.26315789       0.26315789 </v>
     <v>       0.26315789      -0.26315789       0.26315789 </v>
     <v>       0.26315789       0.26315789      -0.26315789 </v>
    </varray>
   </crystal>
   <varray name="positions" >
    <v>       0.00000000       0.00000000       0.00000000 </v>
   </varray>
  </structure>
  <varray name="forces" >
   <v>      -0.00000000      -0.00000000      -0.00000000 </v>
  </varray>
  <varray name="stress" >
   <v>     640.30910336       0.00000000      -0.00000000 </v>
   <v>       0.00000000     640.30910336      -0.00000000 </v>
   <v>       0.00000000       0.00000000     640.30910336 </v>
  </varray>
  <energy>
   <i name="e_fr_energy">     -3.87833413 </i>
   <i name="e_wo_entrp">     -3.87820104 </i>
   <i name="e_0_energy">     -0.00039928 </i>
  </energy>
  <time name="totalsc">    2.25    2.33</time>
  <eigenvalues>
   <array>
    <dimension dim="1">band</dimension>
    <dimension dim="2">kpoint</dimension>
    <dimension dim="3">spin</dimension>
    <field>eigene</field>
    <field>occ</field>
    <set>
     <set comment="spin 1">
      <set comment="kpoint 1">
       <r>   -3.5724    1.0000 </r>
       <r>    2.6549    1.0000 </r>
       <r>    2.7429    1.0000 </r>
       <r>    2.7429    1.0000 </r>
       <r>    4.9196    1.0000 </r>
       <r>    4.9196    1.0000 </r>
       <r>   24.0967    0.0000 </r>
       <r>   28.4195    0.0000 </r>
       <r>   29.2859    0.0000 </r>
       <r>   29.2859    0.0000 </r>
       <r>   34.6139    0.0000 </r>
       <r>   39.8183    0.0000 </r>
      </set>
      <set comment="kpoint 2">
       <r>   -3.0172    1.0000 </r>
       <r>    2.4248    1.0000 </r>
       <r>    2.9366    1.0000 </r>
       <r>    2.9819    1.0000 </r>
       <r>    4.6888    1.0000 </r>
       <r>    4.9854    1.0000 </r>
       <r>   24.8301    0.0000 </r>
       <r>   26.3495    0.0000 </r>
       <r>   29.2448    0.0000 </r>
       <r>   30.4628    0.0000 </r>
       <r>   35.2099    0.0000 </r>
       <r>   38.2031    0.0000 </r>
      </set>
      <set comment="kpoint 3">
       <r>   -1.8519    1.0000 </r>
       <r>    2.2396    1.0000 </r>
       <r>    3.1427    1.0000 </r>
       <r>    3.1782    1.0000 </r>
       <r>    4.6881    1.0000 </r>
       <r>    5.2840    1.0000 </r>
       <r>   22.9173    0.0000 </r>
       <r>   25.7092    0.0000 </r>
       <r>   30.1167    0.0000 </r>
       <r>   32.3383    0.0000 </r>
       <r>   32.5204    0.0000 </r>
       <r>   35.8877    0.0000 </r>
      </set>
      <set comment="kpoint 4">
       <r>   -0.9201    1.0000 </r>
       <r>    2.8764    1.0000 </r>
       <r>    3.0074    1.0000 </r>
       <r>    3.1047    1.0000 </r>
       <r>    5.3988    1.0000 </r>
       <r>    6.0943    1.0000 </r>
       <r>   18.9392    0.0000 </r>
       <r>   24.8043    0.0000 </r>
       <r>   29.3882    0.0000 </r>
       <r>   31.9670    0.0000 </r>
       <r>   33.4584    0.0000 </r>
       <r>   35.1799    0.0000 </r>
      </set>
      <set comment="kpoint 5">
       <r>   -0.7627    1.0000 </r>
       <r>    2.6621    1.0000 </r>
       <r>    2.7643    1.0000 </r>
       <r>    4.9866    1.0000 </r>
       <r>    6.2833    1.0000 </r>
       <r>    7.1037    1.0000 </r>
       <r>   14.9475    0.0000 </r>
       <r>   23.6910    0.0000 </r>
       <r>   28.0393    0.0000 </r>
       <r>   29.2594    0.0000 </r>
       <r>   36.1717    0.0000 </r>
       <r>   36.9061    0.0000 </r>
      </set>
      <set comment="kpoint 6">
       <r>   -0.7795    1.0000 </r>
       <r>    2.5665    1.0000 </r>
       <r>    2.7091    1.0000 </r>
       <r>    5.6778    1.0000 </r>
       <r>    6.7152    1.0000 </r>
       <r>    7.7203    1.0000 </r>
       <r>   13.2904   -0.0000 </r>
       <r>   23.3908    0.0000 </r>
       <r>   28.0051    0.0000 </r>
       <r>   28.0887    0.0000 </r>
       <r>   37.1644    0.0000 </r>
       <r>   37.3041    0.0000 </r>
      </set>
      <set comment="kpoint 7">
       <r>   -0.7705    1.0000 </r>
       <r>    2.7047    1.0000 </r>
       <r>    2.8664    1.0000 </r>
       <r>    4.2697    1.0000 </r>
       <r>    6.4100    1.0000 </r>
       <r>    6.4228    1.0000 </r>
       <r>   16.1854    0.0000 </r>
       <r>   23.9927    0.0000 </r>
       <r>   28.6624    0.0000 </r>
       <r>   29.6318    0.0000 </r>
       <r>   36.0786    0.0000 </r>
       <r>   36.1375    0.0000 </r>
      </set>
      <set comment="kpoint 8">
       <r>   -1.1365    1.0000 </r>
       <r>    2.5695    1.0000 </r>
       <r>    3.0168    1.0000 </r>
       <r>    3.1174    1.0000 </r>
       <r>    5.2513    1.0000 </r>
       <r>    5.6646    1.0000 </r>
       <r>   20.3214    0.0000 </r>
       <r>   25.2722    0.0000 </r>
       <r>   30.0490    0.0000 </r>
       <r>   31.9087    0.0000 </r>
       <r>   33.4503    0.0000 </r>
       <r>   35.0222    0.0000 </r>
      </set>
      <set comment="kpoint 9">
       <r>   -2.2723    1.0000 </r>
       <r>    2.2301    1.0000 </r>
       <r>    3.1346    1.0000 </r>
       <r>    3.1573    1.0000 </r>
       <r>    4.6263    1.0000 </r>
       <r>    5.1108    1.0000 </r>
       <r>   24.1294    0.0000 </r>
       <r>   25.6098    0.0000 </r>
       <r>   29.9891    0.0000 </r>
       <r>   31.1826    0.0000 </r>
       <r>   33.6890    0.0000 </r>
       <r>   36.2783    0.0000 </r>
      </set>
      <set comment="kpoint 10">
       <r>   -3.2890    1.0000 </r>
       <r>    2.4951    1.0000 </r>
       <r>    2.8764    1.0000 </r>
       <r>    2.8844    1.0000 </r>
       <r>    4.7281    1.0000 </r>
       <r>    5.0021    1.0000 </r>
       <r>   24.4980    0.0000 </r>
       <r>   27.4592    0.0000 </r>
       <r>   29.2321    0.0000 </r>
       <r>   29.5388    0.0000 </r>
       <r>   35.8828    0.0000 </r>
       <r>   38.6001    0.0000 </r>
      </set>
      <set comment="kpoint 11">
       <r>   -2.7424    1.0000 </r>
       <r>    2.1791    1.0000 </r>
       <r>    3.1572    1.0000 </r>
       <r>    3.1630    1.0000 </r>
       <r>    4.3950    1.0000 </r>
       <r>    5.1614    1.0000 </r>
       <r>   25.2433    0.0000 </r>
       <r>   26.5674    0.0000 </r>
       <r>   28.9289    0.0000 </r>
       <r>   29.3781    0.0000 </r>
       <r>   36.0616    0.0000 </r>
       <r>   37.2740    0.0000 </r>
      </set>
      <set comment="kpoint 12">
       <r>   -1.7651    1.0000 </r>
       <r>    1.8199    1.0000 </r>
       <r>    3.2803    1.0000 </r>
       <r>    3.5530    1.0000 </r>
       <r>    4.3049    1.0000 </r>
       <r>    5.4740    1.0000 </r>
       <r>   24.4350    0.0000 </r>
       <r>   26.0796    0.0000 </r>
       <r>   28.3625    0.0000 </r>
       <r>   29.7505    0.0000 </r>
       <r>   33.8886    0.0000 </r>
       <r>   36.4621    0.0000 </r>
      </set>
      <set comment="kpoint 13">
       <r>   -0.6384    1.0000 </r>
       <r>    1.9365    1.0000 </r>
       <r>    2.8322    1.0000 </r>
       <r>    3.5598    1.0000 </r>
       <r>    5.2351    1.0000 </r>
       <r>    6.2843    1.0000 </r>
       <r>   20.6020    0.0000 </r>
       <r>   25.5620    0.0000 </r>
       <r>   27.4813    0.0000 </r>
       <r>   30.0659    0.0000 </r>
       <r>   34.3466    0.0000 </r>
       <r>   35.5928    0.0000 </r>
      </set>
      <set comment="kpoint 14">
       <r>   -0.2987    1.0000 </r>
       <r>    2.3925    1.0000 </r>
       <r>    3.1253    1.0000 </r>
       <r>    3.3651    1.0000 </r>
       <r>    6.3546    1.0000 </r>
       <r>    7.6991    1.0000 </r>
       <r>   16.3164    0.0000 </r>
       <r>   24.4768    0.0000 </r>
       <r>   26.3972    0.0000 </r>
       <r>   28.8633    0.0000 </r>
       <r>   35.6953    0.0000 </r>
       <r>   37.5064    0.0000 </r>
      </set>
      <set comment="kpoint 15">
       <r>   -0.3081    1.0000 </r>
       <r>    2.2110    1.0000 </r>
       <r>    3.1259    1.0000 </r>
       <r>    4.2744    1.0000 </r>
       <r>    6.6388    1.0000 </r>
       <r>    9.5902   -0.0001 </r>
       <r>   13.1751   -0.0000 </r>
       <r>   23.9175    0.0000 </r>
       <r>   26.0756    0.0000 </r>
       <r>   27.6093    0.0000 </r>
       <r>   36.8570    0.0000 </r>
       <r>   37.7895    0.0000 </r>
      </set>
      <set comment="kpoint 16">
       <r>   -0.2657    1.0000 </r>
       <r>    2.3308    1.0000 </r>
       <r>    3.1606    1.0000 </r>
       <r>    3.8187    1.0000 </r>
       <r>    6.1507    1.0000 </r>
       <r>    8.5477    1.0053 </r>
       <r>   15.1051    0.0000 </r>
       <r>   24.0560    0.0000 </r>
       <r>   25.9459    0.0000 </r>
       <r>   28.9665    0.0000 </r>
       <r>   35.4154    0.0000 </r>
       <r>   37.6476    0.0000 </r>
      </set>
      <set comment="kpoint 17">
       <r>   -0.3856    1.0000 </r>
       <r>    2.3295    1.0000 </r>
       <r>    2.7373    1.0000 </r>
       <r>    3.4320    1.0000 </r>
       <r>    5.1261    1.0000 </r>
       <r>    7.0121    1.0000 </r>
       <r>   19.1926    0.0000 </r>
       <r>   24.7750    0.0000 </r>
       <r>   26.9643    0.0000 </r>
       <r>   31.1117    0.0000 </r>
       <r>   33.2672    0.0000 </r>
       <r>   36.5548    0.0000 </r>
      </set>
      <set comment="kpoint 18">
       <r>   -1.3478    1.0000 </r>
       <r>    1.8800    1.0000 </r>
       <r>    3.1209    1.0000 </r>
       <r>    3.5845    1.0000 </r>
       <r>    4.2988    1.0000 </r>
       <r>    5.8392    1.0000 </r>
       <r>   23.0638    0.0000 </r>
       <r>   25.6070    0.0000 </r>
       <r>   28.7203    0.0000 </r>
       <r>   29.8901    0.0000 </r>
       <r>   34.0642    0.0000 </r>
       <r>   36.2452    0.0000 </r>
      </set>
      <set comment="kpoint 19">
       <r>   -2.4929    1.0000 </r>
       <r>    2.1821    1.0000 </r>
       <r>    3.1573    1.0000 </r>
       <r>    3.1750    1.0000 </r>
       <r>    4.4531    1.0000 </r>
       <r>    5.1692    1.0000 </r>
       <r>   25.2153    0.0000 </r>
       <r>   25.5347    0.0000 </r>
       <r>   28.9667    0.0000 </r>
       <r>   30.8226    0.0000 </r>
       <r>   34.1204    0.0000 </r>
       <r>   37.3676    0.0000 </r>
      </set>
      <set comment="kpoint 20">
       <r>   -1.1375    1.0000 </r>
       <r>    1.3158    1.0000 </r>
       <r>    3.4779    1.0000 </r>
       <r>    4.0962    1.0000 </r>
       <r>    4.3596    1.0000 </r>
       <r>    5.6608    1.0000 </r>
       <r>   25.1574    0.0000 </r>
       <r>   26.6593    0.0000 </r>
       <r>   26.9922    0.0000 </r>
       <r>   27.9325    0.0000 </r>
       <r>   31.5161    0.0000 </r>
       <r>   37.0609    0.0000 </r>
      </set>
      <set comment="kpoint 21">
       <r>   -0.2631    1.0000 </r>
       <r>    1.0026    1.0000 </r>
       <r>    3.1053    1.0000 </r>
       <r>    4.5874    1.0000 </r>
       <r>    5.2738    1.0000 </r>
       <r>    6.3217    1.0000 </r>
       <r>   22.4388    0.0000 </r>
       <r>   24.5994    0.0000 </r>
       <r>   26.0341    0.0000 </r>
       <r>   29.0531    0.0000 </r>
       <r>   31.0266    0.0000 </r>
       <r>   37.2697    0.0000 </r>
      </set>
      <set comment="kpoint 22">
       <r>    0.1895    1.0000 </r>
       <r>    1.3473    1.0000 </r>
       <r>    2.7661    1.0000 </r>
       <r>    4.3881    1.0000 </r>
       <r>    6.4919    1.0000 </r>
       <r>    8.0598    1.0000 </r>
       <r>   17.9509    0.0000 </r>
       <r>   23.8844    0.0000 </r>
       <r>   24.2147    0.0000 </r>
       <r>   28.6175    0.0000 </r>
       <r>   34.2136    0.0000 </r>
       <r>   37.6480    0.0000 </r>
      </set>
      <set comment="kpoint 23">
       <r>    0.3226    1.0000 </r>
       <r>    1.6814    1.0000 </r>
       <r>    3.0172    1.0000 </r>
       <r>    4.0965    1.0000 </r>
       <r>    6.6904    1.0000 </r>
       <r>   10.9542   -0.0000 </r>
       <r>   13.9520   -0.0000 </r>
       <r>   22.5158    0.0000 </r>
       <r>   24.3596    0.0000 </r>
       <r>   27.7468    0.0000 </r>
       <r>   36.7516    0.0000 </r>
       <r>   38.9432    0.0000 </r>
      </set>
      <set comment="kpoint 24">
       <r>    0.5744    1.0000 </r>
       <r>    1.7778    1.0000 </r>
       <r>    3.0158    1.0000 </r>
       <r>    3.9444    1.0000 </r>
       <r>    6.0879    1.0000 </r>
       <r>   10.7845   -0.0000 </r>
       <r>   14.6993    0.0000 </r>
       <r>   21.3255    0.0000 </r>
       <r>   25.5386    0.0000 </r>
       <r>   28.0055    0.0000 </r>
       <r>   35.5182    0.0000 </r>
       <r>   38.2937    0.0000 </r>
      </set>
      <set comment="kpoint 25">
       <r>    0.7516    1.0000 </r>
       <r>    1.9327    1.0000 </r>
       <r>    2.2300    1.0000 </r>
       <r>    4.0540    1.0000 </r>
       <r>    5.0753    1.0000 </r>
       <r>    8.8224    0.9746 </r>
       <r>   18.3805    0.0000 </r>
       <r>   21.3791    0.0000 </r>
       <r>   26.3427    0.0000 </r>
       <r>   30.3318    0.0000 </r>
       <r>   32.6233    0.0000 </r>
       <r>   38.3393    0.0000 </r>
      </set>
      <set comment="kpoint 26">
       <r>   -0.1352    1.0000 </r>
       <r>    1.7709    1.0000 </r>
       <r>    2.7036    1.0000 </r>
       <r>    3.8959    1.0000 </r>
       <r>    4.4946    1.0000 </r>
       <r>    7.1497    1.0000 </r>
       <r>   20.6616    0.0000 </r>
       <r>   23.8348    0.0000 </r>
       <r>   27.2497    0.0000 </r>
       <r>   30.5033    0.0000 </r>
       <r>   33.1779    0.0000 </r>
       <r>   37.2972    0.0000 </r>
      </set>
      <set comment="kpoint 27">
       <r>   -1.2784    1.0000 </r>
       <r>    2.1300    1.0000 </r>
       <r>    3.0849    1.0000 </r>
       <r>    3.3115    1.0000 </r>
       <r>    4.7667    1.0000 </r>
       <r>    5.7352    1.0000 </r>
       <r>   21.7719    0.0000 </r>
       <r>   25.7247    0.0000 </r>
       <r>   29.1410    0.0000 </r>
       <r>   31.0932    0.0000 </r>
       <r>   34.0028    0.0000 </r>
       <r>   34.9766    0.0000 </r>
      </set>
      <set comment="kpoint 28">
       <r>   -0.2188    1.0000 </r>
       <r>    0.4755    1.0000 </r>
       <r>    4.2651    1.0000 </r>
       <r>    5.3574    1.0000 </r>
       <r>    5.8809    1.0000 </r>
       <r>    6.2621    1.0000 </r>
       <r>   22.3872    0.0000 </r>
       <r>   23.2238    0.0000 </r>
       <r>   24.0222    0.0000 </r>
       <r>   28.0930    0.0000 </r>
       <r>   30.0123    0.0000 </r>
       <r>   39.7176    0.0000 </r>
      </set>
      <set comment="kpoint 29">
       <r>   -0.1153    1.0000 </r>
       <r>    0.3303    1.0000 </r>
       <r>    4.3561    1.0000 </r>
       <r>    5.7794    1.0000 </r>
       <r>    6.5115    1.0000 </r>
       <r>    8.0394    1.0000 </r>
       <r>   19.3223    0.0000 </r>
       <r>   21.4725    0.0000 </r>
       <r>   22.2075    0.0000 </r>
       <r>   29.2264    0.0000 </r>
       <r>   31.3166    0.0000 </r>
       <r>   39.4898    0.0000 </r>
      </set>
      <set comment="kpoint 30">
       <r>    0.0803    1.0000 </r>
       <r>    0.7522    1.0000 </r>
       <r>    3.8672    1.0000 </r>
       <r>    5.3363    1.0000 </r>
       <r>    6.8376    1.0000 </r>
       <r>   11.2275   -0.0000 </r>
       <r>   15.5118    0.0000 </r>
       <r>   19.9623    0.0000 </r>
       <r>   22.1221    0.0000 </r>
       <r>   29.3296    0.0000 </r>
       <r>   34.3704    0.0000 </r>
       <r>   38.4771    0.0000 </r>
      </set>
      <set comment="kpoint 31">
       <r>    0.4832    1.0000 </r>
       <r>    1.4385    1.0000 </r>
       <r>    3.1162    1.0000 </r>
       <r>    4.8516    1.0000 </r>
       <r>    6.3467    1.0000 </r>
       <r>   12.5988   -0.0000 </r>
       <r>   15.0342    0.0000 </r>
       <r>   18.1067    0.0000 </r>
       <r>   23.8217    0.0000 </r>
       <r>   28.7337    0.0000 </r>
       <r>   36.8594    0.0000 </r>
       <r>   38.2938    0.0000 </r>
      </set>
      <set comment="kpoint 32">
       <r>    0.9254    1.0000 </r>
       <r>    1.8331    1.0000 </r>
       <r>    2.4265    1.0000 </r>
       <r>    4.3305    1.0000 </r>
       <r>    5.7337    1.0000 </r>
       <r>   10.6486   -0.0000 </r>
       <r>   16.7511    0.0000 </r>
       <r>   19.1071    0.0000 </r>
       <r>   25.7311    0.0000 </r>
       <r>   28.4876    0.0000 </r>
       <r>   34.7929    0.0000 </r>
       <r>   38.4277    0.0000 </r>
      </set>
      <set comment="kpoint 33">
       <r>    0.2176    1.0000 </r>
       <r>    2.1828    1.0000 </r>
       <r>    2.8293    1.0000 </r>
       <r>    3.6225    1.0000 </r>
       <r>    5.5993    1.0000 </r>
       <r>    8.7455    1.0339 </r>
       <r>   16.7073    0.0000 </r>
       <r>   23.0675    0.0000 </r>
       <r>   25.8639    0.0000 </r>
       <r>   29.6767    0.0000 </r>
       <r>   33.8731    0.0000 </r>
       <r>   37.9790    0.0000 </r>
      </set>
      <set comment="kpoint 34">
       <r>   -0.6343    1.0000 </r>
       <r>    2.7062    1.0000 </r>
       <r>    3.0601    1.0000 </r>
       <r>    3.2899    1.0000 </r>
       <r>    5.7808    1.0000 </r>
       <r>    6.7496    1.0000 </r>
       <r>   17.6149    0.0000 </r>
       <r>   24.5477    0.0000 </r>
       <r>   27.8741    0.0000 </r>
       <r>   30.5373    0.0000 </r>
       <r>   34.5300    0.0000 </r>
       <r>   36.2807    0.0000 </r>
      </set>
      <set comment="kpoint 35">
       <r>   -0.4996    1.0000 </r>
       <r>   -0.0688    1.0000 </r>
       <r>    6.2339    1.0000 </r>
       <r>    6.3826    1.0000 </r>
       <r>    6.8817    1.0000 </r>
       <r>    8.2769    1.0000 </r>
       <r>   18.3337    0.0000 </r>
       <r>   20.3123    0.0000 </r>
       <r>   20.5531    0.0000 </r>
       <r>   28.5528    0.0000 </r>
       <r>   31.5244    0.0000 </r>
       <r>   40.7301    0.0000 </r>
      </set>
      <set comment="kpoint 36">
       <r>   -0.4196    1.0000 </r>
       <r>    0.0051    1.0000 </r>
       <r>    5.6677    1.0000 </r>
       <r>    6.2992    1.0000 </r>
       <r>    7.1030    1.0000 </r>
       <r>   10.6392   -0.0000 </r>
       <r>   16.2177    0.0000 </r>
       <r>   19.2377    0.0000 </r>
       <r>   20.1811    0.0000 </r>
       <r>   29.6791    0.0000 </r>
       <r>   32.0916    0.0000 </r>
       <r>   39.7679    0.0000 </r>
      </set>
      <set comment="kpoint 37">
       <r>   -0.0079    1.0000 </r>
       <r>    0.6320    1.0000 </r>
       <r>    4.2622    1.0000 </r>
       <r>    5.5890    1.0000 </r>
       <r>    6.8280    1.0000 </r>
       <r>   12.7486   -0.0000 </r>
       <r>   14.6839    0.0000 </r>
       <r>   18.4020    0.0000 </r>
       <r>   21.6993    0.0000 </r>
       <r>   29.6764    0.0000 </r>
       <r>   34.4483    0.0000 </r>
       <r>   38.4851    0.0000 </r>
      </set>
      <set comment="kpoint 38">
       <r>    0.4617    1.0000 </r>
       <r>    1.4940    1.0000 </r>
       <r>    3.0578    1.0000 </r>
       <r>    4.5340    1.0000 </r>
       <r>    6.5349    1.0000 </r>
       <r>   12.9852   -0.0000 </r>
       <r>   13.0871   -0.0000 </r>
       <r>   20.2939    0.0000 </r>
       <r>   24.0017    0.0000 </r>
       <r>   28.2808    0.0000 </r>
       <r>   36.8168    0.0000 </r>
       <r>   38.7059    0.0000 </r>
      </set>
      <set comment="kpoint 39">
       <r>    0.1054    1.0000 </r>
       <r>    1.9503    1.0000 </r>
       <r>    3.4984    1.0000 </r>
       <r>    3.6592    1.0000 </r>
       <r>    6.4457    1.0000 </r>
       <r>   10.6755   -0.0000 </r>
       <r>   13.2461   -0.0000 </r>
       <r>   23.2709    0.0000 </r>
       <r>   25.3412    0.0000 </r>
       <r>   27.5705    0.0000 </r>
       <r>   36.3992    0.0000 </r>
       <r>   38.0556    0.0000 </r>
      </set>
      <set comment="kpoint 40">
       <r>   -0.6057    1.0000 </r>
       <r>    2.4708    1.0000 </r>
       <r>    2.8713    1.0000 </r>
       <r>    4.8095    1.0000 </r>
       <r>    6.5665    1.0000 </r>
       <r>    8.1694    1.0000 </r>
       <r>   13.9108   -0.0000 </r>
       <r>   23.7221    0.0000 </r>
       <r>   27.1652    0.0000 </r>
       <r>   28.3746    0.0000 </r>
       <r>   36.6592    0.0000 </r>
       <r>   37.4275    0.0000 </r>
      </set>
      <set comment="kpoint 41">
       <r>   -0.6164    1.0000 </r>
       <r>   -0.1835    1.0000 </r>
       <r>    6.5632    1.0000 </r>
       <r>    6.7090    1.0000 </r>
       <r>    7.1236    1.0000 </r>
       <r>    9.4563   -0.0016 </r>
       <r>   16.6999    0.0000 </r>
       <r>   19.5924    0.0000 </r>
       <r>   19.9241    0.0000 </r>
       <r>   28.7859    0.0000 </r>
       <r>   31.8616    0.0000 </r>
       <r>   40.4426    0.0000 </r>
      </set>
      <set comment="kpoint 42">
       <r>   -0.3002    1.0000 </r>
       <r>    0.1153    1.0000 </r>
       <r>    5.1444    1.0000 </r>
       <r>    6.1840    1.0000 </r>
       <r>    6.8660    1.0000 </r>
       <r>    9.4221   -0.0032 </r>
       <r>   17.6169    0.0000 </r>
       <r>   20.0759    0.0000 </r>
       <r>   20.8308    0.0000 </r>
       <r>   29.4696    0.0000 </r>
       <r>   31.8159    0.0000 </r>
       <r>   39.7962    0.0000 </r>
      </set>
      <set comment="kpoint 43">
       <r>    0.1898    1.0000 </r>
       <r>    0.9989    1.0000 </r>
       <r>    3.2836    1.0000 </r>
       <r>    4.8919    1.0000 </r>
       <r>    6.7603    1.0000 </r>
       <r>    9.5431   -0.0002 </r>
       <r>   16.6322    0.0000 </r>
       <r>   22.0359    0.0000 </r>
       <r>   22.9476    0.0000 </r>
       <r>   28.8455    0.0000 </r>
       <r>   34.2669    0.0000 </r>
       <r>   38.2481    0.0000 </r>
      </set>
      <set comment="kpoint 44">
       <r>    0.0444    1.0000 </r>
       <r>    2.0120    1.0000 </r>
       <r>    3.0489    1.0000 </r>
       <r>    3.6776    1.0000 </r>
       <r>    6.6625    1.0000 </r>
       <r>    9.1452   -0.0056 </r>
       <r>   15.0691    0.0000 </r>
       <r>   24.1495    0.0000 </r>
       <r>   25.0430    0.0000 </r>
       <r>   27.7729    0.0000 </r>
       <r>   36.4472    0.0000 </r>
       <r>   38.5320    0.0000 </r>
      </set>
      <set comment="kpoint 45">
       <r>   -0.3190    1.0000 </r>
       <r>    0.1555    1.0000 </r>
       <r>    5.3330    1.0000 </r>
       <r>    5.9620    1.0000 </r>
       <r>    6.5663    1.0000 </r>
       <r>    6.9423    1.0000 </r>
       <r>   20.4920    0.0000 </r>
       <r>   21.7043    0.0000 </r>
       <r>   21.7880    0.0000 </r>
       <r>   28.2258    0.0000 </r>
       <r>   30.9090    0.0000 </r>
       <r>   40.9024    0.0000 </r>
      </set>
      <set comment="kpoint 46">
       <r>   -0.0129    1.0000 </r>
       <r>    0.6342    1.0000 </r>
       <r>    3.5516    1.0000 </r>
       <r>    5.1963    1.0000 </r>
       <r>    5.9904    1.0000 </r>
       <r>    6.9739    1.0000 </r>
       <r>   20.9678    0.0000 </r>
       <r>   23.0112    0.0000 </r>
       <r>   24.1562    0.0000 </r>
       <r>   29.1896    0.0000 </r>
       <r>   30.7441    0.0000 </r>
       <r>   38.5292    0.0000 </r>
      </set>
      <set comment="kpoint 47">
       <r>   -0.0864    1.0000 </r>
       <r>    1.6892    1.0000 </r>
       <r>    2.6039    1.0000 </r>
       <r>    3.9263    1.0000 </r>
       <r>    5.9404    1.0000 </r>
       <r>    6.9791    1.0000 </r>
       <r>   19.3165    0.0000 </r>
       <r>   25.0432    0.0000 </r>
       <r>   25.8072    0.0000 </r>
       <r>   29.0588    0.0000 </r>
       <r>   34.2392    0.0000 </r>
       <r>   36.7350    0.0000 </r>
      </set>
      <set comment="kpoint 48">
       <r>   -0.4581    1.0000 </r>
       <r>    0.8720    1.0000 </r>
       <r>    3.5713    1.0000 </r>
       <r>    4.7091    1.0000 </r>
       <r>    5.0355    1.0000 </r>
       <r>    5.9588    1.0000 </r>
       <r>   24.0120    0.0000 </r>
       <r>   24.9473    0.0000 </r>
       <r>   26.0311    0.0000 </r>
       <r>   28.6354    0.0000 </r>
       <r>   29.2762    0.0000 </r>
       <r>   38.1772    0.0000 </r>
      </set>
      <set comment="kpoint 49">
       <r>   -0.9431    1.0000 </r>
       <r>    1.4102    1.0000 </r>
       <r>    3.1455    1.0000 </r>
       <r>    4.0299    1.0000 </r>
       <r>    4.6231    1.0000 </r>
       <r>    5.8599    1.0000 </r>
       <r>   23.5757    0.0000 </r>
       <r>   25.8959    0.0000 </r>
       <r>   27.5883    0.0000 </r>
       <r>   28.6560    0.0000 </r>
       <r>   32.7189    0.0000 </r>
       <r>   36.2205    0.0000 </r>
      </set>
      <set comment="kpoint 50">
       <r>   -1.9848    1.0000 </r>
       <r>    1.7680    1.0000 </r>
       <r>    3.4897    1.0000 </r>
       <r>    3.5711    1.0000 </r>
       <r>    4.0868    1.0000 </r>
       <r>    5.3859    1.0000 </r>
       <r>   25.8112    0.0000 </r>
       <r>   26.2952    0.0000 </r>
       <r>   28.0796    0.0000 </r>
       <r>   28.6523    0.0000 </r>
       <r>   34.3140    0.0000 </r>
       <r>   36.6755    0.0000 </r>
      </set>
      <set comment="kpoint 51">
       <r>   -2.7622    1.0000 </r>
       <r>    2.3957    1.0000 </r>
       <r>    3.0065    1.0000 </r>
       <r>    3.0065    1.0000 </r>
       <r>    4.8359    1.0000 </r>
       <r>    4.8359    1.0000 </r>
       <r>   24.9737    0.0000 </r>
       <r>   25.4070    0.0000 </r>
       <r>   30.3917    0.0000 </r>
       <r>   30.3917    0.0000 </r>
       <r>   34.5550    0.0000 </r>
       <r>   37.6891    0.0000 </r>
      </set>
      <set comment="kpoint 52">
       <r>   -2.0131    1.0000 </r>
       <r>    2.0979    1.0000 </r>
       <r>    3.1753    1.0000 </r>
       <r>    3.2962    1.0000 </r>
       <r>    4.3694    1.0000 </r>
       <r>    5.3925    1.0000 </r>
       <r>   24.1013    0.0000 </r>
       <r>   25.6784    0.0000 </r>
       <r>   28.8653    0.0000 </r>
       <r>   31.7880    0.0000 </r>
       <r>   32.5951    0.0000 </r>
       <r>   37.7695    0.0000 </r>
      </set>
      <set comment="kpoint 53">
       <r>   -0.7797    1.0000 </r>
       <r>    1.8729    1.0000 </r>
       <r>    2.9924    1.0000 </r>
       <r>    3.6912    1.0000 </r>
       <r>    4.2300    1.0000 </r>
       <r>    6.4359    1.0000 </r>
       <r>   21.8289    0.0000 </r>
       <r>   24.8559    0.0000 </r>
       <r>   28.3291    0.0000 </r>
       <r>   29.9021    0.0000 </r>
       <r>   34.1121    0.0000 </r>
       <r>   36.4650    0.0000 </r>
      </set>
      <set comment="kpoint 54">
       <r>   -0.0978    1.0000 </r>
       <r>    2.4164    1.0000 </r>
       <r>    2.8482    1.0000 </r>
       <r>    3.3918    1.0000 </r>
       <r>    5.2097    1.0000 </r>
       <r>    7.8255    1.0000 </r>
       <r>   17.9037    0.0000 </r>
       <r>   23.9670    0.0000 </r>
       <r>   26.3778    0.0000 </r>
       <r>   31.0657    0.0000 </r>
       <r>   32.8571    0.0000 </r>
       <r>   37.4277    0.0000 </r>
      </set>
      <set comment="kpoint 55">
       <r>   -0.1320    1.0000 </r>
       <r>    2.1890    1.0000 </r>
       <r>    3.2316    1.0000 </r>
       <r>    3.9629    1.0000 </r>
       <r>    6.2286    1.0000 </r>
       <r>    9.5064   -0.0005 </r>
       <r>   14.0738   -0.0000 </r>
       <r>   23.6398    0.0000 </r>
       <r>   25.8244    0.0000 </r>
       <r>   28.1544    0.0000 </r>
       <r>   35.9872    0.0000 </r>
       <r>   37.6060    0.0000 </r>
      </set>
      <set comment="kpoint 56">
       <r>   -0.1902    1.0000 </r>
       <r>    2.1438    1.0000 </r>
       <r>    3.3045    1.0000 </r>
       <r>    3.7585    1.0000 </r>
       <r>    6.7630    1.0000 </r>
       <r>    9.3827   -0.0066 </r>
       <r>   13.8498   -0.0000 </r>
       <r>   23.9856    0.0000 </r>
       <r>   26.6056    0.0000 </r>
       <r>   26.7335    0.0000 </r>
       <r>   37.2305    0.0000 </r>
       <r>   37.8428    0.0000 </r>
      </set>
      <set comment="kpoint 57">
       <r>   -0.2346    1.0000 </r>
       <r>    2.2592    1.0000 </r>
       <r>    2.6424    1.0000 </r>
       <r>    3.5394    1.0000 </r>
       <r>    6.5395    1.0000 </r>
       <r>    6.9709    1.0000 </r>
       <r>   17.7271    0.0000 </r>
       <r>   24.9465    0.0000 </r>
       <r>   26.5437    0.0000 </r>
       <r>   28.4674    0.0000 </r>
       <r>   36.1711    0.0000 </r>
       <r>   36.5968    0.0000 </r>
      </set>
      <set comment="kpoint 58">
       <r>   -0.8344    1.0000 </r>
       <r>    1.5931    1.0000 </r>
       <r>    3.0088    1.0000 </r>
       <r>    3.7382    1.0000 </r>
       <r>    5.1135    1.0000 </r>
       <r>    5.8713    1.0000 </r>
       <r>   22.1144    0.0000 </r>
       <r>   26.3074    0.0000 </r>
       <r>   27.3153    0.0000 </r>
       <r>   29.3152    0.0000 </r>
       <r>   33.3924    0.0000 </r>
       <r>   36.2957    0.0000 </r>
      </set>
      <set comment="kpoint 59">
       <r>   -1.5955    1.0000 </r>
       <r>    1.9385    1.0000 </r>
       <r>    3.1962    1.0000 </r>
       <r>    3.3987    1.0000 </r>
       <r>    4.6234    1.0000 </r>
       <r>    5.4695    1.0000 </r>
       <r>   23.1504    0.0000 </r>
       <r>   26.0886    0.0000 </r>
       <r>   28.9180    0.0000 </r>
       <r>   30.4892    0.0000 </r>
       <r>   33.7128    0.0000 </r>
       <r>   35.8308    0.0000 </r>
      </set>
      <set comment="kpoint 60">
       <r>   -0.5868    1.0000 </r>
       <r>    1.5787    1.0000 </r>
       <r>    2.8613    1.0000 </r>
       <r>    3.9841    1.0000 </r>
       <r>    4.5895    1.0000 </r>
       <r>    6.4075    1.0000 </r>
       <r>   22.0339    0.0000 </r>
       <r>   24.9144    0.0000 </r>
       <r>   27.5959    0.0000 </r>
       <r>   29.4813    0.0000 </r>
       <r>   34.3115    0.0000 </r>
       <r>   35.4384    0.0000 </r>
      </set>
      <set comment="kpoint 61">
       <r>    0.4710    1.0000 </r>
       <r>    1.6161    1.0000 </r>
       <r>    2.2854    1.0000 </r>
       <r>    4.2876    1.0000 </r>
       <r>    5.0404    1.0000 </r>
       <r>    7.9616    1.0000 </r>
       <r>   19.4943    0.0000 </r>
       <r>   22.6016    0.0000 </r>
       <r>   26.0591    0.0000 </r>
       <r>   30.8540    0.0000 </r>
       <r>   32.4873    0.0000 </r>
       <r>   38.0209    0.0000 </r>
      </set>
      <set comment="kpoint 62">
       <r>    0.5547    1.0000 </r>
       <r>    1.8107    1.0000 </r>
       <r>    2.7046    1.0000 </r>
       <r>    4.0018    1.0000 </r>
       <r>    6.0648    1.0000 </r>
       <r>    9.9011   -0.0000 </r>
       <r>   15.6087    0.0000 </r>
       <r>   22.1707    0.0000 </r>
       <r>   24.8112    0.0000 </r>
       <r>   29.1109    0.0000 </r>
       <r>   34.6462    0.0000 </r>
       <r>   38.8030    0.0000 </r>
      </set>
      <set comment="kpoint 63">
       <r>    0.4456    1.0000 </r>
       <r>    1.6801    1.0000 </r>
       <r>    3.1573    1.0000 </r>
       <r>    3.9103    1.0000 </r>
       <r>    6.5124    1.0000 </r>
       <r>   11.6087   -0.0000 </r>
       <r>   13.1362   -0.0000 </r>
       <r>   22.9125    0.0000 </r>
       <r>   23.7512    0.0000 </r>
       <r>   28.3257    0.0000 </r>
       <r>   35.9614    0.0000 </r>
       <r>   39.1432    0.0000 </r>
      </set>
      <set comment="kpoint 64">
       <r>    0.3903    1.0000 </r>
       <r>    1.8039    1.0000 </r>
       <r>    2.4235    1.0000 </r>
       <r>    4.1883    1.0000 </r>
       <r>    6.2442    1.0000 </r>
       <r>    9.0068    0.3532 </r>
       <r>   16.6685    0.0000 </r>
       <r>   23.1226    0.0000 </r>
       <r>   24.3808    0.0000 </r>
       <r>   29.1787    0.0000 </r>
       <r>   34.6726    0.0000 </r>
       <r>   38.4904    0.0000 </r>
      </set>
      <set comment="kpoint 65">
       <r>    0.0822    1.0000 </r>
       <r>    1.2594    1.0000 </r>
       <r>    2.6174    1.0000 </r>
       <r>    4.4800    1.0000 </r>
       <r>    5.1714    1.0000 </r>
       <r>    7.0925    1.0000 </r>
       <r>   20.8625    0.0000 </r>
       <r>   23.7117    0.0000 </r>
       <r>   25.9979    0.0000 </r>
       <r>   29.9136    0.0000 </r>
       <r>   32.7148    0.0000 </r>
       <r>   36.6259    0.0000 </r>
      </set>
      <set comment="kpoint 66">
       <r>   -0.2013    1.0000 </r>
       <r>    1.2435    1.0000 </r>
       <r>    2.9024    1.0000 </r>
       <r>    4.1691    1.0000 </r>
       <r>    5.9960    1.0000 </r>
       <r>    6.2676    1.0000 </r>
       <r>   20.8840    0.0000 </r>
       <r>   25.5675    0.0000 </r>
       <r>   25.7495    0.0000 </r>
       <r>   28.5703    0.0000 </r>
       <r>   32.6646    0.0000 </r>
       <r>   37.2709    0.0000 </r>
      </set>
      <set comment="kpoint 67">
       <r>    0.3616    1.0000 </r>
       <r>    0.9525    1.0000 </r>
       <r>    2.7750    1.0000 </r>
       <r>    5.0416    1.0000 </r>
       <r>    5.8130    1.0000 </r>
       <r>    7.9808    1.0000 </r>
       <r>   19.5369    0.0000 </r>
       <r>   22.2895    0.0000 </r>
       <r>   24.2802    0.0000 </r>
       <r>   30.1914    0.0000 </r>
       <r>   32.1142    0.0000 </r>
       <r>   37.5799    0.0000 </r>
      </set>
      <set comment="kpoint 68">
       <r>    0.7564    1.0000 </r>
       <r>    1.1551    1.0000 </r>
       <r>    2.4745    1.0000 </r>
       <r>    5.1427    1.0000 </r>
       <r>    6.2633    1.0000 </r>
       <r>   10.2345   -0.0000 </r>
       <r>   17.2892    0.0000 </r>
       <r>   20.0390    0.0000 </r>
       <r>   22.7220    0.0000 </r>
       <r>   31.1798    0.0000 </r>
       <r>   33.1709    0.0000 </r>
       <r>   38.1780    0.0000 </r>
      </set>
      <set comment="kpoint 69">
       <r>    0.9735    1.0000 </r>
       <r>    1.3843    1.0000 </r>
       <r>    2.4877    1.0000 </r>
       <r>    4.6202    1.0000 </r>
       <r>    6.6160    1.0000 </r>
       <r>   13.0694   -0.0000 </r>
       <r>   14.0123   -0.0000 </r>
       <r>   19.8215    0.0000 </r>
       <r>   21.9374    0.0000 </r>
       <r>   30.6075    0.0000 </r>
       <r>   35.0632    0.0000 </r>
       <r>   39.4335    0.0000 </r>
      </set>
      <set comment="kpoint 70">
       <r>    1.2605    1.0000 </r>
       <r>    1.4600    1.0000 </r>
       <r>    1.9952    1.0000 </r>
       <r>    4.7315    1.0000 </r>
       <r>    6.2276    1.0000 </r>
       <r>   11.1120   -0.0000 </r>
       <r>   16.6514    0.0000 </r>
       <r>   19.0857    0.0000 </r>
       <r>   23.1026    0.0000 </r>
       <r>   30.9494    0.0000 </r>
       <r>   33.7886    0.0000 </r>
       <r>   39.9876    0.0000 </r>
      </set>
      <set comment="kpoint 71">
       <r>    0.8165    1.0000 </r>
       <r>    1.4197    1.0000 </r>
       <r>    2.1118    1.0000 </r>
       <r>    4.7712    1.0000 </r>
       <r>    5.6682    1.0000 </r>
       <r>    8.9548    0.5701 </r>
       <r>   18.3521    0.0000 </r>
       <r>   21.2866    0.0000 </r>
       <r>   24.5312    0.0000 </r>
       <r>   30.8334    0.0000 </r>
       <r>   32.7035    0.0000 </r>
       <r>   38.3454    0.0000 </r>
      </set>
      <set comment="kpoint 72">
       <r>   -0.0243    1.0000 </r>
       <r>    0.5804    1.0000 </r>
       <r>    3.9684    1.0000 </r>
       <r>    5.1991    1.0000 </r>
       <r>    6.8459    1.0000 </r>
       <r>    8.6066    1.0135 </r>
       <r>   17.9636    0.0000 </r>
       <r>   22.0430    0.0000 </r>
       <r>   22.5916    0.0000 </r>
       <r>   28.7749    0.0000 </r>
       <r>   32.6244    0.0000 </r>
       <r>   39.2063    0.0000 </r>
      </set>
      <set comment="kpoint 73">
       <r>    0.0700    1.0000 </r>
       <r>    0.4755    1.0000 </r>
       <r>    4.0150    1.0000 </r>
       <r>    5.7905    1.0000 </r>
       <r>    6.8075    1.0000 </r>
       <r>   10.6750   -0.0000 </r>
       <r>   16.8424    0.0000 </r>
       <r>   19.6029    0.0000 </r>
       <r>   20.9941    0.0000 </r>
       <r>   30.7717    0.0000 </r>
       <r>   32.5969    0.0000 </r>
       <r>   38.3717    0.0000 </r>
      </set>
      <set comment="kpoint 74">
       <r>    0.4047    1.0000 </r>
       <r>    0.9028    1.0000 </r>
       <r>    3.3826    1.0000 </r>
       <r>    5.1789    1.0000 </r>
       <r>    7.0934    1.0000 </r>
       <r>   13.4182   -0.0000 </r>
       <r>   15.2843    0.0000 </r>
       <r>   17.9568    0.0000 </r>
       <r>   20.2471    0.0000 </r>
       <r>   32.2032    0.0000 </r>
       <r>   34.3455    0.0000 </r>
       <r>   36.7842    0.0000 </r>
      </set>
      <set comment="kpoint 75">
       <r>    0.8690    1.0000 </r>
       <r>    1.5323    1.0000 </r>
       <r>    2.4324    1.0000 </r>
       <r>    4.7069    1.0000 </r>
       <r>    6.7567    1.0000 </r>
       <r>   13.2783   -0.0000 </r>
       <r>   15.3301    0.0000 </r>
       <r>   17.8111    0.0000 </r>
       <r>   21.5365    0.0000 </r>
       <r>   31.4381    0.0000 </r>
       <r>   35.0609    0.0000 </r>
       <r>   38.4956    0.0000 </r>
      </set>
      <set comment="kpoint 76">
       <r>    0.8769    1.0000 </r>
       <r>    1.4578    1.0000 </r>
       <r>    2.5832    1.0000 </r>
       <r>    4.3762    1.0000 </r>
       <r>    6.3971    1.0000 </r>
       <r>   11.3925   -0.0000 </r>
       <r>   14.6467    0.0000 </r>
       <r>   21.2707    0.0000 </r>
       <r>   23.1472    0.0000 </r>
       <r>   29.6269    0.0000 </r>
       <r>   34.9806    0.0000 </r>
       <r>   40.0592    0.0000 </r>
      </set>
      <set comment="kpoint 77">
       <r>   -0.2872    1.0000 </r>
       <r>    0.2316    1.0000 </r>
       <r>    5.1503    1.0000 </r>
       <r>    6.0123    1.0000 </r>
       <r>    6.9402    1.0000 </r>
       <r>   11.5138   -0.0000 </r>
       <r>   15.5152    0.0000 </r>
       <r>   18.7759    0.0000 </r>
       <r>   21.1019    0.0000 </r>
       <r>   29.4960    0.0000 </r>
       <r>   32.9894    0.0000 </r>
       <r>   39.5536    0.0000 </r>
      </set>
      <set comment="kpoint 78">
       <r>   -0.0553    1.0000 </r>
       <r>    0.3741    1.0000 </r>
       <r>    4.4901    1.0000 </r>
       <r>    5.7899    1.0000 </r>
       <r>    7.0957    1.0000 </r>
       <r>   12.0629   -0.0000 </r>
       <r>   15.6411    0.0000 </r>
       <r>   18.7196    0.0000 </r>
       <r>   20.2706    0.0000 </r>
       <r>   31.0548    0.0000 </r>
       <r>   32.7888    0.0000 </r>
       <r>   38.3452    0.0000 </r>
      </set>
      <set comment="kpoint 79">
       <r>    0.5463    1.0000 </r>
       <r>    0.9820    1.0000 </r>
       <r>    2.9958    1.0000 </r>
       <r>    5.2508    1.0000 </r>
       <r>    6.7743    1.0000 </r>
       <r>   11.7960   -0.0000 </r>
       <r>   16.3091    0.0000 </r>
       <r>   18.8811    0.0000 </r>
       <r>   21.1064    0.0000 </r>
       <r>   31.7868    0.0000 </r>
       <r>   33.7135    0.0000 </r>
       <r>   37.5605    0.0000 </r>
      </set>
      <set comment="kpoint 80">
       <r>   -0.1810    1.0000 </r>
       <r>    0.3489    1.0000 </r>
       <r>    4.6975    1.0000 </r>
       <r>    5.6821    1.0000 </r>
       <r>    6.9484    1.0000 </r>
       <r>   10.1758   -0.0000 </r>
       <r>   16.5927    0.0000 </r>
       <r>   20.0469    0.0000 </r>
       <r>   21.6142    0.0000 </r>
       <r>   29.1993    0.0000 </r>
       <r>   32.8480    0.0000 </r>
       <r>   39.5205    0.0000 </r>
      </set>
      <set comment="kpoint 81">
       <r>    0.2624    1.0000 </r>
       <r>    0.6757    1.0000 </r>
       <r>    3.3530    1.0000 </r>
       <r>    5.5396    1.0000 </r>
       <r>    6.3626    1.0000 </r>
       <r>    9.1907   -0.0324 </r>
       <r>   18.1756    0.0000 </r>
       <r>   20.8918    0.0000 </r>
       <r>   22.4652    0.0000 </r>
       <r>   30.4166    0.0000 </r>
       <r>   32.2916    0.0000 </r>
       <r>   38.1823    0.0000 </r>
      </set>
      <set comment="kpoint 82">
       <r>    0.0472    1.0000 </r>
       <r>    0.8973    1.0000 </r>
       <r>    3.2498    1.0000 </r>
       <r>    4.6698    1.0000 </r>
       <r>    6.6097    1.0000 </r>
       <r>    7.1777    1.0000 </r>
       <r>   19.4456    0.0000 </r>
       <r>   23.9459    0.0000 </r>
       <r>   24.1489    0.0000 </r>
       <r>   28.4596    0.0000 </r>
       <r>   32.4584    0.0000 </r>
       <r>   38.3770    0.0000 </r>
      </set>
      <set comment="kpoint 83">
       <r>   -1.5477    1.0000 </r>
       <r>    2.4504    1.0000 </r>
       <r>    3.0965    1.0000 </r>
       <r>    3.0965    1.0000 </r>
       <r>    5.1548    1.0000 </r>
       <r>    5.1548    1.0000 </r>
       <r>   21.5976    0.0000 </r>
       <r>   25.5158    0.0000 </r>
       <r>   31.7472    0.0000 </r>
       <r>   31.7472    0.0000 </r>
       <r>   33.0605    0.0000 </r>
       <r>   34.8353    0.0000 </r>
      </set>
      <set comment="kpoint 84">
       <r>   -0.8560    1.0000 </r>
       <r>    2.2875    1.0000 </r>
       <r>    2.9966    1.0000 </r>
       <r>    3.2901    1.0000 </r>
       <r>    4.7999    1.0000 </r>
       <r>    6.3086    1.0000 </r>
       <r>   20.4648    0.0000 </r>
       <r>   25.2674    0.0000 </r>
       <r>   28.2789    0.0000 </r>
       <r>   31.5448    0.0000 </r>
       <r>   33.5969    0.0000 </r>
       <r>   35.2308    0.0000 </r>
      </set>
      <set comment="kpoint 85">
       <r>    0.3282    1.0000 </r>
       <r>    1.9060    1.0000 </r>
       <r>    2.5609    1.0000 </r>
       <r>    3.8286    1.0000 </r>
       <r>    4.6553    1.0000 </r>
       <r>    7.9568    1.0000 </r>
       <r>   19.4479    0.0000 </r>
       <r>   22.6392    0.0000 </r>
       <r>   26.8950    0.0000 </r>
       <r>   31.5998    0.0000 </r>
       <r>   31.5999    0.0000 </r>
       <r>   38.1718    0.0000 </r>
      </set>
      <set comment="kpoint 86">
       <r>    0.8731    1.0000 </r>
       <r>    1.9954    1.0000 </r>
       <r>    2.3672    1.0000 </r>
       <r>    4.0516    1.0000 </r>
       <r>    5.3181    1.0000 </r>
       <r>    9.6836   -0.0000 </r>
       <r>   17.5009    0.0000 </r>
       <r>   20.1705    0.0000 </r>
       <r>   26.7766    0.0000 </r>
       <r>   28.6138    0.0000 </r>
       <r>   33.8358    0.0000 </r>
       <r>   38.0306    0.0000 </r>
      </set>
      <set comment="kpoint 87">
       <r>    0.5055    1.0000 </r>
       <r>    1.7221    1.0000 </r>
       <r>    3.0631    1.0000 </r>
       <r>    4.1560    1.0000 </r>
       <r>    6.2968    1.0000 </r>
       <r>   11.7902   -0.0000 </r>
       <r>   13.8436   -0.0000 </r>
       <r>   20.7046    0.0000 </r>
       <r>   25.8275    0.0000 </r>
       <r>   27.0424    0.0000 </r>
       <r>   36.8624    0.0000 </r>
       <r>   37.9635    0.0000 </r>
      </set>
      <set comment="kpoint 88">
       <r>    0.2117    1.0000 </r>
       <r>    1.4050    1.0000 </r>
       <r>    3.1233    1.0000 </r>
       <r>    4.3884    1.0000 </r>
       <r>    6.8433    1.0000 </r>
       <r>   10.1931   -0.0000 </r>
       <r>   15.1470    0.0000 </r>
       <r>   22.2907    0.0000 </r>
       <r>   24.1483    0.0000 </r>
       <r>   27.7433    0.0000 </r>
       <r>   36.3657    0.0000 </r>
       <r>   38.1210    0.0000 </r>
      </set>
      <set comment="kpoint 89">
       <r>   -0.6726    1.0000 </r>
       <r>    2.5478    1.0000 </r>
       <r>    2.7753    1.0000 </r>
       <r>    3.2664    1.0000 </r>
       <r>    5.8605    1.0000 </r>
       <r>    6.1467    1.0000 </r>
       <r>   19.0496    0.0000 </r>
       <r>   25.1064    0.0000 </r>
       <r>   28.2087    0.0000 </r>
       <r>   30.1527    0.0000 </r>
       <r>   34.9642    0.0000 </r>
       <r>   35.7247    0.0000 </r>
      </set>
      <set comment="kpoint 90">
       <r>    0.0606    1.0000 </r>
       <r>    2.2584    1.0000 </r>
       <r>    2.3603    1.0000 </r>
       <r>    3.7558    1.0000 </r>
       <r>    5.7100    1.0000 </r>
       <r>    7.8625    1.0000 </r>
       <r>   17.9184    0.0000 </r>
       <r>   24.0942    0.0000 </r>
       <r>   25.7333    0.0000 </r>
       <r>   29.8406    0.0000 </r>
       <r>   34.0067    0.0000 </r>
       <r>   37.6975    0.0000 </r>
      </set>
      <set comment="kpoint 91">
       <r>    1.1302    1.0000 </r>
       <r>    1.7077    1.0000 </r>
       <r>    1.9775    1.0000 </r>
       <r>    4.4497    1.0000 </r>
       <r>    5.6365    1.0000 </r>
       <r>    9.8345   -0.0000 </r>
       <r>   17.4573    0.0000 </r>
       <r>   20.1577    0.0000 </r>
       <r>   25.0104    0.0000 </r>
       <r>   30.1465    0.0000 </r>
       <r>   33.3700    0.0000 </r>
       <r>   39.1052    0.0000 </r>
      </set>
      <set comment="kpoint 92">
       <r>    0.9417    1.0000 </r>
       <r>    1.6045    1.0000 </r>
       <r>    2.4488    1.0000 </r>
       <r>    4.5960    1.0000 </r>
       <r>    6.2497    1.0000 </r>
       <r>   11.8542   -0.0000 </r>
       <r>   16.0000    0.0000 </r>
       <r>   18.3501    0.0000 </r>
       <r>   23.5829    0.0000 </r>
       <r>   29.7793    0.0000 </r>
       <r>   35.1064    0.0000 </r>
       <r>   39.9044    0.0000 </r>
      </set>
      <set comment="kpoint 93">
       <r>    0.4819    1.0000 </r>
       <r>    1.2014    1.0000 </r>
       <r>    3.0281    1.0000 </r>
       <r>    4.9575    1.0000 </r>
       <r>    6.6946    1.0000 </r>
       <r>   12.2583   -0.0000 </r>
       <r>   14.6475    0.0000 </r>
       <r>   19.8762    0.0000 </r>
       <r>   22.1131    0.0000 </r>
       <r>   29.9404    0.0000 </r>
       <r>   35.5357    0.0000 </r>
       <r>   37.8303    0.0000 </r>
      </set>
      <set comment="kpoint 94">
       <r>    0.0794    1.0000 </r>
       <r>    1.7970    1.0000 </r>
       <r>    2.7934    1.0000 </r>
       <r>    3.9252    1.0000 </r>
       <r>    6.7840    1.0000 </r>
       <r>    8.4480    1.0007 </r>
       <r>   16.3893    0.0000 </r>
       <r>   24.1307    0.0000 </r>
       <r>   25.1763    0.0000 </r>
       <r>   27.5548    0.0000 </r>
       <r>   36.5152    0.0000 </r>
       <r>   37.4585    0.0000 </r>
      </set>
      <set comment="kpoint 95">
       <r>    0.5213    1.0000 </r>
       <r>    1.4244    1.0000 </r>
       <r>    2.6732    1.0000 </r>
       <r>    4.6359    1.0000 </r>
       <r>    6.5510    1.0000 </r>
       <r>   10.5122   -0.0000 </r>
       <r>   15.5337    0.0000 </r>
       <r>   21.8181    0.0000 </r>
       <r>   22.9289    0.0000 </r>
       <r>   29.3686    0.0000 </r>
       <r>   35.1229    0.0000 </r>
       <r>   38.4109    0.0000 </r>
      </set>
      <set comment="kpoint 96">
       <r>    0.9510    1.0000 </r>
       <r>    1.5610    1.0000 </r>
       <r>    2.1950    1.0000 </r>
       <r>    4.7847    1.0000 </r>
       <r>    6.7588    1.0000 </r>
       <r>   12.6616   -0.0000 </r>
       <r>   15.9668    0.0000 </r>
       <r>   18.1177    0.0000 </r>
       <r>   21.2863    0.0000 </r>
       <r>   32.2157    0.0000 </r>
       <r>   34.0754    0.0000 </r>
       <r>   38.5680    0.0000 </r>
      </set>
      <set comment="kpoint 97">
       <r>    0.7800    1.0000 </r>
       <r>    1.5680    1.0000 </r>
       <r>    2.4049    1.0000 </r>
       <r>    4.7181    1.0000 </r>
       <r>    7.0927    1.0000 </r>
       <r>   14.2276   -0.0000 </r>
       <r>   15.4865    0.0000 </r>
       <r>   17.0644    0.0000 </r>
       <r>   20.2106    0.0000 </r>
       <r>   33.2051    0.0000 </r>
       <r>   34.7137    0.0000 </r>
       <r>   36.8820    0.0000 </r>
      </set>
      <set comment="kpoint 98">
       <r>    0.2056    1.0000 </r>
       <r>    1.1488    1.0000 </r>
       <r>    3.5123    1.0000 </r>
       <r>    4.8749    1.0000 </r>
       <r>    6.7258    1.0000 </r>
       <r>   12.0821   -0.0000 </r>
       <r>   14.1658   -0.0000 </r>
       <r>   20.0916    0.0000 </r>
       <r>   23.4796    0.0000 </r>
       <r>   28.2986    0.0000 </r>
       <r>   36.2609    0.0000 </r>
       <r>   38.4973    0.0000 </r>
      </set>
      <set comment="kpoint 99">
       <r>    0.4097    1.0000 </r>
       <r>    1.1116    1.0000 </r>
       <r>    3.3035    1.0000 </r>
       <r>    5.0767    1.0000 </r>
       <r>    6.7747    1.0000 </r>
       <r>   13.6978   -0.0000 </r>
       <r>   14.3472   -0.0000 </r>
       <r>   18.0363    0.0000 </r>
       <r>   21.7696    0.0000 </r>
       <r>   30.3960    0.0000 </r>
       <r>   36.1054    0.0000 </r>
       <r>   37.0117    0.0000 </r>
      </set>
      <set comment="kpoint 100">
       <r>    0.1645    1.0000 </r>
       <r>    1.0312    1.0000 </r>
       <r>    3.7777    1.0000 </r>
       <r>    5.2463    1.0000 </r>
       <r>    6.5411    1.0000 </r>
       <r>   13.4420   -0.0000 </r>
       <r>   13.9516   -0.0000 </r>
       <r>   18.1911    0.0000 </r>
       <r>   23.1507    0.0000 </r>
       <r>   28.7104    0.0000 </r>
       <r>   36.2558    0.0000 </r>
       <r>   38.6360    0.0000 </r>
      </set>
      <set comment="kpoint 101">
       <r>   -0.9014    1.0000 </r>
       <r>    2.8622    1.0000 </r>
       <r>    2.8622    1.0000 </r>
       <r>    3.8634    1.0000 </r>
       <r>    5.9550    1.0000 </r>
       <r>    5.9550    1.0000 </r>
       <r>   17.5074    0.0000 </r>
       <r>   24.2640    0.0000 </r>
       <r>   30.1984    0.0000 </r>
       <r>   30.1984    0.0000 </r>
       <r>   35.2681    0.0000 </r>
       <r>   35.5428    0.0000 </r>
      </set>
      <set comment="kpoint 102">
       <r>   -0.5003    1.0000 </r>
       <r>    2.5882    1.0000 </r>
       <r>    3.0153    1.0000 </r>
       <r>    3.7941    1.0000 </r>
       <r>    5.7897    1.0000 </r>
       <r>    7.5467    1.0000 </r>
       <r>   16.3057    0.0000 </r>
       <r>   24.2087    0.0000 </r>
       <r>   26.9100    0.0000 </r>
       <r>   30.1859    0.0000 </r>
       <r>   34.5735    0.0000 </r>
       <r>   37.0186    0.0000 </r>
      </set>
      <set comment="kpoint 103">
       <r>    0.3820    1.0000 </r>
       <r>    2.0211    1.0000 </r>
       <r>    3.1043    1.0000 </r>
       <r>    3.6528    1.0000 </r>
       <r>    5.7535    1.0000 </r>
       <r>    9.6720   -0.0000 </r>
       <r>   15.6486    0.0000 </r>
       <r>   22.1085    0.0000 </r>
       <r>   26.1890    0.0000 </r>
       <r>   28.4189    0.0000 </r>
       <r>   34.7358    0.0000 </r>
       <r>   37.8472    0.0000 </r>
      </set>
      <set comment="kpoint 104">
       <r>    0.6563    1.0000 </r>
[...]
      <set comment="kpoint 93">
       <set comment="band 1">
        <r>  0.0551  0.0305  0.8422 </r>
       </set>
       <set comment="band 2">
        <r>  0.0002  0.1074  0.8210 </r>
       </set>
       <set comment="band 3">
        <r>  0.0408  0.1512  0.7464 </r>
       </set>
       <set comment="band 4">
        <r>  0.0023  0.0369  0.9107 </r>
       </set>
       <set comment="band 5">
        <r>  0.0049  0.0031  0.9632 </r>
       </set>
       <set comment="band 6">
        <r>  0.2244  0.3106  0.3710 </r>
       </set>
       <set comment="band 7">
        <r>  0.3020  0.3458  0.1480 </r>
       </set>
       <set comment="band 8">
        <r>  0.1205  0.4160  0.2844 </r>
       </set>
       <set comment="band 9">
        <r>  0.0013  0.4268  0.2681 </r>
       </set>
       <set comment="band 10">
        <r>  0.0210  0.1583  0.2396 </r>
       </set>
       <set comment="band 11">
        <r>  0.0247  0.0995  0.2280 </r>
       </set>
       <set comment="band 12">
        <r>  0.0625  0.0540  0.2601 </r>
       </set>
      </set>
      <set comment="kpoint 94">
       <set comment="band 1">
        <r>  0.1878  0.0531  0.6916 </r>
       </set>
       <set comment="band 2">
        <r>  0.0090  0.1015  0.8034 </r>
       </set>
       <set comment="band 3">
        <r>  0.0956  0.1194  0.7215 </r>
       </set>
       <set comment="band 4">
        <r>  0.0000  0.0160  0.9413 </r>
       </set>
       <set comment="band 5">
        <r>  0.0000  0.0009  0.9777 </r>
       </set>
       <set comment="band 6">
        <r>  0.1262  0.2425  0.5543 </r>
       </set>
       <set comment="band 7">
        <r>  0.2871  0.3110  0.2035 </r>
       </set>
       <set comment="band 8">
        <r>  0.0324  0.1933  0.2573 </r>
       </set>
       <set comment="band 9">
        <r>  0.0000  0.5349  0.1243 </r>
       </set>
       <set comment="band 10">
        <r>  0.0528  0.2361  0.2401 </r>
       </set>
       <set comment="band 11">
        <r>  0.0496  0.2489  0.1272 </r>
       </set>
       <set comment="band 12">
        <r>  0.0000  0.0040  0.2122 </r>
       </set>
      </set>
      <set comment="kpoint 95">
       <set comment="band 1">
        <r>  0.0962  0.0513  0.7863 </r>
       </set>
       <set comment="band 2">
        <r>  0.0004  0.0971  0.8209 </r>
       </set>
       <set comment="band 3">
        <r>  0.0749  0.1268  0.7359 </r>
       </set>
       <set comment="band 4">
        <r>  0.0012  0.0435  0.9064 </r>
       </set>
       <set comment="band 5">
        <r>  0.0015  0.0105  0.9580 </r>
       </set>
       <set comment="band 6">
        <r>  0.1903  0.2665  0.4612 </r>
       </set>
       <set comment="band 7">
        <r>  0.3010  0.3251  0.1734 </r>
       </set>
       <set comment="band 8">
        <r>  0.0875  0.4850  0.2117 </r>
       </set>
       <set comment="band 9">
        <r>  0.0057  0.3080  0.3218 </r>
       </set>
       <set comment="band 10">
        <r>  0.0194  0.2118  0.1577 </r>
       </set>
       <set comment="band 11">
        <r>  0.0125  0.1102  0.2261 </r>
       </set>
       <set comment="band 12">
        <r>  0.0775  0.0675  0.3035 </r>
       </set>
      </set>
      <set comment="kpoint 96">
       <set comment="band 1">
        <r>  0.0068  0.0744  0.8205 </r>
       </set>
       <set comment="band 2">
        <r>  0.0123  0.1003  0.8377 </r>
       </set>
       <set comment="band 3">
        <r>  0.0409  0.1286  0.7728 </r>
       </set>
       <set comment="band 4">
        <r>  0.0216  0.0255  0.8948 </r>
       </set>
       <set comment="band 5">
        <r>  0.0015  0.0079  0.9629 </r>
       </set>
       <set comment="band 6">
        <r>  0.3472  0.2384  0.2889 </r>
       </set>
       <set comment="band 7">
        <r>  0.2017  0.4111  0.2129 </r>
       </set>
       <set comment="band 8">
        <r>  0.1161  0.4990  0.2153 </r>
       </set>
       <set comment="band 9">
        <r>  0.0104  0.3321  0.3939 </r>
       </set>
       <set comment="band 10">
        <r>  0.0030  0.1875  0.1364 </r>
       </set>
       <set comment="band 11">
        <r>  0.0005  0.0390  0.2985 </r>
       </set>
       <set comment="band 12">
        <r>  0.0338  0.2065  0.2373 </r>
       </set>
      </set>
      <set comment="kpoint 97">
       <set comment="band 1">
        <r>  0.0050  0.0720  0.8241 </r>
       </set>
       <set comment="band 2">
        <r>  0.0036  0.1037  0.8440 </r>
       </set>
       <set comment="band 3">
        <r>  0.0061  0.1373  0.8023 </r>
       </set>
       <set comment="band 4">
        <r>  0.0485  0.0066  0.8810 </r>
       </set>
       <set comment="band 5">
        <r>  0.0003  0.0023  0.9759 </r>
       </set>
       <set comment="band 6">
        <r>  0.4765  0.1782  0.1934 </r>
       </set>
       <set comment="band 7">
        <r>  0.1127  0.5081  0.2242 </r>
       </set>
       <set comment="band 8">
        <r>  0.1024  0.5182  0.2165 </r>
       </set>
       <set comment="band 9">
        <r>  0.0001  0.3332  0.4243 </r>
       </set>
       <set comment="band 10">
        <r>  0.0020  0.0918  0.2774 </r>
       </set>
       <set comment="band 11">
        <r>  0.0015  0.0560  0.2456 </r>
       </set>
       <set comment="band 12">
        <r>  0.0211  0.2797  0.1444 </r>
       </set>
      </set>
      <set comment="kpoint 98">
       <set comment="band 1">
        <r>  0.0704  0.0106  0.8543 </r>
       </set>
       <set comment="band 2">
        <r>  0.0004  0.1111  0.8119 </r>
       </set>
       <set comment="band 3">
        <r>  0.0394  0.1820  0.7148 </r>
       </set>
       <set comment="band 4">
        <r>  0.0000  0.0197  0.9336 </r>
       </set>
       <set comment="band 5">
        <r>  0.0000  0.0002  0.9741 </r>
       </set>
       <set comment="band 6">
        <r>  0.1596  0.3571  0.3978 </r>
       </set>
       <set comment="band 7">
        <r>  0.3577  0.3059  0.1196 </r>
       </set>
       <set comment="band 8">
        <r>  0.1099  0.3491  0.3509 </r>
       </set>
       <set comment="band 9">
        <r>  0.0000  0.5610  0.1202 </r>
       </set>
       <set comment="band 10">
        <r>  0.0412  0.0929  0.3312 </r>
       </set>
       <set comment="band 11">
        <r>  0.0814  0.1142  0.2505 </r>
       </set>
       <set comment="band 12">
        <r>  0.0000  0.0008  0.1701 </r>
       </set>
      </set>
      <set comment="kpoint 99">
       <set comment="band 1">
        <r>  0.0399  0.0224  0.8602 </r>
       </set>
       <set comment="band 2">
        <r>  0.0007  0.1105  0.8243 </r>
       </set>
       <set comment="band 3">
        <r>  0.0059  0.1736  0.7615 </r>
       </set>
       <set comment="band 4">
        <r>  0.0158  0.0196  0.9116 </r>
       </set>
       <set comment="band 5">
        <r>  0.0012  0.0045  0.9671 </r>
       </set>
       <set comment="band 6">
        <r>  0.4680  0.1793  0.1966 </r>
       </set>
       <set comment="band 7">
        <r>  0.0656  0.5405  0.2443 </r>
       </set>
       <set comment="band 8">
        <r>  0.1457  0.3704  0.3244 </r>
       </set>
       <set comment="band 9">
        <r>  0.0049  0.4606  0.2496 </r>
       </set>
       <set comment="band 10">
        <r>  0.0219  0.1313  0.3146 </r>
       </set>
       <set comment="band 11">
        <r>  0.0495  0.1071  0.2188 </r>
       </set>
       <set comment="band 12">
        <r>  0.0320  0.0471  0.1992 </r>
       </set>
      </set>
      <set comment="kpoint 100">
       <set comment="band 1">
        <r>  0.0547  0.0013  0.8760 </r>
       </set>
       <set comment="band 2">
        <r>  0.0000  0.1145  0.8140 </r>
       </set>
       <set comment="band 3">
        <r>  0.0051  0.2000  0.7339 </r>
       </set>
       <set comment="band 4">
        <r>  0.0000  0.0208  0.9331 </r>
       </set>
       <set comment="band 5">
        <r>  0.0000  0.0002  0.9699 </r>
       </set>
       <set comment="band 6">
        <r>  0.5072  0.1565  0.1541 </r>
       </set>
       <set comment="band 7">
        <r>  0.0150  0.5682  0.2882 </r>
       </set>
       <set comment="band 8">
        <r>  0.1527  0.3194  0.3726 </r>
       </set>
       <set comment="band 9">
        <r>  0.0000  0.5664  0.1238 </r>
       </set>
       <set comment="band 10">
        <r>  0.0415  0.0764  0.3875 </r>
       </set>
       <set comment="band 11">
        <r>  0.0945  0.0924  0.2682 </r>
       </set>
       <set comment="band 12">
        <r>  0.0000  0.0001  0.1455 </r>
       </set>
      </set>
      <set comment="kpoint 101">
       <set comment="band 1">
        <r>  0.3755  0.0375  0.5096 </r>
       </set>
       <set comment="band 2">
        <r>  0.0000  0.0010  0.9650 </r>
       </set>
       <set comment="band 3">
        <r>  0.0000  0.0010  0.9650 </r>
       </set>
       <set comment="band 4">
        <r>  0.1541  0.3731  0.3421 </r>
       </set>
       <set comment="band 5">
        <r>  0.0000  0.0038  0.9624 </r>
       </set>
       <set comment="band 6">
        <r>  0.0000  0.0038  0.9624 </r>
       </set>
       <set comment="band 7">
        <r>  0.2537  0.2623  0.2763 </r>
       </set>
       <set comment="band 8">
        <r>  0.0018  0.0427  0.0496 </r>
       </set>
       <set comment="band 9">
        <r>  0.0000  0.4900  0.0955 </r>
       </set>
       <set comment="band 10">
        <r>  0.0000  0.4900  0.0955 </r>
       </set>
       <set comment="band 11">
        <r>  0.0515  0.0977  0.1057 </r>
       </set>
       <set comment="band 12">
        <r>  0.0000  0.0030  0.4198 </r>
       </set>
      </set>
      <set comment="kpoint 102">
       <set comment="band 1">
        <r>  0.2959  0.0417  0.5949 </r>
       </set>
       <set comment="band 2">
        <r>  0.0005  0.0073  0.9494 </r>
       </set>
       <set comment="band 3">
        <r>  0.0000  0.0013  0.9597 </r>
       </set>
       <set comment="band 4">
        <r>  0.0923  0.3268  0.4640 </r>
       </set>
       <set comment="band 5">
        <r>  0.0000  0.0038  0.9587 </r>
       </set>
       <set comment="band 6">
        <r>  0.0735  0.1217  0.7527 </r>
       </set>
       <set comment="band 7">
        <r>  0.3001  0.2480  0.2859 </r>
       </set>
       <set comment="band 8">
        <r>  0.0000  0.0638  0.1095 </r>
       </set>
       <set comment="band 9">
        <r>  0.0224  0.4649  0.0875 </r>
       </set>
       <set comment="band 10">
        <r>  0.0000  0.4616  0.1152 </r>
       </set>
       <set comment="band 11">
        <r>  0.0095  0.0455  0.2458 </r>
       </set>
       <set comment="band 12">
        <r>  0.0000  0.0220  0.5723 </r>
       </set>
      </set>
      <set comment="kpoint 103">
       <set comment="band 1">
        <r>  0.1941  0.0678  0.6786 </r>
       </set>
       <set comment="band 2">
        <r>  0.0010  0.0408  0.8900 </r>
       </set>
       <set comment="band 3">
        <r>  0.0309  0.2512  0.6280 </r>
       </set>
       <set comment="band 4">
        <r>  0.0000  0.0096  0.9434 </r>
       </set>
       <set comment="band 5">
        <r>  0.0000  0.0028  0.9586 </r>
       </set>
       <set comment="band 6">
        <r>  0.1990  0.1870  0.5309 </r>
       </set>
       <set comment="band 7">
        <r>  0.2895  0.2774  0.2794 </r>
       </set>
       <set comment="band 8">
        <r>  0.0427  0.4081  0.2750 </r>
       </set>
       <set comment="band 9">
        <r>  0.0177  0.1283  0.0878 </r>
       </set>
       <set comment="band 10">
        <r>  0.0000  0.4907  0.1925 </r>
       </set>
       <set comment="band 11">
        <r>  0.0025  0.0431  0.1508 </r>
       </set>
       <set comment="band 12">
        <r>  0.0000  0.0017  0.4204 </r>
       </set>
      </set>
      <set comment="kpoint 104">
       <set comment="band 1">
        <r>  0.0769  0.0093  0.8575 </r>
       </set>
       <set comment="band 2">
        <r>  0.0167  0.1755  0.7133 </r>
       </set>
       <set comment="band 3">
        <r>  0.0001  0.1692  0.7735 </r>
       </set>
       <set comment="band 4">
        <r>  0.0000  0.0198  0.9292 </r>
       </set>
       <set comment="band 5">
        <r>  0.0000  0.0005  0.9630 </r>
       </set>
       <set comment="band 6">
        <r>  0.3916  0.1757  0.2819 </r>
       </set>
       <set comment="band 7">
        <r>  0.1225  0.4247  0.3323 </r>
       </set>
       <set comment="band 8">
        <r>  0.1377  0.3846  0.3042 </r>
       </set>
       <set comment="band 9">
        <r>  0.0000  0.5322  0.1856 </r>
       </set>
       <set comment="band 10">
        <r>  0.0212  0.0810  0.2655 </r>
       </set>
       <set comment="band 11">
        <r>  0.0001  0.0431  0.0554 </r>
       </set>
       <set comment="band 12">
        <r>  0.0000  0.0000  0.2371 </r>
       </set>
      </set>
      <set comment="kpoint 105">
       <set comment="band 1">
        <r>  0.2577  0.0276  0.6549 </r>
       </set>
       <set comment="band 2">
        <r>  0.0003  0.0085  0.9426 </r>
       </set>
       <set comment="band 3">
        <r>  0.0000  0.0059  0.9567 </r>
       </set>
       <set comment="band 4">
        <r>  0.0576  0.2929  0.5443 </r>
       </set>
       <set comment="band 5">
        <r>  0.0000  0.0007  0.9759 </r>
       </set>
       <set comment="band 6">
        <r>  0.0719  0.2597  0.5813 </r>
       </set>
       <set comment="band 7">
        <r>  0.3679  0.1879  0.3115 </r>
       </set>
       <set comment="band 8">
        <r>  0.0012  0.0385  0.0669 </r>
       </set>
       <set comment="band 9">
        <r>  0.0000  0.5098  0.0755 </r>
       </set>
       <set comment="band 10">
        <r>  0.0255  0.4327  0.1434 </r>
       </set>
       <set comment="band 11">
        <r>  0.0000  0.0000  0.4182 </r>
       </set>
       <set comment="band 12">
        <r>  0.0015  0.0201  0.5477 </r>
       </set>
      </set>
      <set comment="kpoint 106">
       <set comment="band 1">
        <r>  0.1914  0.0513  0.7008 </r>
       </set>
       <set comment="band 2">
        <r>  0.0001  0.0250  0.9081 </r>
       </set>
       <set comment="band 3">
        <r>  0.0072  0.1062  0.8259 </r>
       </set>
       <set comment="band 4">
        <r>  0.0132  0.1560  0.7612 </r>
       </set>
       <set comment="band 5">
        <r>  0.0010  0.0073  0.9610 </r>
       </set>
       <set comment="band 6">
        <r>  0.1054  0.3321  0.4614 </r>
       </set>
       <set comment="band 7">
        <r>  0.4017  0.1662  0.3052 </r>
       </set>
       <set comment="band 8">
        <r>  0.0071  0.2209  0.2157 </r>
       </set>
       <set comment="band 9">
        <r>  0.0439  0.3875  0.1626 </r>
       </set>
       <set comment="band 10">
        <r>  0.0030  0.4077  0.0598 </r>
       </set>
       <set comment="band 11">
        <r>  0.0024  0.0262  0.3897 </r>
       </set>
       <set comment="band 12">
        <r>  0.0008  0.0084  0.3793 </r>
       </set>
      </set>
      <set comment="kpoint 107">
       <set comment="band 1">
        <r>  0.0960  0.0524  0.7960 </r>
       </set>
       <set comment="band 2">
        <r>  0.0114  0.0912  0.8099 </r>
       </set>
       <set comment="band 3">
        <r>  0.0002  0.1825  0.7529 </r>
       </set>
       <set comment="band 4">
        <r>  0.0024  0.0251  0.9216 </r>
       </set>
       <set comment="band 5">
        <r>  0.0069  0.0018  0.9578 </r>
       </set>
       <set comment="band 6">
        <r>  0.2894  0.2712  0.2983 </r>
       </set>
       <set comment="band 7">
        <r>  0.2497  0.3078  0.3216 </r>
       </set>
       <set comment="band 8">
        <r>  0.0918  0.4334  0.2663 </r>
       </set>
       <set comment="band 9">
        <r>  0.0147  0.3584  0.2767 </r>
       </set>
       <set comment="band 10">
        <r>  0.0026  0.2388  0.1047 </r>
       </set>
       <set comment="band 11">
        <r>  0.0003  0.0213  0.3010 </r>
       </set>
       <set comment="band 12">
        <r>  0.0007  0.0125  0.1659 </r>
       </set>
      </set>
      <set comment="kpoint 108">
       <set comment="band 1">
        <r>  0.1553  0.0433  0.7477 </r>
       </set>
       <set comment="band 2">
        <r>  0.0027  0.0612  0.8578 </r>
       </set>
       <set comment="band 3">
        <r>  0.0116  0.2186  0.6946 </r>
       </set>
       <set comment="band 4">
        <r>  0.0000  0.0127  0.9419 </r>
       </set>
       <set comment="band 5">
        <r>  0.0000  0.0006  0.9724 </r>
       </set>
       <set comment="band 6">
        <r>  0.0038  0.5006  0.3652 </r>
       </set>
       <set comment="band 7">
        <r>  0.5266  0.0398  0.3221 </r>
       </set>
       <set comment="band 8">
        <r>  0.0442  0.3192  0.2629 </r>
       </set>
       <set comment="band 9">
        <r>  0.0000  0.5261  0.1259 </r>
       </set>
       <set comment="band 10">
        <r>  0.0277  0.1777  0.1433 </r>
       </set>
       <set comment="band 11">
        <r>  0.0022  0.0272  0.3410 </r>
       </set>
       <set comment="band 12">
        <r>  0.0000  0.0004  0.3432 </r>
       </set>
      </set>
      <set comment="kpoint 109">
       <set comment="band 1">
        <r>  0.2638  0.0034  0.6788 </r>
       </set>
       <set comment="band 2">
        <r>  0.0000  0.0001  0.9650 </r>
       </set>
       <set comment="band 3">
        <r>  0.0000  0.0001  0.9650 </r>
       </set>
       <set comment="band 4">
        <r>  0.0567  0.6885  0.0610 </r>
       </set>
       <set comment="band 5">
        <r>  0.0000  0.0007  0.9738 </r>
       </set>
       <set comment="band 6">
        <r>  0.0000  0.0007  0.9738 </r>
       </set>
       <set comment="band 7">
        <r>  0.4492  0.0823  0.3821 </r>
       </set>
       <set comment="band 8">
        <r>  0.0002  0.0302  0.0047 </r>
       </set>
       <set comment="band 9">
        <r>  0.0000  0.4861  0.0114 </r>
       </set>
       <set comment="band 10">
        <r>  0.0000  0.4861  0.0114 </r>
       </set>
       <set comment="band 11">
        <r>  0.0000  0.0020  0.6492 </r>
       </set>
       <set comment="band 12">
        <r>  0.0000  0.0020  0.6492 </r>
       </set>
      </set>
      <set comment="kpoint 110">
       <set comment="band 1">
        <r>  0.2302  0.0191  0.6977 </r>
       </set>
       <set comment="band 2">
        <r>  0.0001  0.0090  0.9434 </r>
       </set>
       <set comment="band 3">
        <r>  0.0000  0.0032  0.9583 </r>
       </set>
       <set comment="band 4">
        <r>  0.0015  0.3249  0.5705 </r>
       </set>
       <set comment="band 5">
        <r>  0.0000  0.0007  0.9725 </r>
       </set>
       <set comment="band 6">
        <r>  0.0129  0.4286  0.4361 </r>
       </set>
       <set comment="band 7">
        <r>  0.5063  0.0225  0.3950 </r>
       </set>
       <set comment="band 8">
        <r>  0.0004  0.0429  0.0681 </r>
       </set>
       <set comment="band 9">
        <r>  0.0209  0.4694  0.0804 </r>
       </set>
       <set comment="band 10">
        <r>  0.0000  0.4934  0.0557 </r>
       </set>
       <set comment="band 11">
        <r>  0.0062  0.0097  0.5046 </r>
       </set>
       <set comment="band 12">
        <r>  0.0000  0.0004  0.5949 </r>
       </set>
      </set>
     </set>
    </set>
   </array>
  </projected>
 </calculation>
 <structure name="finalpos" >
  <crystal>
   <varray name="basis" >
    <v>       0.00000000       1.90000000       1.90000000 </v>
    <v>       1.90000000       0.00000000       1.90000000 </v>
    <v>       1.90000000       1.90000000       0.00000000 </v>
   </varray>
   <i name="volume">     13.71800000 </i>
   <varray name="rec_basis" >
    <v>      -0.26315789       0.26315789       0.26315789 </v>
    <v>       0.26315789      -0.26315789       0.26315789 </v>
    <v>       0.26315789       0.26315789      -0.26315789 </v>
   </varray>
  </crystal>
  <varray name="positions" >
   <v>       0.00000000       0.00000000       0.00000000 </v>
  </varray>
 </structure>
</modeling>
