BCC W                                   
   3.00000000000000     
    -0.500000    0.500000    0.500000
     0.500000   -0.500000    0.500000
     0.500000    0.500000   -0.500000
   W 
     1
Direct
  0.000000  0.000000  0.000000
 
   20   20   20
  12.240      11.724      10.648      9.8749      9.6970      9.6156      9.0446      7.9938      6.9594      6.3233    
  6.1099      6.3233      6.9594      7.9938      9.0446      9.6156      9.6970      9.8749      10.648      11.724    
  11.724      11.533      10.604      9.7273      9.4167      9.3969      9.0476      8.1673      7.1315      6.3909    
  6.0562      6.1268      6.5960      7.4729      8.5291      9.2723      9.4814      9.5477      10.056      11.015    
  10.648      10.604      9.8631      9.0046      8.5986      8.5941      8.4666      7.8781      7.0176      6.2968    
  5.9012      5.8498      6.1583      6.8105      7.7346      8.5755      9.0035      9.1323      9.4166      10.056    
  9.8749      9.7273      9.0046      8.1103      7.5703      7.4886      7.4929      7.2012      6.6199      6.0398    
  5.6635      5.5439      5.7231      6.1795      6.9000      7.7353      8.4040      8.8072      9.1323      9.5477    
  9.6970      9.4167      8.5986      7.5703      6.8088      6.5202      6.4920      6.3772      6.0546      5.6674    
  5.3747      5.2484      5.3396      5.6577      6.1807      6.8988      7.6892      8.4040      9.0035      9.4814    
  9.6156      9.3969      8.5941      7.4886      6.5202      5.9660      5.7646      5.6605      5.4846      5.2602    
  5.0733      4.9861      5.0383      5.2499      5.6307      6.1761      6.8988      7.7353      8.5755      9.2723    
  9.0446      9.0476      8.4666      7.4929      6.4920      5.7646      5.3701      5.1718      5.0251      4.8919    
  4.7942      4.7642      4.8165      4.9622      5.2269      5.6307      6.1807      6.9000      7.7346      8.5291    
  7.9938      8.1673      7.8781      7.2012      6.3772      5.6605      5.1718      4.8808      4.7068      4.6037    
  4.5618      4.5809      4.6526      4.7738      4.9622      5.2499      5.6577      6.1795      6.8105      7.4729    
  6.9594      7.1315      7.0176      6.6199      6.0546      5.4846      5.0251      4.7068      4.5095      4.4088    
  4.3892      4.4347      4.5267      4.6526      4.8165      5.0383      5.3396      5.7231      6.1583      6.5960    
  6.3233      6.3909      6.2968      6.0398      5.6674      5.2602      4.8919      4.6037      4.4088      4.3049    
  4.2830      4.3311      4.4347      4.5809      4.7642      4.9861      5.2484      5.5439      5.8498      6.1268    
  6.1099      6.0562      5.9012      5.6635      5.3747      5.0733      4.7942      4.5618      4.3892      4.2830    
  4.2471      4.2830      4.3892      4.5618      4.7942      5.0733      5.3747      5.6635      5.9012      6.0562    
  6.3233      6.1268      5.8498      5.5439      5.2484      4.9861      4.7642      4.5809      4.4347      4.3311    
  4.2830      4.3049      4.4088      4.6037      4.8919      5.2602      5.6674      6.0398      6.2968      6.3909    
  6.9594      6.5960      6.1583      5.7231      5.3396      5.0383      4.8165      4.6526      4.5267      4.4347    
  4.3892      4.4088      4.5095      4.7068      5.0251      5.4846      6.0546      6.6199      7.0176      7.1315    
  7.9938      7.4729      6.8105      6.1795      5.6577      5.2499      4.9622      4.7738      4.6526      4.5809    
  4.5618      4.6037      4.7068      4.8808      5.1718      5.6605      6.3772      7.2012      7.8781      8.1673    
  9.0446      8.5291      7.7346      6.9000      6.1807      5.6307      5.2269      4.9622      4.8165      4.7642    
  4.7942      4.8919      5.0251      5.1718      5.3701      5.7646      6.4920      7.4929      8.4666      9.0476    
  9.6156      9.2723      8.5755      7.7353      6.8988      6.1761      5.6307      5.2499      5.0383      4.9861    
  5.0733      5.2602      5.4846      5.6605      5.7646      5.9660      6.5202      7.4886      8.5941      9.3969    
  9.6970      9.4814      9.0035      8.4040      7.6892      6.8988      6.1807      5.6577      5.3396      5.2484    
  5.3747      5.6674      6.0546      6.3772      6.4920      6.5202      6.8088      7.5703      8.5986      9.4167    
  9.8749      9.5477      9.1323      8.8072      8.4040      7.7353      6.9000      6.1795      5.7231      5.5439    
  5.6635      6.0398      6.6199      7.2012      7.4929      7.4886      7.5703      8.1103      9.0046      9.7273    
  10.648      10.056      9.4166      9.1323      9.0035      8.5755      7.7346      6.8105      6.1583      5.8498    
  5.9012      6.2968      7.0176      7.8781      8.4666      8.5941      8.5986      9.0046      9.8631      10.604    
  11.724      11.015      10.056      9.5477      9.4814      9.2723      8.5291      7.4729      6.5960      6.1268    
  6.0562      6.3909      7.1315      8.1673      9.0476      9.3969      9.4167      9.7273      10.604      11.533    
  11.724      11.533      10.604      9.7273      9.4167      9.3969      9.0476      8.1673      7.1315      6.3909    
  6.0562      6.1268      6.5960      7.4729      8.5291      9.2723      9.4814      9.5477      10.056      11.015    
  11.533      11.721      11.010      10.051      9.5450      9.4803      9.2721      8.5293      7.4732      6.5963    
  6.1268      6.0560      6.3907      7.1315      8.1675      9.0482      9.3983      9.4193      9.7307      10.606    
  10.604      11.010      10.601      9.7549      9.1568      9.0207      8.9279      8.4115      7.5047      6.6269    
  6.0810      5.8914      6.0810      6.6269      7.5046      8.4114      8.9283      9.0224      9.1600      9.7587    
  9.7273      10.051      9.7549      9.0045      8.3530      8.1233      8.0893      7.8138      7.1741      6.4416    
  5.9138      5.6625      5.7285      6.1027      6.7641      7.5945      8.2703      8.6003      8.7819      9.1585    
  9.4167      9.5450      9.1568      8.3530      7.5715      7.1672      7.0754      6.9500      6.5788      6.0701    
  5.6459      5.4004      5.3903      5.6348      6.1058      6.7844      7.5295      8.1441      8.5998      9.0208    
  9.3969      9.4803      9.0207      8.1233      7.1672      6.5212      6.2481      6.1218      5.9144      5.6082    
  5.3216      5.1336      5.1017      5.2515      5.5887      6.0963      6.7713      7.5295      8.2699      8.9273    
  9.0476      9.2721      8.9279      8.0893      7.0754      6.2481      5.7648      5.5265      5.3523      5.1649    
  4.9946      4.8846      4.8718      4.9706      5.2000      5.5751      6.0965      6.7845      7.5943      8.4109    
  8.1673      8.5293      8.4115      7.8138      6.9500      6.1218      5.5265      5.1715      4.9574      4.8088    
  4.7089      4.6679      4.6916      4.7776      4.9373      5.2001      5.5888      6.1058      6.7638      7.5042    
  7.1315      7.4732      7.5047      7.1741      6.5788      5.9144      5.3523      4.9574      4.7067      4.5587    
  4.4905      4.4917      4.5477      4.6433      4.7776      4.9706      5.2514      5.6346      6.1024      6.6267    
  6.3909      6.5963      6.6269      6.4416      6.0701      5.6082      5.1649      4.8088      4.5587      4.4089    
  4.3484      4.3630      4.4352      4.5477      4.6916      4.8717      5.1016      5.3902      5.7284      6.0811    
  6.0562      6.1268      6.0810      5.9138      5.6459      5.3216      4.9946      4.7089      4.4905      4.3484    
  4.2830      4.2903      4.3629      4.4916      4.6678      4.8845      5.1336      5.4005      5.6627      5.8916    
  6.1268      6.0560      5.8914      5.6625      5.4004      5.1336      4.8846      4.6679      4.4917      4.3630    
  4.2903      4.2829      4.3483      4.4904      4.7090      4.9947      5.3218      5.6461      5.9139      6.0811    
  6.5960      6.3907      6.0810      5.7285      5.3903      5.1017      4.8718      4.6916      4.5477      4.4352    
  4.3629      4.3483      4.4089      4.5588      4.8091      5.1652      5.6084      6.0702      6.4415      6.6267    
  7.4729      7.1315      6.6269      6.1027      5.6348      5.2515      4.9706      4.7776      4.6433      4.5477    
  4.4916      4.4904      4.5588      4.7070      4.9578      5.3525      5.9143      6.5785      7.1736      7.5042    
  8.5291      8.1675      7.5046      6.7641      6.1058      5.5887      5.2000      4.9373      4.7776      4.6916    
  4.6678      4.7090      4.8091      4.9578      5.1717      5.5263      6.1212      6.9491      7.8129      8.4109    
  9.2723      9.0482      8.4114      7.5945      6.7844      6.0963      5.5751      5.2001      4.9706      4.8717    
  4.8845      4.9947      5.1652      5.3525      5.5263      5.7641      6.2470      7.0740      8.0881      8.9273    
  9.4814      9.3983      8.9283      8.2703      7.5295      6.7713      6.0965      5.5888      5.2514      5.1016    
  5.1336      5.3218      5.6084      5.9143      6.1212      6.2470      6.5196      7.1656      8.1223      9.0208    
  9.5477      9.4193      9.0224      8.6003      8.1441      7.5295      6.7845      6.1058      5.6346      5.3902    
  5.4005      5.6461      6.0702      6.5785      6.9491      7.0740      7.1656      7.5704      8.3531      9.1585    
  10.056      9.7307      9.1600      8.7819      8.5998      8.2699      7.5943      6.7638      6.1024      5.7284    
  5.6627      5.9139      6.4415      7.1736      7.8129      8.0881      8.1223      8.3531      9.0064      9.7587    
  11.015      10.606      9.7587      9.1585      9.0208      8.9273      8.4109      7.5042      6.6267      6.0811    
  5.8916      6.0811      6.6267      7.5042      8.4109      8.9273      9.0208      9.1585      9.7587      10.606    
  10.648      10.604      9.8631      9.0046      8.5986      8.5941      8.4666      7.8781      7.0176      6.2968    
  5.9012      5.8498      6.1583      6.8105      7.7346      8.5755      9.0035      9.1323      9.4166      10.056    
  10.604      11.010      10.601      9.7549      9.1568      9.0207      8.9279      8.4115      7.5047      6.6269    
  6.0810      5.8914      6.0810      6.6269      7.5046      8.4114      8.9283      9.0224      9.1600      9.7587    
  9.8631      10.601      10.643      10.051      9.4137      9.1313      9.0038      8.5761      7.7350      6.8107    
  6.1584      5.8498      5.9012      6.2968      7.0176      7.8782      8.4673      8.5956      8.6008      9.0064    
  9.0046      9.7549      10.051      9.7272      9.1585      8.7823      8.6010      8.2710      7.5949      6.7640    
  6.1024      5.7284      5.6627      5.9140      6.4416      7.1737      7.8134      8.0890      8.1232      8.3531    
  8.5986      9.1568      9.4137      9.1585      8.6013      8.1249      7.8574      7.5922      7.1130      6.4745    
  5.9070      5.5387      5.4065      5.5387      5.9071      6.4745      7.1127      7.5913      7.8556      8.1223    
  8.5941      9.0207      9.1313      8.7823      8.1249      7.4909      7.0758      6.7944      6.4579      6.0225    
  5.6052      5.3027      5.1623      5.2164      5.4670      5.8846      6.4446      7.0479      7.5910      8.0881    
  8.4666      8.9279      9.0038      8.6010      7.8574      7.0758      6.4924      6.1213      5.8317      5.5364    
  5.2604      5.0503      4.9462      4.9691      5.1290      5.4342      5.8714      6.4446      7.1125      7.8129    
  7.8781      8.4115      8.5761      8.2710      7.5922      6.7944      6.1213      5.6598      5.3518      5.1184    
  4.9361      4.8116      4.7627      4.7906      4.8980      5.1057      5.4342      5.8846      6.4744      7.1736    
  7.0176      7.5047      7.7350      7.5949      7.1130      6.4579      5.8317      5.3518      5.0247      4.8088    
  4.6734      4.6093      4.6098      4.6600      4.7516      4.8980      5.1290      5.4670      5.9071      6.4415    
  6.2968      6.6269      6.8107      6.7640      6.4745      6.0225      5.5364      5.1184      4.8088      4.6038    
  4.4905      4.4571      4.4869      4.5593      4.6600      4.7906      4.9691      5.2164      5.5387      5.9139    
  5.9012      6.0810      6.1584      6.1024      5.9070      5.6052      5.2604      4.9361      4.6734      4.4905    
  4.3892      4.3629      4.4002      4.4868      4.6098      4.7628      4.9462      5.1623      5.4065      5.6627    
  5.8498      5.8914      5.8498      5.7284      5.5387      5.3027      5.0503      4.8116      4.6093      4.4571    
  4.3629      4.3310      4.3629      4.4571      4.6093      4.8116      5.0504      5.3027      5.5387      5.7284    
  6.1583      6.0810      5.9012      5.6627      5.4065      5.1623      4.9462      4.7627      4.6098      4.4869    
  4.4002      4.3629      4.3892      4.4905      4.6735      4.9362      5.2606      5.6054      5.9071      6.1024    
  6.8105      6.6269      6.2968      5.9140      5.5387      5.2164      4.9691      4.7906      4.6600      4.5593    
  4.4868      4.4571      4.4905      4.6039      4.8091      5.1188      5.5367      6.0227      6.4744      6.7638    
  7.7346      7.5046      7.0176      6.4416      5.9071      5.4670      5.1290      4.8980      4.7516      4.6600    
  4.6098      4.6093      4.6735      4.8091      5.0251      5.3523      5.8319      6.4578      7.1125      7.5943    
  8.5755      8.4114      7.8782      7.1737      6.4745      5.8846      5.4342      5.1057      4.8980      4.7906    
  4.7628      4.8116      4.9362      5.1188      5.3523      5.6601      6.1211      6.7936      7.5910      8.2699    
  9.0035      8.9283      8.4673      7.8134      7.1127      6.4446      5.8714      5.4342      5.1290      4.9691    
  4.9462      5.0504      5.2606      5.5367      5.8319      6.1211      6.4914      7.0741      7.8556      8.5998    
  9.1323      9.0224      8.5956      8.0890      7.5913      7.0479      6.4446      5.8846      5.4670      5.2164    
  5.1623      5.3027      5.6054      6.0227      6.4578      6.7936      7.0741      7.4887      8.1232      8.7819    
  9.4166      9.1600      8.6008      8.1232      7.8556      7.5910      7.1125      6.4744      5.9071      5.5387    
  5.4065      5.5387      5.9071      6.4744      7.1125      7.5910      7.8556      8.1232      8.6008      9.1600    
  10.056      9.7587      9.0064      8.3531      8.1223      8.0881      7.8129      7.1736      6.4415      5.9139    
  5.6627      5.7284      6.1024      6.7638      7.5943      8.2699      8.5998      8.7819      9.1600      9.7307    
  9.8749      9.7273      9.0046      8.1103      7.5703      7.4886      7.4929      7.2012      6.6199      6.0398    
  5.6635      5.5439      5.7231      6.1795      6.9000      7.7353      8.4040      8.8072      9.1323      9.5477    
  9.7273      10.051      9.7549      9.0045      8.3530      8.1233      8.0893      7.8138      7.1741      6.4416    
  5.9138      5.6625      5.7285      6.1027      6.7641      7.5945      8.2703      8.6003      8.7819      9.1585    
  9.0046      9.7549      10.051      9.7272      9.1585      8.7823      8.6010      8.2710      7.5949      6.7640    
  6.1024      5.7284      5.6627      5.9140      6.4416      7.1737      7.8134      8.0890      8.1232      8.3531    
  8.1103      9.0045      9.7272      9.8749      9.5482      9.1333      8.8083      8.4049      7.7356      6.8999    
  6.1793      5.7232      5.5441      5.6636      6.0396      6.6196      7.2010      7.4929      7.4887      7.5704    
  7.5703      8.3530      9.1585      9.5482      9.4204      9.0238      8.6016      8.1448      7.5295      6.7842    
  6.1056      5.6347      5.3903      5.4004      5.6459      6.0700      6.5785      6.9492      7.0741      7.1656    
  7.4886      8.1233      8.7823      9.1333      9.0238      8.5971      8.0900      7.5914      7.0474      6.4440    
  5.8844      5.4671      5.2164      5.1622      5.3026      5.6054      6.0228      6.4579      6.7936      7.0740    
  7.4929      8.0893      8.6010      8.8083      8.6016      8.0900      7.4931      6.9486      6.4570      5.9874    
  5.5686      5.2447      5.0366      4.9671      5.0366      5.2448      5.5689      5.9880      6.4578      6.9491    
  7.2012      7.8138      8.2710      8.4049      8.1448      7.5914      6.9486      6.3757      5.9133      5.5363    
  5.2327      5.0049      4.8642      4.8161      4.8540      4.9853      5.2251      5.5688      6.0227      6.5785    
  6.6199      7.1741      7.5949      7.7356      7.5295      7.0474      6.4570      5.9133      5.4838      5.1649    
  4.9363      4.7845      4.7096      4.6988      4.7364      4.8241      4.9852      5.2446      5.6054      6.0702    
  6.0398      6.4416      6.7640      6.8999      6.7842      6.4440      5.9874      5.5363      5.1649      4.8920    
  4.7092      4.6093      4.5812      4.6042      4.6579      4.7363      4.8540      5.0367      5.3027      5.6461    
  5.6635      5.9138      6.1024      6.1793      6.1056      5.8844      5.5686      5.2327      4.9363      4.7092    
  4.5620      4.4917      4.4869      4.5303      4.6043      4.6988      4.8161      4.9672      5.1623      5.4005    
  5.5439      5.6625      5.7284      5.7232      5.6347      5.4671      5.2447      5.0049      4.7845      4.6093    
  4.4917      4.4346      4.4352      4.4869      4.5812      4.7096      4.8642      5.0367      5.2164      5.3902    
  5.7231      5.7285      5.6627      5.5441      5.3903      5.2164      5.0366      4.8642      4.7096      4.5812    
  4.4869      4.4352      4.4347      4.4917      4.6093      4.7844      5.0048      5.2446      5.4670      5.6346    
  6.1795      6.1027      5.9140      5.6636      5.4004      5.1622      4.9671      4.8161      4.6988      4.6042    
  4.5303      4.4869      4.4917      4.5619      4.7090      4.9361      5.2327      5.5688      5.8846      6.1058    
  6.9000      6.7641      6.4416      6.0396      5.6459      5.3026      5.0366      4.8540      4.7364      4.6579    
  4.6043      4.5812      4.6093      4.7090      4.8919      5.1650      5.5367      5.9880      6.4446      6.7845    
  7.7353      7.5945      7.1737      6.6196      6.0700      5.6054      5.2448      4.9853      4.8241      4.7363    
  4.6988      4.7096      4.7844      4.9361      5.1650      5.4844      5.9142      6.4579      7.0479      7.5295    
  8.4040      8.2703      7.8134      7.2010      6.5785      6.0228      5.5689      5.2251      4.9852      4.8540    
  4.8161      4.8642      5.0048      5.2327      5.5367      5.9142      6.3768      6.9492      7.5913      8.1441    
  8.8072      8.6003      8.0890      7.4929      6.9492      6.4579      5.9880      5.5688      5.2446      5.0367    
  4.9672      5.0367      5.2446      5.5688      5.9880      6.4579      6.9492      7.4929      8.0890      8.6003    
  9.1323      8.7819      8.1232      7.4887      7.0741      6.7936      6.4578      6.0227      5.6054      5.3027    
  5.1623      5.2164      5.4670      5.8846      6.4446      7.0479      7.5913      8.0890      8.5956      9.0224    
  9.5477      9.1585      8.3531      7.5704      7.1656      7.0740      6.9491      6.5785      6.0702      5.6461    
  5.4005      5.3902      5.6346      6.1058      6.7845      7.5295      8.1441      8.6003      9.0224      9.4193    
  9.6970      9.4167      8.5986      7.5703      6.8088      6.5202      6.4920      6.3772      6.0546      5.6674    
  5.3747      5.2484      5.3396      5.6577      6.1807      6.8988      7.6892      8.4040      9.0035      9.4814    
  9.4167      9.5450      9.1568      8.3530      7.5715      7.1672      7.0754      6.9500      6.5788      6.0701    
  5.6459      5.4004      5.3903      5.6348      6.1058      6.7844      7.5295      8.1441      8.5998      9.0208    
  8.5986      9.1568      9.4137      9.1585      8.6013      8.1249      7.8574      7.5922      7.1130      6.4745    
  5.9070      5.5387      5.4065      5.5387      5.9071      6.4745      7.1127      7.5913      7.8556      8.1223    
  7.5703      8.3530      9.1585      9.5482      9.4204      9.0238      8.6016      8.1448      7.5295      6.7842    
  6.1056      5.6347      5.3903      5.4004      5.6459      6.0700      6.5785      6.9492      7.0741      7.1656    
  6.8088      7.5715      8.6013      9.4204      9.7006      9.4839      9.0046      8.4039      7.6885      6.8982    
  6.1803      5.6575      5.3396      5.2484      5.3747      5.6673      6.0544      6.3768      6.4914      6.5196    
  6.5202      7.1672      8.1249      9.0238      9.4839      9.3995      8.9281      8.2692      7.5282      6.7704    
  6.0960      5.5887      5.2514      5.1016      5.1335      5.3218      5.6084      5.9142      6.1211      6.2470    
  6.4920      7.0754      7.8574      8.6016      9.0046      8.9281      8.4659      7.8115      7.1111      6.4437    
  5.8711      5.4342      5.1291      4.9691      4.9462      5.0504      5.2606      5.5367      5.8319      6.1212    
  6.3772      6.9500      7.5922      8.1448      8.4039      8.2692      7.8115      7.1992      6.5772      6.0223    
  5.5689      5.2252      4.9854      4.8540      4.8162      4.8642      5.0048      5.2327      5.5367      5.9143    
  6.0546      6.5788      7.1130      7.5295      7.6885      7.5282      7.1111      6.5772      6.0538      5.6084    
  5.2609      5.0051      4.8393      4.7554      4.7313      4.7554      4.8392      5.0048      5.2606      5.6084    
  5.6674      6.0701      6.4745      6.7842      6.8982      6.7704      6.4437      6.0223      5.6084      5.2606    
  4.9951      4.8118      4.7096      4.6718      4.6736      4.6996      4.7554      4.8642      5.0504      5.3218    
  5.3747      5.6459      5.9070      6.1056      6.1803      6.0960      5.8711      5.5689      5.2609      4.9951    
  4.7946      4.6680      4.6099      4.6042      4.6306      4.6736      4.7313      4.8161      4.9462      5.1336    
  5.2484      5.4004      5.5387      5.6347      5.6575      5.5887      5.4342      5.2252      5.0051      4.8118    
  4.6680      4.5809      4.5477      4.5593      4.6042      4.6717      4.7554      4.8540      4.9691      5.1016    
  5.3396      5.3903      5.4065      5.3903      5.3396      5.2514      5.1291      4.9854      4.8393      4.7096    
  4.6099      4.5477      4.5266      4.5477      4.6098      4.7095      4.8392      4.9852      5.1290      5.2514    
  5.6577      5.6348      5.5387      5.4004      5.2484      5.1016      4.9691      4.8540      4.7554      4.6718    
  4.6042      4.5593      4.5477      4.5809      4.6678      4.8115      5.0048      5.2251      5.4342      5.5888    
  6.1807      6.1058      5.9071      5.6459      5.3747      5.1335      4.9462      4.8162      4.7313      4.6736    
  4.6306      4.6042      4.6098      4.6678      4.7942      4.9946      5.2606      5.5689      5.8714      6.0965    
  6.8988      6.7844      6.4745      6.0700      5.6673      5.3218      5.0504      4.8642      4.7554      4.6996    
  4.6736      4.6717      4.7095      4.8115      4.9946      5.2602      5.6084      6.0228      6.4446      6.7713    
  7.6892      7.5295      7.1127      6.5785      6.0544      5.6084      5.2606      5.0048      4.8392      4.7554    
  4.7313      4.7554      4.8392      5.0048      5.2606      5.6084      6.0544      6.5785      7.1127      7.5295    
  8.4040      8.1441      7.5913      6.9492      6.3768      5.9142      5.5367      5.2327      5.0048      4.8642    
  4.8161      4.8540      4.9852      5.2251      5.5689      6.0228      6.5785      7.2010      7.8134      8.2703    
  9.0035      8.5998      7.8556      7.0741      6.4914      6.1211      5.8319      5.5367      5.2606      5.0504    
  4.9462      4.9691      5.1290      5.4342      5.8714      6.4446      7.1127      7.8134      8.4673      8.9283    
  9.4814      9.0208      8.1223      7.1656      6.5196      6.2470      6.1212      5.9143      5.6084      5.3218    
  5.1336      5.1016      5.2514      5.5888      6.0965      6.7713      7.5295      8.2703      8.9283      9.3983    
  9.6156      9.3969      8.5941      7.4886      6.5202      5.9660      5.7646      5.6605      5.4846      5.2602    
  5.0733      4.9861      5.0383      5.2499      5.6307      6.1761      6.8988      7.7353      8.5755      9.2723    
  9.3969      9.4803      9.0207      8.1233      7.1672      6.5212      6.2481      6.1218      5.9144      5.6082    
  5.3216      5.1336      5.1017      5.2515      5.5887      6.0963      6.7713      7.5295      8.2699      8.9273    
  8.5941      9.0207      9.1313      8.7823      8.1249      7.4909      7.0758      6.7944      6.4579      6.0225    
  5.6052      5.3027      5.1623      5.2164      5.4670      5.8846      6.4446      7.0479      7.5910      8.0881    
  7.4886      8.1233      8.7823      9.1333      9.0238      8.5971      8.0900      7.5914      7.0474      6.4440    
  5.8844      5.4671      5.2164      5.1622      5.3026      5.6054      6.0228      6.4579      6.7936      7.0740    
  6.5202      7.1672      8.1249      9.0238      9.4839      9.3995      8.9281      8.2692      7.5282      6.7704    
  6.0960      5.5887      5.2514      5.1016      5.1335      5.3218      5.6084      5.9142      6.1211      6.2470    
  5.9660      6.5212      7.4909      8.5971      9.3995      9.6166      9.2713      8.5734      7.7334      6.8977    
  6.1758      5.6307      5.2499      5.0383      4.9861      5.0734      5.2602      5.4844      5.6601      5.7641    
  5.7646      6.2481      7.0758      8.0900      8.9281      9.2713      9.0458      8.4087      7.5926      6.7837    
  6.0964      5.5753      5.2002      4.9707      4.8718      4.8846      4.9946      5.1650      5.3523      5.5263    
  5.6605      6.1218      6.7944      7.5914      8.2692      8.5734      8.4087      7.8759      7.1726      6.4745    
  5.8852      5.4346      5.1059      4.8981      4.7907      4.7627      4.8115      4.9361      5.1188      5.3525    
  5.4846      5.9144      6.4579      7.0474      7.5282      7.7334      7.5926      7.1726      6.6196      6.0708    
  5.6063      5.2453      4.9856      4.8242      4.7364      4.6988      4.7095      4.7844      4.9362      5.1652    
  5.2602      5.6082      6.0225      6.4440      6.7704      6.8977      6.7837      6.4745      6.0708      5.6684    
  5.3226      5.0508      4.8643      4.7554      4.6996      4.6735      4.6717      4.7096      4.8116      4.9947    
  5.0733      5.3216      5.6052      5.8844      6.0960      6.1758      6.0964      5.8852      5.6063      5.3226    
  5.0739      4.8847      4.7627      4.6987      4.6735      4.6678      4.6736      4.6988      4.7628      4.8845    
  4.9861      5.1336      5.3027      5.4671      5.5887      5.6307      5.5753      5.4346      5.2453      5.0508    
  4.8847      4.7642      4.6915      4.6599      4.6579      4.6735      4.6996      4.7363      4.7906      4.8717    
  5.0383      5.1017      5.1623      5.2164      5.2514      5.2499      5.2002      5.1059      4.9856      4.8643    
  4.7627      4.6915      4.6525      4.6432      4.6599      4.6988      4.7554      4.8241      4.8980      4.9706    
  5.2499      5.2515      5.2164      5.1622      5.1016      5.0383      4.9707      4.8981      4.8242      4.7554    
  4.6987      4.6599      4.6432      4.6526      4.6916      4.7627      4.8642      4.9853      5.1057      5.2001    
  5.6307      5.5887      5.4670      5.3026      5.1335      4.9861      4.8718      4.7907      4.7364      4.6996    
  4.6735      4.6579      4.6599      4.6916      4.7642      4.8846      5.0504      5.2448      5.4342      5.5751    
  6.1761      6.0963      5.8846      5.6054      5.3218      5.0734      4.8846      4.7627      4.6988      4.6735    
  4.6678      4.6735      4.6988      4.7627      4.8846      5.0734      5.3218      5.6054      5.8846      6.0963    
  6.8988      6.7713      6.4446      6.0228      5.6084      5.2602      4.9946      4.8115      4.7095      4.6717    
  4.6736      4.6996      4.7554      4.8642      5.0504      5.3218      5.6673      6.0700      6.4745      6.7844    
  7.7353      7.5295      7.0479      6.4579      5.9142      5.4844      5.1650      4.9361      4.7844      4.7096    
  4.6988      4.7363      4.8241      4.9853      5.2448      5.6054      6.0700      6.6196      7.1737      7.5945    
  8.5755      8.2699      7.5910      6.7936      6.1211      5.6601      5.3523      5.1188      4.9362      4.8116    
  4.7628      4.7906      4.8980      5.1057      5.4342      5.8846      6.4745      7.1737      7.8782      8.4114    
  9.2723      8.9273      8.0881      7.0740      6.2470      5.7641      5.5263      5.3525      5.1652      4.9947    
  4.8845      4.8717      4.9706      5.2001      5.5751      6.0963      6.7844      7.5945      8.4114      9.0482    
  9.0446      9.0476      8.4666      7.4929      6.4920      5.7646      5.3701      5.1718      5.0251      4.8919    
  4.7942      4.7642      4.8165      4.9622      5.2269      5.6307      6.1807      6.9000      7.7346      8.5291    
  9.0476      9.2721      8.9279      8.0893      7.0754      6.2481      5.7648      5.5265      5.3523      5.1649    
  4.9946      4.8846      4.8718      4.9706      5.2000      5.5751      6.0965      6.7845      7.5943      8.4109    
  8.4666      8.9279      9.0038      8.6010      7.8574      7.0758      6.4924      6.1213      5.8317      5.5364    