BCC W                                   
   3.00000000000000     
    -0.500000    0.500000    0.500000
     0.500000   -0.500000    0.500000
     0.500000    0.500000   -0.500000
   W 
     1
Direct
  0.000000  0.000000  0.000000
 
   20   20   20
 0.12239812252E+02 0.11723960631E+02 0.10647650932E+02 0.98748504563E+01 0.96970227723E+01
 0.96156147729E+01 0.90445883072E+01 0.79937664158E+01 0.69594266020E+01 0.63233425208E+01
 0.61099026473E+01 0.63233425208E+01 0.69594266020E+01 0.79937664158E+01 0.90445883072E+01
 0.96156147729E+01 0.96970227723E+01 0.98748504563E+01 0.10647650932E+02 0.11723960631E+02
 0.11723960631E+02 0.11532691655E+02 0.10603820741E+02 0.97273132684E+01 0.94167112661E+01
 0.93969179454E+01 0.90475937504E+01 0.81673041530E+01 0.71315458066E+01 0.63908997218E+01
 0.60562330831E+01 0.61267560837E+01 0.65959648274E+01 0.74729111343E+01 0.85290724962E+01
 0.92722752571E+01 0.94813799026E+01 0.95477331887E+01 0.10055828379E+02 0.11014934949E+02
 0.10647650932E+02 0.10603820741E+02 0.98631137784E+01 0.90045594279E+01 0.85985787573E+01
 0.85940573473E+01 0.84665965088E+01 0.78780799885E+01 0.70175542492E+01 0.62968082645E+01
 0.59011694386E+01 0.58498046072E+01 0.61583227458E+01 0.68104993869E+01 0.77345608422E+01
 0.85754927684E+01 0.90035347644E+01 0.91323289614E+01 0.94166404692E+01 0.10055828379E+02
 0.98748504563E+01 0.97273132684E+01 0.90045594279E+01 0.81102650534E+01 0.75702570243E+01
 0.74886176130E+01 0.74929046978E+01 0.72012063655E+01 0.66198608659E+01 0.60397683053E+01
 0.56635084963E+01 0.55439340615E+01 0.57231057469E+01 0.61795404238E+01 0.69000179681E+01
 0.77353347834E+01 0.84040467569E+01 0.88071877761E+01 0.91323289614E+01 0.95477331887E+01
 0.96970227723E+01 0.94167112661E+01 0.85985787573E+01 0.75702570243E+01 0.68088494960E+01
 0.65201914584E+01 0.64920064077E+01 0.63771509310E+01 0.60546390649E+01 0.56674303788E+01
 0.53747431144E+01 0.52484327948E+01 0.53395807999E+01 0.56576945196E+01 0.61806605286E+01
 0.68988317490E+01 0.76891981493E+01 0.84040467569E+01 0.90035347644E+01 0.94813799026E+01
 0.96156147729E+01 0.93969179454E+01 0.85940573473E+01 0.74886176130E+01 0.65201914584E+01
 0.59659561966E+01 0.57646039669E+01 0.56605026292E+01 0.54845945352E+01 0.52601755583E+01
 0.50732588740E+01 0.49860660050E+01 0.50383117614E+01 0.52499051165E+01 0.56306641452E+01
 0.61761403379E+01 0.68988317490E+01 0.77353347834E+01 0.85754927684E+01 0.92722752571E+01
 0.90445883072E+01 0.90475937504E+01 0.84665965088E+01 0.74929046978E+01 0.64920064077E+01
 0.57646039669E+01 0.53700900482E+01 0.51717667481E+01 0.50251077538E+01 0.48918701348E+01
 0.47941806153E+01 0.47641789700E+01 0.48164984595E+01 0.49621543808E+01 0.52268956514E+01
 0.56306641452E+01 0.61806605286E+01 0.69000179681E+01 0.77345608422E+01 0.85290724962E+01
 0.79937664158E+01 0.81673041530E+01 0.78780799885E+01 0.72012063655E+01 0.63771509310E+01
 0.56605026292E+01 0.51717667481E+01 0.48807543753E+01 0.47067915181E+01 0.46037050549E+01
 0.45617708963E+01 0.45809095323E+01 0.46526431868E+01 0.47738439349E+01 0.49621543808E+01
 0.52499051165E+01 0.56576945196E+01 0.61795404238E+01 0.68104993869E+01 0.74729111343E+01
 0.69594266020E+01 0.71315458066E+01 0.70175542492E+01 0.66198608659E+01 0.60546390649E+01
 0.54845945352E+01 0.50251077538E+01 0.47067915181E+01 0.45095401687E+01 0.44088075693E+01
 0.43891614879E+01 0.44346563267E+01 0.45266918037E+01 0.46526431868E+01 0.48164984595E+01
 0.50383117614E+01 0.53395807999E+01 0.57231057469E+01 0.61583227458E+01 0.65959648274E+01
 0.63233425208E+01 0.63908997218E+01 0.62968082645E+01 0.60397683053E+01 0.56674303788E+01
 0.52601755583E+01 0.48918701348E+01 0.46037050549E+01 0.44088075693E+01 0.43048598428E+01
 0.42829977418E+01 0.43310966618E+01 0.44346563267E+01 0.45809095323E+01 0.47641789700E+01
 0.49860660050E+01 0.52484327948E+01 0.55439340615E+01 0.58498046072E+01 0.61267560837E+01
 0.61099026473E+01 0.60562330831E+01 0.59011694386E+01 0.56635084963E+01 0.53747431144E+01
 0.50732588740E+01 0.47941806153E+01 0.45617708963E+01 0.43891614879E+01 0.42829977418E+01
 0.42471262234E+01 0.42829977418E+01 0.43891614879E+01 0.45617708963E+01 0.47941806153E+01
 0.50732588740E+01 0.53747431144E+01 0.56635084963E+01 0.59011694386E+01 0.60562330831E+01
 0.63233425208E+01 0.61267560837E+01 0.58498046072E+01 0.55439340615E+01 0.52484327948E+01
 0.49860660050E+01 0.47641789700E+01 0.45809095323E+01 0.44346563267E+01 0.43310966618E+01
 0.42829977418E+01 0.43048598428E+01 0.44088075693E+01 0.46037050549E+01 0.48918701348E+01
 0.52601755583E+01 0.56674303788E+01 0.60397683053E+01 0.62968082645E+01 0.63908997218E+01
 0.69594266020E+01 0.65959648274E+01 0.61583227458E+01 0.57231057469E+01 0.53395807999E+01
 0.50383117614E+01 0.48164984595E+01 0.46526431868E+01 0.45266918037E+01 0.44346563267E+01
 0.43891614879E+01 0.44088075693E+01 0.45095401687E+01 0.47067915181E+01 0.50251077538E+01
 0.54845945352E+01 0.60546390649E+01 0.66198608659E+01 0.70175542492E+01 0.71315458066E+01
 0.79937664158E+01 0.74729111343E+01 0.68104993869E+01 0.61795404238E+01 0.56576945196E+01
 0.52499051165E+01 0.49621543808E+01 0.47738439349E+01 0.46526431868E+01 0.45809095323E+01
 0.45617708963E+01 0.46037050549E+01 0.47067915181E+01 0.48807543753E+01 0.51717667481E+01
 0.56605026292E+01 0.63771509310E+01 0.72012063655E+01 0.78780799885E+01 0.81673041530E+01
 0.90445883072E+01 0.85290724962E+01 0.77345608422E+01 0.69000179681E+01 0.61806605286E+01
 0.56306641452E+01 0.52268956514E+01 0.49621543808E+01 0.48164984595E+01 0.47641789700E+01
 0.47941806153E+01 0.48918701348E+01 0.50251077538E+01 0.51717667481E+01 0.53700900482E+01
 0.57646039669E+01 0.64920064077E+01 0.74929046978E+01 0.84665965088E+01 0.90475937504E+01
 0.96156147729E+01 0.92722752571E+01 0.85754927684E+01 0.77353347834E+01 0.68988317490E+01
 0.61761403379E+01 0.56306641452E+01 0.52499051165E+01 0.50383117614E+01 0.49860660050E+01
 0.50732588740E+01 0.52601755583E+01 0.54845945352E+01 0.56605026292E+01 0.57646039669E+01
 0.59659561966E+01 0.65201914584E+01 0.74886176130E+01 0.85940573473E+01 0.93969179454E+01
 0.96970227723E+01 0.94813799026E+01 0.90035347644E+01 0.84040467569E+01 0.76891981493E+01
 0.68988317490E+01 0.61806605286E+01 0.56576945196E+01 0.53395807999E+01 0.52484327948E+01
 0.53747431144E+01 0.56674303788E+01 0.60546390649E+01 0.63771509310E+01 0.64920064077E+01
 0.65201914584E+01 0.68088494960E+01 0.75702570243E+01 0.85985787573E+01 0.94167112661E+01
 0.98748504563E+01 0.95477331887E+01 0.91323289614E+01 0.88071877761E+01 0.84040467569E+01
 0.77353347834E+01 0.69000179681E+01 0.61795404238E+01 0.57231057469E+01 0.55439340615E+01
 0.56635084963E+01 0.60397683053E+01 0.66198608659E+01 0.72012063655E+01 0.74929046978E+01
 0.74886176130E+01 0.75702570243E+01 0.81102650534E+01 0.90045594279E+01 0.97273132684E+01
 0.10647650932E+02 0.10055828379E+02 0.94166404692E+01 0.91323289614E+01 0.90035347644E+01
 0.85754927684E+01 0.77345608422E+01 0.68104993869E+01 0.61583227458E+01 0.58498046072E+01
 0.59011694386E+01 0.62968082645E+01 0.70175542492E+01 0.78780799885E+01 0.84665965088E+01
 0.85940573473E+01 0.85985787573E+01 0.90045594279E+01 0.98631137784E+01 0.10603820741E+02
 0.11723960631E+02 0.11014934949E+02 0.10055828379E+02 0.95477331887E+01 0.94813799026E+01
 0.92722752571E+01 0.85290724962E+01 0.74729111343E+01 0.65959648274E+01 0.61267560837E+01
 0.60562330831E+01 0.63908997218E+01 0.71315458066E+01 0.81673041530E+01 0.90475937504E+01
 0.93969179454E+01 0.94167112661E+01 0.97273132684E+01 0.10603820741E+02 0.11532691655E+02
 0.11723960631E+02 0.11532691655E+02 0.10603820741E+02 0.97273132684E+01 0.94167112661E+01
 0.93969179454E+01 0.90475937504E+01 0.81673041530E+01 0.71315458066E+01 0.63908997218E+01
 0.60562330831E+01 0.61267560837E+01 0.65959648274E+01 0.74729111343E+01 0.85290724962E+01
 0.92722752571E+01 0.94813799026E+01 0.95477331887E+01 0.10055828379E+02 0.11014934949E+02
 0.11532691655E+02 0.11720961902E+02 0.11010235286E+02 0.10051469001E+02 0.95450168053E+01
 0.94803018156E+01 0.92721276314E+01 0.85292802620E+01 0.74732426674E+01 0.65962612441E+01
 0.61268215993E+01 0.60560350360E+01 0.63906538559E+01 0.71314821607E+01 0.81674959014E+01
 0.90481760029E+01 0.93983283041E+01 0.94193352267E+01 0.97306831216E+01 0.10606367702E+02
 0.10603820741E+02 0.11010235286E+02 0.10601239116E+02 0.97549283458E+01 0.91567800353E+01
 0.90206508179E+01 0.89278615265E+01 0.84115309907E+01 0.75046994852E+01 0.66269392927E+01
 0.60809871650E+01 0.58913610395E+01 0.60809770561E+01 0.66268798884E+01 0.75045516831E+01
 0.84114369233E+01 0.89283347018E+01 0.90223853220E+01 0.91599723909E+01 0.97586808023E+01
 0.97273132684E+01 0.10051469001E+02 0.97549283458E+01 0.90044525079E+01 0.83530175618E+01
 0.81232733005E+01 0.80893078156E+01 0.78138203531E+01 0.71740563412E+01 0.64416354548E+01
 0.59137737202E+01 0.56625098672E+01 0.57284693851E+01 0.61026607981E+01 0.67640754305E+01
 0.75945215236E+01 0.82703126721E+01 0.86003040862E+01 0.87819125428E+01 0.91584595817E+01
 0.94167112661E+01 0.95450168053E+01 0.91567800353E+01 0.83530175618E+01 0.75714976735E+01
 0.71672143564E+01 0.70754127759E+01 0.69499821613E+01 0.65788454164E+01 0.60701022057E+01
 0.56458860318E+01 0.54004069287E+01 0.53903126376E+01 0.56347543104E+01 0.61058044753E+01
 0.67844395521E+01 0.75295298503E+01 0.81441067550E+01 0.85997692088E+01 0.90207605613E+01
 0.93969179454E+01 0.94803018156E+01 0.90206508179E+01 0.81232733005E+01 0.71672143564E+01
 0.65212107111E+01 0.62481389742E+01 0.61218077010E+01 0.59143897233E+01 0.56082471474E+01
 0.53216457399E+01 0.51335654682E+01 0.51016801120E+01 0.52514552062E+01 0.55887035985E+01
 0.60963495402E+01 0.67713421950E+01 0.75295277529E+01 0.82699185177E+01 0.89272982940E+01
 0.90475937504E+01 0.92721276314E+01 0.89278615265E+01 0.80893078156E+01 0.70754127759E+01
 0.62481389742E+01 0.57648123793E+01 0.55264614787E+01 0.53522758435E+01 0.51649210606E+01
 0.49945640964E+01 0.48845676524E+01 0.48717639560E+01 0.49705986906E+01 0.52000463259E+01
 0.55750521100E+01 0.60964789397E+01 0.67845221278E+01 0.75943045774E+01 0.84108833528E+01
 0.81673041530E+01 0.85292802620E+01 0.84115309907E+01 0.78138203531E+01 0.69499821613E+01
 0.61218077010E+01 0.55264614787E+01 0.51714769212E+01 0.49573904191E+01 0.48088083497E+01
 0.47089454230E+01 0.46678784543E+01 0.46916257501E+01 0.47776083049E+01 0.49372756959E+01
 0.52001297644E+01 0.55888157194E+01 0.61057851202E+01 0.67638326153E+01 0.75041987655E+01
 0.71315458066E+01 0.74732426674E+01 0.75046994852E+01 0.71740563412E+01 0.65788454164E+01
 0.59143897233E+01 0.53522758435E+01 0.49573904191E+01 0.47066530583E+01 0.45586837371E+01
 0.44904740239E+01 0.44917335987E+01 0.45477231177E+01 0.46433096787E+01 0.47776149277E+01
 0.49706208947E+01 0.52514134582E+01 0.56345797278E+01 0.61024056685E+01 0.66267077555E+01
 0.63908997218E+01 0.65962612441E+01 0.66269392927E+01 0.64416354548E+01 0.60701022057E+01
 0.56082471474E+01 0.51649210606E+01 0.48088083497E+01 0.45586837371E+01 0.44089140011E+01
 0.43484168867E+01 0.43629861116E+01 0.44351786105E+01 0.45476641460E+01 0.46915646047E+01
 0.48716937868E+01 0.51015628912E+01 0.53901689094E+01 0.57283979218E+01 0.60810687365E+01
 0.60562330831E+01 0.61268215993E+01 0.60809871650E+01 0.59137737202E+01 0.56458860318E+01
 0.53216457399E+01 0.49945640964E+01 0.47089454230E+01 0.44904740239E+01 0.43484168867E+01
 0.42830210433E+01 0.42902569894E+01 0.43628827688E+01 0.44916134333E+01 0.46678035923E+01
 0.48845365957E+01 0.51335650950E+01 0.54004658886E+01 0.56626675606E+01 0.58915910746E+01
 0.61267560837E+01 0.60560350360E+01 0.58913610395E+01 0.56625098672E+01 0.54004069287E+01
 0.51335654682E+01 0.48845676524E+01 0.46678784543E+01 0.44917335987E+01 0.43629861116E+01
 0.42902569894E+01 0.42829019922E+01 0.43482662985E+01 0.44904061227E+01 0.47090037749E+01
 0.49947107811E+01 0.53218270692E+01 0.56460747028E+01 0.59139407279E+01 0.60810687365E+01
 0.65959648274E+01 0.63906538559E+01 0.60809770561E+01 0.57284693851E+01 0.53903126376E+01
 0.51016801120E+01 0.48717639560E+01 0.46916257501E+01 0.45477231177E+01 0.44351786105E+01
 0.43628827688E+01 0.43482662985E+01 0.44088512461E+01 0.45588032193E+01 0.48090776392E+01
 0.51652149675E+01 0.56084479714E+01 0.60701556622E+01 0.64415353510E+01 0.66267077555E+01
 0.74729111343E+01 0.71314821607E+01 0.66268798884E+01 0.61026607981E+01 0.56347543104E+01
 0.52514552062E+01 0.49705986906E+01 0.47776083049E+01 0.46433096787E+01 0.45476641460E+01
 0.44916134333E+01 0.44904061227E+01 0.45588032193E+01 0.47069731833E+01 0.49577634871E+01
 0.53524952257E+01 0.59143264757E+01 0.65785055070E+01 0.71735528400E+01 0.75041987655E+01
 0.85290724962E+01 0.81674959014E+01 0.75045516831E+01 0.67640754305E+01 0.61058044753E+01
 0.55887035985E+01 0.52000463259E+01 0.49372756959E+01 0.47776149277E+01 0.46915646047E+01
 0.46678035923E+01 0.47090037749E+01 0.48090776392E+01 0.49577634871E+01 0.51717077826E+01
 0.55263249669E+01 0.61212372727E+01 0.69491076394E+01 0.78129118469E+01 0.84108833528E+01
 0.92722752571E+01 0.90481760029E+01 0.84114369233E+01 0.75945215236E+01 0.67844395521E+01
 0.60963495402E+01 0.55750521100E+01 0.52001297644E+01 0.49706208947E+01 0.48716937868E+01
 0.48845365957E+01 0.49947107811E+01 0.51652149675E+01 0.53524952257E+01 0.55263249669E+01
 0.57641427121E+01 0.62469718335E+01 0.70740247544E+01 0.80881360074E+01 0.89272982940E+01
 0.94813799026E+01 0.93983283041E+01 0.89283347018E+01 0.82703126721E+01 0.75295298503E+01
 0.67713421950E+01 0.60964789397E+01 0.55888157194E+01 0.52514134582E+01 0.51015628912E+01
 0.51335650950E+01 0.53218270692E+01 0.56084479714E+01 0.59143264757E+01 0.61212372727E+01
 0.62469718335E+01 0.65196016563E+01 0.71656148841E+01 0.81223087141E+01 0.90207605613E+01
 0.95477331887E+01 0.94193352267E+01 0.90223853220E+01 0.86003040862E+01 0.81441067550E+01
 0.75295277529E+01 0.67845221278E+01 0.61057851202E+01 0.56345797278E+01 0.53901689094E+01
 0.54004658886E+01 0.56460747028E+01 0.60701556622E+01 0.65785055070E+01 0.69491076394E+01
 0.70740247544E+01 0.71656148841E+01 0.75703551850E+01 0.83531214577E+01 0.91584595817E+01
 0.10055828379E+02 0.97306831216E+01 0.91599723909E+01 0.87819125428E+01 0.85997692088E+01
 0.82699185177E+01 0.75943045774E+01 0.67638326153E+01 0.61024056685E+01 0.57283979218E+01
 0.56626675606E+01 0.59139407279E+01 0.64415353510E+01 0.71735528400E+01 0.78129118469E+01
 0.80881360074E+01 0.81223087141E+01 0.83531214577E+01 0.90064122480E+01 0.97586808023E+01
 0.11014934949E+02 0.10606367702E+02 0.97586808023E+01 0.91584595817E+01 0.90207605613E+01
 0.89272982940E+01 0.84108833528E+01 0.75041987655E+01 0.66267077555E+01 0.60810687365E+01
 0.58915910746E+01 0.60810687365E+01 0.66267077555E+01 0.75041987655E+01 0.84108833528E+01
 0.89272982940E+01 0.90207605613E+01 0.91584595817E+01 0.97586808023E+01 0.10606367702E+02
 0.10647650932E+02 0.10603820741E+02 0.98631137784E+01 0.90045594279E+01 0.85985787573E+01
 0.85940573473E+01 0.84665965088E+01 0.78780799885E+01 0.70175542492E+01 0.62968082645E+01
 0.59011694386E+01 0.58498046072E+01 0.61583227458E+01 0.68104993869E+01 0.77345608422E+01
 0.85754927684E+01 0.90035347644E+01 0.91323289614E+01 0.94166404692E+01 0.10055828379E+02
 0.10603820741E+02 0.11010235286E+02 0.10601239116E+02 0.97549283458E+01 0.91567800353E+01
 0.90206508179E+01 0.89278615265E+01 0.84115309907E+01 0.75046994852E+01 0.66269392927E+01
 0.60809871650E+01 0.58913610395E+01 0.60809770561E+01 0.66268798884E+01 0.75045516831E+01
 0.84114369233E+01 0.89283347018E+01 0.90223853220E+01 0.91599723909E+01 0.97586808023E+01
 0.98631137784E+01 0.10601239116E+02 0.10643229033E+02 0.10051355746E+02 0.94136990276E+01
 0.91313293698E+01 0.90038017356E+01 0.85760879921E+01 0.77349601795E+01 0.68106544994E+01
 0.61583618781E+01 0.58498185386E+01 0.59011884755E+01 0.62968266454E+01 0.70175719124E+01
 0.78782354135E+01 0.84672644124E+01 0.85956097783E+01 0.86008215295E+01 0.90064122480E+01
 0.90045594279E+01 0.97549283458E+01 0.10051355746E+02 0.97271981909E+01 0.91585362569E+01
 0.87823296779E+01 0.86010032563E+01 0.82709999102E+01 0.75948712333E+01 0.67640141012E+01
 0.61024362212E+01 0.57284070941E+01 0.56626938162E+01 0.59139824221E+01 0.64415892798E+01
 0.71737011955E+01 0.78133618306E+01 0.80890019342E+01 0.81232166515E+01 0.83531214577E+01
 0.85985787573E+01 0.91567800353E+01 0.94136990276E+01 0.91585362569E+01 0.86012961537E+01
 0.81249350872E+01 0.78574203787E+01 0.75922291758E+01 0.71130202123E+01 0.64744768972E+01
 0.59070433469E+01 0.55386627898E+01 0.54065097221E+01 0.55387091579E+01 0.59071012750E+01
 0.64744512044E+01 0.71127009282E+01 0.75912868367E+01 0.78555809612E+01 0.81223087141E+01
 0.85940573473E+01 0.90206508179E+01 0.91313293698E+01 0.87823296779E+01 0.81249350872E+01
 0.74908964640E+01 0.70758387907E+01 0.67944271589E+01 0.64579162925E+01 0.60225433897E+01
 0.56052336614E+01 0.53026618883E+01 0.51622743721E+01 0.52163692407E+01 0.54670179501E+01
 0.58846336095E+01 0.64445962398E+01 0.70479099776E+01 0.75910275551E+01 0.80881360074E+01
 0.84665965088E+01 0.89278615265E+01 0.90038017356E+01 0.86010032563E+01 0.78574203787E+01
 0.70758387907E+01 0.64923925036E+01 0.61212823246E+01 0.58317070235E+01 0.55364164780E+01
 0.52603910423E+01 0.50503235021E+01 0.49462120336E+01 0.49691080173E+01 0.51290313004E+01
 0.54341697389E+01 0.58714390662E+01 0.64445790802E+01 0.71125387820E+01 0.78129118469E+01
 0.78780799885E+01 0.84115309907E+01 0.85760879921E+01 0.82709999102E+01 0.75922291758E+01
 0.67944271589E+01 0.61212823246E+01 0.56597600986E+01 0.53518486573E+01 0.51184386554E+01
 0.49360998544E+01 0.48116062482E+01 0.47627473268E+01 0.47906413047E+01 0.48980272350E+01
 0.51056729313E+01 0.54341812205E+01 0.58846421254E+01 0.64744016633E+01 0.71735528400E+01
 0.70175542492E+01 0.75046994852E+01 0.77349601795E+01 0.75948712333E+01 0.71130202123E+01
 0.64579162925E+01 0.58317070235E+01 0.53518486573E+01 0.50246828041E+01 0.48088399600E+01
 0.46734284890E+01 0.46092714280E+01 0.46098417531E+01 0.46599737827E+01 0.47515652537E+01
 0.48980329972E+01 0.51290398763E+01 0.54670198663E+01 0.59070765929E+01 0.64415353510E+01
 0.62968082645E+01 0.66269392927E+01 0.68106544994E+01 0.67640141012E+01 0.64744768972E+01
 0.60225433897E+01 0.55364164780E+01 0.51184386554E+01 0.48088399600E+01 0.46038456579E+01
 0.44905476190E+01 0.44571476689E+01 0.44868587756E+01 0.45592924031E+01 0.46599777677E+01
 0.47906493220E+01 0.49691115866E+01 0.52163598480E+01 0.55386803224E+01 0.59139407279E+01
 0.59011694386E+01 0.60809871650E+01 0.61583618781E+01 0.61024362212E+01 0.59070433469E+01
 0.56052336614E+01 0.52603910423E+01 0.49360998544E+01 0.46734284890E+01 0.44905476190E+01
 0.43892492667E+01 0.43629325853E+01 0.44002331344E+01 0.44868483610E+01 0.46098407962E+01
 0.47627591173E+01 0.49462260993E+01 0.51622776953E+01 0.54064955729E+01 0.56626675606E+01
 0.58498046072E+01 0.58913610395E+01 0.58498185386E+01 0.57284070941E+01 0.55386627898E+01
 0.53026618883E+01 0.50503235021E+01 0.48116062482E+01 0.46092714280E+01 0.44571476689E+01
 0.43629325853E+01 0.43309964399E+01 0.43629037873E+01 0.44571182365E+01 0.46092734526E+01
 0.48116486888E+01 0.50503857492E+01 0.53027115364E+01 0.55386803224E+01 0.57283979218E+01
 0.61583227458E+01 0.60809770561E+01 0.59011884755E+01 0.56626938162E+01 0.54065097221E+01
 0.51622743721E+01 0.49462120336E+01 0.47627473268E+01 0.46098417531E+01 0.44868587756E+01
 0.44002331344E+01 0.43629037873E+01 0.43892034077E+01 0.44905328508E+01 0.46734944773E+01
 0.49362489301E+01 0.52605651519E+01 0.56053556869E+01 0.59070765929E+01 0.61024056685E+01
 0.68104993869E+01 0.66268798884E+01 0.62968266454E+01 0.59139824221E+01 0.55387091579E+01
 0.52163692407E+01 0.49691080173E+01 0.47906413047E+01 0.46599737827E+01 0.45592924031E+01
 0.44868483610E+01 0.44571182365E+01 0.44905328508E+01 0.46039219916E+01 0.48090634757E+01
 0.51187686107E+01 0.55367141621E+01 0.60226696865E+01 0.64744016633E+01 0.67638326153E+01
 0.77345608422E+01 0.75045516831E+01 0.70175719124E+01 0.64415892798E+01 0.59071012750E+01
 0.54670179501E+01 0.51290313004E+01 0.48980272350E+01 0.47515652537E+01 0.46599777677E+01
 0.46098407962E+01 0.46092734526E+01 0.46734944773E+01 0.48090634757E+01 0.50250875398E+01
 0.53522965086E+01 0.58319470518E+01 0.64577699208E+01 0.71125387820E+01 0.75943045774E+01
 0.85754927684E+01 0.84114369233E+01 0.78782354135E+01 0.71737011955E+01 0.64744512044E+01
 0.58846336095E+01 0.54341697389E+01 0.51056729313E+01 0.48980329972E+01 0.47906493220E+01
 0.47627591173E+01 0.48116486888E+01 0.49362489301E+01 0.51187686107E+01 0.53522965086E+01
 0.56600527275E+01 0.61210753494E+01 0.67935938816E+01 0.75910275551E+01 0.82699185177E+01
 0.90035347644E+01 0.89283347018E+01 0.84672644124E+01 0.78133618306E+01 0.71127009282E+01
 0.64445962398E+01 0.58714390662E+01 0.54341812205E+01 0.51290398763E+01 0.49691115866E+01
 0.49462260993E+01 0.50503857492E+01 0.52605651519E+01 0.55367141621E+01 0.58319470518E+01
 0.61210753494E+01 0.64913973166E+01 0.70741297664E+01 0.78555809612E+01 0.85997692088E+01
 0.91323289614E+01 0.90223853220E+01 0.85956097783E+01 0.80890019342E+01 0.75912868367E+01
 0.70479099776E+01 0.64445790802E+01 0.58846421254E+01 0.54670198663E+01 0.52163598480E+01
 0.51622776953E+01 0.53027115364E+01 0.56053556869E+01 0.60226696865E+01 0.64577699208E+01
 0.67935938816E+01 0.70741297664E+01 0.74887189554E+01 0.81232166515E+01 0.87819125428E+01
 0.94166404692E+01 0.91599723909E+01 0.86008215295E+01 0.81232166515E+01 0.78555809612E+01
 0.75910275551E+01 0.71125387820E+01 0.64744016633E+01 0.59070765929E+01 0.55386803224E+01
 0.54064955729E+01 0.55386803224E+01 0.59070765929E+01 0.64744016633E+01 0.71125387820E+01
 0.75910275551E+01 0.78555809612E+01 0.81232166515E+01 0.86008215295E+01 0.91599723909E+01
 0.10055828379E+02 0.97586808023E+01 0.90064122480E+01 0.83531214577E+01 0.81223087141E+01
 0.80881360074E+01 0.78129118469E+01 0.71735528400E+01 0.64415353510E+01 0.59139407279E+01
 0.56626675606E+01 0.57283979218E+01 0.61024056685E+01 0.67638326153E+01 0.75943045774E+01
 0.82699185177E+01 0.85997692088E+01 0.87819125428E+01 0.91599723909E+01 0.97306831216E+01
 0.98748504563E+01 0.97273132684E+01 0.90045594279E+01 0.81102650534E+01 0.75702570243E+01
 0.74886176130E+01 0.74929046978E+01 0.72012063655E+01 0.66198608659E+01 0.60397683053E+01
 0.56635084963E+01 0.55439340615E+01 0.57231057469E+01 0.61795404238E+01 0.69000179681E+01
 0.77353347834E+01 0.84040467569E+01 0.88071877761E+01 0.91323289614E+01 0.95477331887E+01
 0.97273132684E+01 0.10051469001E+02 0.97549283458E+01 0.90044525079E+01 0.83530175618E+01
 0.81232733005E+01 0.80893078156E+01 0.78138203531E+01 0.71740563412E+01 0.64416354548E+01
 0.59137737202E+01 0.56625098672E+01 0.57284693851E+01 0.61026607981E+01 0.67640754305E+01
 0.75945215236E+01 0.82703126721E+01 0.86003040862E+01 0.87819125428E+01 0.91584595817E+01
 0.90045594279E+01 0.97549283458E+01 0.10051355746E+02 0.97271981909E+01 0.91585362569E+01
 0.87823296779E+01 0.86010032563E+01 0.82709999102E+01 0.75948712333E+01 0.67640141012E+01
 0.61024362212E+01 0.57284070941E+01 0.56626938162E+01 0.59139824221E+01 0.64415892798E+01
 0.71737011955E+01 0.78133618306E+01 0.80890019342E+01 0.81232166515E+01 0.83531214577E+01
 0.81102650534E+01 0.90044525079E+01 0.97271981909E+01 0.98749349291E+01 0.95482372385E+01
 0.91332820365E+01 0.88083023252E+01 0.84048663735E+01 0.77355897218E+01 0.68998501344E+01
 0.61793476226E+01 0.57231551536E+01 0.55441441244E+01 0.56636043857E+01 0.60396039230E+01
 0.66195530139E+01 0.72009811473E+01 0.74928741454E+01 0.74887189554E+01 0.75703551850E+01
 0.75702570243E+01 0.83530175618E+01 0.91585362569E+01 0.95482372385E+01 0.94204003117E+01
 0.90238165289E+01 0.86015919461E+01 0.81447693911E+01 0.75294995745E+01 0.67841848459E+01
 0.61055897629E+01 0.56346530985E+01 0.53902975297E+01 0.54004173998E+01 0.56458617945E+01
 0.60699768669E+01 0.65784991857E+01 0.69492271641E+01 0.70741297664E+01 0.71656148841E+01
 0.74886176130E+01 0.81232733005E+01 0.87823296779E+01 0.91332820365E+01 0.90238165289E+01
 0.85970977460E+01 0.80899609125E+01 0.75914095463E+01 0.70474276254E+01 0.64440395117E+01
 0.58844195407E+01 0.54670612521E+01 0.52163881159E+01 0.51621604840E+01 0.53025698590E+01
 0.56053552384E+01 0.60228055336E+01 0.64578938529E+01 0.67935938816E+01 0.70740247544E+01
 0.74929046978E+01 0.80893078156E+01 0.86010032563E+01 0.88083023252E+01 0.86015919461E+01
 0.80899609125E+01 0.74930622512E+01 0.69486474189E+01 0.64570234929E+01 0.59874189519E+01
 0.55685794405E+01 0.52446844586E+01 0.50366436638E+01 0.49671433727E+01 0.50366343018E+01
 0.52447568003E+01 0.55688852620E+01 0.59880342863E+01 0.64577699208E+01 0.69491076394E+01
 0.72012063655E+01 0.78138203531E+01 0.82709999102E+01 0.84048663735E+01 0.81447693911E+01
 0.75914095463E+01 0.69486474189E+01 0.63757460008E+01 0.59132982771E+01 0.55362628524E+01
 0.52327083627E+01 0.50048949638E+01 0.48641567014E+01 0.48161034760E+01 0.48540079693E+01
 0.49853297776E+01 0.52250757907E+01 0.55687608712E+01 0.60226696865E+01 0.65785055070E+01
 0.66198608659E+01 0.71740563412E+01 0.75948712333E+01 0.77355897218E+01 0.75294995745E+01
 0.70474276254E+01 0.64570234929E+01 0.59132982771E+01 0.54838290287E+01 0.51649109982E+01
 0.49362553048E+01 0.47845268118E+01 0.47095797118E+01 0.46988108987E+01 0.47363514449E+01
 0.48240971797E+01 0.49852476756E+01 0.52446479780E+01 0.56053556869E+01 0.60701556622E+01
 0.60397683053E+01 0.64416354548E+01 0.67640141012E+01 0.68998501344E+01 0.67841848459E+01
 0.64440395117E+01 0.59874189519E+01 0.55362628524E+01 0.51649109982E+01 0.48920408868E+01
 0.47091723382E+01 0.46093131547E+01 0.45812123904E+01 0.46042394845E+01 0.46579375362E+01
 0.47363360084E+01 0.48539719958E+01 0.50366555143E+01 0.53027115364E+01 0.56460747028E+01
 0.56635084963E+01 0.59137737202E+01 0.61024362212E+01 0.61793476226E+01 0.61055897629E+01
 0.58844195407E+01 0.55685794405E+01 0.52327083627E+01 0.49362553048E+01 0.47091723382E+01
 0.45619762060E+01 0.44917266381E+01 0.44868758767E+01 0.45302540501E+01 0.46042702486E+01
 0.46988383958E+01 0.48161419068E+01 0.49672321870E+01 0.51622776953E+01 0.54004658886E+01
 0.55439340615E+01 0.56625098672E+01 0.57284070941E+01 0.57231551536E+01 0.56346530985E+01
 0.54670612521E+01 0.52446844586E+01 0.50048949638E+01 0.47845268118E+01 0.46093131547E+01
 0.44917266381E+01 0.44346301631E+01 0.44351919043E+01 0.44869153775E+01 0.45812469447E+01
 0.47095872264E+01 0.48641607226E+01 0.50366555143E+01 0.52163598480E+01 0.53901689094E+01
 0.57231057469E+01 0.57284693851E+01 0.56626938162E+01 0.55441441244E+01 0.53902975297E+01
 0.52163881159E+01 0.50366436638E+01 0.48641567014E+01 0.47095797118E+01 0.45812123904E+01
 0.44868758767E+01 0.44351919043E+01 0.44346659984E+01 0.44917364192E+01 0.46092512297E+01
 0.47844234972E+01 0.50048168042E+01 0.52446479780E+01 0.54670198663E+01 0.56345797278E+01
 0.61795404238E+01 0.61026607981E+01 0.59139824221E+01 0.56636043857E+01 0.54004173998E+01
 0.51621604840E+01 0.49671433727E+01 0.48161034760E+01 0.46988108987E+01 0.46042394845E+01
 0.45302540501E+01 0.44869153775E+01 0.44917364192E+01 0.45618767121E+01 0.47089883999E+01
 0.49361214549E+01 0.52327402371E+01 0.55687608712E+01 0.58846421254E+01 0.61057851202E+01
 0.69000179681E+01 0.67640754305E+01 0.64415892798E+01 0.60396039230E+01 0.56458617945E+01
 0.53025698590E+01 0.50366343018E+01 0.48540079693E+01 0.47363514449E+01 0.46579375362E+01
 0.46042702486E+01 0.45812469447E+01 0.46092512297E+01 0.47089883999E+01 0.48918888997E+01
 0.51650185655E+01 0.55367055000E+01 0.59880342863E+01 0.64445790802E+01 0.67845221278E+01
 0.77353347834E+01 0.75945215236E+01 0.71737011955E+01 0.66195530139E+01 0.60699768669E+01
 0.56053552384E+01 0.52447568003E+01 0.49853297776E+01 0.48240971797E+01 0.47363360084E+01
 0.46988383958E+01 0.47095872264E+01 0.47844234972E+01 0.49361214549E+01 0.51650185655E+01
 0.54843901419E+01 0.59142062034E+01 0.64578938529E+01 0.70479099776E+01 0.75295277529E+01
 0.84040467569E+01 0.82703126721E+01 0.78133618306E+01 0.72009811473E+01 0.65784991857E+01
 0.60228055336E+01 0.55688852620E+01 0.52250757907E+01 0.49852476756E+01 0.48539719958E+01
 0.48161419068E+01 0.48641607226E+01 0.50048168042E+01 0.52327402371E+01 0.55367055000E+01
 0.59142062034E+01 0.63767563115E+01 0.69492271641E+01 0.75912868367E+01 0.81441067550E+01
 0.88071877761E+01 0.86003040862E+01 0.80890019342E+01 0.74928741454E+01 0.69492271641E+01
 0.64578938529E+01 0.59880342863E+01 0.55687608712E+01 0.52446479780E+01 0.50366555143E+01
 0.49672321870E+01 0.50366555143E+01 0.52446479780E+01 0.55687608712E+01 0.59880342863E+01
 0.64578938529E+01 0.69492271641E+01 0.74928741454E+01 0.80890019342E+01 0.86003040862E+01
 0.91323289614E+01 0.87819125428E+01 0.81232166515E+01 0.74887189554E+01 0.70741297664E+01
 0.67935938816E+01 0.64577699208E+01 0.60226696865E+01 0.56053556869E+01 0.53027115364E+01
 0.51622776953E+01 0.52163598480E+01 0.54670198663E+01 0.58846421254E+01 0.64445790802E+01
 0.70479099776E+01 0.75912868367E+01 0.80890019342E+01 0.85956097783E+01 0.90223853220E+01
 0.95477331887E+01 0.91584595817E+01 0.83531214577E+01 0.75703551850E+01 0.71656148841E+01
 0.70740247544E+01 0.69491076394E+01 0.65785055070E+01 0.60701556622E+01 0.56460747028E+01
 0.54004658886E+01 0.53901689094E+01 0.56345797278E+01 0.61057851202E+01 0.67845221278E+01
 0.75295277529E+01 0.81441067550E+01 0.86003040862E+01 0.90223853220E+01 0.94193352267E+01
 0.96970227723E+01 0.94167112661E+01 0.85985787573E+01 0.75702570243E+01 0.68088494960E+01
 0.65201914584E+01 0.64920064077E+01 0.63771509310E+01 0.60546390649E+01 0.56674303788E+01
 0.53747431144E+01 0.52484327948E+01 0.53395807999E+01 0.56576945196E+01 0.61806605286E+01
 0.68988317490E+01 0.76891981493E+01 0.84040467569E+01 0.90035347644E+01 0.94813799026E+01
 0.94167112661E+01 0.95450168053E+01 0.91567800353E+01 0.83530175618E+01 0.75714976735E+01
 0.71672143564E+01 0.70754127759E+01 0.69499821613E+01 0.65788454164E+01 0.60701022057E+01