   1   1   0   0
  0.1350000E+02  0.2598076E-09  0.2598076E-09  0.2598076E-09  0.5000000E-15
  1.000000000000000E-004
  CAR 
 BCC W                                   
     34.67076950     -2.36098477  301      9.54812758      1.00000000
     -2.361  0.0000E+00  0.0000E+00
     -2.238  0.0000E+00  0.0000E+00
     -2.114  0.0000E+00  0.0000E+00
     -1.991 -0.3262E-29 -0.4027E-30
     -1.867 -0.4810E-25 -0.5937E-26
     -1.744 -0.3288E-21 -0.4059E-22
     -1.620 -0.1041E-17 -0.1285E-18
     -1.497 -0.1474E-14 -0.1821E-15
     -1.373 -0.9878E-12 -0.1221E-12
     -1.250 -0.3026E-09 -0.3748E-10
     -1.127 -0.4209E-07 -0.5233E-08
     -1.003 -0.2619E-05 -0.3285E-06
     -0.880 -0.7067E-04 -0.9052E-05
     -0.756 -0.7647E-03 -0.1034E-03
     -0.633 -0.2385E-02 -0.3978E-03
     -0.509  0.5778E-02  0.3154E-03
     -0.386  0.3584E-01  0.4739E-02
     -0.263  0.4529E-01  0.1033E-01
     -0.139  0.1374E-01  0.1203E-01
     -0.016 -0.1478E-02  0.1184E-01
      0.108  0.2926E-01  0.1545E-01
      0.231  0.6280E-01  0.2321E-01
      0.355  0.3225E-01  0.2719E-01
      0.478 -0.1843E-02  0.2696E-01
      0.602  0.6979E-01  0.3557E-01
      0.725  0.1859E+00  0.5852E-01
      0.848  0.1357E+00  0.7527E-01
      0.972  0.1829E-01  0.7752E-01
      1.095 -0.1025E-01  0.7626E-01
      1.219 -0.8712E-02  0.7518E-01
      1.342 -0.7990E-02  0.7420E-01
      1.466  0.6177E-01  0.8182E-01
      1.589  0.1954E+00  0.1059E+00
      1.713  0.1800E+00  0.1282E+00
      1.836  0.6380E-01  0.1360E+00
      1.959  0.1154E+00  0.1503E+00
      2.083  0.2715E+00  0.1838E+00
      2.206  0.2696E+00  0.2171E+00
      2.330  0.1065E+00  0.2302E+00
      2.453  0.6269E-01  0.2380E+00
      2.577  0.2685E+00  0.2711E+00
      2.700  0.5766E+00  0.3423E+00
      2.823  0.6554E+00  0.4232E+00
      2.947  0.4431E+00  0.4779E+00
      3.070  0.6435E+00  0.5573E+00
      3.194  0.1193E+01  0.7046E+00
      3.317  0.1195E+01  0.8521E+00
      3.441  0.5945E+00  0.9255E+00
      3.564  0.4197E+00  0.9773E+00
      3.688  0.8291E+00  0.1080E+01
      3.811  0.9592E+00  0.1198E+01
      3.934  0.7881E+00  0.1295E+01
      4.058  0.7576E+00  0.1389E+01
      4.181  0.1064E+01  0.1520E+01
      4.305  0.1319E+01  0.1683E+01
      4.428  0.1154E+01  0.1825E+01
      4.552  0.7940E+00  0.1923E+01
      4.675  0.5115E+00  0.1987E+01
      4.798  0.3216E+00  0.2026E+01
      4.922  0.2868E+00  0.2062E+01
      5.045  0.3946E+00  0.2110E+01
      5.169  0.5429E+00  0.2177E+01
      5.292  0.7416E+00  0.2269E+01
      5.416  0.9388E+00  0.2385E+01
      5.539  0.1038E+01  0.2513E+01
      5.663  0.8719E+00  0.2621E+01
      5.786  0.1294E+01  0.2780E+01
      5.909  0.2038E+01  0.3032E+01
      6.033  0.1752E+01  0.3248E+01
      6.156  0.8361E+00  0.3351E+01
      6.280  0.5923E+00  0.3424E+01
      6.403  0.1032E+01  0.3552E+01
      6.527  0.1033E+01  0.3679E+01
      6.650  0.7176E+00  0.3768E+01
      6.774  0.7046E+00  0.3855E+01
      6.897  0.6135E+00  0.3931E+01
      7.020  0.5191E+00  0.3995E+01
      7.144  0.1020E+01  0.4121E+01
      7.267  0.1776E+01  0.4340E+01
      7.391  0.1710E+01  0.4551E+01
      7.514  0.1616E+01  0.4751E+01
      7.638  0.1625E+01  0.4951E+01
      7.761  0.1073E+01  0.5084E+01
      7.884  0.4884E+00  0.5144E+01
      8.008  0.2841E+00  0.5179E+01
      8.131  0.5037E+00  0.5241E+01
      8.255  0.7369E+00  0.5332E+01
      8.378  0.5881E+00  0.5405E+01
      8.502  0.3228E+00  0.5445E+01
      8.625  0.7839E-01  0.5454E+01
      8.749  0.4320E-01  0.5460E+01
      8.872  0.4170E+00  0.5511E+01
      8.995  0.9276E+00  0.5625E+01
      9.119  0.9851E+00  0.5747E+01
      9.242  0.7428E+00  0.5839E+01
      9.366  0.6850E+00  0.5923E+01
      9.489  0.5110E+00  0.5986E+01
      9.613  0.1676E+00  0.6007E+01
      9.736  0.1109E+00  0.6021E+01
      9.859  0.1778E+00  0.6043E+01
      9.983  0.3213E+00  0.6082E+01
     10.106  0.5255E+00  0.6147E+01
     10.230  0.4626E+00  0.6204E+01
     10.353  0.2855E+00  0.6240E+01
     10.477  0.3499E+00  0.6283E+01
     10.600  0.7336E+00  0.6373E+01
     10.724  0.1011E+01  0.6498E+01
     10.847  0.7763E+00  0.6594E+01
     10.970  0.6368E+00  0.6673E+01
     11.094  0.7876E+00  0.6770E+01
     11.217  0.6475E+00  0.6850E+01
     11.341  0.3675E+00  0.6895E+01
     11.464  0.5207E+00  0.6959E+01
     11.588  0.9586E+00  0.7078E+01
     11.711  0.1070E+01  0.7210E+01
     11.835  0.9859E+00  0.7331E+01
     11.958  0.9894E+00  0.7454E+01
     12.081  0.9733E+00  0.7574E+01
     12.205  0.9282E+00  0.7688E+01
     12.328  0.8549E+00  0.7794E+01
     12.452  0.9661E+00  0.7913E+01
     12.575  0.1023E+01  0.8039E+01
     12.699  0.7575E+00  0.8133E+01
     12.822  0.7274E+00  0.8223E+01
     12.945  0.9506E+00  0.8340E+01
     13.069  0.8195E+00  0.8441E+01
     13.192  0.6568E+00  0.8522E+01
     13.316  0.1067E+01  0.8654E+01
     13.439  0.1557E+01  0.8846E+01
     13.563  0.1666E+01  0.9052E+01
     13.686  0.1745E+01  0.9267E+01
     13.810  0.1445E+01  0.9446E+01
     13.933  0.1360E+01  0.9613E+01
     14.056  0.1704E+01  0.9824E+01
     14.180  0.1360E+01  0.9992E+01
     14.303  0.7380E+00  0.1008E+02
     14.427  0.5823E+00  0.1015E+02
     14.550  0.5875E+00  0.1023E+02
     14.674  0.3152E+00  0.1027E+02
     14.797  0.1850E+00  0.1029E+02
     14.921  0.4202E+00  0.1034E+02
     15.044  0.4478E+00  0.1040E+02
     15.167  0.1966E+00  0.1042E+02
     15.291  0.9396E-01  0.1043E+02
     15.414  0.2128E+00  0.1046E+02
     15.538  0.2823E+00  0.1049E+02
     15.661  0.2211E+00  0.1052E+02
     15.785  0.1603E+00  0.1054E+02
     15.908  0.2129E+00  0.1057E+02
     16.031  0.1683E+00  0.1059E+02
     16.155  0.6159E-01  0.1059E+02
     16.278  0.1714E+00  0.1062E+02
     16.402  0.2972E+00  0.1065E+02
     16.525  0.2588E+00  0.1068E+02
     16.649  0.4598E+00  0.1074E+02
     16.772  0.9180E+00  0.1085E+02
     16.896  0.9457E+00  0.1097E+02
     17.019  0.6224E+00  0.1105E+02
     17.142  0.3140E+00  0.1109E+02
     17.266  0.2493E+00  0.1112E+02
     17.389  0.3660E+00  0.1116E+02
     17.513  0.2922E+00  0.1120E+02
     17.636  0.2133E+00  0.1123E+02
     17.760  0.2099E+00  0.1125E+02
     17.883  0.1708E+00  0.1127E+02
     18.006  0.9190E-01  0.1128E+02
     18.130  0.1681E+00  0.1130E+02
     18.253  0.2781E+00  0.1134E+02
     18.377  0.2656E+00  0.1137E+02
     18.500  0.2004E+00  0.1140E+02
     18.624  0.7276E-01  0.1141E+02
     18.747  0.1032E-02  0.1141E+02
     18.871  0.2092E-01  0.1141E+02
     18.994  0.1782E-01  0.1141E+02
     19.117  0.6925E-01  0.1142E+02
     19.241  0.3840E+00  0.1147E+02
     19.364  0.5401E+00  0.1153E+02
     19.488  0.2428E+00  0.1156E+02
     19.611  0.9403E-01  0.1157E+02
     19.735  0.1598E+00  0.1159E+02
     19.858  0.2543E+00  0.1163E+02
     19.982  0.5117E+00  0.1169E+02
     20.105  0.7334E+00  0.1178E+02
     20.228  0.6334E+00  0.1186E+02
     20.352  0.2553E+00  0.1189E+02
     20.475  0.4487E-02  0.1189E+02
     20.599 -0.2788E-01  0.1189E+02
     20.722  0.1235E+00  0.1190E+02
     20.846  0.3475E+00  0.1194E+02
     20.969  0.2718E+00  0.1198E+02
     21.092  0.1383E+00  0.1199E+02
     21.216  0.2928E+00  0.1203E+02
     21.339  0.3036E+00  0.1207E+02
     21.463  0.8822E-01  0.1208E+02
     21.586  0.1179E+00  0.1209E+02
     21.710  0.4946E+00  0.1215E+02
     21.833  0.7733E+00  0.1225E+02
     21.957  0.6649E+00  0.1233E+02
     22.080  0.7467E+00  0.1242E+02
     22.203  0.7782E+00  0.1252E+02
     22.327  0.4381E+00  0.1257E+02
     22.450  0.2074E+00  0.1260E+02
     22.574  0.1407E+00  0.1262E+02
     22.697  0.1977E+00  0.1264E+02
     22.821  0.2895E+00  0.1268E+02
     22.944  0.3503E+00  0.1272E+02
     23.067  0.3595E+00  0.1277E+02
     23.191  0.2163E+00  0.1279E+02
     23.314  0.5312E-01  0.1280E+02
     23.438  0.1760E+00  0.1282E+02
     23.561  0.5647E+00  0.1289E+02
     23.685  0.7785E+00  0.1299E+02
     23.808  0.5499E+00  0.1305E+02
     23.932  0.2291E+00  0.1308E+02
     24.055  0.3931E+00  0.1313E+02
     24.178  0.1051E+01  0.1326E+02
     24.302  0.1170E+01  0.1341E+02
     24.425  0.6075E+00  0.1348E+02
     24.549  0.9026E+00  0.1359E+02
     24.672  0.1540E+01  0.1378E+02
     24.796  0.1010E+01  0.1391E+02
     24.919  0.1698E+00  0.1393E+02
     25.043 -0.8342E-01  0.1392E+02
     25.166  0.1235E+00  0.1393E+02
     25.289  0.6204E+00  0.1401E+02
     25.413  0.7172E+00  0.1410E+02
     25.536  0.4134E+00  0.1415E+02
     25.660  0.2714E+00  0.1418E+02
     25.783  0.1297E+00  0.1420E+02
     25.907  0.2574E+00  0.1423E+02
     26.030  0.9055E+00  0.1434E+02
     26.153  0.1234E+01  0.1449E+02
     26.277  0.1035E+01  0.1462E+02
     26.400  0.7293E+00  0.1471E+02
     26.524  0.4710E+00  0.1477E+02
     26.647  0.6324E+00  0.1485E+02
     26.771  0.8932E+00  0.1496E+02
     26.894  0.7845E+00  0.1505E+02
     27.018  0.4438E+00  0.1511E+02
     27.141  0.2957E+00  0.1515E+02
     27.264  0.2489E+00  0.1518E+02
     27.388  0.1075E+00  0.1519E+02
     27.511  0.7181E-01  0.1520E+02
     27.635  0.2717E+00  0.1523E+02
     27.758  0.4120E+00  0.1528E+02
     27.882  0.3700E+00  0.1533E+02
     28.005  0.3039E+00  0.1537E+02
     28.128  0.1937E+00  0.1539E+02
     28.252  0.2671E+00  0.1542E+02
     28.375  0.3689E+00  0.1547E+02
     28.499  0.3922E+00  0.1552E+02
     28.622  0.5376E+00  0.1558E+02
     28.746  0.5313E+00  0.1565E+02
     28.869  0.4186E+00  0.1570E+02
     28.993  0.4869E+00  0.1576E+02
     29.116  0.4384E+00  0.1582E+02
     29.239  0.1576E+00  0.1583E+02
     29.363 -0.5145E-02  0.1583E+02
     29.486  0.8102E-02  0.1583E+02
     29.610  0.3861E-01  0.1584E+02
     29.733  0.2388E-01  0.1584E+02
     29.857  0.7802E-01  0.1585E+02
     29.980  0.1857E+00  0.1588E+02
     30.104  0.1300E+00  0.1589E+02
     30.227  0.8106E-02  0.1589E+02
     30.350 -0.5788E-02  0.1589E+02
     30.474  0.1005E+00  0.1590E+02
     30.597  0.1919E+00  0.1593E+02
     30.721  0.1001E+00  0.1594E+02
     30.844 -0.3610E-02  0.1594E+02
     30.968  0.4414E-01  0.1595E+02
     31.091  0.1734E+00  0.1597E+02
     31.214  0.1560E+00  0.1599E+02
     31.338  0.3245E-01  0.1599E+02
     31.461 -0.9427E-02  0.1599E+02
     31.585 -0.3706E-02  0.1599E+02
     31.708 -0.3813E-03  0.1599E+02
     31.832 -0.1550E-04  0.1599E+02
     31.955 -0.5186E-06  0.1599E+02
     32.079 -0.1102E-04  0.1599E+02
     32.202 -0.2084E-03  0.1599E+02
     32.325 -0.1472E-02  0.1599E+02
     32.449 -0.1524E-02  0.1599E+02
     32.572  0.1626E-01  0.1599E+02
     32.696  0.4575E-01  0.1600E+02
     32.819  0.3587E-01  0.1600E+02
     32.943  0.5779E-02  0.1600E+02
     33.066 -0.2385E-02  0.1600E+02
     33.189 -0.7647E-03  0.1600E+02
     33.313 -0.7067E-04  0.1600E+02
     33.436 -0.2619E-05  0.1600E+02
     33.560 -0.4209E-07  0.1600E+02
     33.683 -0.3026E-09  0.1600E+02
     33.807 -0.9878E-12  0.1600E+02
     33.930 -0.1489E-14  0.1600E+02
     34.054  0.0000E+00  0.1600E+02
     34.177  0.0000E+00  0.1600E+02
     34.300  0.0000E+00  0.1600E+02
     34.424  0.0000E+00  0.1600E+02
     34.547  0.0000E+00  0.1600E+02
     34.671  0.0000E+00  0.1600E+02
