    1    1    1    1
  0.1350000E+02  0.2598076E-09  0.2598076E-09  0.2598076E-09  0.5000000E-15
  1.000000000000000E-004
  CAR 
 BCC W                                   
      6     44      8
 
  0.5000000E-01  0.5000000E-01  0.5000000E-01  0.8000000E-02
    1        0.180241   1.000000
    2        7.743060   1.000000
    3        7.743060   1.000000
    4        9.228587   1.023172
    5       12.022129  -0.000000
    6       12.022129  -0.000000
    7       26.007443   0.000000
    8       27.344776   0.000000
 
  0.1500000E+00  0.5000000E-01  0.5000000E-01  0.2400000E-01
    1        1.565519   1.000000
    2        6.886840   1.000000
    3        7.243777   1.000000
    4       11.084750  -0.000000
    5       11.631496  -0.000000
    6       12.379983  -0.000000
    7       26.867485   0.000000
    8       28.899426   0.000000
 
  0.2500000E+00  0.5000000E-01  0.5000000E-01  0.2400000E-01
    1        2.768390   1.000000
    2        6.056109   1.000000
    3        7.457192   1.000000
    4       11.952981  -0.000000
    5       12.819369  -0.000000
    6       13.776523  -0.000000
    7       25.525245   0.000000
    8       27.648176   0.000000
 
  0.3500000E+00  0.5000000E-01  0.5000000E-01  0.2400000E-01
    1        2.815391   1.000000
    2        5.491203   1.000000
    3        9.349310   1.024503
    4       12.478523  -0.000000
    5       13.311616  -0.000000
    6       16.622210   0.000000
    7       23.464901   0.000000
    8       24.609583   0.000000
 
  0.4500000E+00  0.5000000E-01  0.5000000E-01  0.1200000E-01
    1        2.668823   1.000000
    2        5.293235   1.000000
    3       10.806881  -0.000000
    4       12.474823  -0.000000
    5       13.565172  -0.000000
    6       18.100604   0.000000
    7       22.605445   0.000000
    8       23.133468   0.000000
 
 -0.5000000E-01  0.5000000E-01  0.5000000E-01  0.6000000E-02
    1       -0.360985   1.000000
    2        8.159301   1.000000
    3        8.159318   1.000000
    4        8.321607   1.000000
    5       11.841738  -0.000000
    6       12.504104  -0.000000
    7       26.005110   0.000000
    8       26.005110   0.000000
 
  0.1500000E+00  0.1500000E+00  0.5000000E-01  0.2400000E-01
    1        3.024838   1.000000
    2        6.346097   1.000000
    3        6.439851   1.000000
    4       11.728725  -0.000000
    5       12.895829  -0.000000
    6       13.751693  -0.000000
    7       27.169940   0.000000
    8       27.976342   0.000000
 
  0.2500000E+00  0.1500000E+00  0.5000000E-01  0.4800000E-01
    1        3.793420   1.000000
    2        5.763570   1.000000
    3        7.220596   1.000000
    4       12.158631  -0.000000
    5       13.380740  -0.000000
    6       16.815282   0.000000
    7       24.624708   0.000000
    8       26.284574   0.000000
 
  0.3500000E+00  0.1500000E+00  0.5000000E-01  0.4800000E-01
    1        3.622559   1.000000
    2        5.488736   1.000000
    3        8.980078   1.000222
    4       12.568502  -0.000000
    5       13.691727  -0.000000
    6       19.259728   0.000000
    7       22.103622   0.000000
    8       24.232759   0.000000
 
 -0.1500000E+00  0.1500000E+00  0.5000000E-01  0.2400000E-01
    1        0.692450   1.000000
    2        7.566772   1.000000
    3        7.934446   1.000000
    4        9.413900   0.949391
    5       10.951003  -0.000000
    6       12.747859  -0.000000
    7       26.835930   0.000000
    8       27.863389   0.000000
 
  0.2500000E+00  0.2500000E+00  0.5000000E-01  0.2400000E-01
    1        4.390843   1.000000
    2        5.978944   1.000000
    3        7.408659   1.000000
    4       12.583817  -0.000000
    5       13.582403  -0.000000
    6       19.920654   0.000000
    7       21.766738   0.000000
    8       26.006174   0.000000
 
  0.3500000E+00  0.2500000E+00  0.5000000E-01  0.2400000E-01
    1        4.424632   1.000000
    2        6.163358   1.000000
    3        7.759985   1.000000
    4       12.945119  -0.000000
    5       13.640320  -0.000000
    6       20.052666   0.000000
    7       21.845414   0.000000
    8       24.554331   0.000000
 
 -0.2500000E+00  0.2500000E+00  0.5000000E-01  0.2400000E-01
    1        2.160131   1.000000
    2        6.682082   1.000000
    3        7.533534   1.000000
    4       11.044236  -0.000000
    5       11.584699  -0.000000
    6       13.031739  -0.000000
    7       26.281626   0.000000
    8       29.073238   0.000000
 
 -0.1500000E+00  0.2500000E+00  0.5000000E-01  0.2400000E-01
    1        2.006681   1.000000
    2        7.249889   1.000000
    3        7.329929   1.000000
    4       10.249134  -0.000004
    5       10.964374  -0.000000
    6       13.319454  -0.000000
    7       27.669385   0.000000
    8       28.266899   0.000000
 
 -0.3500000E+00  0.3500000E+00  0.5000000E-01  0.2400000E-01
    1        2.716570   1.000000
    2        5.923100   1.000000
    3        8.428220   1.000000
    4       11.896664  -0.000000
    5       13.393619  -0.000000
    6       14.429770  -0.000000
    7       24.163795   0.000000
    8       26.622450   0.000000
 
 -0.2500000E+00  0.3500000E+00  0.5000000E-01  0.4800000E-01
    1        3.206394   1.000000
    2        6.404156   1.000000
    3        7.260070   1.000000
    4       10.727938  -0.000000
    5       13.348382  -0.000000
    6       13.936478  -0.000000
    7       25.282904   0.000000
    8       28.693419   0.000000
 
 -0.4500000E+00  0.4500000E+00  0.5000000E-01  0.2400000E-01
    1        2.533309   1.000000
    2        5.501482   1.000000
    3       10.133771  -0.000139
    4       12.136485  -0.000000
    5       14.143051  -0.000000
    6       16.996685   0.000000
    7       22.905860   0.000000
    8       24.155066   0.000000
 
 -0.3500000E+00  0.4500000E+00  0.5000000E-01  0.4800000E-01
    1        3.266423   1.000000
    2        5.965678   1.000000
    3        8.217305   1.000000
    4       11.546374  -0.000000
    5       14.030681  -0.000000
    6       16.750498   0.000000
    7       23.730272   0.000000
    8       26.005347   0.000000
 
 -0.2500000E+00  0.4500000E+00  0.5000000E-01  0.2400000E-01
    1        4.105037   1.000000
    2        5.808830   1.000000
    3        7.469803   1.000000
    4       11.137263  -0.000000
    5       13.557347  -0.000000
    6       16.990057   0.000000
    7       23.975370   0.000000
    8       28.293850   0.000000
 
 -0.4500000E+00 -0.4500000E+00  0.5000000E-01  0.2400000E-01
    1        3.104428   1.000000
    2        5.814468   1.000000
    3        8.984826   1.000251
    4       11.461489  -0.000000
    5       14.904260  -0.000000
    6       18.421941   0.000000
    7       22.743130   0.000000
    8       24.626118   0.000000
 
 -0.3500000E+00 -0.4500000E+00  0.5000000E-01  0.4800000E-01
    1        4.201394   1.000000
    2        5.922593   1.000000
    3        7.513668   1.000000
    4       11.823085  -0.000000
    5       13.967700  -0.000000
    6       20.152572   0.000000
    7       21.777927   0.000000
    8       26.115233   0.000000
 
 -0.3500000E+00 -0.3500000E+00  0.5000000E-01  0.8000000E-02
    1        4.781998   1.000000
    2        6.381650   1.000000
    3        6.381658   1.000000
    4       13.142793  -0.000000
    5       13.142804  -0.000000
    6       20.290176   0.000000
    7       23.626679   0.000000
    8       23.626718   0.000000
 
  0.1500000E+00  0.1500000E+00  0.1500000E+00  0.8000000E-02
    1        4.681589   1.000000
    2        5.802932   1.000000
    3        5.802932   1.000000
    4       12.849139  -0.000000
    5       12.849139  -0.000000
    6       17.003435   0.000000
    7       26.414765   0.000000
    8       27.016697   0.000000
 
  0.2500000E+00  0.1500000E+00  0.1500000E+00  0.2400000E-01
    1        4.924640   1.000000
    2        5.548543   1.000000
    3        7.199008   1.000000
    4       13.102807  -0.000000
    5       13.493065  -0.000000
    6       19.938044   0.000000
    7       22.054927   0.000000
    8       25.284851   0.000000
 
  0.3500000E+00  0.1500000E+00  0.1500000E+00  0.1200000E-01
    1        4.737471   1.000000
    2        5.478147   1.000000
    3        8.419842   1.000000
    4       13.222691  -0.000000
    5       13.691527  -0.000000
    6       20.114199   0.000000
    7       21.183642   0.000000
    8       24.607632   0.000000
 
 -0.1500000E+00  0.1500000E+00  0.1500000E+00  0.6000000E-02
    1        1.691007   1.000000
    2        8.194341   1.000000
    3        8.194359   1.000000
    4        9.061460   1.001552
    5        9.382754   0.996606
    6       13.601990  -0.000000
    7       29.004608   0.000000
    8       29.555243   0.000000
 
  0.2500000E+00  0.2500000E+00  0.1500000E+00  0.2400000E-01
    1        5.290643   1.000000
    2        6.282824   1.000000
    3        7.209485   1.000000
    4       13.507280  -0.000000
    5       13.683717  -0.000000
    6       19.316764   0.000000
    7       22.380493   0.000000
    8       24.652835   0.000000
 
 -0.2500000E+00  0.2500000E+00  0.1500000E+00  0.2400000E-01
    1        3.109078   1.000000
    2        7.133532   1.000000
    3        7.731241   1.000000
    4        9.344365   1.026971
    5       11.225220  -0.000000
    6       13.998640  -0.000000
    7       26.142899   0.000000
    8       30.536509   0.000000
 
 -0.3500000E+00  0.3500000E+00  0.1500000E+00  0.2400000E-01
    1        3.670736   1.000000
    2        6.800879   1.000000
    3        7.073927   1.000000
    4       10.531108  -0.000000
    5       14.075478  -0.000000
    6       14.492063  -0.000000
    7       24.758120   0.000000
    8       28.978438   0.000000
 
 -0.2500000E+00  0.3500000E+00  0.1500000E+00  0.2400000E-01
    1        4.215333   1.000000
    2        5.902015   1.000000
    3        8.104554   1.000000
    4        9.745959  -0.023965
    5       12.915492  -0.000000
    6       14.572040  -0.000000
    7       25.332561   0.000000
    8       31.079205   0.000000
 
 -0.4500000E+00  0.4500000E+00  0.1500000E+00  0.2400000E-01
    1        3.378738   1.000000
    2        6.689182   1.000000
    3        7.577372   1.000000
    4       10.443123  -0.000000
    5       16.411420   0.000000
    6       16.714637   0.000000
    7       23.595424   0.000000
    8       26.606701   0.000000
 
 -0.3500000E+00  0.4500000E+00  0.1500000E+00  0.4800000E-01
    1        4.297223   1.000000
    2        5.791655   1.000000
    3        7.609473   1.000000
    4       10.636202  -0.000000
    5       14.213052  -0.000000
    6       17.319623   0.000000
    7       24.237333   0.000000
    8       28.536731   0.000000
 
 -0.4500000E+00 -0.4500000E+00  0.1500000E+00  0.2400000E-01
    1        4.022723   1.000000
    2        6.473618   1.000000
    3        6.935965   1.000000
    4       10.670187  -0.000000
    5       15.597272   0.000000
    6       19.662872   0.000000
    7       22.210970   0.000000
    8       26.668825   0.000000
 
 -0.3500000E+00 -0.4500000E+00  0.1500000E+00  0.2400000E-01
    1        5.041398   1.000000
    2        5.258637   1.000000
    3        6.669826   1.000000
    4       12.341787  -0.000000
    5       14.003167  -0.000000
    6       20.846434   0.000000
    7       22.050067   0.000000
    8       25.653787   0.000000
 
  0.2500000E+00  0.2500000E+00  0.2500000E+00  0.2000000E-02
    1        6.437935   1.000000
    2        6.437935   1.000000
    3        6.437953   1.000000
    4       13.769557  -0.000000
    5       13.769557  -0.000000
    6       18.278281   0.000000
    7       24.241671   0.000000
    8       24.241676   0.000000
 
 -0.2500000E+00  0.2500000E+00  0.2500000E+00  0.6000000E-02
    1        4.287438   1.000000
    2        6.038851   1.000000
    3        9.121588   1.005087
    4        9.121607   1.005089
    5       11.352139  -0.000000
    6       14.180454  -0.000000
    7       26.019006   0.000000
    8       32.670770   0.000000
 
 -0.3500000E+00  0.3500000E+00  0.2500000E+00  0.2400000E-01
    1        4.560454   1.000000
    2        5.117826   1.000000
    3        9.181583   1.013206
    4       10.031214  -0.001676
    5       13.628453  -0.000000
    6       14.880774  -0.000000
    7       26.396002   0.000000
    8       29.944069   0.000000
 
 -0.4500000E+00  0.4500000E+00  0.2500000E+00  0.2400000E-01
    1        3.931041   1.000000
    2        5.278893   1.000000
    3        8.938269   1.000071
    4       10.008316  -0.002689
    5       16.287872   0.000000
    6       17.788041   0.000000
    7       23.560166   0.000000
    8       26.724314   0.000000
 
 -0.3500000E+00  0.4500000E+00  0.2500000E+00  0.2400000E-01
    1        4.119968   1.000000
    2        4.589576   1.000000
    3        9.106114   1.003828
    4       11.675673  -0.000000
    5       14.390813  -0.000000
    6       17.561435   0.000000
    7       24.623316   0.000000
    8       26.818304   0.000000
 
 -0.4500000E+00 -0.4500000E+00  0.2500000E+00  0.2400000E-01
    1        3.888187   1.000000
    2        4.413556   1.000000
    3        8.827457   1.000002
    4       12.399171  -0.000000
    5       15.389054   0.000000
    6       20.797499   0.000000
    7       21.621978   0.000000
    8       24.482682   0.000000
 
 -0.3500000E+00  0.3500000E+00  0.3500000E+00  0.6000000E-02
    1        3.794271   1.000000
    2        4.297956   1.000000
    3       11.424693  -0.000000
    4       11.424715  -0.000000
    5       13.844705  -0.000000
    6       15.431576   0.000000
    7       27.088738   0.000000
    8       27.088759   0.000000
 
 -0.4500000E+00  0.4500000E+00  0.3500000E+00  0.2400000E-01
    1        3.249403   1.000000
    2        3.640059   1.000000
    3       11.979128  -0.000000
    4       12.212326  -0.000000
    5       15.902816   0.000000
    6       18.205039   0.000000
    7       23.030126   0.000000
    8       24.136508   0.000000
 
 -0.4500000E+00 -0.4500000E+00  0.3500000E+00  0.8000000E-02
    1        3.084557   1.000000
    2        3.084557   1.000000
    3       12.035241  -0.000000
    4       15.079402   0.000000
    5       15.079441   0.000000
    6       21.194749   0.000000
    7       21.194766   0.000000
    8       21.278693   0.000000
 
 -0.4500000E+00  0.4500000E+00  0.4500000E+00  0.6000000E-02
    1        2.626784   1.000000
    2        2.740325   1.000000
    3       14.958375  -0.000000
    4       14.958409  -0.000000
    5       15.853987   0.000000
    6       18.893637   0.000000
    7       21.253239   0.000000
    8       21.253249   0.000000
