 running on    4 total cores
 distrk:  each k-point on    4 cores,    1 groups
 distr:  one band on    1 cores,    4 groups
 using from now: INCAR     
 vasp.5.4.4.18Apr17-6-g9f103f2a35 (build Jul 01 2019 03:25:34) complex          
  
 POSCAR found type information on POSCAR  W 
 POSCAR found :  1 types and       1 ions
 scaLAPACK will be used
 LDA part: xc-table for Ceperly-Alder, standard interpolation
 POSCAR, INCAR and KPOINTS ok, starting setup
 FFT: planning ...
 WAVECAR not read
 entering main loop
       N       E                     dE             d eps       ncg     rms          rms(c)
DAV:   1    -0.108317889696E+02   -0.10832E+02   -0.20314E+03   968   0.302E+02
DAV:   2    -0.145289258321E+02   -0.36971E+01   -0.36523E+01   816   0.488E+01
DAV:   3    -0.145395361818E+02   -0.10610E-01   -0.10610E-01   984   0.264E+00
DAV:   4    -0.145395403429E+02   -0.41611E-05   -0.41620E-05   824   0.360E-02
DAV:   5    -0.145395403475E+02   -0.45173E-08   -0.45033E-08   768   0.103E-03    0.372E+00
DAV:   6    -0.141236449479E+02    0.41590E+00   -0.22269E-01   760   0.302E+00    0.200E+00
DAV:   7    -0.139371213244E+02    0.18652E+00   -0.29188E-01   784   0.341E+00    0.146E-01
DAV:   8    -0.139349814284E+02    0.21399E-02   -0.16679E-03   792   0.296E-01    0.410E-02
DAV:   9    -0.139349088073E+02    0.72621E-04   -0.18979E-04   840   0.866E-02
   1 F= -.13934909E+02 E0= -.13935635E+02  d E =0.217765E-02
 writing wavefunctions
