 vasp.5.4.4.18Apr17-6-g9f103f2a35 (build Jul 01 2019 03:25:34) complex          
  
 executed on             LinuxIFC date 2020.07.08  19:51:27
 running on    4 total cores
 distrk:  each k-point on    4 cores,    1 groups
 distr:  one band on NCORES_PER_BAND=   1 cores,    4 groups


--------------------------------------------------------------------------------------------------------


 INCAR:
 POTCAR:   PAW W 19Jan2001                        
 POTCAR:   PAW W 19Jan2001                        
   VRHFIN =W: 5p6s5d                                                            
   LEXCH  = CA                                                                  
   EATOM  =   206.5370 eV,   15.1800 Ry                                         
                                                                                
   TITEL  = PAW W 19Jan2001                                                     
   LULTRA =        F    use ultrasoft PP ?                                      
   IUNSCR =        1    unscreen: 0-lin 1-nonlin 2-no                           
   RPACOR =    2.330    partial core radius                                     
   POMASS =  183.850; ZVAL   =    6.000    mass and valenz                      
   RCORE  =    2.750    outmost cutoff radius                                   
   RWIGS  =    2.750; RWIGS  =    1.455    wigner-seitz radius (au A)           
   ENMAX  =  223.126; ENMIN  =  167.344 eV                                      
   RCLOC  =    2.147    cutoff for local pot                                    
   LCOR   =        T    correct aug charges                                     
   LPAW   =        T    paw PP                                                  
   EAUG   =  373.438                                                            
   DEXC   =    -.048                                                            
   RMAX   =    3.087    core radius for proj-oper                               
   RAUG   =    1.300    factor for augmentation sphere                          
   RDEP   =    2.886    radius for radial grids                                 
   QCUT   =   -4.050; QGAM   =    8.099    optimization parameters              
                                                                                
   Description                                                                  
     l     E      TYP  RCUT    TYP  RCUT                                        
     2   .000     23  2.500                                                     
     2   .000     23  2.500                                                     
     0   .000     23  2.500                                                     
     0   .000     23  2.500                                                     
     1   .200     23  2.750                                                     
     1  2.000     23  2.750                                                     
     3   .000      7   .000                                                     
  local pseudopotential read in
  partial core-charges read in
  atomic valenz-charges read in
  non local Contribution for L=           2  read in
    real space projection operators read in
  non local Contribution for L=           2  read in
    real space projection operators read in
  non local Contribution for L=           0  read in
    real space projection operators read in
  non local Contribution for L=           0  read in
    real space projection operators read in
  non local Contribution for L=           1  read in
    real space projection operators read in
  non local Contribution for L=           1  read in
    real space projection operators read in
    PAW grid and wavefunctions read in
 
   number of l-projection  operators is LMAX  =           6
   number of lm-projection operators is LMMAX =          18
 
 PAW W 19Jan2001                        :
 energy of atom  1       EATOM= -206.5370
 kinetic energy error for atom=    0.0291 (will be added to EATOM!!)
 
 
 POSCAR: BCC W Bulk                              
  positions in direct lattice
  No initial velocities read in
 exchange correlation table for  LEXCH =        2
   RHO(1)=    0.500       N(1)  =     2000
   RHO(2)=  100.500       N(2)  =     4000
 


--------------------------------------------------------------------------------------------------------


 ion  position               nearest neighbor table
   1  0.000  0.000  0.000-
 
  LATTYP: Found a body centered cubic cell.
 ALAT       =     3.0000000000
  
  Lattice vectors:
  
 A1 = (  -1.5000000000,   1.5000000000,   1.5000000000)
 A2 = (   1.5000000000,  -1.5000000000,   1.5000000000)
 A3 = (   1.5000000000,   1.5000000000,  -1.5000000000)


Analysis of symmetry for initial positions (statically):
=====================================================================
 Subroutine PRICEL returns:
 Original cell was already a primitive cell.
 

 Routine SETGRP: Setting up the symmetry group for a 
 body centered cubic supercell.


 Subroutine GETGRP returns: Found 48 space group operations
 (whereof 48 operations were pure point group operations)
 out of a pool of 48 trial point group operations.


The static configuration has the point symmetry O_h .


Analysis of symmetry for dynamics (positions and initial velocities):
=====================================================================
 Subroutine PRICEL returns:
 Original cell was already a primitive cell.
 

 Routine SETGRP: Setting up the symmetry group for a 
 body centered cubic supercell.


 Subroutine GETGRP returns: Found 48 space group operations
 (whereof 48 operations were pure point group operations)
 out of a pool of 48 trial point group operations.


The dynamic configuration has the point symmetry O_h .


 Subroutine INISYM returns: Found 48 space group operations
 (whereof 48 operations are pure point group operations),
 and found     1 'primitive' translations

 
 
 KPOINTS: 10x10x10                                

Automatic generation of k-mesh.
Space group operators:
 irot       det(A)        alpha          n_x          n_y          n_z        tau_x        tau_y        tau_z
    1     1.000000     0.000000     1.000000     0.000000     0.000000     0.000000     0.000000     0.000000
    2    -1.000000     0.000000     1.000000     0.000000     0.000000     0.000000     0.000000     0.000000
    3     1.000000   120.000000    -0.577350    -0.577350    -0.577350     0.000000     0.000000     0.000000
    4    -1.000000   120.000000    -0.577350    -0.577350    -0.577350     0.000000     0.000000     0.000000
    5     1.000000   120.000000     0.577350     0.577350     0.577350     0.000000     0.000000     0.000000
    6    -1.000000   120.000000     0.577350     0.577350     0.577350     0.000000     0.000000     0.000000
    7     1.000000    90.000000     0.000000     0.000000    -1.000000     0.000000     0.000000     0.000000
    8    -1.000000    90.000000     0.000000     0.000000    -1.000000     0.000000     0.000000     0.000000
    9     1.000000   180.000000     0.000000     0.707107     0.707107     0.000000     0.000000     0.000000
   10    -1.000000   180.000000     0.000000     0.707107     0.707107     0.000000     0.000000     0.000000
   11     1.000000    90.000000     0.000000     1.000000     0.000000     0.000000     0.000000     0.000000
   12    -1.000000    90.000000     0.000000     1.000000     0.000000     0.000000     0.000000     0.000000
   13     1.000000   180.000000     0.000000     0.000000     1.000000     0.000000     0.000000     0.000000
   14    -1.000000   180.000000     0.000000     0.000000     1.000000     0.000000     0.000000     0.000000
   15     1.000000   120.000000    -0.577350     0.577350     0.577350     0.000000     0.000000     0.000000
   16    -1.000000   120.000000    -0.577350     0.577350     0.577350     0.000000     0.000000     0.000000
   17     1.000000   120.000000    -0.577350     0.577350    -0.577350     0.000000     0.000000     0.000000
   18    -1.000000   120.000000    -0.577350     0.577350    -0.577350     0.000000     0.000000     0.000000
   19     1.000000    90.000000     0.000000     0.000000     1.000000     0.000000     0.000000     0.000000
   20    -1.000000    90.000000     0.000000     0.000000     1.000000     0.000000     0.000000     0.000000
   21     1.000000    90.000000    -1.000000     0.000000     0.000000     0.000000     0.000000     0.000000
   22    -1.000000    90.000000    -1.000000     0.000000     0.000000     0.000000     0.000000     0.000000
   23     1.000000   180.000000     0.707107     0.000000     0.707107     0.000000     0.000000     0.000000
   24    -1.000000   180.000000     0.707107     0.000000     0.707107     0.000000     0.000000     0.000000
   25     1.000000   120.000000     0.577350    -0.577350     0.577350     0.000000     0.000000     0.000000
   26    -1.000000   120.000000     0.577350    -0.577350     0.577350     0.000000     0.000000     0.000000
   27     1.000000   120.000000    -0.577350    -0.577350     0.577350     0.000000     0.000000     0.000000
   28    -1.000000   120.000000    -0.577350    -0.577350     0.577350     0.000000     0.000000     0.000000
   29     1.000000   180.000000     1.000000     0.000000     0.000000     0.000000     0.000000     0.000000
   30    -1.000000   180.000000     1.000000     0.000000     0.000000     0.000000     0.000000     0.000000
   31     1.000000    90.000000     0.000000    -1.000000     0.000000     0.000000     0.000000     0.000000
   32    -1.000000    90.000000     0.000000    -1.000000     0.000000     0.000000     0.000000     0.000000
   33     1.000000   180.000000     0.707107     0.707107     0.000000     0.000000     0.000000     0.000000
   34    -1.000000   180.000000     0.707107     0.707107     0.000000     0.000000     0.000000     0.000000
   35     1.000000    90.000000     1.000000     0.000000     0.000000     0.000000     0.000000     0.000000
   36    -1.000000    90.000000     1.000000     0.000000     0.000000     0.000000     0.000000     0.000000
   37     1.000000   120.000000     0.577350    -0.577350    -0.577350     0.000000     0.000000     0.000000
   38    -1.000000   120.000000     0.577350    -0.577350    -0.577350     0.000000     0.000000     0.000000
   39     1.000000   180.000000     0.000000     1.000000     0.000000     0.000000     0.000000     0.000000
   40    -1.000000   180.000000     0.000000     1.000000     0.000000     0.000000     0.000000     0.000000
   41     1.000000   120.000000     0.577350     0.577350    -0.577350     0.000000     0.000000     0.000000
   42    -1.000000   120.000000     0.577350     0.577350    -0.577350     0.000000     0.000000     0.000000
   43     1.000000   180.000000     0.000000    -0.707107     0.707107     0.000000     0.000000     0.000000
   44    -1.000000   180.000000     0.000000    -0.707107     0.707107     0.000000     0.000000     0.000000
   45     1.000000   180.000000     0.707107    -0.707107     0.000000     0.000000     0.000000     0.000000
   46    -1.000000   180.000000     0.707107    -0.707107     0.000000     0.000000     0.000000     0.000000
   47     1.000000   180.000000     0.707107     0.000000    -0.707107     0.000000     0.000000     0.000000
   48    -1.000000   180.000000     0.707107     0.000000    -0.707107     0.000000     0.000000     0.000000
 
 Subroutine IBZKPT returns following result:
 ===========================================
 
 Found     44 irreducible k-points:
 
 Following reciprocal coordinates:
            Coordinates               Weight
  0.050000  0.050000  0.050000      8.000000
  0.150000  0.050000  0.050000     24.000000
  0.250000  0.050000  0.050000     24.000000
  0.350000  0.050000  0.050000     24.000000
  0.450000  0.050000  0.050000     12.000000
 -0.050000  0.050000  0.050000      6.000000
  0.150000  0.150000  0.050000     24.000000
  0.250000  0.150000  0.050000     48.000000
  0.350000  0.150000  0.050000     48.000000
 -0.150000  0.150000  0.050000     24.000000
  0.250000  0.250000  0.050000     24.000000
  0.350000  0.250000  0.050000     24.000000
 -0.250000  0.250000  0.050000     24.000000
 -0.150000  0.250000  0.050000     24.000000
 -0.350000  0.350000  0.050000     24.000000
 -0.250000  0.350000  0.050000     48.000000
 -0.450000  0.450000  0.050000     24.000000
 -0.350000  0.450000  0.050000     48.000000
 -0.250000  0.450000  0.050000     24.000000
 -0.450000 -0.450000  0.050000     24.000000
 -0.350000 -0.450000  0.050000     48.000000
 -0.350000 -0.350000  0.050000      8.000000
  0.150000  0.150000  0.150000      8.000000
  0.250000  0.150000  0.150000     24.000000
  0.350000  0.150000  0.150000     12.000000
 -0.150000  0.150000  0.150000      6.000000
  0.250000  0.250000  0.150000     24.000000
 -0.250000  0.250000  0.150000     24.000000
 -0.350000  0.350000  0.150000     24.000000
 -0.250000  0.350000  0.150000     24.000000
 -0.450000  0.450000  0.150000     24.000000
 -0.350000  0.450000  0.150000     48.000000
 -0.450000 -0.450000  0.150000     24.000000
 -0.350000 -0.450000  0.150000     24.000000
  0.250000  0.250000  0.250000      2.000000
 -0.250000  0.250000  0.250000      6.000000
 -0.350000  0.350000  0.250000     24.000000
 -0.450000  0.450000  0.250000     24.000000
 -0.350000  0.450000  0.250000     24.000000
 -0.450000 -0.450000  0.250000     24.000000
 -0.350000  0.350000  0.350000      6.000000
 -0.450000  0.450000  0.350000     24.000000
 -0.450000 -0.450000  0.350000      8.000000
 -0.450000  0.450000  0.450000      6.000000
 
 Following cartesian coordinates:
            Coordinates               Weight
  0.100000  0.100000  0.100000      8.000000
  0.100000  0.200000  0.200000     24.000000
  0.100000  0.300000  0.300000     24.000000
  0.100000  0.400000  0.400000     24.000000
  0.100000  0.500000  0.500000     12.000000
  0.100000  0.000000  0.000000      6.000000
  0.200000  0.200000  0.300000     24.000000
  0.200000  0.300000  0.400000     48.000000
  0.200000  0.400000  0.500000     48.000000
  0.200000 -0.100000  0.000000     24.000000
  0.300000  0.300000  0.500000     24.000000
  0.300000  0.400000  0.600000     24.000000
  0.300000 -0.200000  0.000000     24.000000
  0.300000 -0.100000  0.100000     24.000000
  0.400000 -0.300000  0.000000     24.000000
  0.400000 -0.200000  0.100000     48.000000
  0.500000 -0.400000  0.000000     24.000000
  0.500000 -0.300000  0.100000     48.000000
  0.500000 -0.200000  0.200000     24.000000
 -0.400000 -0.400000 -0.900000     24.000000
 -0.400000 -0.300000 -0.800000     48.000000
 -0.300000 -0.300000 -0.700000      8.000000
  0.300000  0.300000  0.300000      8.000000
  0.300000  0.400000  0.400000     24.000000
  0.300000  0.500000  0.500000     12.000000
  0.300000  0.000000  0.000000      6.000000
  0.400000  0.400000  0.500000     24.000000
  0.400000 -0.100000  0.000000     24.000000
  0.500000 -0.200000  0.000000     24.000000
  0.500000 -0.100000  0.100000     24.000000
  0.600000 -0.300000  0.000000     24.000000
  0.600000 -0.200000  0.100000     48.000000
 -0.300000 -0.300000 -0.900000     24.000000
 -0.300000 -0.200000 -0.800000     24.000000
  0.500000  0.500000  0.500000      2.000000
  0.500000  0.000000  0.000000      6.000000
  0.600000 -0.100000  0.000000     24.000000
  0.700000 -0.200000  0.000000     24.000000
  0.700000 -0.100000  0.100000     24.000000
 -0.200000 -0.200000 -0.900000     24.000000
  0.700000  0.000000  0.000000      6.000000
  0.800000 -0.100000  0.000000     24.000000
 -0.100000 -0.100000 -0.900000      8.000000
  0.900000  0.000000  0.000000      6.000000
 


--------------------------------------------------------------------------------------------------------




 Dimension of arrays:
   k-points           NKPTS =     44   k-points in BZ     NKDIM =     44   number of bands    NBANDS=      8
   number of dos      NEDOS =    301   number of ions     NIONS =      1
   non local maximal  LDIM  =      6   non local SUM 2l+1 LMDIM =     18
   total plane-waves  NPLWV =   1000
   max r-space proj   IRMAX =      1   max aug-charges    IRDMAX=   4427
   dimension x,y,z NGX =    10 NGY =   10 NGZ =   10
   dimension x,y,z NGXF=    20 NGYF=   20 NGZF=   20
   support grid    NGXF=    20 NGYF=   20 NGZF=   20
   ions per type =               1
   NGX,Y,Z   is equivalent  to a cutoff of   6.40,  6.40,  6.40 a.u.
   NGXF,Y,Z  is equivalent  to a cutoff of  12.80, 12.80, 12.80 a.u.

 SYSTEM =  BCC W                                   
 POSCAR =  BCC W Bulk                              

 Startparameter for this run:
   NWRITE =      2    write-flag & timer
   PREC   = normal    normal or accurate (medium, high low for compatibility)
   ISTART =      0    job   : 0-new  1-cont  2-samecut
   ICHARG =      2    charge: 1-file 2-atom 10-const
   ISPIN  =      1    spin polarized calculation?
   LNONCOLLINEAR =      F non collinear calculations
   LSORBIT =      F    spin-orbit coupling
   INIWAV =      1    electr: 0-lowe 1-rand  2-diag
   LASPH  =      F    aspherical Exc in radial PAW
   METAGGA=      F    non-selfconsistent MetaGGA calc.

 Electronic Relaxation 1
   ENCUT  =  224.0 eV  16.46 Ry    4.06 a.u.   3.17  3.17  3.17*2*pi/ulx,y,z
   ENINI  =  224.0     initial cutoff
   ENAUG  =  373.4 eV  augmentation charge cutoff
   NELM   =     60;   NELMIN=  2; NELMDL= -5     # of ELM steps 
   EDIFF  = 0.1E-03   stopping-criterion for ELM
   LREAL  =      F    real-space projection
   NLSPLINE    = F    spline interpolate recip. space projectors
   LCOMPAT=      F    compatible to vasp.4.4
   GGA_COMPAT  = T    GGA compatible to vasp.4.4-vasp.4.6
   LMAXPAW     = -100 max onsite density
   LMAXMIX     =    2 max onsite mixed and CHGCAR
   VOSKOWN=      0    Vosko Wilk Nusair interpolation
   ROPT   =    0.00000
 Ionic relaxation
   EDIFFG = 0.1E-02   stopping-criterion for IOM
   NSW    =      0    number of steps for IOM
   NBLOCK =      1;   KBLOCK =      1    inner block; outer block 
   IBRION =     -1    ionic relax: 0-MD 1-quasi-New 2-CG
   NFREE  =      0    steps in history (QN), initial steepest desc. (CG)
   ISIF   =      2    stress and relaxation
   IWAVPR =     10    prediction:  0-non 1-charg 2-wave 3-comb
   ISYM   =      2    0-nonsym 1-usesym 2-fastsym
   LCORR  =      T    Harris-Foulkes like correction to forces

   POTIM  = 0.5000    time-step for ionic-motion
   TEIN   =    0.0    initial temperature
   TEBEG  =    0.0;   TEEND  =   0.0 temperature during run
   SMASS  =  -3.00    Nose mass-parameter (am)
   estimated Nose-frequenzy (Omega)   =  0.10E-29 period in steps =****** mass=  -0.154E-27a.u.
   SCALEE = 1.0000    scale energy and forces
   NPACO  =    256;   APACO  = 16.0  distance and # of slots for P.C.
   PSTRESS=    0.0 pullay stress

  Mass of Ions in am
   POMASS = 183.85
  Ionic Valenz
   ZVAL   =   6.00
  Atomic Wigner-Seitz radii
   RWIGS  =  -1.00
  virtual crystal weights 
   VCA    =   1.00
   NELECT =       6.0000    total number of electrons
   NUPDOWN=      -1.0000    fix difference up-down

 DOS related values:
   EMIN   =  10.00;   EMAX   =-10.00  energy-range for DOS
   EFERMI =   0.00
   ISMEAR =     1;   SIGMA  =   0.20  broadening in eV -4-tet -1-fermi 0-gaus

 Electronic relaxation 2 (details)
   IALGO  =     38    algorithm
   LDIAG  =      T    sub-space diagonalisation (order eigenvalues)
   LSUBROT=      F    optimize rotation matrix (better conditioning)
   TURBO    =      0    0=normal 1=particle mesh
   IRESTART =      0    0=no restart 2=restart with 2 vectors
   NREBOOT  =      0    no. of reboots
   NMIN     =      0    reboot dimension
   EREF     =   0.00    reference energy to select bands
   IMIX   =      4    mixing-type and parameters
     AMIX     =   0.40;   BMIX     =  1.00
     AMIX_MAG =   1.60;   BMIX_MAG =  1.00
     AMIN     =   0.10
     WC   =   100.;   INIMIX=   1;  MIXPRE=   1;  MAXMIX= -45

 Intra band minimization:
   WEIMIN = 0.0000     energy-eigenvalue tresh-hold
   EBREAK =  0.31E-05  absolut break condition
   DEPER  =   0.30     relativ break condition  

   TIME   =   0.40     timestep for ELM

  volume/ion in A,a.u.               =      13.50        91.10
  Fermi-wavevector in a.u.,A,eV,Ry     =   1.249340  2.360910 21.236661  1.560851
  Thomas-Fermi vector in A             =   2.383385
 
 Write flags
   LWAVE        =      T    write WAVECAR
   LDOWNSAMPLE  =      F    k-point downsampling of WAVECAR
   LCHARG       =      T    write CHGCAR
   LVTOT        =      F    write LOCPOT, total local potential
   LVHAR        =      F    write LOCPOT, Hartree potential only
   LELF         =      F    write electronic localiz. function (ELF)
   LORBIT       =      0    0 simple, 1 ext, 2 COOP (PROOUT), +10 PAW based schemes


 Dipole corrections
   LMONO  =      F    monopole corrections only (constant potential shift)
   LDIPOL =      F    correct potential (dipole corrections)
   IDIPOL =      0    1-x, 2-y, 3-z, 4-all directions 
   EPSILON=  1.0000000 bulk dielectric constant

 Exchange correlation treatment:
   GGA     =    --    GGA type
   LEXCH   =     2    internal setting for exchange type
   VOSKOWN=      0    Vosko Wilk Nusair interpolation
   LHFCALC =     F    Hartree Fock is set to
   LHFONE  =     F    Hartree Fock one center treatment
   AEXX    =    0.0000 exact exchange contribution

 Linear response parameters
   LEPSILON=     F    determine dielectric tensor
   LRPA    =     F    only Hartree local field effects (RPA)
   LNABLA  =     F    use nabla operator in PAW spheres
   LVEL    =     F    velocity operator in full k-point grid
   LINTERFAST=   F  fast interpolation
   KINTER  =     0    interpolate to denser k-point grid
   CSHIFT  =0.1000    complex shift for real part using Kramers Kronig
   OMEGAMAX=  -1.0    maximum frequency
   DEG_THRESHOLD= 0.2000000E-02 threshold for treating states as degnerate
   RTIME   =   -0.100 relaxation time in fs
  (WPLASMAI=    0.000 imaginary part of plasma frequency in eV, 0.658/RTIME)
   DFIELD  = 0.0000000 0.0000000 0.0000000 field for delta impulse in time
 
 Orbital magnetization related:
   ORBITALMAG=     F  switch on orbital magnetization
   LCHIMAG   =     F  perturbation theory with respect to B field
   DQ        =  0.001000  dq finite difference perturbation B field
   LLRAUG    =     F  two centre corrections for induced B field



--------------------------------------------------------------------------------------------------------


 Static calculation
 charge density and potential will be updated during run
 non-spin polarized calculation
 Variant of blocked Davidson
 Davidson routine will perform the subspace rotation
 perform sub-space diagonalisation
    after iterative eigenvector-optimisation
 modified Broyden-mixing scheme, WC =      100.0
 initial mixing is a Kerker type mixing with AMIX =  0.4000 and BMIX =      1.0000
 Hartree-type preconditioning will be used
 using additional bands            5
 reciprocal scheme for non local part
 use partial core corrections
 calculate Harris-corrections to forces 
   (improved forces if not selfconsistent)
 use of overlap-Matrix (Vanderbilt PP)
 Methfessel and Paxton  Order N= 1 SIGMA  =   0.20


--------------------------------------------------------------------------------------------------------


  energy-cutoff  :      224.00
  volume of cell :       13.50
      direct lattice vectors                 reciprocal lattice vectors
    -1.500000000  1.500000000  1.500000000     0.000000000  0.333333333  0.333333333
     1.500000000 -1.500000000  1.500000000     0.333333333  0.000000000  0.333333333
     1.500000000  1.500000000 -1.500000000     0.333333333  0.333333333  0.000000000

  length of vectors
     2.598076211  2.598076211  2.598076211     0.471404521  0.471404521  0.471404521


 
 k-points in units of 2pi/SCALE and weight: 10x10x10                                
   0.10000000  0.10000000  0.10000000       0.008
   0.10000000  0.20000000  0.20000000       0.024
   0.10000000  0.30000000  0.30000000       0.024
   0.10000000  0.40000000  0.40000000       0.024
   0.10000000  0.50000000  0.50000000       0.012
   0.10000000  0.00000000  0.00000000       0.006
   0.20000000  0.20000000  0.30000000       0.024
   0.20000000  0.30000000  0.40000000       0.048
   0.20000000  0.40000000  0.50000000       0.048
   0.20000000 -0.10000000  0.00000000       0.024
   0.30000000  0.30000000  0.50000000       0.024
   0.30000000  0.40000000  0.60000000       0.024
   0.30000000 -0.20000000  0.00000000       0.024
   0.30000000 -0.10000000  0.10000000       0.024
   0.40000000 -0.30000000  0.00000000       0.024
   0.40000000 -0.20000000  0.10000000       0.048
   0.50000000 -0.40000000  0.00000000       0.024
   0.50000000 -0.30000000  0.10000000       0.048
   0.50000000 -0.20000000  0.20000000       0.024
  -0.40000000 -0.40000000 -0.90000000       0.024
  -0.40000000 -0.30000000 -0.80000000       0.048
  -0.30000000 -0.30000000 -0.70000000       0.008
   0.30000000  0.30000000  0.30000000       0.008
   0.30000000  0.40000000  0.40000000       0.024
   0.30000000  0.50000000  0.50000000       0.012
   0.30000000  0.00000000  0.00000000       0.006
   0.40000000  0.40000000  0.50000000       0.024
   0.40000000 -0.10000000  0.00000000       0.024
   0.50000000 -0.20000000  0.00000000       0.024
   0.50000000 -0.10000000  0.10000000       0.024
   0.60000000 -0.30000000  0.00000000       0.024
   0.60000000 -0.20000000  0.10000000       0.048
  -0.30000000 -0.30000000 -0.90000000       0.024
  -0.30000000 -0.20000000 -0.80000000       0.024
   0.50000000  0.50000000  0.50000000       0.002
   0.50000000  0.00000000  0.00000000       0.006
   0.60000000 -0.10000000  0.00000000       0.024
   0.70000000 -0.20000000  0.00000000       0.024
   0.70000000 -0.10000000  0.10000000       0.024
  -0.20000000 -0.20000000 -0.90000000       0.024
   0.70000000  0.00000000  0.00000000       0.006
   0.80000000 -0.10000000  0.00000000       0.024
  -0.10000000 -0.10000000 -0.90000000       0.008
   0.90000000  0.00000000  0.00000000       0.006
 
 k-points in reciprocal lattice and weights: 10x10x10                                
   0.05000000  0.05000000  0.05000000       0.008
   0.15000000  0.05000000  0.05000000       0.024
   0.25000000  0.05000000  0.05000000       0.024
   0.35000000  0.05000000  0.05000000       0.024
   0.45000000  0.05000000  0.05000000       0.012
  -0.05000000  0.05000000  0.05000000       0.006
   0.15000000  0.15000000  0.05000000       0.024
   0.25000000  0.15000000  0.05000000       0.048
   0.35000000  0.15000000  0.05000000       0.048
  -0.15000000  0.15000000  0.05000000       0.024
   0.25000000  0.25000000  0.05000000       0.024
   0.35000000  0.25000000  0.05000000       0.024
  -0.25000000  0.25000000  0.05000000       0.024
  -0.15000000  0.25000000  0.05000000       0.024
  -0.35000000  0.35000000  0.05000000       0.024
  -0.25000000  0.35000000  0.05000000       0.048
  -0.45000000  0.45000000  0.05000000       0.024
  -0.35000000  0.45000000  0.05000000       0.048
  -0.25000000  0.45000000  0.05000000       0.024
  -0.45000000 -0.45000000  0.05000000       0.024
  -0.35000000 -0.45000000  0.05000000       0.048
  -0.35000000 -0.35000000  0.05000000       0.008
   0.15000000  0.15000000  0.15000000       0.008
   0.25000000  0.15000000  0.15000000       0.024
   0.35000000  0.15000000  0.15000000       0.012
  -0.15000000  0.15000000  0.15000000       0.006
   0.25000000  0.25000000  0.15000000       0.024
  -0.25000000  0.25000000  0.15000000       0.024
  -0.35000000  0.35000000  0.15000000       0.024
  -0.25000000  0.35000000  0.15000000       0.024
  -0.45000000  0.45000000  0.15000000       0.024
  -0.35000000  0.45000000  0.15000000       0.048
  -0.45000000 -0.45000000  0.15000000       0.024
  -0.35000000 -0.45000000  0.15000000       0.024
   0.25000000  0.25000000  0.25000000       0.002
  -0.25000000  0.25000000  0.25000000       0.006
  -0.35000000  0.35000000  0.25000000       0.024
  -0.45000000  0.45000000  0.25000000       0.024
  -0.35000000  0.45000000  0.25000000       0.024
  -0.45000000 -0.45000000  0.25000000       0.024
  -0.35000000  0.35000000  0.35000000       0.006
  -0.45000000  0.45000000  0.35000000       0.024
  -0.45000000 -0.45000000  0.35000000       0.008
  -0.45000000  0.45000000  0.45000000       0.006
 
 position of ions in fractional coordinates (direct lattice) 
   0.00000000  0.00000000  0.00000000
 
 position of ions in cartesian coordinates  (Angst):
   0.00000000  0.00000000  0.00000000
 


--------------------------------------------------------------------------------------------------------


 k-point  1 :   0.0500 0.0500 0.0500  plane waves:      99
 k-point  2 :   0.1500 0.0500 0.0500  plane waves:     100
 k-point  3 :   0.2500 0.0500 0.0500  plane waves:     105
 k-point  4 :   0.3500 0.0500 0.0500  plane waves:     105
 k-point  5 :   0.4500 0.0500 0.0500  plane waves:     106
 k-point  6 :  -0.0500 0.0500 0.0500  plane waves:      87
 k-point  7 :   0.1500 0.1500 0.0500  plane waves:     102
 k-point  8 :   0.2500 0.1500 0.0500  plane waves:     102
 k-point  9 :   0.3500 0.1500 0.0500  plane waves:     103
 k-point 10 :  -0.1500 0.1500 0.0500  plane waves:     103
 k-point 11 :   0.2500 0.2500 0.0500  plane waves:     102
 k-point 12 :   0.3500 0.2500 0.0500  plane waves:     100
 k-point 13 :  -0.2500 0.2500 0.0500  plane waves:     103
 k-point 14 :  -0.1500 0.2500 0.0500  plane waves:     104
 k-point 15 :  -0.3500 0.3500 0.0500  plane waves:     106
 k-point 16 :  -0.2500 0.3500 0.0500  plane waves:     102
 k-point 17 :  -0.4500 0.4500 0.0500  plane waves:     104
 k-point 18 :  -0.3500 0.4500 0.0500  plane waves:     101
 k-point 19 :  -0.2500 0.4500 0.0500  plane waves:     103
 k-point 20 :  -0.4500-0.4500 0.0500  plane waves:     103
 k-point 21 :  -0.3500-0.4500 0.0500  plane waves:     102
 k-point 22 :  -0.3500-0.3500 0.0500  plane waves:     104
 k-point 23 :   0.1500 0.1500 0.1500  plane waves:     101
 k-point 24 :   0.2500 0.1500 0.1500  plane waves:      97
 k-point 25 :   0.3500 0.1500 0.1500  plane waves:     102
 k-point 26 :  -0.1500 0.1500 0.1500  plane waves:     103
 k-point 27 :   0.2500 0.2500 0.1500  plane waves:     101
 k-point 28 :  -0.2500 0.2500 0.1500  plane waves:     106
 k-point 29 :  -0.3500 0.3500 0.1500  plane waves:     101
 k-point 30 :  -0.2500 0.3500 0.1500  plane waves:     102
 k-point 31 :  -0.4500 0.4500 0.1500  plane waves:     100
 k-point 32 :  -0.3500 0.4500 0.1500  plane waves:     100
 k-point 33 :  -0.4500-0.4500 0.1500  plane waves:     102
 k-point 34 :  -0.3500-0.4500 0.1500  plane waves:     105
 k-point 35 :   0.2500 0.2500 0.2500  plane waves:     104
 k-point 36 :  -0.2500 0.2500 0.2500  plane waves:     108
 k-point 37 :  -0.3500 0.3500 0.2500  plane waves:     102
 k-point 38 :  -0.4500 0.4500 0.2500  plane waves:     105
 k-point 39 :  -0.3500 0.4500 0.2500  plane waves:     106
 k-point 40 :  -0.4500-0.4500 0.2500  plane waves:     106
 k-point 41 :  -0.3500 0.3500 0.3500  plane waves:     108
 k-point 42 :  -0.4500 0.4500 0.3500  plane waves:     105
 k-point 43 :  -0.4500-0.4500 0.3500  plane waves:     110
 k-point 44 :  -0.4500 0.4500 0.4500  plane waves:     108

 maximum and minimum number of plane-waves per node :       110       87

 maximum number of plane-waves:       110
 maximum index in each direction: 
   IXMAX=    3   IYMAX=    3   IZMAX=    3
   IXMIN=   -3   IYMIN=   -3   IZMIN=   -3


 serial   3D FFT for wavefunctions
 parallel 3D FFT for charge:
    minimum data exchange during FFTs selected (reduces bandwidth)


 total amount of memory used by VASP MPI-rank0    31245. kBytes
=======================================================================

   base      :      30000. kBytes
   nonl-proj :        711. kBytes
   fftplans  :        142. kBytes
   grid      :        192. kBytes
   one-center:         15. kBytes
   wavefun   :        185. kBytes
 
     INWAV:  cpu time    0.0000: real time    0.0002
 Broyden mixing: mesh for mixing (old mesh)
   NGX =  7   NGY =  7   NGZ =  7
  (NGX  = 20   NGY  = 20   NGZ  = 20)
  gives a total of    343 points

 initial charge density was supplied:
 charge density of overlapping atoms calculated
 number of electron       6.0000000 magnetization 
 keeping initial charge density in first step


--------------------------------------------------------------------------------------------------------


 Maximum index for augmentation-charges         1017 (set IRDMAX)


--------------------------------------------------------------------------------------------------------


 First call to EWALD:  gamma=   0.744
 Maximum number of real-space cells 3x 3x 3
 Maximum number of reciprocal cells 3x 3x 3

    FEWALD:  cpu time    0.0011: real time    0.0011


--------------------------------------- Iteration      1(   1)  ---------------------------------------


    POTLOK:  cpu time    0.0014: real time    0.0020
    SETDIJ:  cpu time    0.0012: real time    0.0013
     EDDAV:  cpu time    0.0527: real time    0.0542
       DOS:  cpu time    0.0006: real time    0.0004
    --------------------------------------------
      LOOP:  cpu time    0.0558: real time    0.0579

 eigenvalue-minimisations  :   968
 total energy-change (2. order) :-0.1083179E+02  (-0.2031400E+03)
 number of electron       6.0000000 magnetization 
 augmentation part        6.0000000 magnetization 

 Free energy of the ion-electron system (eV)
  ---------------------------------------------------
  alpha Z        PSCENC =        51.70603111
  Ewald energy   TEWEN  =      -314.42512270
  -Hartree energ DENC   =        -4.16935247
  -exchange      EXHF   =         0.00000000
  -V(xc)+E(xc)   XCENC  =       -47.04763922
  PAW double counting   =       183.53490256     -125.80866524
  entropy T*S    EENTRO =        -0.00111547
  eigenvalues    EBANDS =        38.87131412
  atomic energy  EATOM  =       206.50785835
  Solvation  Ediel_sol  =         0.00000000
  ---------------------------------------------------
  free energy    TOTEN  =       -10.83178897 eV

  energy without entropy =      -10.83067349  energy(sigma->0) =      -10.83141714


--------------------------------------------------------------------------------------------------------




--------------------------------------- Iteration      1(   2)  ---------------------------------------


     EDDAV:  cpu time    0.0307: real time    0.0310
       DOS:  cpu time    0.0004: real time    0.0004
    --------------------------------------------
      LOOP:  cpu time    0.0311: real time    0.0314

 eigenvalue-minimisations  :   816
 total energy-change (2. order) :-0.3697137E+01  (-0.3652267E+01)
 number of electron       6.0000000 magnetization 
 augmentation part        6.0000000 magnetization 

 Free energy of the ion-electron system (eV)
  ---------------------------------------------------
  alpha Z        PSCENC =        51.70603111
  Ewald energy   TEWEN  =      -314.42512270
  -Hartree energ DENC   =        -4.16935247
  -exchange      EXHF   =         0.00000000
  -V(xc)+E(xc)   XCENC  =       -47.04763922
  PAW double counting   =       183.53490256     -125.80866524
  entropy T*S    EENTRO =        -0.00059181
  eigenvalues    EBANDS =        35.17365359
  atomic energy  EATOM  =       206.50785835
  Solvation  Ediel_sol  =         0.00000000
  ---------------------------------------------------
  free energy    TOTEN  =       -14.52892583 eV

  energy without entropy =      -14.52833402  energy(sigma->0) =      -14.52872856


--------------------------------------------------------------------------------------------------------




--------------------------------------- Iteration      1(   3)  ---------------------------------------


     EDDAV:  cpu time    0.0409: real time    0.0412
       DOS:  cpu time    0.0006: real time    0.0005
    --------------------------------------------
      LOOP:  cpu time    0.0415: real time    0.0417

 eigenvalue-minimisations  :   984
 total energy-change (2. order) :-0.1061035E-01  (-0.1060992E-01)
 number of electron       6.0000000 magnetization 
 augmentation part        6.0000000 magnetization 

 Free energy of the ion-electron system (eV)
  ---------------------------------------------------
  alpha Z        PSCENC =        51.70603111
  Ewald energy   TEWEN  =      -314.42512270
  -Hartree energ DENC   =        -4.16935247
  -exchange      EXHF   =         0.00000000
  -V(xc)+E(xc)   XCENC  =       -47.04763922
  PAW double counting   =       183.53490256     -125.80866524
  entropy T*S    EENTRO =        -0.00060756
  eigenvalues    EBANDS =        35.16305899
  atomic energy  EATOM  =       206.50785835
  Solvation  Ediel_sol  =         0.00000000
  ---------------------------------------------------
  free energy    TOTEN  =       -14.53953618 eV

  energy without entropy =      -14.53892862  energy(sigma->0) =      -14.53933366


--------------------------------------------------------------------------------------------------------




--------------------------------------- Iteration      1(   4)  ---------------------------------------


     EDDAV:  cpu time    0.0293: real time    0.0295
       DOS:  cpu time    0.0005: real time    0.0004
    --------------------------------------------
      LOOP:  cpu time    0.0298: real time    0.0299

 eigenvalue-minimisations  :   824
 total energy-change (2. order) :-0.4161142E-05  (-0.4162026E-05)
 number of electron       6.0000000 magnetization 
 augmentation part        6.0000000 magnetization 

 Free energy of the ion-electron system (eV)
  ---------------------------------------------------
  alpha Z        PSCENC =        51.70603111
  Ewald energy   TEWEN  =      -314.42512270
  -Hartree energ DENC   =        -4.16935247
  -exchange      EXHF   =         0.00000000
  -V(xc)+E(xc)   XCENC  =       -47.04763922
  PAW double counting   =       183.53490256     -125.80866524
  entropy T*S    EENTRO =        -0.00060756
  eigenvalues    EBANDS =        35.16305483
  atomic energy  EATOM  =       206.50785835
  Solvation  Ediel_sol  =         0.00000000
  ---------------------------------------------------
  free energy    TOTEN  =       -14.53954034 eV

  energy without entropy =      -14.53893278  energy(sigma->0) =      -14.53933782


--------------------------------------------------------------------------------------------------------




--------------------------------------- Iteration      1(   5)  ---------------------------------------


     EDDAV:  cpu time    0.0284: real time    0.0287
       DOS:  cpu time    0.0006: real time    0.0005
    CHARGE:  cpu time    0.0013: real time    0.0013
    MIXING:  cpu time    0.0002: real time    0.0002
    --------------------------------------------
      LOOP:  cpu time    0.0304: real time    0.0307

 eigenvalue-minimisations  :   768
 total energy-change (2. order) :-0.4517346E-08  (-0.4503350E-08)
 number of electron       6.0000021 magnetization 
 augmentation part        0.6514340 magnetization 

 Broyden mixing:
  rms(total) = 0.37231E+00    rms(broyden)= 0.37226E+00
  rms(prec ) = 0.15611E+01
  weight for this iteration     100.00

 Free energy of the ion-electron system (eV)
  ---------------------------------------------------
  alpha Z        PSCENC =        51.70603111
  Ewald energy   TEWEN  =      -314.42512270
  -Hartree energ DENC   =        -4.16935247
  -exchange      EXHF   =         0.00000000
  -V(xc)+E(xc)   XCENC  =       -47.04763922
  PAW double counting   =       183.53490256     -125.80866524
  entropy T*S    EENTRO =        -0.00060756
  eigenvalues    EBANDS =        35.16305483
  atomic energy  EATOM  =       206.50785835
  Solvation  Ediel_sol  =         0.00000000
  ---------------------------------------------------
  free energy    TOTEN  =       -14.53954035 eV

  energy without entropy =      -14.53893278  energy(sigma->0) =      -14.53933783


--------------------------------------------------------------------------------------------------------




--------------------------------------- Iteration      1(   6)  ---------------------------------------


    POTLOK:  cpu time    0.0010: real time    0.0011
    SETDIJ:  cpu time    0.0011: real time    0.0011
     EDDAV:  cpu time    0.0253: real time    0.0253
       DOS:  cpu time    0.0003: real time    0.0004
    CHARGE:  cpu time    0.0011: real time    0.0012
    MIXING:  cpu time    0.0002: real time    0.0002
    --------------------------------------------
      LOOP:  cpu time    0.0299: real time    0.0293

 eigenvalue-minimisations  :   760
 total energy-change (2. order) : 0.4158954E+00  (-0.2226911E-01)
 number of electron       6.0000022 magnetization 
 augmentation part        0.6773356 magnetization 

 Broyden mixing:
  rms(total) = 0.20032E+00    rms(broyden)= 0.20031E+00
  rms(prec ) = 0.82598E+00
  weight for this iteration     100.00

 eigenvalues of (default mixing * dielectric matrix)
  average eigenvalue GAMMA=   2.1503
  2.1503

 Free energy of the ion-electron system (eV)
  ---------------------------------------------------
  alpha Z        PSCENC =        51.70603111
  Ewald energy   TEWEN  =      -314.42512270
  -Hartree energ DENC   =        -2.72380641
  -exchange      EXHF   =         0.00000000
  -V(xc)+E(xc)   XCENC  =       -46.86335798
  PAW double counting   =       216.90186173     -160.06980183
  entropy T*S    EENTRO =         0.00191570
  eigenvalues    EBANDS =        34.84077708
  atomic energy  EATOM  =       206.50785835
  Solvation  Ediel_sol  =         0.00000000
  ---------------------------------------------------
  free energy    TOTEN  =       -14.12364495 eV

  energy without entropy =      -14.12556064  energy(sigma->0) =      -14.12428351


--------------------------------------------------------------------------------------------------------




--------------------------------------- Iteration      1(   7)  ---------------------------------------


    POTLOK:  cpu time    0.0010: real time    0.0010
    SETDIJ:  cpu time    0.0010: real time    0.0010
     EDDAV:  cpu time    0.0260: real time    0.0260
       DOS:  cpu time    0.0005: real time    0.0005
    CHARGE:  cpu time    0.0012: real time    0.0012
    MIXING:  cpu time    0.0002: real time    0.0002
    --------------------------------------------
      LOOP:  cpu time    0.0289: real time    0.0298

 eigenvalue-minimisations  :   784
 total energy-change (2. order) : 0.1865236E+00  (-0.2918766E-01)
 number of electron       6.0000022 magnetization 
 augmentation part        0.7050077 magnetization 

 Broyden mixing:
  rms(total) = 0.14562E-01    rms(broyden)= 0.14493E-01
  rms(prec ) = 0.37038E-01
  weight for this iteration     100.00

 eigenvalues of (default mixing * dielectric matrix)
  average eigenvalue GAMMA=   1.9976
  1.6946  2.3006

 Free energy of the ion-electron system (eV)
  ---------------------------------------------------
  alpha Z        PSCENC =        51.70603111
  Ewald energy   TEWEN  =      -314.42512270
  -Hartree energ DENC   =        -1.50778308
  -exchange      EXHF   =         0.00000000
  -V(xc)+E(xc)   XCENC  =       -46.59682201
  PAW double counting   =       268.77122533     -212.94120334
  entropy T*S    EENTRO =         0.00221830
  eigenvalues    EBANDS =        34.54647672
  atomic energy  EATOM  =       206.50785835
  Solvation  Ediel_sol  =         0.00000000
  ---------------------------------------------------
  free energy    TOTEN  =       -13.93712132 eV

  energy without entropy =      -13.93933962  energy(sigma->0) =      -13.93786076


--------------------------------------------------------------------------------------------------------




--------------------------------------- Iteration      1(   8)  ---------------------------------------


    POTLOK:  cpu time    0.0010: real time    0.0010
    SETDIJ:  cpu time    0.0009: real time    0.0010
     EDDAV:  cpu time    0.0264: real time    0.0264
       DOS:  cpu time    0.0003: real time    0.0004
    CHARGE:  cpu time    0.0011: real time    0.0011
    MIXING:  cpu time    0.0001: real time    0.0001
    --------------------------------------------
      LOOP:  cpu time    0.0299: real time    0.0300

 eigenvalue-minimisations  :   792
 total energy-change (2. order) : 0.2139896E-02  (-0.1667867E-03)
 number of electron       6.0000022 magnetization 
 augmentation part        0.7062312 magnetization 

 Broyden mixing:
  rms(total) = 0.41008E-02    rms(broyden)= 0.40894E-02
  rms(prec ) = 0.13334E-01
  weight for this iteration     100.00

 eigenvalues of (default mixing * dielectric matrix)
  average eigenvalue GAMMA=   1.9192
  1.0628  2.1787  2.5159

 Free energy of the ion-electron system (eV)
  ---------------------------------------------------
  alpha Z        PSCENC =        51.70603111
  Ewald energy   TEWEN  =      -314.42512270
  -Hartree energ DENC   =        -1.48860682
  -exchange      EXHF   =         0.00000000
  -V(xc)+E(xc)   XCENC  =       -46.58528702
  PAW double counting   =       278.70137810     -222.98034349
  entropy T*S    EENTRO =         0.00218494
  eigenvalues    EBANDS =        34.62692610
  atomic energy  EATOM  =       206.50785835
  Solvation  Ediel_sol  =         0.00000000
  ---------------------------------------------------
  free energy    TOTEN  =       -13.93498143 eV

  energy without entropy =      -13.93716636  energy(sigma->0) =      -13.93570974


--------------------------------------------------------------------------------------------------------




--------------------------------------- Iteration      1(   9)  ---------------------------------------


    POTLOK:  cpu time    0.0010: real time    0.0010
    SETDIJ:  cpu time    0.0010: real time    0.0010
     EDDAV:  cpu time    0.0284: real time    0.0284
       DOS:  cpu time    0.0003: real time    0.0004
    --------------------------------------------
      LOOP:  cpu time    0.0307: real time    0.0308

 eigenvalue-minimisations  :   840
 total energy-change (2. order) : 0.7262112E-04  (-0.1897855E-04)
 number of electron       6.0000022 magnetization 
 augmentation part        0.7062312 magnetization 

 Free energy of the ion-electron system (eV)
  ---------------------------------------------------
  alpha Z        PSCENC =        51.70603111
  Ewald energy   TEWEN  =      -314.42512270
  -Hartree energ DENC   =        -1.50564567
  -exchange      EXHF   =         0.00000000
  -V(xc)+E(xc)   XCENC  =       -46.58771900
  PAW double counting   =       282.00873052     -226.30868844
  entropy T*S    EENTRO =         0.00217765
  eigenvalues    EBANDS =        34.66746936
  atomic energy  EATOM  =       206.50785835
  Solvation  Ediel_sol  =         0.00000000
  ---------------------------------------------------
  free energy    TOTEN  =       -13.93490881 eV

  energy without entropy =      -13.93708646  energy(sigma->0) =      -13.93563469


--------------------------------------------------------------------------------------------------------




 average (electrostatic) potential at core
  the test charge radii are     1.1823
  (the norm of the test charge is              1.0000)
       1 -35.8077
 
 
 
 E-fermi :   9.5481     XC(G=0): -14.0720     alpha+bet :-17.2798


 k-point     1 :       0.0500    0.0500    0.0500
  band No.  band energies     occupation 
      1       0.1802      2.00000
      2       7.7431      2.00000
      3       7.7431      2.00000
      4       9.2286      2.04634
      5      12.0221     -0.00000
      6      12.0221     -0.00000
      7      26.0074      0.00000
      8      27.3448      0.00000

 k-point     2 :       0.1500    0.0500    0.0500
  band No.  band energies     occupation 
      1       1.5655      2.00000
      2       6.8868      2.00000
      3       7.2438      2.00000
      4      11.0848     -0.00000
      5      11.6315     -0.00000
      6      12.3800     -0.00000
      7      26.8675      0.00000
      8      28.8994      0.00000

 k-point     3 :       0.2500    0.0500    0.0500
  band No.  band energies     occupation 
      1       2.7684      2.00000
      2       6.0561      2.00000
      3       7.4572      2.00000
      4      11.9530     -0.00000
      5      12.8194     -0.00000
      6      13.7765     -0.00000
      7      25.5252      0.00000
      8      27.6482      0.00000

 k-point     4 :       0.3500    0.0500    0.0500
  band No.  band energies     occupation 
      1       2.8154      2.00000
      2       5.4912      2.00000
      3       9.3493      2.04901
      4      12.4785     -0.00000
      5      13.3116     -0.00000
      6      16.6222      0.00000
      7      23.4649      0.00000
      8      24.6096      0.00000

 k-point     5 :       0.4500    0.0500    0.0500
  band No.  band energies     occupation 
      1       2.6688      2.00000
      2       5.2932      2.00000
      3      10.8069     -0.00000
      4      12.4748     -0.00000
      5      13.5652     -0.00000
      6      18.1006      0.00000
      7      22.6054      0.00000
      8      23.1335      0.00000

 k-point     6 :      -0.0500    0.0500    0.0500
  band No.  band energies     occupation 
      1      -0.3610      2.00000
      2       8.1593      2.00000
      3       8.1593      2.00000
      4       8.3216      2.00000
      5      11.8417     -0.00000
      6      12.5041     -0.00000
      7      26.0051      0.00000
      8      26.0051      0.00000

 k-point     7 :       0.1500    0.1500    0.0500
  band No.  band energies     occupation 
      1       3.0248      2.00000
      2       6.3461      2.00000
      3       6.4399      2.00000
      4      11.7287     -0.00000
      5      12.8958     -0.00000
      6      13.7517     -0.00000
      7      27.1699      0.00000
      8      27.9763      0.00000

 k-point     8 :       0.2500    0.1500    0.0500
  band No.  band energies     occupation 
      1       3.7934      2.00000
      2       5.7636      2.00000
      3       7.2206      2.00000
      4      12.1586     -0.00000
      5      13.3807     -0.00000
      6      16.8153      0.00000
      7      24.6247      0.00000
      8      26.2846      0.00000

 k-point     9 :       0.3500    0.1500    0.0500
  band No.  band energies     occupation 
      1       3.6226      2.00000
      2       5.4887      2.00000
      3       8.9801      2.00044
      4      12.5685     -0.00000
      5      13.6917     -0.00000
      6      19.2597      0.00000
      7      22.1036      0.00000
      8      24.2328      0.00000

 k-point    10 :      -0.1500    0.1500    0.0500
  band No.  band energies     occupation 
      1       0.6924      2.00000
      2       7.5668      2.00000
      3       7.9344      2.00000
      4       9.4139      1.89878
      5      10.9510     -0.00000
      6      12.7479     -0.00000
      7      26.8359      0.00000
      8      27.8634      0.00000

 k-point    11 :       0.2500    0.2500    0.0500
  band No.  band energies     occupation 
      1       4.3908      2.00000
      2       5.9789      2.00000
      3       7.4087      2.00000
      4      12.5838     -0.00000
      5      13.5824     -0.00000
      6      19.9207      0.00000
      7      21.7667      0.00000
      8      26.0062      0.00000

 k-point    12 :       0.3500    0.2500    0.0500
  band No.  band energies     occupation 
      1       4.4246      2.00000
      2       6.1634      2.00000
      3       7.7600      2.00000
      4      12.9451     -0.00000
      5      13.6403     -0.00000
      6      20.0527      0.00000
      7      21.8454      0.00000
      8      24.5543      0.00000

 k-point    13 :      -0.2500    0.2500    0.0500
  band No.  band energies     occupation 
      1       2.1601      2.00000
      2       6.6821      2.00000
      3       7.5335      2.00000
      4      11.0442     -0.00000
      5      11.5847     -0.00000
      6      13.0317     -0.00000
      7      26.2816      0.00000
      8      29.0732      0.00000

 k-point    14 :      -0.1500    0.2500    0.0500
  band No.  band energies     occupation 
      1       2.0067      2.00000
      2       7.2499      2.00000
      3       7.3299      2.00000
      4      10.2491     -0.00001
      5      10.9644     -0.00000
      6      13.3195     -0.00000
      7      27.6694      0.00000
      8      28.2669      0.00000

 k-point    15 :      -0.3500    0.3500    0.0500
  band No.  band energies     occupation 
      1       2.7166      2.00000
      2       5.9231      2.00000
      3       8.4282      2.00000
      4      11.8967     -0.00000
      5      13.3936     -0.00000
      6      14.4298     -0.00000
      7      24.1638      0.00000
      8      26.6225      0.00000

 k-point    16 :      -0.2500    0.3500    0.0500
  band No.  band energies     occupation 
      1       3.2064      2.00000
      2       6.4042      2.00000
      3       7.2601      2.00000
      4      10.7279     -0.00000
      5      13.3484     -0.00000
      6      13.9365     -0.00000
      7      25.2829      0.00000
      8      28.6934      0.00000

 k-point    17 :      -0.4500    0.4500    0.0500
  band No.  band energies     occupation 
      1       2.5333      2.00000
      2       5.5015      2.00000
      3      10.1338     -0.00028
      4      12.1365     -0.00000
      5      14.1431     -0.00000
      6      16.9967      0.00000
      7      22.9059      0.00000
      8      24.1551      0.00000

 k-point    18 :      -0.3500    0.4500    0.0500
  band No.  band energies     occupation 
      1       3.2664      2.00000
      2       5.9657      2.00000
      3       8.2173      2.00000
      4      11.5464     -0.00000
      5      14.0307     -0.00000
      6      16.7505      0.00000
      7      23.7303      0.00000
      8      26.0053      0.00000

 k-point    19 :      -0.2500    0.4500    0.0500
  band No.  band energies     occupation 
      1       4.1050      2.00000
      2       5.8088      2.00000
      3       7.4698      2.00000
      4      11.1373     -0.00000
      5      13.5573     -0.00000
      6      16.9901      0.00000
      7      23.9754      0.00000
      8      28.2939      0.00000

 k-point    20 :      -0.4500   -0.4500    0.0500
  band No.  band energies     occupation 
      1       3.1044      2.00000
      2       5.8145      2.00000
      3       8.9848      2.00050
      4      11.4615     -0.00000
      5      14.9043     -0.00000
      6      18.4219      0.00000
      7      22.7431      0.00000
      8      24.6261      0.00000

 k-point    21 :      -0.3500   -0.4500    0.0500
  band No.  band energies     occupation 
      1       4.2014      2.00000
      2       5.9226      2.00000
      3       7.5137      2.00000
      4      11.8231     -0.00000
      5      13.9677     -0.00000
      6      20.1526      0.00000
      7      21.7779      0.00000
      8      26.1152      0.00000

 k-point    22 :      -0.3500   -0.3500    0.0500
  band No.  band energies     occupation 
      1       4.7820      2.00000
      2       6.3817      2.00000
      3       6.3817      2.00000
      4      13.1428     -0.00000
      5      13.1428     -0.00000
      6      20.2902      0.00000
      7      23.6267      0.00000
      8      23.6267      0.00000

 k-point    23 :       0.1500    0.1500    0.1500
  band No.  band energies     occupation 
      1       4.6816      2.00000
      2       5.8029      2.00000
      3       5.8029      2.00000
      4      12.8491     -0.00000
      5      12.8491     -0.00000
      6      17.0034      0.00000
      7      26.4148      0.00000
      8      27.0167      0.00000

 k-point    24 :       0.2500    0.1500    0.1500
  band No.  band energies     occupation 
      1       4.9246      2.00000
      2       5.5485      2.00000
      3       7.1990      2.00000
      4      13.1028     -0.00000
      5      13.4931     -0.00000
      6      19.9380      0.00000
      7      22.0549      0.00000
      8      25.2849      0.00000

 k-point    25 :       0.3500    0.1500    0.1500
  band No.  band energies     occupation 
      1       4.7375      2.00000
      2       5.4781      2.00000
      3       8.4198      2.00000
      4      13.2227     -0.00000
      5      13.6915     -0.00000
      6      20.1142      0.00000
      7      21.1836      0.00000
      8      24.6076      0.00000

 k-point    26 :      -0.1500    0.1500    0.1500
  band No.  band energies     occupation 
      1       1.6910      2.00000
      2       8.1943      2.00000
      3       8.1944      2.00000
      4       9.0615      2.00310
      5       9.3828      1.99321
      6      13.6020     -0.00000
      7      29.0046      0.00000
      8      29.5552      0.00000

 k-point    27 :       0.2500    0.2500    0.1500
  band No.  band energies     occupation 
      1       5.2906      2.00000
      2       6.2828      2.00000
      3       7.2095      2.00000
      4      13.5073     -0.00000
      5      13.6837     -0.00000
      6      19.3168      0.00000
      7      22.3805      0.00000
      8      24.6528      0.00000

 k-point    28 :      -0.2500    0.2500    0.1500
  band No.  band energies     occupation 
      1       3.1091      2.00000
      2       7.1335      2.00000
      3       7.7312      2.00000
      4       9.3444      2.05394
      5      11.2252     -0.00000
      6      13.9986     -0.00000
      7      26.1429      0.00000
      8      30.5365      0.00000

 k-point    29 :      -0.3500    0.3500    0.1500
  band No.  band energies     occupation 
      1       3.6707      2.00000
      2       6.8009      2.00000
      3       7.0739      2.00000
      4      10.5311     -0.00000
      5      14.0755     -0.00000
      6      14.4921     -0.00000
      7      24.7581      0.00000
      8      28.9784      0.00000

 k-point    30 :      -0.2500    0.3500    0.1500
  band No.  band energies     occupation 
      1       4.2153      2.00000
      2       5.9020      2.00000
      3       8.1046      2.00000
      4       9.7460     -0.04793
      5      12.9155     -0.00000
      6      14.5720     -0.00000
      7      25.3326      0.00000
      8      31.0792      0.00000

 k-point    31 :      -0.4500    0.4500    0.1500
  band No.  band energies     occupation 
      1       3.3787      2.00000
      2       6.6892      2.00000
      3       7.5774      2.00000
      4      10.4431     -0.00000
      5      16.4114      0.00000
      6      16.7146      0.00000
      7      23.5954      0.00000
      8      26.6067      0.00000

 k-point    32 :      -0.3500    0.4500    0.1500
  band No.  band energies     occupation 
      1       4.2972      2.00000
      2       5.7917      2.00000
      3       7.6095      2.00000
      4      10.6362     -0.00000
      5      14.2131     -0.00000
      6      17.3196      0.00000
      7      24.2373      0.00000
      8      28.5367      0.00000

 k-point    33 :      -0.4500   -0.4500    0.1500
  band No.  band energies     occupation 
      1       4.0227      2.00000
      2       6.4736      2.00000
      3       6.9360      2.00000
      4      10.6702     -0.00000
      5      15.5973      0.00000
      6      19.6629      0.00000
      7      22.2110      0.00000
      8      26.6688      0.00000

 k-point    34 :      -0.3500   -0.4500    0.1500
  band No.  band energies     occupation 
      1       5.0414      2.00000
      2       5.2586      2.00000
      3       6.6698      2.00000
      4      12.3418     -0.00000
      5      14.0032     -0.00000
      6      20.8464      0.00000
      7      22.0501      0.00000
      8      25.6538      0.00000

 k-point    35 :       0.2500    0.2500    0.2500
  band No.  band energies     occupation 
      1       6.4379      2.00000
      2       6.4379      2.00000
      3       6.4380      2.00000
      4      13.7696     -0.00000
      5      13.7696     -0.00000
      6      18.2783      0.00000
      7      24.2417      0.00000
      8      24.2417      0.00000

 k-point    36 :      -0.2500    0.2500    0.2500
  band No.  band energies     occupation 
      1       4.2874      2.00000
      2       6.0389      2.00000
      3       9.1216      2.01017
      4       9.1216      2.01018
      5      11.3521     -0.00000
      6      14.1805     -0.00000
      7      26.0190      0.00000
      8      32.6708      0.00000

 k-point    37 :      -0.3500    0.3500    0.2500
  band No.  band energies     occupation 
      1       4.5605      2.00000
      2       5.1178      2.00000
      3       9.1816      2.02641
      4      10.0312     -0.00335
      5      13.6285     -0.00000
      6      14.8808     -0.00000
      7      26.3960      0.00000
      8      29.9441      0.00000

 k-point    38 :      -0.4500    0.4500    0.2500
  band No.  band energies     occupation 
      1       3.9310      2.00000
      2       5.2789      2.00000
      3       8.9383      2.00014
      4      10.0083     -0.00538
      5      16.2879      0.00000
      6      17.7880      0.00000
      7      23.5602      0.00000
      8      26.7243      0.00000

 k-point    39 :      -0.3500    0.4500    0.2500
  band No.  band energies     occupation 
      1       4.1200      2.00000
      2       4.5896      2.00000
      3       9.1061      2.00766
      4      11.6757     -0.00000
      5      14.3908     -0.00000
      6      17.5614      0.00000
      7      24.6233      0.00000
      8      26.8183      0.00000

 k-point    40 :      -0.4500   -0.4500    0.2500
  band No.  band energies     occupation 
      1       3.8882      2.00000
      2       4.4136      2.00000
      3       8.8275      2.00000
      4      12.3992     -0.00000
      5      15.3891      0.00000
      6      20.7975      0.00000
      7      21.6220      0.00000
      8      24.4827      0.00000

 k-point    41 :      -0.3500    0.3500    0.3500
  band No.  band energies     occupation 
      1       3.7943      2.00000
      2       4.2980      2.00000
      3      11.4247     -0.00000
      4      11.4247     -0.00000
      5      13.8447     -0.00000
      6      15.4316      0.00000
      7      27.0887      0.00000
      8      27.0888      0.00000

 k-point    42 :      -0.4500    0.4500    0.3500
  band No.  band energies     occupation 
      1       3.2494      2.00000
      2       3.6401      2.00000
      3      11.9791     -0.00000
      4      12.2123     -0.00000
      5      15.9028      0.00000
      6      18.2050      0.00000
      7      23.0301      0.00000
      8      24.1365      0.00000

 k-point    43 :      -0.4500   -0.4500    0.3500
  band No.  band energies     occupation 
      1       3.0846      2.00000
      2       3.0846      2.00000
      3      12.0352     -0.00000
      4      15.0794      0.00000
      5      15.0794      0.00000
      6      21.1947      0.00000
      7      21.1948      0.00000
      8      21.2787      0.00000

 k-point    44 :      -0.4500    0.4500    0.4500
  band No.  band energies     occupation 
      1       2.6268      2.00000
      2       2.7403      2.00000
      3      14.9584     -0.00000
      4      14.9584     -0.00000
      5      15.8540      0.00000
      6      18.8936      0.00000
      7      21.2532      0.00000
      8      21.2532      0.00000


--------------------------------------------------------------------------------------------------------


 soft charge-density along one line, spin component           1
         0         1         2         3         4         5         6         7         8         9
 total charge-density along one line
 
 pseudopotential strength for first ion, spin component:           1
 -6.399   0.000   0.000   0.000   0.000   0.000   0.000   0.000  -0.000   0.000   0.162   0.000   0.000   0.000   0.000   0.000
  0.000   0.000  -6.399   0.000  -0.000   0.000   0.000   0.000   0.000   0.000   0.000   0.000   0.162   0.000  -0.000   0.000
  0.000   0.000  -0.000   0.000  -6.420   0.000  -0.000   0.000  -0.000   0.000   0.000   0.000  -0.000   0.000   0.161   0.000
  0.000   0.000   0.000   0.000  -0.000   0.000  -6.399   0.000  -0.000   0.000   0.000   0.000   0.000   0.000  -0.000   0.000
 -0.000   0.000   0.000   0.000  -0.000   0.000  -0.000   0.000  -6.420   0.000  -0.000   0.000   0.000   0.000  -0.000   0.000
  0.162   0.000   0.000   0.000   0.000   0.000   0.000   0.000  -0.000   0.000   0.087   0.000  -0.000   0.000  -0.000   0.000
  0.000   0.000   0.162   0.000  -0.000   0.000   0.000   0.000   0.000   0.000  -0.000   0.000   0.087   0.000   0.000   0.000
  0.000   0.000  -0.000   0.000   0.161   0.000  -0.000   0.000  -0.000   0.000  -0.000   0.000   0.000   0.000   0.087   0.000
  0.000   0.000   0.000   0.000  -0.000   0.000   0.162   0.000  -0.000   0.000  -0.000   0.000  -0.000   0.000   0.000   0.000
 -0.000   0.000   0.000   0.000  -0.000   0.000  -0.000   0.000   0.161   0.000   0.000   0.000  -0.000   0.000  -0.000   0.000
 -0.000   0.000  -0.000   0.000   0.000   0.000  -0.000   0.000  -0.000   0.000  -0.000   0.000  -0.000   0.000   0.000   0.000
  0.000   0.000   0.000   0.000  -0.000   0.000   0.000   0.000   0.000   0.000   0.000   0.000   0.000   0.000  -0.000   0.000
 -0.000   0.000  -0.000   0.000  -0.000   0.000   0.000   0.000   0.000   0.000  -0.000   0.000   0.000   0.000   0.000   0.000
  0.000   0.000  -0.000   0.000   0.000   0.000  -0.000   0.000   0.000   0.000  -0.000   0.000   0.000   0.000   0.000   0.000
  0.000   0.000   0.000   0.000   0.000   0.000   0.000   0.000  -0.000   0.000  -0.000   0.000  -0.000   0.000   0.000   0.000
  0.000   0.000   0.000   0.000   0.000   0.000  -0.000   0.000  -0.000   0.000   0.000   0.000  -0.000   0.000   0.000   0.000
 -0.000   0.000   0.000   0.000  -0.000   0.000   0.000   0.000  -0.000   0.000   0.000   0.000  -0.000   0.000  -0.000   0.000
 -0.000   0.000  -0.000   0.000  -0.000   0.000  -0.000   0.000   0.000   0.000  -0.000   0.000   0.000   0.000  -0.000   0.000
 total augmentation occupancy for first ion, spin component:           1
  1.112   0.000  -0.000  -0.000  -0.000  -0.884   0.000  -0.000   0.000   0.000   0.000   0.000   0.000   0.000   0.000   0.000
 -0.000   1.112   0.000   0.000   0.000   0.000  -0.884  -0.000   0.000   0.000  -0.000  -0.000   0.000   0.000   0.000   0.000
  0.000  -0.000   0.744   0.000   0.000   0.000   0.000  -0.817   0.000   0.000   0.000  -0.000   0.000   0.000   0.000   0.000
  0.000  -0.000   0.000   1.112   0.000   0.000   0.000  -0.000  -0.884  -0.000   0.000  -0.000   0.000   0.000   0.000   0.000
 -0.000  -0.000   0.000   0.000   0.744   0.000   0.000  -0.000  -0.000  -0.817   0.000   0.000   0.000   0.000   0.000   0.000
 -0.884   0.000  -0.000  -0.000  -0.000   0.888  -0.000  -0.000   0.000   0.000   0.000   0.000   0.000   0.000   0.000   0.000
 -0.000  -0.884  -0.000   0.000   0.000  -0.000   0.888   0.000   0.000   0.000   0.000   0.000   0.000   0.000   0.000   0.000
 -0.000  -0.000  -0.817   0.000   0.000   0.000  -0.000   1.036   0.000   0.000  -0.000   0.000   0.000   0.000   0.000   0.000
 -0.000   0.000   0.000  -0.884  -0.000   0.000   0.000   0.000   0.888  -0.000   0.000  -0.000   0.000   0.000   0.000   0.000
  0.000   0.000   0.000  -0.000  -0.817   0.000   0.000   0.000  -0.000   1.036   0.000   0.000   0.000   0.000   0.000   0.000
  0.000   0.000   0.000  -0.000   0.000  -0.000   0.000  -0.000   0.000   0.000   1.616  -0.357   0.000   0.000   0.000   0.000
  0.000  -0.000  -0.000  -0.000   0.000   0.000   0.000   0.000  -0.000   0.000  -0.357   0.102   0.000   0.000   0.000   0.000
  0.000   0.000   0.000   0.000   0.000   0.000   0.000   0.000   0.000   0.000   0.000   0.000   0.348   0.000  -0.000  -0.020
  0.000   0.000   0.000   0.000   0.000   0.000   0.000   0.000   0.000   0.000   0.000   0.000   0.000   0.348   0.000   0.000
  0.000   0.000   0.000   0.000   0.000   0.000   0.000   0.000   0.000   0.000   0.000   0.000  -0.000   0.000   0.348  -0.000
  0.000   0.000   0.000   0.000   0.000   0.000   0.000   0.000   0.000   0.000   0.000   0.000  -0.020   0.000   0.000   0.001
  0.000   0.000   0.000   0.000   0.000   0.000   0.000   0.000   0.000   0.000   0.000   0.000   0.000  -0.020   0.000   0.000
  0.000   0.000   0.000   0.000   0.000   0.000   0.000   0.000   0.000   0.000   0.000   0.000   0.000   0.000  -0.020  -0.000


------------------------ aborting loop because EDIFF is reached ----------------------------------------


    CHARGE:  cpu time    0.0013: real time    0.0013
    FORLOC:  cpu time    0.0001: real time    0.0001
    FORNL :  cpu time    0.0020: real time    0.0020
    STRESS:  cpu time    0.0130: real time    0.0131
    FORCOR:  cpu time    0.0004: real time    0.0004
    FORHAR:  cpu time    0.0004: real time    0.0003
    MIXING:  cpu time    0.0001: real time    0.0001
    OFIELD:  cpu time    0.0000: real time    0.0000

  FORCE on cell =-STRESS in cart. coord.  units (eV):
  Direction    XX          YY          ZZ          XY          YZ          ZX
  --------------------------------------------------------------------------------------
  Alpha Z    51.70603    51.70603    51.70603
  Ewald    -104.80837  -104.80837  -104.80837    -0.00000    -0.00000     0.00000
  Hartree     0.50173     0.50173     0.50173    -0.00000    -0.00000    -0.00000
  E(xc)     -28.92295   -28.92295   -28.92295    -0.00000    -0.00000    -0.00000
  Local       8.28330     8.28330     8.28330    -0.00007    -0.00007    -0.00007
  n-local   -10.57550    -8.67378    -8.31811     2.06763    -2.15571    -4.10959
  augment     5.17227     5.17227     5.17227     0.00000     0.00000     0.00000
  Kinetic    79.62507    80.86268    85.00093    -0.45598     3.20893     1.78457
  Fock        0.00000     0.00000     0.00000     0.00000     0.00000     0.00000
  -------------------------------------------------------------------------------------
  Total       4.57244     4.57244     4.57244     0.00000    -0.00000     0.00000
  in kB     542.65621   542.65621   542.65621     0.00000    -0.00000     0.00000
  external pressure =      542.66 kB  Pullay stress =        0.00 kB


 VOLUME and BASIS-vectors are now :
 -----------------------------------------------------------------------------
  energy-cutoff  :      224.00
  volume of cell :       13.50
      direct lattice vectors                 reciprocal lattice vectors
    -1.500000000  1.500000000  1.500000000     0.000000000  0.333333333  0.333333333
     1.500000000 -1.500000000  1.500000000     0.333333333  0.000000000  0.333333333
     1.500000000  1.500000000 -1.500000000     0.333333333  0.333333333  0.000000000

  length of vectors
     2.598076211  2.598076211  2.598076211     0.471404521  0.471404521  0.471404521


 FORCES acting on ions
    electron-ion (+dipol)            ewald-force                    non-local-force                 convergence-correction
 -----------------------------------------------------------------------------------------------
   0.591E-14 0.342E-14 0.498E-14   -.260E-15 -.448E-15 0.102E-14   0.331E-22 0.132E-22 0.132E-22   0.135E-14 0.148E-14 0.151E-14
 -----------------------------------------------------------------------------------------------
   0.591E-14 0.342E-14 0.498E-14   -.260E-15 -.448E-15 0.102E-14   0.331E-22 0.132E-22 0.132E-22   0.135E-14 0.148E-14 0.151E-14
 
 
 POSITION                                       TOTAL-FORCE (eV/Angst)
 -----------------------------------------------------------------------------------
      0.00000      0.00000      0.00000         0.000000      0.000000      0.000000
 -----------------------------------------------------------------------------------
    total drift:                                0.000000      0.000000      0.000000


--------------------------------------------------------------------------------------------------------



  FREE ENERGIE OF THE ION-ELECTRON SYSTEM (eV)
  ---------------------------------------------------
  free  energy   TOTEN  =       -13.93490881 eV

  energy  without entropy=      -13.93708646  energy(sigma->0) =      -13.93563469
 


--------------------------------------------------------------------------------------------------------


    POTLOK:  cpu time    0.0019: real time    0.0020


--------------------------------------------------------------------------------------------------------


 writing wavefunctions
     LOOP+:  cpu time    0.3517: real time    0.3618
    4ORBIT:  cpu time    0.0000: real time    0.0000

 total amount of memory used by VASP MPI-rank0    31245. kBytes
=======================================================================

   base      :      30000. kBytes
   nonl-proj :        711. kBytes
   fftplans  :        142. kBytes
   grid      :        192. kBytes
   one-center:         15. kBytes
   wavefun   :        185. kBytes
 
  
  
 General timing and accounting informations for this job:
 ========================================================
  
                  Total CPU time used (sec):        0.538
                            User time (sec):        0.430
                          System time (sec):        0.108
                         Elapsed time (sec):        0.602
  
                   Maximum memory used (kb):       56500.
                   Average memory used (kb):           0.
  
                          Minor page faults:         7277
                          Major page faults:            0
                 Voluntary context switches:          647
