<?xml version="1.0" encoding="ISO-8859-1"?>
<modeling>
 <generator>
  <i name="program" type="string">vasp </i>
  <i name="version" type="string">5.4.4.18Apr17-6-g9f103f2a35  </i>
  <i name="subversion" type="string">(build Jul 01 2019 03:25:34) complex            parallel </i>
  <i name="platform" type="string">LinuxIFC </i>
  <i name="date" type="string">2020 07 08 </i>
  <i name="time" type="string">19:51:27 </i>
 </generator>
 <incar>
  <i type="string" name="SYSTEM"> BCC W</i>
  <i type="string" name="PREC">normal</i>
  <i name="EDIFF">      0.00010000</i>
  <i name="ENCUT">    224.00000000</i>
  <v type="int" name="KPOINT_BSE">    -1     0     0     0</v>
 </incar>
 <structure name="primitive_cell" >
  <crystal>
   <varray name="basis" >
    <v>      -1.50000000       1.50000000       1.50000000 </v>
    <v>       1.50000000      -1.50000000       1.50000000 </v>
    <v>       1.50000000       1.50000000      -1.50000000 </v>
   </varray>
   <i name="volume">     13.50000000 </i>
   <varray name="rec_basis" >
    <v>       0.00000000       0.33333333       0.33333333 </v>
    <v>       0.33333333       0.00000000       0.33333333 </v>
    <v>       0.33333333       0.33333333       0.00000000 </v>
   </varray>
  </crystal>
  <varray name="positions" >
   <v>       0.00000000       0.00000000       0.00000000 </v>
  </varray>
 </structure>
 <varray name="primitive_index" >
  <v type="int" >        1 </v>
 </varray>
 <kpoints>
  <generation param="Monkhorst-Pack">
   <v type="int" name="divisions">      10       10       10 </v>
   <v name="usershift">      0.00000000       0.00000000       0.00000000 </v>
   <v name="genvec1">      0.10000000       0.00000000       0.00000000 </v>
   <v name="genvec2">      0.00000000       0.10000000       0.00000000 </v>
   <v name="genvec3">      0.00000000       0.00000000       0.10000000 </v>
   <v name="shift">      0.50000000       0.50000000       0.50000000 </v>
  </generation>
  <varray name="kpointlist" >
   <v>       0.05000000       0.05000000       0.05000000 </v>
   <v>       0.15000000       0.05000000       0.05000000 </v>
   <v>       0.25000000       0.05000000       0.05000000 </v>
   <v>       0.35000000       0.05000000       0.05000000 </v>
   <v>       0.45000000       0.05000000       0.05000000 </v>
   <v>      -0.05000000       0.05000000       0.05000000 </v>
   <v>       0.15000000       0.15000000       0.05000000 </v>
   <v>       0.25000000       0.15000000       0.05000000 </v>
   <v>       0.35000000       0.15000000       0.05000000 </v>
   <v>      -0.15000000       0.15000000       0.05000000 </v>
   <v>       0.25000000       0.25000000       0.05000000 </v>
   <v>       0.35000000       0.25000000       0.05000000 </v>
   <v>      -0.25000000       0.25000000       0.05000000 </v>
   <v>      -0.15000000       0.25000000       0.05000000 </v>
   <v>      -0.35000000       0.35000000       0.05000000 </v>
   <v>      -0.25000000       0.35000000       0.05000000 </v>
   <v>      -0.45000000       0.45000000       0.05000000 </v>
   <v>      -0.35000000       0.45000000       0.05000000 </v>
   <v>      -0.25000000       0.45000000       0.05000000 </v>
   <v>      -0.45000000      -0.45000000       0.05000000 </v>
   <v>      -0.35000000      -0.45000000       0.05000000 </v>
   <v>      -0.35000000      -0.35000000       0.05000000 </v>
   <v>       0.15000000       0.15000000       0.15000000 </v>
   <v>       0.25000000       0.15000000       0.15000000 </v>
   <v>       0.35000000       0.15000000       0.15000000 </v>
   <v>      -0.15000000       0.15000000       0.15000000 </v>
   <v>       0.25000000       0.25000000       0.15000000 </v>
   <v>      -0.25000000       0.25000000       0.15000000 </v>
   <v>      -0.35000000       0.35000000       0.15000000 </v>
   <v>      -0.25000000       0.35000000       0.15000000 </v>
   <v>      -0.45000000       0.45000000       0.15000000 </v>
   <v>      -0.35000000       0.45000000       0.15000000 </v>
   <v>      -0.45000000      -0.45000000       0.15000000 </v>
   <v>      -0.35000000      -0.45000000       0.15000000 </v>
   <v>       0.25000000       0.25000000       0.25000000 </v>
   <v>      -0.25000000       0.25000000       0.25000000 </v>
   <v>      -0.35000000       0.35000000       0.25000000 </v>
   <v>      -0.45000000       0.45000000       0.25000000 </v>
   <v>      -0.35000000       0.45000000       0.25000000 </v>
   <v>      -0.45000000      -0.45000000       0.25000000 </v>
   <v>      -0.35000000       0.35000000       0.35000000 </v>
   <v>      -0.45000000       0.45000000       0.35000000 </v>
   <v>      -0.45000000      -0.45000000       0.35000000 </v>
   <v>      -0.45000000       0.45000000       0.45000000 </v>
  </varray>
  <varray name="weights" >
   <v>       0.00800000 </v>
   <v>       0.02400000 </v>
   <v>       0.02400000 </v>
   <v>       0.02400000 </v>
   <v>       0.01200000 </v>
   <v>       0.00600000 </v>
   <v>       0.02400000 </v>
   <v>       0.04800000 </v>
   <v>       0.04800000 </v>
   <v>       0.02400000 </v>
   <v>       0.02400000 </v>
   <v>       0.02400000 </v>
   <v>       0.02400000 </v>
   <v>       0.02400000 </v>
   <v>       0.02400000 </v>
   <v>       0.04800000 </v>
   <v>       0.02400000 </v>
   <v>       0.04800000 </v>
   <v>       0.02400000 </v>
   <v>       0.02400000 </v>
   <v>       0.04800000 </v>
   <v>       0.00800000 </v>
   <v>       0.00800000 </v>
   <v>       0.02400000 </v>
   <v>       0.01200000 </v>
   <v>       0.00600000 </v>
   <v>       0.02400000 </v>
   <v>       0.02400000 </v>
   <v>       0.02400000 </v>
   <v>       0.02400000 </v>
   <v>       0.02400000 </v>
   <v>       0.04800000 </v>
   <v>       0.02400000 </v>
   <v>       0.02400000 </v>
   <v>       0.00200000 </v>
   <v>       0.00600000 </v>
   <v>       0.02400000 </v>
   <v>       0.02400000 </v>
   <v>       0.02400000 </v>
   <v>       0.02400000 </v>
   <v>       0.00600000 </v>
   <v>       0.02400000 </v>
   <v>       0.00800000 </v>
   <v>       0.00600000 </v>
  </varray>
 </kpoints>
 <parameters>
  <separator name="general" >
   <i type="string" name="SYSTEM">BCC W</i>
   <i type="logical" name="LCOMPAT"> F  </i>
  </separator>
  <separator name="electronic" >
   <i type="string" name="PREC">normal</i>
   <i name="ENMAX">    224.00000000</i>
   <i name="ENAUG">    373.43800000</i>
   <i name="EDIFF">      0.00010000</i>
   <i type="int" name="IALGO">    38</i>
   <i type="int" name="IWAVPR">    10</i>
   <i type="int" name="NBANDS">     8</i>
   <i name="NELECT">      6.00000000</i>
   <i type="int" name="TURBO">     0</i>
   <i type="int" name="IRESTART">     0</i>
   <i type="int" name="NREBOOT">     0</i>
   <i type="int" name="NMIN">     0</i>
   <i name="EREF">      0.00000000</i>
   <separator name="electronic smearing" >
    <i type="int" name="ISMEAR">     1</i>
    <i name="SIGMA">      0.20000000</i>
    <i name="KSPACING">      0.50000000</i>
    <i type="logical" name="KGAMMA"> T  </i>
   </separator>
   <separator name="electronic projectors" >
    <i type="logical" name="LREAL"> F  </i>
    <v name="ROPT">      0.00000000</v>
    <i type="int" name="LMAXPAW">  -100</i>
    <i type="int" name="LMAXMIX">     2</i>
    <i type="logical" name="NLSPLINE"> F  </i>
   </separator>
   <separator name="electronic startup" >
    <i type="int" name="ISTART">     0</i>
    <i type="int" name="ICHARG">     2</i>
    <i type="int" name="INIWAV">     1</i>
   </separator>
   <separator name="electronic spin" >
    <i type="int" name="ISPIN">     1</i>
    <i type="logical" name="LNONCOLLINEAR"> F  </i>
    <v name="MAGMOM">      1.00000000</v>
    <i name="NUPDOWN">     -1.00000000</i>
    <i type="logical" name="LSORBIT"> F  </i>
    <v name="SAXIS">      0.00000000      0.00000000      1.00000000</v>
    <i type="logical" name="LSPIRAL"> F  </i>
    <v name="QSPIRAL">      0.00000000      0.00000000      0.00000000</v>
    <i type="logical" name="LZEROZ"> F  </i>
   </separator>
   <separator name="electronic exchange-correlation" >
    <i type="logical" name="LASPH"> F  </i>
    <i type="logical" name="LMETAGGA"> F  </i>
   </separator>
   <separator name="electronic convergence" >
    <i type="int" name="NELM">    60</i>
    <i type="int" name="NELMDL">    -5</i>
    <i type="int" name="NELMIN">     2</i>
    <i name="ENINI">    224.00000000</i>
    <separator name="electronic convergence detail" >
     <i type="logical" name="LDIAG"> T  </i>
     <i type="logical" name="LSUBROT"> F  </i>
     <i name="WEIMIN">      0.00000000</i>
     <i name="EBREAK">      0.00000313</i>
     <i name="DEPER">      0.30000000</i>
     <i type="int" name="NRMM">     4</i>
     <i name="TIME">      0.40000000</i>
    </separator>
   </separator>
   <separator name="electronic mixer" >
    <i name="AMIX">      0.40000000</i>
    <i name="BMIX">      1.00000000</i>
    <i name="AMIN">      0.10000000</i>
    <i name="AMIX_MAG">      1.60000000</i>
    <i name="BMIX_MAG">      1.00000000</i>
    <separator name="electronic mixer details" >
     <i type="int" name="IMIX">     4</i>
     <i type="logical" name="MIXFIRST"> F  </i>
     <i type="int" name="MAXMIX">   -45</i>
     <i name="WC">    100.00000000</i>
     <i type="int" name="INIMIX">     1</i>
     <i type="int" name="MIXPRE">     1</i>
     <i type="int" name="MREMOVE">     5</i>
    </separator>
   </separator>
   <separator name="electronic dipolcorrection" >
    <i type="logical" name="LDIPOL"> F  </i>
    <i type="logical" name="LMONO"> F  </i>
    <i type="int" name="IDIPOL">     0</i>
    <i name="EPSILON">      1.00000000</i>
    <v name="DIPOL">   -100.00000000   -100.00000000   -100.00000000</v>
    <i name="EFIELD">      0.00000000</i>
   </separator>
  </separator>
  <separator name="grids" >
   <i type="int" name="NGX">    10</i>
   <i type="int" name="NGY">    10</i>
   <i type="int" name="NGZ">    10</i>
   <i type="int" name="NGXF">    20</i>
   <i type="int" name="NGYF">    20</i>
   <i type="int" name="NGZF">    20</i>
   <i type="logical" name="ADDGRID"> F  </i>
  </separator>
  <separator name="ionic" >
   <i type="int" name="NSW">     0</i>
   <i type="int" name="IBRION">    -1</i>
   <i type="int" name="MDALGO">     0</i>
   <i type="int" name="ISIF">     2</i>
   <i name="PSTRESS">      0.00000000</i>
   <i name="EDIFFG">      0.00100000</i>
   <i type="int" name="NFREE">     0</i>
   <i name="POTIM">      0.50000000</i>
   <i name="SMASS">     -3.00000000</i>
   <i name="SCALEE">      1.00000000</i>
  </separator>
  <separator name="ionic md" >
   <i name="TEBEG">      0.00010000</i>
   <i name="TEEND">      0.00010000</i>
   <i type="int" name="NBLOCK">     1</i>
   <i type="int" name="KBLOCK">     1</i>
   <i type="int" name="NPACO">   256</i>
   <i name="APACO">     16.00000000</i>
  </separator>
  <separator name="symmetry" >
   <i type="int" name="ISYM">     2</i>
   <i name="SYMPREC">      0.00001000</i>
  </separator>
  <separator name="dos" >
   <i type="int" name="LORBIT">     0</i>
   <v name="RWIGS">     -1.00000000</v>
   <i type="int" name="NEDOS">   301</i>
   <i name="EMIN">     10.00000000</i>
   <i name="EMAX">    -10.00000000</i>
   <i name="EFERMI">      0.00000000</i>
  </separator>
  <separator name="writing" >
   <i type="int" name="NWRITE">     2</i>
   <i type="logical" name="LWAVE"> T  </i>
   <i type="logical" name="LDOWNSAMPLE"> F  </i>
   <i type="logical" name="LCHARG"> T  </i>
   <i type="logical" name="LPARD"> F  </i>
   <i type="logical" name="LVTOT"> F  </i>
   <i type="logical" name="LVHAR"> F  </i>
   <i type="logical" name="LELF"> F  </i>
   <i type="logical" name="LOPTICS"> F  </i>
   <v name="STM">      0.00000000      0.00000000      0.00000000      0.00000000      0.00000000      0.00000000      0.00000000</v>
  </separator>
  <separator name="performance" >
   <i type="int" name="NPAR">     4</i>
   <i type="int" name="NSIM">     4</i>
   <i type="int" name="NBLK">    -1</i>
   <i type="logical" name="LPLANE"> T  </i>
   <i type="logical" name="LSCALAPACK"> T  </i>
   <i type="logical" name="LSCAAWARE"> F  </i>
   <i type="logical" name="LSCALU"> F  </i>
   <i type="logical" name="LASYNC"> F  </i>
   <i type="logical" name="LORBITALREAL"> F  </i>
  </separator>
  <separator name="miscellaneous" >
   <i type="int" name="IDIOT">     3</i>
   <i type="int" name="ISPECIAL">     0</i>
   <i type="logical" name="LMUSIC"> F  </i>
   <v name="POMASS">    183.85000000</v>
   <v name="DARWINR">      0.00000000</v>
   <v name="DARWINV">      1.00000000</v>
   <i type="logical" name="LCORR"> T  </i>
  </separator>
  <i type="logical" name="GGA_COMPAT"> T  </i>
  <i type="logical" name="LBERRY"> F  </i>
  <i type="int" name="ICORELEVEL">     0</i>
  <i type="logical" name="LDAU"> F  </i>
  <i type="int" name="I_CONSTRAINED_M">     0</i>
  <separator name="electronic exchange-correlation" >
   <i type="string" name="GGA">--</i>
   <i type="int" name="VOSKOWN">     0</i>
   <i type="logical" name="LHFCALC"> F  </i>
   <i type="string" name="PRECFOCK"></i>
   <i type="logical" name="LSYMGRAD"> F  </i>
   <i type="logical" name="LHFONE"> F  </i>
   <i type="logical" name="LRHFCALC"> F  </i>
   <i type="logical" name="LTHOMAS"> F  </i>
   <i type="logical" name="LMODELHF"> F  </i>
   <i name="ENCUT4O">     -1.00000000</i>
   <i type="int" name="EXXOEP">     0</i>
   <i type="int" name="FOURORBIT">     0</i>
   <i name="AEXX">      0.00000000</i>
   <i name="HFALPHA">      0.00000000</i>
   <i name="MCALPHA">      0.00000000</i>
   <i name="ALDAX">      1.00000000</i>
   <i name="AGGAX">      1.00000000</i>
   <i name="ALDAC">      1.00000000</i>
   <i name="AGGAC">      1.00000000</i>
   <i type="int" name="NKREDX">     1</i>
   <i type="int" name="NKREDY">     1</i>
   <i type="int" name="NKREDZ">     1</i>
   <i type="logical" name="SHIFTRED"> F  </i>
   <i type="logical" name="ODDONLY"> F  </i>
   <i type="logical" name="EVENONLY"> F  </i>
   <i type="int" name="LMAXFOCK">     0</i>
   <i type="int" name="NMAXFOCKAE">     0</i>
   <i type="logical" name="LFOCKAEDFT"> F  </i>
   <i name="HFSCREEN">      0.00000000</i>
   <i name="HFSCREENC">      0.00000000</i>
   <i type="int" name="NBANDSGWLOW">     0</i>
  </separator>
  <separator name="vdW DFT" >
   <i type="logical" name="LUSE_VDW"> F  </i>
   <i name="Zab_VDW">     -0.84910000</i>
   <i name="PARAM1">      0.12340000</i>
   <i name="PARAM2">      1.00000000</i>
   <i name="PARAM3">      0.00000000</i>
  </separator>
  <separator name="model GW" >
   <i type="int" name="MODEL_GW">     0</i>
   <i name="MODEL_EPS0">      8.10000000</i>
   <i name="MODEL_ALPHA">      1.00000000</i>
  </separator>
  <separator name="linear response parameters" >
   <i type="logical" name="LEPSILON"> F  </i>
   <i type="logical" name="LRPA"> F  </i>
   <i type="logical" name="LNABLA"> F  </i>
   <i type="logical" name="LVEL"> F  </i>
   <i type="int" name="KINTER">     0</i>
   <i name="CSHIFT">      0.10000000</i>
   <i name="OMEGAMAX">     -1.00000000</i>
   <i name="DEG_THRESHOLD">      0.00200000</i>
   <i name="RTIME">     -0.10000000</i>
   <i name="WPLASMAI">      0.00000000</i>
   <v name="DFIELD">      0.00000000      0.00000000      0.00000000</v>
   <v name="WPLASMA">      0.00000000      0.00000000      0.00000000      0.00000000      0.00000000      0.00000000      0.00000000      0.00000000      0.00000000</v>
  </separator>
  <separator name="orbital magnetization" >
   <i type="logical" name="NUCIND"> F  </i>
   <v name="MAGPOS">      0.00000000      0.00000000      0.00000000</v>
   <i type="logical" name="LNICSALL"> T  </i>
   <i type="logical" name="ORBITALMAG"> F  </i>
   <i type="logical" name="LMAGBLOCH"> F  </i>
   <i type="logical" name="LCHIMAG"> F  </i>
   <i type="logical" name="LGAUGE"> T  </i>
   <i type="int" name="MAGATOM">     0</i>
   <v name="MAGDIPOL">      0.00000000      0.00000000      0.00000000</v>
   <v name="AVECCONST">      0.00000000      0.00000000      0.00000000</v>
  </separator>
  <separator name="response functions" >
   <i type="logical" name="LADDER"> F  </i>
   <i type="logical" name="LRPAFORCE"> F  </i>
   <i type="logical" name="LFXC"> F  </i>
   <i type="logical" name="LHARTREE"> T  </i>
   <i type="int" name="IBSE">     0</i>
   <v type="int" name="KPOINT">    -1     0     0     0</v>
   <i type="logical" name="LTCTE"> F  </i>
   <i type="logical" name="LTETE"> F  </i>
   <i type="logical" name="LTRIPLET"> F  </i>
   <i type="logical" name="LFXCEPS"> F  </i>
   <i type="logical" name="LFXHEG"> F  </i>
   <i type="int" name="NATURALO">     2</i>
   <i type="logical" name="L2ORDER"> F  </i>
   <i type="logical" name="LMP2LT"> F  </i>
   <i type="logical" name="LUSEW"> F  </i>
   <i name="ENCUTGW">     -2.00000000</i>
   <i name="ENCUTGWSOFT">     -2.00000000</i>
   <i name="ENCUTLF">     -1.00000000</i>
   <i type="int" name="LMAXMP2">    -1</i>
   <i name="SCISSOR">      0.00000000</i>
   <i type="int" name="NOMEGA">     0</i>
   <i type="int" name="NOMEGAR">     0</i>
   <i type="int" name="NBANDSGW">    -1</i>
   <i type="int" name="NBANDSO">    -1</i>
   <i type="int" name="NBANDSV">    -1</i>
   <i type="int" name="NELM">     1</i>
   <i type="int" name="NELMHF">     1</i>
   <i type="int" name="DIM">     3</i>
   <i type="int" name="ANTIRES">     0</i>
   <i name="OMEGAMAX">    -30.00000000</i>
   <i name="OMEGAMIN">    -30.00000000</i>
   <i name="OMEGATL">   -200.00000000</i>
   <i type="int" name="OMEGAGRID">   140</i>
   <i name="CSHIFT">     -0.10000000</i>
   <i type="logical" name="SELFENERGY"> F  </i>
   <i type="logical" name="LSPECTRAL"> F  </i>
   <i type="logical" name="LSPECTRALGW"> F  </i>
   <i type="logical" name="LSINGLES"> F  </i>
   <i type="logical" name="LFERMIGW"> F  </i>
   <i type="logical" name="ODDONLYGW"> F  </i>
   <i type="logical" name="EVENONLYGW"> F  </i>
   <i type="int" name="NKREDLFX">     1</i>
   <i type="int" name="NKREDLFY">     1</i>
   <i type="int" name="NKREDLFZ">     1</i>
   <i type="int" name="MAXMEM">  2800</i>
   <i type="int" name="TELESCOPE">     0</i>
   <i type="int" name="TAUPAR">     1</i>
   <i type="int" name="OMEGAPAR">    -1</i>
   <i name="LAMBDA">      1.00000000</i>
  </separator>
  <separator name="External order field" >
   <i name="OFIELD_KAPPA">      0.00000000</i>
   <v name="OFIELD_K">      0.00000000      0.00000000      0.00000000</v>
   <i name="OFIELD_Q6_NEAR">      0.00000000</i>
   <i name="OFIELD_Q6_FAR">      0.00000000</i>
   <i name="OFIELD_A">      0.00000000</i>
  </separator>
 </parameters>
 <atominfo>
  <atoms>       1 </atoms>
  <types>       1 </types>
  <array name="atoms" >
   <dimension dim="1">ion</dimension>
   <field type="string">element</field>
   <field type="int">atomtype</field>
   <set>
    <rc><c>W </c><c>   1</c></rc>
   </set>
  </array>
  <array name="atomtypes" >
   <dimension dim="1">type</dimension>
   <field type="int">atomspertype</field>
   <field type="string">element</field>
   <field>mass</field>
   <field>valence</field>
   <field type="string">pseudopotential</field>
   <set>
    <rc><c>   1</c><c>W </c><c>    183.85000000</c><c>      6.00000000</c><c> PAW W 19Jan2001                        </c></rc>
   </set>
  </array>
 </atominfo>
 <structure name="initialpos" >
  <crystal>
   <varray name="basis" >
    <v>      -1.50000000       1.50000000       1.50000000 </v>
    <v>       1.50000000      -1.50000000       1.50000000 </v>
    <v>       1.50000000       1.50000000      -1.50000000 </v>
   </varray>
   <i name="volume">     13.50000000 </i>
   <varray name="rec_basis" >
    <v>       0.00000000       0.33333333       0.33333333 </v>
    <v>       0.33333333       0.00000000       0.33333333 </v>
    <v>       0.33333333       0.33333333       0.00000000 </v>
   </varray>
  </crystal>
  <varray name="positions" >
   <v>       0.00000000       0.00000000       0.00000000 </v>
  </varray>
 </structure>
 <calculation>
  <scstep>
   <time name="dav">    0.05    0.05</time>
   <time name="total">    0.06    0.06</time>
   <energy>
    <i name="alphaZ">     51.70603111 </i>
    <i name="ewald">   -314.42512270 </i>
    <i name="hartreedc">     -4.16935247 </i>
    <i name="XCdc">    -47.04763922 </i>
    <i name="pawpsdc">    183.53490256 </i>
    <i name="pawaedc">   -125.80866524 </i>
    <i name="eentropy">     -0.00111547 </i>
    <i name="bandstr">     38.87131412 </i>
    <i name="atom">    206.50785835 </i>
    <i name="e_fr_energy">    -10.83178897 </i>
    <i name="e_wo_entrp">    -10.83067349 </i>
    <i name="e_0_energy">    -10.83141714 </i>
   </energy>
  </scstep>
  <scstep>
   <time name="dav">    0.03    0.03</time>
   <time name="total">    0.03    0.03</time>
   <energy>
    <i name="e_fr_energy">    -14.52892583 </i>
    <i name="e_wo_entrp">    -14.52833402 </i>
    <i name="e_0_energy">    -14.52872856 </i>
   </energy>
  </scstep>
  <scstep>
   <time name="dav">    0.04    0.04</time>
   <time name="total">    0.04    0.04</time>
   <energy>
    <i name="e_fr_energy">    -14.53953618 </i>
    <i name="e_wo_entrp">    -14.53892862 </i>
    <i name="e_0_energy">    -14.53933366 </i>
   </energy>
  </scstep>
  <scstep>
   <time name="dav">    0.03    0.03</time>
   <time name="total">    0.03    0.03</time>
   <energy>
    <i name="e_fr_energy">    -14.53954034 </i>
    <i name="e_wo_entrp">    -14.53893278 </i>
    <i name="e_0_energy">    -14.53933782 </i>
   </energy>
  </scstep>
  <scstep>
   <time name="dav">    0.03    0.03</time>
   <time name="total">    0.03    0.03</time>
   <energy>
    <i name="e_fr_energy">    -14.53954035 </i>
    <i name="e_wo_entrp">    -14.53893278 </i>
    <i name="e_0_energy">    -14.53933783 </i>
   </energy>
  </scstep>
  <scstep>
   <time name="dav">    0.03    0.03</time>
   <time name="total">    0.03    0.03</time>
   <energy>
    <i name="e_fr_energy">    -14.12364495 </i>
    <i name="e_wo_entrp">    -14.12556064 </i>
    <i name="e_0_energy">    -14.12428351 </i>
   </energy>
  </scstep>
  <scstep>
   <time name="dav">    0.03    0.03</time>
   <time name="total">    0.03    0.03</time>
   <energy>
    <i name="e_fr_energy">    -13.93712132 </i>
    <i name="e_wo_entrp">    -13.93933962 </i>
    <i name="e_0_energy">    -13.93786076 </i>
   </energy>
  </scstep>
  <scstep>
   <time name="dav">    0.03    0.03</time>
   <time name="total">    0.03    0.03</time>
   <energy>
    <i name="e_fr_energy">    -13.93498143 </i>
    <i name="e_wo_entrp">    -13.93716636 </i>
    <i name="e_0_energy">    -13.93570974 </i>
   </energy>
  </scstep>
  <scstep>
   <time name="dav">    0.03    0.03</time>
   <time name="total">    0.03    0.03</time>
   <energy>
    <i name="alphaZ">     51.70603111 </i>
    <i name="ewald">   -314.42512270 </i>
    <i name="hartreedc">     -1.50564567 </i>
    <i name="XCdc">    -46.58771900 </i>
    <i name="pawpsdc">    282.00873052 </i>
    <i name="pawaedc">   -226.30868844 </i>
    <i name="eentropy">      0.00217765 </i>
    <i name="bandstr">     34.66746936 </i>
    <i name="atom">    206.50785835 </i>
    <i name="e_fr_energy">    -13.93490881 </i>
    <i name="e_wo_entrp">    -13.93708646 </i>
    <i name="e_0_energy">    -13.93563469 </i>
   </energy>
  </scstep>
  <structure>
   <crystal>
    <varray name="basis" >
     <v>      -1.50000000       1.50000000       1.50000000 </v>
     <v>       1.50000000      -1.50000000       1.50000000 </v>
     <v>       1.50000000       1.50000000      -1.50000000 </v>
    </varray>
    <i name="volume">     13.50000000 </i>
    <varray name="rec_basis" >
     <v>       0.00000000       0.33333333       0.33333333 </v>
     <v>       0.33333333       0.00000000       0.33333333 </v>
     <v>       0.33333333       0.33333333       0.00000000 </v>
    </varray>
   </crystal>
   <varray name="positions" >
    <v>       0.00000000       0.00000000       0.00000000 </v>
   </varray>
  </structure>
  <varray name="forces" >
   <v>       0.00000000       0.00000000       0.00000000 </v>
  </varray>
  <varray name="stress" >
   <v>     542.65620693      -0.00000000       0.00000000 </v>
   <v>       0.00000000     542.65620693      -0.00000000 </v>
   <v>       0.00000000      -0.00000000     542.65620693 </v>
  </varray>
  <energy>
   <i name="e_fr_energy">    -13.93490881 </i>
   <i name="e_wo_entrp">    -13.93563469 </i>
   <i name="e_0_energy">      0.00217765 </i>
  </energy>
  <time name="totalsc">    0.35    0.36</time>
  <eigenvalues>
   <array>
    <dimension dim="1">band</dimension>
    <dimension dim="2">kpoint</dimension>
    <dimension dim="3">spin</dimension>
    <field>eigene</field>
    <field>occ</field>
    <set>
     <set comment="spin 1">
      <set comment="kpoint 1">
       <r>    0.1802    1.0000 </r>
       <r>    7.7431    1.0000 </r>
       <r>    7.7431    1.0000 </r>
       <r>    9.2286    1.0232 </r>
       <r>   12.0221   -0.0000 </r>
       <r>   12.0221   -0.0000 </r>
       <r>   26.0074    0.0000 </r>
       <r>   27.3448    0.0000 </r>
      </set>
      <set comment="kpoint 2">
       <r>    1.5655    1.0000 </r>
       <r>    6.8868    1.0000 </r>
       <r>    7.2438    1.0000 </r>
       <r>   11.0848   -0.0000 </r>
       <r>   11.6315   -0.0000 </r>
       <r>   12.3800   -0.0000 </r>
       <r>   26.8675    0.0000 </r>
       <r>   28.8994    0.0000 </r>
      </set>
      <set comment="kpoint 3">
       <r>    2.7684    1.0000 </r>
       <r>    6.0561    1.0000 </r>
       <r>    7.4572    1.0000 </r>
       <r>   11.9530   -0.0000 </r>
       <r>   12.8194   -0.0000 </r>
       <r>   13.7765   -0.0000 </r>
       <r>   25.5252    0.0000 </r>
       <r>   27.6482    0.0000 </r>
      </set>
      <set comment="kpoint 4">
       <r>    2.8154    1.0000 </r>
       <r>    5.4912    1.0000 </r>
       <r>    9.3493    1.0245 </r>
       <r>   12.4785   -0.0000 </r>
       <r>   13.3116   -0.0000 </r>
       <r>   16.6222    0.0000 </r>
       <r>   23.4649    0.0000 </r>
       <r>   24.6096    0.0000 </r>
      </set>
      <set comment="kpoint 5">
       <r>    2.6688    1.0000 </r>
       <r>    5.2932    1.0000 </r>
       <r>   10.8069   -0.0000 </r>
       <r>   12.4748   -0.0000 </r>
       <r>   13.5652   -0.0000 </r>
       <r>   18.1006    0.0000 </r>
       <r>   22.6054    0.0000 </r>
       <r>   23.1335    0.0000 </r>
      </set>
      <set comment="kpoint 6">
       <r>   -0.3610    1.0000 </r>
       <r>    8.1593    1.0000 </r>
       <r>    8.1593    1.0000 </r>
       <r>    8.3216    1.0000 </r>
       <r>   11.8417   -0.0000 </r>
       <r>   12.5041   -0.0000 </r>
       <r>   26.0051    0.0000 </r>
       <r>   26.0051    0.0000 </r>
      </set>
      <set comment="kpoint 7">
       <r>    3.0248    1.0000 </r>
       <r>    6.3461    1.0000 </r>
       <r>    6.4399    1.0000 </r>
       <r>   11.7287   -0.0000 </r>
       <r>   12.8958   -0.0000 </r>
       <r>   13.7517   -0.0000 </r>
       <r>   27.1699    0.0000 </r>
       <r>   27.9763    0.0000 </r>
      </set>
      <set comment="kpoint 8">
       <r>    3.7934    1.0000 </r>
       <r>    5.7636    1.0000 </r>
       <r>    7.2206    1.0000 </r>
       <r>   12.1586   -0.0000 </r>
       <r>   13.3807   -0.0000 </r>
       <r>   16.8153    0.0000 </r>
       <r>   24.6247    0.0000 </r>
       <r>   26.2846    0.0000 </r>
      </set>
      <set comment="kpoint 9">
       <r>    3.6226    1.0000 </r>
       <r>    5.4887    1.0000 </r>
       <r>    8.9801    1.0002 </r>
       <r>   12.5685   -0.0000 </r>
       <r>   13.6917   -0.0000 </r>
       <r>   19.2597    0.0000 </r>
       <r>   22.1036    0.0000 </r>
       <r>   24.2328    0.0000 </r>
      </set>
      <set comment="kpoint 10">
       <r>    0.6924    1.0000 </r>
       <r>    7.5668    1.0000 </r>
       <r>    7.9344    1.0000 </r>
       <r>    9.4139    0.9494 </r>
       <r>   10.9510   -0.0000 </r>
       <r>   12.7479   -0.0000 </r>
       <r>   26.8359    0.0000 </r>
       <r>   27.8634    0.0000 </r>
      </set>
      <set comment="kpoint 11">
       <r>    4.3908    1.0000 </r>
       <r>    5.9789    1.0000 </r>
       <r>    7.4087    1.0000 </r>
       <r>   12.5838   -0.0000 </r>
       <r>   13.5824   -0.0000 </r>
       <r>   19.9207    0.0000 </r>
       <r>   21.7667    0.0000 </r>
       <r>   26.0062    0.0000 </r>
      </set>
      <set comment="kpoint 12">
       <r>    4.4246    1.0000 </r>
       <r>    6.1634    1.0000 </r>
       <r>    7.7600    1.0000 </r>
       <r>   12.9451   -0.0000 </r>
       <r>   13.6403   -0.0000 </r>
       <r>   20.0527    0.0000 </r>
       <r>   21.8454    0.0000 </r>
       <r>   24.5543    0.0000 </r>
      </set>
      <set comment="kpoint 13">
       <r>    2.1601    1.0000 </r>
       <r>    6.6821    1.0000 </r>
       <r>    7.5335    1.0000 </r>
       <r>   11.0442   -0.0000 </r>
       <r>   11.5847   -0.0000 </r>
       <r>   13.0317   -0.0000 </r>
       <r>   26.2816    0.0000 </r>
       <r>   29.0732    0.0000 </r>
      </set>
      <set comment="kpoint 14">
       <r>    2.0067    1.0000 </r>
       <r>    7.2499    1.0000 </r>
       <r>    7.3299    1.0000 </r>
       <r>   10.2491   -0.0000 </r>
       <r>   10.9644   -0.0000 </r>
       <r>   13.3195   -0.0000 </r>
       <r>   27.6694    0.0000 </r>
       <r>   28.2669    0.0000 </r>
      </set>
      <set comment="kpoint 15">
       <r>    2.7166    1.0000 </r>
       <r>    5.9231    1.0000 </r>
       <r>    8.4282    1.0000 </r>
       <r>   11.8967   -0.0000 </r>
       <r>   13.3936   -0.0000 </r>
       <r>   14.4298   -0.0000 </r>
       <r>   24.1638    0.0000 </r>
       <r>   26.6225    0.0000 </r>
      </set>
      <set comment="kpoint 16">
       <r>    3.2064    1.0000 </r>
       <r>    6.4042    1.0000 </r>
       <r>    7.2601    1.0000 </r>
       <r>   10.7279   -0.0000 </r>
       <r>   13.3484   -0.0000 </r>
       <r>   13.9365   -0.0000 </r>
       <r>   25.2829    0.0000 </r>
       <r>   28.6934    0.0000 </r>
      </set>
      <set comment="kpoint 17">
       <r>    2.5333    1.0000 </r>
       <r>    5.5015    1.0000 </r>
       <r>   10.1338   -0.0001 </r>
       <r>   12.1365   -0.0000 </r>
       <r>   14.1431   -0.0000 </r>
       <r>   16.9967    0.0000 </r>
       <r>   22.9059    0.0000 </r>
       <r>   24.1551    0.0000 </r>
      </set>
      <set comment="kpoint 18">
       <r>    3.2664    1.0000 </r>
       <r>    5.9657    1.0000 </r>
       <r>    8.2173    1.0000 </r>
       <r>   11.5464   -0.0000 </r>
       <r>   14.0307   -0.0000 </r>
       <r>   16.7505    0.0000 </r>
       <r>   23.7303    0.0000 </r>
       <r>   26.0053    0.0000 </r>
      </set>
      <set comment="kpoint 19">
       <r>    4.1050    1.0000 </r>
       <r>    5.8088    1.0000 </r>
       <r>    7.4698    1.0000 </r>
       <r>   11.1373   -0.0000 </r>
       <r>   13.5573   -0.0000 </r>
       <r>   16.9901    0.0000 </r>
       <r>   23.9754    0.0000 </r>
       <r>   28.2939    0.0000 </r>
      </set>
      <set comment="kpoint 20">
       <r>    3.1044    1.0000 </r>
       <r>    5.8145    1.0000 </r>
       <r>    8.9848    1.0003 </r>
       <r>   11.4615   -0.0000 </r>
       <r>   14.9043   -0.0000 </r>
       <r>   18.4219    0.0000 </r>
       <r>   22.7431    0.0000 </r>
       <r>   24.6261    0.0000 </r>
      </set>
      <set comment="kpoint 21">
       <r>    4.2014    1.0000 </r>
       <r>    5.9226    1.0000 </r>
       <r>    7.5137    1.0000 </r>
       <r>   11.8231   -0.0000 </r>
       <r>   13.9677   -0.0000 </r>
       <r>   20.1526    0.0000 </r>
       <r>   21.7779    0.0000 </r>
       <r>   26.1152    0.0000 </r>
      </set>
      <set comment="kpoint 22">
       <r>    4.7820    1.0000 </r>
       <r>    6.3817    1.0000 </r>
       <r>    6.3817    1.0000 </r>
       <r>   13.1428   -0.0000 </r>
       <r>   13.1428   -0.0000 </r>
       <r>   20.2902    0.0000 </r>
       <r>   23.6267    0.0000 </r>
       <r>   23.6267    0.0000 </r>
      </set>
      <set comment="kpoint 23">
       <r>    4.6816    1.0000 </r>
       <r>    5.8029    1.0000 </r>
       <r>    5.8029    1.0000 </r>
       <r>   12.8491   -0.0000 </r>
       <r>   12.8491   -0.0000 </r>
       <r>   17.0034    0.0000 </r>
       <r>   26.4148    0.0000 </r>
       <r>   27.0167    0.0000 </r>
      </set>
      <set comment="kpoint 24">
       <r>    4.9246    1.0000 </r>
       <r>    5.5485    1.0000 </r>
       <r>    7.1990    1.0000 </r>
       <r>   13.1028   -0.0000 </r>
       <r>   13.4931   -0.0000 </r>
       <r>   19.9380    0.0000 </r>
       <r>   22.0549    0.0000 </r>
       <r>   25.2849    0.0000 </r>
      </set>
      <set comment="kpoint 25">
       <r>    4.7375    1.0000 </r>
       <r>    5.4781    1.0000 </r>
       <r>    8.4198    1.0000 </r>
       <r>   13.2227   -0.0000 </r>
       <r>   13.6915   -0.0000 </r>
       <r>   20.1142    0.0000 </r>
       <r>   21.1836    0.0000 </r>
       <r>   24.6076    0.0000 </r>
      </set>
      <set comment="kpoint 26">
       <r>    1.6910    1.0000 </r>
       <r>    8.1943    1.0000 </r>
       <r>    8.1944    1.0000 </r>
       <r>    9.0615    1.0016 </r>
       <r>    9.3828    0.9966 </r>
       <r>   13.6020   -0.0000 </r>
       <r>   29.0046    0.0000 </r>
       <r>   29.5552    0.0000 </r>
      </set>
      <set comment="kpoint 27">
       <r>    5.2906    1.0000 </r>
       <r>    6.2828    1.0000 </r>
       <r>    7.2095    1.0000 </r>
       <r>   13.5073   -0.0000 </r>
       <r>   13.6837   -0.0000 </r>
       <r>   19.3168    0.0000 </r>
       <r>   22.3805    0.0000 </r>
       <r>   24.6528    0.0000 </r>
      </set>
      <set comment="kpoint 28">
       <r>    3.1091    1.0000 </r>
       <r>    7.1335    1.0000 </r>
       <r>    7.7312    1.0000 </r>
       <r>    9.3444    1.0270 </r>
       <r>   11.2252   -0.0000 </r>
       <r>   13.9986   -0.0000 </r>
       <r>   26.1429    0.0000 </r>
       <r>   30.5365    0.0000 </r>
      </set>
      <set comment="kpoint 29">
       <r>    3.6707    1.0000 </r>
       <r>    6.8009    1.0000 </r>
       <r>    7.0739    1.0000 </r>
       <r>   10.5311   -0.0000 </r>
       <r>   14.0755   -0.0000 </r>
       <r>   14.4921   -0.0000 </r>
       <r>   24.7581    0.0000 </r>
       <r>   28.9784    0.0000 </r>
      </set>
      <set comment="kpoint 30">
       <r>    4.2153    1.0000 </r>
       <r>    5.9020    1.0000 </r>
       <r>    8.1046    1.0000 </r>
       <r>    9.7460   -0.0240 </r>
       <r>   12.9155   -0.0000 </r>
       <r>   14.5720   -0.0000 </r>
       <r>   25.3326    0.0000 </r>
       <r>   31.0792    0.0000 </r>
      </set>
      <set comment="kpoint 31">
       <r>    3.3787    1.0000 </r>
       <r>    6.6892    1.0000 </r>
       <r>    7.5774    1.0000 </r>
       <r>   10.4431   -0.0000 </r>
       <r>   16.4114    0.0000 </r>
       <r>   16.7146    0.0000 </r>
       <r>   23.5954    0.0000 </r>
       <r>   26.6067    0.0000 </r>
      </set>
      <set comment="kpoint 32">
       <r>    4.2972    1.0000 </r>
       <r>    5.7917    1.0000 </r>
       <r>    7.6095    1.0000 </r>
       <r>   10.6362   -0.0000 </r>
       <r>   14.2131   -0.0000 </r>
       <r>   17.3196    0.0000 </r>
       <r>   24.2373    0.0000 </r>
       <r>   28.5367    0.0000 </r>
      </set>
      <set comment="kpoint 33">
       <r>    4.0227    1.0000 </r>
       <r>    6.4736    1.0000 </r>
       <r>    6.9360    1.0000 </r>
       <r>   10.6702   -0.0000 </r>
       <r>   15.5973    0.0000 </r>
       <r>   19.6629    0.0000 </r>
       <r>   22.2110    0.0000 </r>
       <r>   26.6688    0.0000 </r>
      </set>
      <set comment="kpoint 34">
       <r>    5.0414    1.0000 </r>
       <r>    5.2586    1.0000 </r>
       <r>    6.6698    1.0000 </r>
       <r>   12.3418   -0.0000 </r>
       <r>   14.0032   -0.0000 </r>
       <r>   20.8464    0.0000 </r>
       <r>   22.0501    0.0000 </r>
       <r>   25.6538    0.0000 </r>
      </set>
      <set comment="kpoint 35">
       <r>    6.4379    1.0000 </r>
       <r>    6.4379    1.0000 </r>
       <r>    6.4380    1.0000 </r>
       <r>   13.7696   -0.0000 </r>
       <r>   13.7696   -0.0000 </r>
       <r>   18.2783    0.0000 </r>
       <r>   24.2417    0.0000 </r>
       <r>   24.2417    0.0000 </r>
      </set>
      <set comment="kpoint 36">
       <r>    4.2874    1.0000 </r>
       <r>    6.0389    1.0000 </r>
       <r>    9.1216    1.0051 </r>
       <r>    9.1216    1.0051 </r>
       <r>   11.3521   -0.0000 </r>
       <r>   14.1805   -0.0000 </r>
       <r>   26.0190    0.0000 </r>
       <r>   32.6708    0.0000 </r>
      </set>
      <set comment="kpoint 37">
       <r>    4.5605    1.0000 </r>
       <r>    5.1178    1.0000 </r>
       <r>    9.1816    1.0132 </r>
       <r>   10.0312   -0.0017 </r>
       <r>   13.6285   -0.0000 </r>
       <r>   14.8808   -0.0000 </r>
       <r>   26.3960    0.0000 </r>
       <r>   29.9441    0.0000 </r>
      </set>
      <set comment="kpoint 38">
       <r>    3.9310    1.0000 </r>
       <r>    5.2789    1.0000 </r>
       <r>    8.9383    1.0001 </r>
       <r>   10.0083   -0.0027 </r>
       <r>   16.2879    0.0000 </r>
       <r>   17.7880    0.0000 </r>
       <r>   23.5602    0.0000 </r>
       <r>   26.7243    0.0000 </r>
      </set>
      <set comment="kpoint 39">
       <r>    4.1200    1.0000 </r>
       <r>    4.5896    1.0000 </r>
       <r>    9.1061    1.0038 </r>
       <r>   11.6757   -0.0000 </r>
       <r>   14.3908   -0.0000 </r>
       <r>   17.5614    0.0000 </r>
       <r>   24.6233    0.0000 </r>
       <r>   26.8183    0.0000 </r>
      </set>
      <set comment="kpoint 40">
       <r>    3.8882    1.0000 </r>
       <r>    4.4136    1.0000 </r>
       <r>    8.8275    1.0000 </r>
       <r>   12.3992   -0.0000 </r>
       <r>   15.3891    0.0000 </r>
       <r>   20.7975    0.0000 </r>
       <r>   21.6220    0.0000 </r>
       <r>   24.4827    0.0000 </r>
      </set>
      <set comment="kpoint 41">
       <r>    3.7943    1.0000 </r>
       <r>    4.2980    1.0000 </r>
       <r>   11.4247   -0.0000 </r>
       <r>   11.4247   -0.0000 </r>
       <r>   13.8447   -0.0000 </r>
       <r>   15.4316    0.0000 </r>
       <r>   27.0887    0.0000 </r>
       <r>   27.0888    0.0000 </r>
      </set>
      <set comment="kpoint 42">
       <r>    3.2494    1.0000 </r>
       <r>    3.6401    1.0000 </r>
       <r>   11.9791   -0.0000 </r>
       <r>   12.2123   -0.0000 </r>
       <r>   15.9028    0.0000 </r>
       <r>   18.2050    0.0000 </r>
       <r>   23.0301    0.0000 </r>
       <r>   24.1365    0.0000 </r>
      </set>
      <set comment="kpoint 43">
       <r>    3.0846    1.0000 </r>
       <r>    3.0846    1.0000 </r>
       <r>   12.0352   -0.0000 </r>
       <r>   15.0794    0.0000 </r>
       <r>   15.0794    0.0000 </r>
       <r>   21.1947    0.0000 </r>
       <r>   21.1948    0.0000 </r>
       <r>   21.2787    0.0000 </r>
      </set>
      <set comment="kpoint 44">
       <r>    2.6268    1.0000 </r>
       <r>    2.7403    1.0000 </r>
       <r>   14.9584   -0.0000 </r>
       <r>   14.9584   -0.0000 </r>
       <r>   15.8540    0.0000 </r>
       <r>   18.8936    0.0000 </r>
       <r>   21.2532    0.0000 </r>
       <r>   21.2532    0.0000 </r>
      </set>
     </set>
    </set>
   </array>
  </eigenvalues>
  <separator name="orbital magnetization" >
   <v name="MAGDIPOLOUT">      0.00000000      0.00000000      0.00000000</v>
  </separator>
  <dos>
   <i name="efermi">      9.54812758 </i>
   <total>
    <array>
     <dimension dim="1">gridpoints</dimension>
     <dimension dim="2">spin</dimension>
     <field>energy</field>
     <field>total</field>
     <field>integrated</field>
     <set>
      <set comment="spin 1">
       <r>    -2.3610     0.0000     0.0000 </r>
       <r>    -2.2375     0.0000     0.0000 </r>
       <r>    -2.1141     0.0000     0.0000 </r>
       <r>    -1.9907    -0.0000    -0.0000 </r>
       <r>    -1.8672    -0.0000    -0.0000 </r>
       <r>    -1.7438    -0.0000    -0.0000 </r>
       <r>    -1.6203    -0.0000    -0.0000 </r>
       <r>    -1.4969    -0.0000    -0.0000 </r>
       <r>    -1.3735    -0.0000    -0.0000 </r>
       <r>    -1.2500    -0.0000    -0.0000 </r>
       <r>    -1.1266    -0.0000    -0.0000 </r>
       <r>    -1.0032    -0.0000    -0.0000 </r>
       <r>    -0.8797    -0.0001    -0.0000 </r>
       <r>    -0.7563    -0.0008    -0.0001 </r>
       <r>    -0.6328    -0.0024    -0.0004 </r>
       <r>    -0.5094     0.0058     0.0003 </r>
       <r>    -0.3860     0.0358     0.0047 </r>
       <r>    -0.2625     0.0453     0.0103 </r>
       <r>    -0.1391     0.0137     0.0120 </r>
       <r>    -0.0156    -0.0015     0.0118 </r>
       <r>     0.1078     0.0293     0.0155 </r>
       <r>     0.2312     0.0628     0.0232 </r>
       <r>     0.3547     0.0322     0.0272 </r>
       <r>     0.4781    -0.0018     0.0270 </r>
       <r>     0.6016     0.0698     0.0356 </r>
       <r>     0.7250     0.1859     0.0585 </r>
       <r>     0.8484     0.1357     0.0753 </r>
       <r>     0.9719     0.0183     0.0775 </r>
       <r>     1.0953    -0.0102     0.0763 </r>
       <r>     1.2188    -0.0087     0.0752 </r>
       <r>     1.3422    -0.0080     0.0742 </r>
       <r>     1.4656     0.0618     0.0818 </r>
       <r>     1.5891     0.1954     0.1059 </r>
       <r>     1.7125     0.1800     0.1282 </r>
       <r>     1.8359     0.0638     0.1360 </r>
       <r>     1.9594     0.1154     0.1503 </r>
       <r>     2.0828     0.2715     0.1838 </r>
       <r>     2.2063     0.2696     0.2171 </r>
       <r>     2.3297     0.1065     0.2302 </r>
       <r>     2.4531     0.0627     0.2380 </r>
       <r>     2.5766     0.2685     0.2711 </r>
       <r>     2.7000     0.5766     0.3423 </r>
       <r>     2.8235     0.6554     0.4232 </r>
       <r>     2.9469     0.4431     0.4779 </r>
       <r>     3.0703     0.6435     0.5573 </r>
       <r>     3.1938     1.1931     0.7046 </r>
       <r>     3.3172     1.1948     0.8521 </r>
       <r>     3.4407     0.5945     0.9255 </r>
       <r>     3.5641     0.4197     0.9773 </r>
       <r>     3.6875     0.8291     1.0796 </r>
       <r>     3.8110     0.9592     1.1980 </r>
       <r>     3.9344     0.7881     1.2953 </r>
       <r>     4.0579     0.7576     1.3888 </r>
       <r>     4.1813     1.0643     1.5202 </r>
       <r>     4.3047     1.3191     1.6830 </r>
       <r>     4.4282     1.1540     1.8255 </r>
       <r>     4.5516     0.7940     1.9235 </r>
       <r>     4.6750     0.5115     1.9866 </r>
       <r>     4.7985     0.3216     2.0263 </r>
       <r>     4.9219     0.2868     2.0617 </r>
       <r>     5.0454     0.3946     2.1104 </r>
       <r>     5.1688     0.5429     2.1774 </r>
       <r>     5.2922     0.7416     2.2690 </r>
       <r>     5.4157     0.9388     2.3849 </r>
       <r>     5.5391     1.0377     2.5130 </r>
       <r>     5.6626     0.8719     2.6206 </r>
       <r>     5.7860     1.2944     2.7804 </r>
       <r>     5.9094     2.0381     3.0320 </r>
       <r>     6.0329     1.7517     3.2482 </r>
       <r>     6.1563     0.8361     3.3514 </r>
       <r>     6.2798     0.5923     3.4245 </r>
       <r>     6.4032     1.0323     3.5519 </r>
       <r>     6.5266     1.0329     3.6794 </r>
       <r>     6.6501     0.7176     3.7680 </r>
       <r>     6.7735     0.7046     3.8550 </r>
       <r>     6.8970     0.6135     3.9307 </r>
       <r>     7.0204     0.5191     3.9948 </r>
       <r>     7.1438     1.0203     4.1207 </r>
       <r>     7.2673     1.7762     4.3400 </r>
       <r>     7.3907     1.7102     4.5511 </r>
       <r>     7.5141     1.6157     4.7505 </r>
       <r>     7.6376     1.6251     4.9511 </r>
       <r>     7.7610     1.0730     5.0836 </r>
       <r>     7.8845     0.4884     5.1439 </r>
       <r>     8.0079     0.2841     5.1789 </r>
       <r>     8.1313     0.5037     5.2411 </r>
       <r>     8.2548     0.7369     5.3321 </r>
       <r>     8.3782     0.5881     5.4047 </r>
       <r>     8.5017     0.3228     5.4445 </r>
       <r>     8.6251     0.0784     5.4542 </r>
       <r>     8.7485     0.0432     5.4595 </r>
       <r>     8.8720     0.4170     5.5110 </r>
       <r>     8.9954     0.9276     5.6255 </r>
       <r>     9.1189     0.9851     5.7471 </r>
       <r>     9.2423     0.7428     5.8388 </r>
       <r>     9.3657     0.6850     5.9233 </r>
       <r>     9.4892     0.5110     5.9864 </r>
       <r>     9.6126     0.1676     6.0071 </r>
       <r>     9.7361     0.1109     6.0208 </r>
       <r>     9.8595     0.1778     6.0427 </r>
       <r>     9.9829     0.3213     6.0824 </r>
       <r>    10.1064     0.5255     6.1473 </r>
       <r>    10.2298     0.4626     6.2044 </r>
       <r>    10.3533     0.2855     6.2396 </r>
       <r>    10.4767     0.3499     6.2828 </r>
       <r>    10.6001     0.7336     6.3734 </r>
       <r>    10.7236     1.0106     6.4981 </r>
       <r>    10.8470     0.7763     6.5939 </r>
       <r>    10.9704     0.6368     6.6725 </r>
       <r>    11.0939     0.7876     6.7698 </r>
       <r>    11.2173     0.6475     6.8497 </r>
       <r>    11.3408     0.3675     6.8951 </r>
       <r>    11.4642     0.5207     6.9593 </r>
       <r>    11.5876     0.9586     7.0777 </r>
       <r>    11.7111     1.0700     7.2097 </r>
       <r>    11.8345     0.9859     7.3314 </r>
       <r>    11.9580     0.9894     7.4536 </r>
       <r>    12.0814     0.9733     7.5737 </r>
       <r>    12.2048     0.9282     7.6883 </r>
       <r>    12.3283     0.8549     7.7938 </r>
       <r>    12.4517     0.9661     7.9131 </r>
       <r>    12.5752     1.0235     8.0394 </r>
       <r>    12.6986     0.7575     8.1329 </r>
       <r>    12.8220     0.7274     8.2227 </r>
       <r>    12.9455     0.9506     8.3400 </r>
       <r>    13.0689     0.8195     8.4412 </r>
       <r>    13.1924     0.6568     8.5222 </r>
       <r>    13.3158     1.0670     8.6540 </r>
       <r>    13.4392     1.5567     8.8461 </r>
       <r>    13.5627     1.6660     9.0518 </r>
       <r>    13.6861     1.7455     9.2672 </r>
       <r>    13.8095     1.4452     9.4456 </r>
       <r>    13.9330     1.3596     9.6134 </r>
       <r>    14.0564     1.7042     9.8238 </r>
       <r>    14.1799     1.3600     9.9917 </r>
       <r>    14.3033     0.7380    10.0828 </r>
       <r>    14.4267     0.5823    10.1547 </r>
       <r>    14.5502     0.5875    10.2272 </r>
       <r>    14.6736     0.3152    10.2661 </r>
       <r>    14.7971     0.1850    10.2889 </r>
       <r>    14.9205     0.4202    10.3408 </r>
       <r>    15.0439     0.4478    10.3961 </r>
       <r>    15.1674     0.1966    10.4203 </r>
       <r>    15.2908     0.0940    10.4319 </r>
       <r>    15.4143     0.2128    10.4582 </r>
       <r>    15.5377     0.2823    10.4930 </r>
       <r>    15.6611     0.2211    10.5203 </r>
       <r>    15.7846     0.1603    10.5401 </r>
       <r>    15.9080     0.2129    10.5664 </r>
       <r>    16.0315     0.1683    10.5872 </r>
       <r>    16.1549     0.0616    10.5948 </r>
       <r>    16.2783     0.1714    10.6159 </r>
       <r>    16.4018     0.2972    10.6526 </r>
       <r>    16.5252     0.2588    10.6845 </r>
       <r>    16.6486     0.4598    10.7413 </r>
       <r>    16.7721     0.9180    10.8546 </r>
       <r>    16.8955     0.9457    10.9714 </r>
       <r>    17.0190     0.6224    11.0482 </r>
       <r>    17.1424     0.3140    11.0870 </r>
       <r>    17.2658     0.2493    11.1177 </r>
       <r>    17.3893     0.3660    11.1629 </r>
       <r>    17.5127     0.2922    11.1990 </r>
       <r>    17.6362     0.2133    11.2253 </r>
       <r>    17.7596     0.2099    11.2512 </r>
       <r>    17.8830     0.1708    11.2723 </r>
       <r>    18.0065     0.0919    11.2836 </r>
       <r>    18.1299     0.1681    11.3044 </r>
       <r>    18.2534     0.2781    11.3387 </r>
       <r>    18.3768     0.2656    11.3715 </r>
       <r>    18.5002     0.2004    11.3962 </r>
       <r>    18.6237     0.0728    11.4052 </r>
       <r>    18.7471     0.0010    11.4053 </r>
       <r>    18.8706     0.0209    11.4079 </r>
       <r>    18.9940     0.0178    11.4101 </r>
       <r>    19.1174     0.0692    11.4187 </r>
       <r>    19.2409     0.3840    11.4661 </r>
       <r>    19.3643     0.5401    11.5327 </r>
       <r>    19.4878     0.2428    11.5627 </r>
       <r>    19.6112     0.0940    11.5743 </r>
       <r>    19.7346     0.1598    11.5940 </r>
       <r>    19.8581     0.2543    11.6254 </r>
       <r>    19.9815     0.5117    11.6886 </r>
       <r>    20.1049     0.7334    11.7791 </r>
       <r>    20.2284     0.6334    11.8573 </r>
       <r>    20.3518     0.2553    11.8888 </r>
       <r>    20.4753     0.0045    11.8894 </r>
       <r>    20.5987    -0.0279    11.8859 </r>
       <r>    20.7221     0.1235    11.9012 </r>
       <r>    20.8456     0.3475    11.9441 </r>
       <r>    20.9690     0.2718    11.9776 </r>
       <r>    21.0925     0.1383    11.9947 </r>
       <r>    21.2159     0.2928    12.0308 </r>
       <r>    21.3393     0.3036    12.0683 </r>
       <r>    21.4628     0.0882    12.0792 </r>
       <r>    21.5862     0.1179    12.0938 </r>
       <r>    21.7097     0.4946    12.1548 </r>
       <r>    21.8331     0.7733    12.2503 </r>
       <r>    21.9565     0.6649    12.3323 </r>
       <r>    22.0800     0.7467    12.4245 </r>
       <r>    22.2034     0.7782    12.5206 </r>
       <r>    22.3269     0.4381    12.5746 </r>
       <r>    22.4503     0.2074    12.6002 </r>
       <r>    22.5737     0.1407    12.6176 </r>
       <r>    22.6972     0.1977    12.6420 </r>
       <r>    22.8206     0.2895    12.6778 </r>
       <r>    22.9440     0.3503    12.7210 </r>
       <r>    23.0675     0.3595    12.7654 </r>
       <r>    23.1909     0.2163    12.7921 </r>
       <r>    23.3144     0.0531    12.7986 </r>
       <r>    23.4378     0.1760    12.8203 </r>
       <r>    23.5612     0.5647    12.8901 </r>
       <r>    23.6847     0.7785    12.9862 </r>
       <r>    23.8081     0.5499    13.0540 </r>
       <r>    23.9316     0.2291    13.0823 </r>
       <r>    24.0550     0.3931    13.1308 </r>
       <r>    24.1784     1.0514    13.2606 </r>
       <r>    24.3019     1.1701    13.4051 </r>
       <r>    24.4253     0.6075    13.4801 </r>
       <r>    24.5488     0.9026    13.5915 </r>
       <r>    24.6722     1.5397    13.7815 </r>
       <r>    24.7956     1.0100    13.9062 </r>
       <r>    24.9191     0.1698    13.9272 </r>
       <r>    25.0425    -0.0834    13.9169 </r>
       <r>    25.1660     0.1235    13.9321 </r>
       <r>    25.2894     0.6204    14.0087 </r>
       <r>    25.4128     0.7172    14.0972 </r>
       <r>    25.5363     0.4134    14.1483 </r>
       <r>    25.6597     0.2714    14.1818 </r>
       <r>    25.7831     0.1297    14.1978 </r>
       <r>    25.9066     0.2574    14.2295 </r>
       <r>    26.0300     0.9055    14.3413 </r>
       <r>    26.1535     1.2342    14.4937 </r>
       <r>    26.2769     1.0350    14.6214 </r>
       <r>    26.4003     0.7293    14.7115 </r>
       <r>    26.5238     0.4710    14.7696 </r>
       <r>    26.6472     0.6324    14.8477 </r>
       <r>    26.7707     0.8932    14.9579 </r>
       <r>    26.8941     0.7845    15.0548 </r>
       <r>    27.0175     0.4438    15.1095 </r>
       <r>    27.1410     0.2957    15.1460 </r>
       <r>    27.2644     0.2489    15.1768 </r>
       <r>    27.3879     0.1075    15.1900 </r>
       <r>    27.5113     0.0718    15.1989 </r>
       <r>    27.6347     0.2717    15.2324 </r>
       <r>    27.7582     0.4120    15.2833 </r>
       <r>    27.8816     0.3700    15.3290 </r>
       <r>    28.0051     0.3039    15.3665 </r>
       <r>    28.1285     0.1937    15.3904 </r>
       <r>    28.2519     0.2671    15.4234 </r>
       <r>    28.3754     0.3689    15.4689 </r>
       <r>    28.4988     0.3922    15.5173 </r>
       <r>    28.6222     0.5376    15.5837 </r>
       <r>    28.7457     0.5313    15.6493 </r>
       <r>    28.8691     0.4186    15.7009 </r>
       <r>    28.9926     0.4869    15.7610 </r>
       <r>    29.1160     0.4384    15.8151 </r>
       <r>    29.2394     0.1576    15.8346 </r>
       <r>    29.3629    -0.0051    15.8340 </r>
       <r>    29.4863     0.0081    15.8350 </r>
       <r>    29.6098     0.0386    15.8397 </r>
       <r>    29.7332     0.0239    15.8427 </r>
       <r>    29.8566     0.0780    15.8523 </r>
       <r>    29.9801     0.1857    15.8752 </r>
       <r>    30.1035     0.1300    15.8913 </r>
       <r>    30.2270     0.0081    15.8923 </r>
       <r>    30.3504    -0.0058    15.8916 </r>
       <r>    30.4738     0.1005    15.9040 </r>
       <r>    30.5973     0.1919    15.9277 </r>
       <r>    30.7207     0.1001    15.9400 </r>
       <r>    30.8442    -0.0036    15.9396 </r>
       <r>    30.9676     0.0441    15.9450 </r>
       <r>    31.0910     0.1734    15.9664 </r>
       <r>    31.2145     0.1560    15.9857 </r>
       <r>    31.3379     0.0324    15.9897 </r>
       <r>    31.4614    -0.0094    15.9885 </r>
       <r>    31.5848    -0.0037    15.9880 </r>
       <r>    31.7082    -0.0004    15.9880 </r>
       <r>    31.8317    -0.0000    15.9880 </r>
       <r>    31.9551    -0.0000    15.9880 </r>
       <r>    32.0785    -0.0000    15.9880 </r>
       <r>    32.2020    -0.0002    15.9880 </r>
       <r>    32.3254    -0.0015    15.9878 </r>
       <r>    32.4489    -0.0015    15.9876 </r>
       <r>    32.5723     0.0163    15.9896 </r>
       <r>    32.6957     0.0458    15.9953 </r>
       <r>    32.8192     0.0359    15.9997 </r>
       <r>    32.9426     0.0058    16.0004 </r>
       <r>    33.0661    -0.0024    16.0001 </r>
       <r>    33.1895    -0.0008    16.0000 </r>
       <r>    33.3129    -0.0001    16.0000 </r>
       <r>    33.4364    -0.0000    16.0000 </r>
       <r>    33.5598    -0.0000    16.0000 </r>
       <r>    33.6833    -0.0000    16.0000 </r>
       <r>    33.8067    -0.0000    16.0000 </r>
       <r>    33.9301    -0.0000    16.0000 </r>
       <r>    34.0536     0.0000    16.0000 </r>
       <r>    34.1770     0.0000    16.0000 </r>
       <r>    34.3005     0.0000    16.0000 </r>
       <r>    34.4239     0.0000    16.0000 </r>
       <r>    34.5473     0.0000    16.0000 </r>
       <r>    34.6708     0.0000    16.0000 </r>
      </set>
     </set>
    </array>
   </total>
  </dos>
 </calculation>
 <structure name="finalpos" >
  <crystal>
   <varray name="basis" >
    <v>      -1.50000000       1.50000000       1.50000000 </v>
    <v>       1.50000000      -1.50000000       1.50000000 </v>
    <v>       1.50000000       1.50000000      -1.50000000 </v>
   </varray>
   <i name="volume">     13.50000000 </i>
   <varray name="rec_basis" >
    <v>       0.00000000       0.33333333       0.33333333 </v>
    <v>       0.33333333       0.00000000       0.33333333 </v>
    <v>       0.33333333       0.33333333       0.00000000 </v>
   </varray>
  </crystal>
  <varray name="positions" >
   <v>       0.00000000       0.00000000       0.00000000 </v>
  </varray>
 </structure>
</modeling>
