BCC W                                   
           1
    -1.500000    1.500000    1.500000
     1.500000   -1.500000    1.500000
     1.500000    1.500000   -1.500000
   W 
   1
Direct configuration=     1
   0.00000000  0.00000000  0.00000000
