fcc Au                                  
   4.06379000000000     
     0.000000    0.500000    0.500000
     0.500000    0.000000    0.500000
     0.500000    0.500000    0.000000
   Au
     1
Direct
  0.000000  0.000000  0.000000
 
   24   24   24
 0.81183243703E+02 0.78115071537E+02 0.70183451276E+02 0.60086993096E+02 0.49848896705E+02
 0.39953611223E+02 0.30268838059E+02 0.21253647499E+02 0.13979220967E+02 0.91729943828E+01
 0.65485418904E+01 0.52028135692E+01 0.47764041264E+01 0.52028135692E+01 0.65485418904E+01
 0.91729943828E+01 0.13979220967E+02 0.21253647499E+02 0.30268838059E+02 0.39953611223E+02
 0.49848896705E+02 0.60086993096E+02 0.70183451276E+02 0.78115071537E+02 0.78115071537E+02
 0.72639543284E+02 0.63752358737E+02 0.53839318012E+02 0.44045288194E+02 0.34410101143E+02
 0.25087070374E+02 0.16960479361E+02 0.11036283728E+02 0.75218473581E+01 0.56770196238E+01
 0.48264816348E+01 0.48264850185E+01 0.56769786517E+01 0.75216901875E+01 0.11036197072E+02
 0.16961148161E+02 0.25089196968E+02 0.34413136366E+02 0.44046757163E+02 0.53836348252E+02
 0.63744727209E+02 0.72631118396E+02 0.78111390717E+02 0.70183451276E+02 0.63752358737E+02
 0.55283436909E+02 0.46243866528E+02 0.37074949259E+02 0.27930938294E+02 0.19501217929E+02
 0.12845313901E+02 0.85393030050E+01 0.61890720602E+01 0.49603980268E+01 0.45739226566E+01
 0.49604062914E+01 0.61889421905E+01 0.85389228679E+01 0.12845081847E+02 0.19502207882E+02
 0.27933840924E+02 0.37078384981E+02 0.46244381260E+02 0.55278415285E+02 0.63743442982E+02
 0.70176372278E+02 0.72631118396E+02 0.60086993096E+02 0.53839318012E+02 0.46243866528E+02
 0.37994710740E+02 0.29436417172E+02 0.21196033507E+02 0.14280119911E+02 0.94579912475E+01
 0.66645930310E+01 0.51364067107E+01 0.44348585481E+01 0.44348946420E+01 0.51364744732E+01
 0.66645089480E+01 0.94575304239E+01 0.14279476170E+02 0.21195999182E+02 0.29437602655E+02
 0.37996470665E+02 0.46244489351E+02 0.53837777778E+02 0.60084384597E+02 0.63743442982E+02
 0.63744727209E+02 0.49848896705E+02 0.44045288194E+02 0.37074949259E+02 0.29436417172E+02
 0.21789445037E+02 0.15072020378E+02 0.10102316850E+02 0.70397062844E+01 0.53042995616E+01
 0.43758962585E+01 0.40887604713E+01 0.43759817625E+01 0.53045650582E+01 0.70400489794E+01
 0.10102317126E+02 0.15071291890E+02 0.21788149698E+02 0.29435345656E+02 0.37074972352E+02
 0.44046632286E+02 0.49850873372E+02 0.53837777778E+02 0.55278415285E+02 0.53836348252E+02
 0.39953611223E+02 0.34410101143E+02 0.27930938294E+02 0.21196033507E+02 0.15072020378E+02
 0.10334300598E+02 0.72490938386E+01 0.54219744522E+01 0.43595224711E+01 0.38839581798E+01
 0.38839079404E+01 0.43595316187E+01 0.54223892626E+01 0.72500723897E+01 0.10335443514E+02
 0.15072445892E+02 0.21195070057E+02 0.27928853028E+02 0.34408009420E+02 0.39952502622E+02
 0.44046632286E+02 0.46244489351E+02 0.46244381260E+02 0.44046757163E+02 0.30268838059E+02
 0.25087070374E+02 0.19501217929E+02 0.14280119911E+02 0.10102316850E+02 0.72490938386E+01
 0.54639274629E+01 0.43580430702E+01 0.37798556006E+01 0.36032417113E+01 0.37795666538E+01
 0.43576423217E+01 0.54639236183E+01 0.72501456907E+01 0.10104556677E+02 0.14282591272E+02
 0.19502200630E+02 0.25085263182E+02 0.30264454737E+02 0.34408009420E+02 0.37074972352E+02
 0.37996470665E+02 0.37078384981E+02 0.34413136366E+02 0.21253647499E+02 0.16960479361E+02
 0.12845313901E+02 0.94579912475E+01 0.70397062844E+01 0.54219744522E+01 0.43580430702E+01
 0.37483879609E+01 0.34788627806E+01 0.34787809159E+01 0.37479467889E+01 0.43570172724E+01
 0.54208006315E+01 0.70395976253E+01 0.94599977821E+01 0.12848959530E+02 0.16963450529E+02
 0.21253378013E+02 0.25085263182E+02 0.27928853028E+02 0.29435345656E+02 0.29437602655E+02
 0.27933840924E+02 0.25089196968E+02 0.13979220967E+02 0.11036283728E+02 0.85393030050E+01
 0.66645930310E+01 0.53042995616E+01 0.43595224711E+01 0.37798556006E+01 0.34788627806E+01
 0.33871482582E+01 0.34792063518E+01 0.37798626197E+01 0.43583844757E+01 0.53020155158E+01
 0.66625007459E+01 0.85392665725E+01 0.11038905641E+02 0.13982911015E+02 0.16963450529E+02
 0.19502200630E+02 0.21195070057E+02 0.21788149698E+02 0.21195999182E+02 0.19502207882E+02
 0.16961148161E+02 0.91729943828E+01 0.75218473581E+01 0.61890720602E+01 0.51364067107E+01
 0.43758962585E+01 0.38839581798E+01 0.36032417113E+01 0.34787809159E+01 0.34792063518E+01
 0.36043666863E+01 0.38851198023E+01 0.43758916935E+01 0.51343860512E+01 0.61856981509E+01
 0.75191979451E+01 0.91729568553E+01 0.11038905641E+02 0.12848959530E+02 0.14282591272E+02
 0.15072445892E+02 0.15071291890E+02 0.14279476170E+02 0.12845081847E+02 0.11036197072E+02
 0.65485418904E+01 0.56770196238E+01 0.49603980268E+01 0.44348585481E+01 0.40887604713E+01
 0.38839079404E+01 0.37795666538E+01 0.37479467889E+01 0.37798626197E+01 0.38851198023E+01
 0.40909846800E+01 0.44368794044E+01 0.49604304711E+01 0.56744315510E+01 0.65447524574E+01
 0.75191979451E+01 0.85392665725E+01 0.94599977821E+01 0.10104556677E+02 0.10335443514E+02
 0.10102317126E+02 0.94575304239E+01 0.85389228679E+01 0.75216901875E+01 0.52028135692E+01
 0.48264816348E+01 0.45739226566E+01 0.44348946420E+01 0.43759817625E+01 0.43595316187E+01
 0.43576423217E+01 0.43570172724E+01 0.43583844757E+01 0.43758916935E+01 0.44368794044E+01
 0.45773037401E+01 0.48291334776E+01 0.52028504580E+01 0.56744315510E+01 0.61856981509E+01
 0.66625007459E+01 0.70395976253E+01 0.72501456907E+01 0.72500723897E+01 0.70400489794E+01
 0.66645089480E+01 0.61889421905E+01 0.56769786517E+01 0.47764041264E+01 0.48264850185E+01
 0.49604062914E+01 0.51364744732E+01 0.53045650582E+01 0.54223892626E+01 0.54639236183E+01
 0.54208006315E+01 0.53020155158E+01 0.51343860512E+01 0.49604304711E+01 0.48291334776E+01
 0.47802517933E+01 0.48291334776E+01 0.49604304711E+01 0.51343860512E+01 0.53020155158E+01
 0.54208006315E+01 0.54639236183E+01 0.54223892626E+01 0.53045650582E+01 0.51364744732E+01
 0.49604062914E+01 0.48264850185E+01 0.52028135692E+01 0.56769786517E+01 0.61889421905E+01
 0.66645089480E+01 0.70400489794E+01 0.72500723897E+01 0.72501456907E+01 0.70395976253E+01
 0.66625007459E+01 0.61856981509E+01 0.56744315510E+01 0.52028504580E+01 0.48291334776E+01
 0.45773037401E+01 0.44368794044E+01 0.43758916935E+01 0.43583844757E+01 0.43570172724E+01
 0.43576423217E+01 0.43595316187E+01 0.43759817625E+01 0.44348946420E+01 0.45739226566E+01
 0.48264816348E+01 0.65485418904E+01 0.75216901875E+01 0.85389228679E+01 0.94575304239E+01
 0.10102317126E+02 0.10335443514E+02 0.10104556677E+02 0.94599977821E+01 0.85392665725E+01
 0.75191979451E+01 0.65447524574E+01 0.56744315510E+01 0.49604304711E+01 0.44368794044E+01
 0.40909846800E+01 0.38851198023E+01 0.37798626197E+01 0.37479467889E+01 0.37795666538E+01
 0.38839079404E+01 0.40887604713E+01 0.44348585481E+01 0.49603980268E+01 0.56770196238E+01
 0.91729943828E+01 0.11036197072E+02 0.12845081847E+02 0.14279476170E+02 0.15071291890E+02
 0.15072445892E+02 0.14282591272E+02 0.12848959530E+02 0.11038905641E+02 0.91729568553E+01
 0.75191979451E+01 0.61856981509E+01 0.51343860512E+01 0.43758916935E+01 0.38851198023E+01
 0.36043666863E+01 0.34792063518E+01 0.34787809159E+01 0.36032417113E+01 0.38839581798E+01
 0.43758962585E+01 0.51364067107E+01 0.61890720602E+01 0.75218473581E+01 0.13979220967E+02
 0.16961148161E+02 0.19502207882E+02 0.21195999182E+02 0.21788149698E+02 0.21195070057E+02
 0.19502200630E+02 0.16963450529E+02 0.13982911015E+02 0.11038905641E+02 0.85392665725E+01
 0.66625007459E+01 0.53020155158E+01 0.43583844757E+01 0.37798626197E+01 0.34792063518E+01
 0.33871482582E+01 0.34788627806E+01 0.37798556006E+01 0.43595224711E+01 0.53042995616E+01
 0.66645930310E+01 0.85393030050E+01 0.11036283728E+02 0.21253647499E+02 0.25089196968E+02
 0.27933840924E+02 0.29437602655E+02 0.29435345656E+02 0.27928853028E+02 0.25085263182E+02
 0.21253378013E+02 0.16963450529E+02 0.12848959530E+02 0.94599977821E+01 0.70395976253E+01
 0.54208006315E+01 0.43570172724E+01 0.37479467889E+01 0.34787809159E+01 0.34788627806E+01
 0.37483879609E+01 0.43580430702E+01 0.54219744522E+01 0.70397062844E+01 0.94579912475E+01
 0.12845313901E+02 0.16960479361E+02 0.30268838059E+02 0.34413136366E+02 0.37078384981E+02
 0.37996470665E+02 0.37074972352E+02 0.34408009420E+02 0.30264454737E+02 0.25085263182E+02
 0.19502200630E+02 0.14282591272E+02 0.10104556677E+02 0.72501456907E+01 0.54639236183E+01
 0.43576423217E+01 0.37795666538E+01 0.36032417113E+01 0.37798556006E+01 0.43580430702E+01
 0.54639274629E+01 0.72490938386E+01 0.10102316850E+02 0.14280119911E+02 0.19501217929E+02
 0.25087070374E+02 0.39953611223E+02 0.44046757163E+02 0.46244381260E+02 0.46244489351E+02
 0.44046632286E+02 0.39952502622E+02 0.34408009420E+02 0.27928853028E+02 0.21195070057E+02
 0.15072445892E+02 0.10335443514E+02 0.72500723897E+01 0.54223892626E+01 0.43595316187E+01
 0.38839079404E+01 0.38839581798E+01 0.43595224711E+01 0.54219744522E+01 0.72490938386E+01
 0.10334300598E+02 0.15072020378E+02 0.21196033507E+02 0.27930938294E+02 0.34410101143E+02
 0.49848896705E+02 0.53836348252E+02 0.55278415285E+02 0.53837777778E+02 0.49850873372E+02
 0.44046632286E+02 0.37074972352E+02 0.29435345656E+02 0.21788149698E+02 0.15071291890E+02
 0.10102317126E+02 0.70400489794E+01 0.53045650582E+01 0.43759817625E+01 0.40887604713E+01
 0.43758962585E+01 0.53042995616E+01 0.70397062844E+01 0.10102316850E+02 0.15072020378E+02
 0.21789445037E+02 0.29436417172E+02 0.37074949259E+02 0.44045288194E+02 0.60086993096E+02
 0.63744727209E+02 0.63743442982E+02 0.60084384597E+02 0.53837777778E+02 0.46244489351E+02
 0.37996470665E+02 0.29437602655E+02 0.21195999182E+02 0.14279476170E+02 0.94575304239E+01
 0.66645089480E+01 0.51364744732E+01 0.44348946420E+01 0.44348585481E+01 0.51364067107E+01
 0.66645930310E+01 0.94579912475E+01 0.14280119911E+02 0.21196033507E+02 0.29436417172E+02
 0.37994710740E+02 0.46243866528E+02 0.53839318012E+02 0.70183451276E+02 0.72631118396E+02
 0.70176372278E+02 0.63743442982E+02 0.55278415285E+02 0.46244381260E+02 0.37078384981E+02
 0.27933840924E+02 0.19502207882E+02 0.12845081847E+02 0.85389228679E+01 0.61889421905E+01
 0.49604062914E+01 0.45739226566E+01 0.49603980268E+01 0.61890720602E+01 0.85393030050E+01
 0.12845313901E+02 0.19501217929E+02 0.27930938294E+02 0.37074949259E+02 0.46243866528E+02
 0.55283436909E+02 0.63752358737E+02 0.78115071537E+02 0.78111390717E+02 0.72631118396E+02
 0.63744727209E+02 0.53836348252E+02 0.44046757163E+02 0.34413136366E+02 0.25089196968E+02
 0.16961148161E+02 0.11036197072E+02 0.75216901875E+01 0.56769786517E+01 0.48264850185E+01
 0.48264816348E+01 0.56770196238E+01 0.75218473581E+01 0.11036283728E+02 0.16960479361E+02
 0.25087070374E+02 0.34410101143E+02 0.44045288194E+02 0.53839318012E+02 0.63752358737E+02
 0.72639543284E+02 0.78115071537E+02 0.72639543284E+02 0.63752358737E+02 0.53839318012E+02
 0.44045288194E+02 0.34410101143E+02 0.25087070374E+02 0.16960479361E+02 0.11036283728E+02
 0.75218473581E+01 0.56770196238E+01 0.48264816348E+01 0.48264850185E+01 0.56769786517E+01
 0.75216901875E+01 0.11036197072E+02 0.16961148161E+02 0.25089196968E+02 0.34413136366E+02
 0.44046757163E+02 0.53836348252E+02 0.63744727209E+02 0.72631118396E+02 0.78111390717E+02
 0.72639543284E+02 0.65723375297E+02 0.56730845272E+02 0.47313903099E+02 0.37929280736E+02
 0.28634854576E+02 0.20039028336E+02 0.13200171630E+02 0.87425303212E+01 0.63092265648E+01
 0.50439619770E+01 0.46449605470E+01 0.50439590714E+01 0.63090547412E+01 0.87421344490E+01
 0.13200185017E+02 0.20040826163E+02 0.28639062929E+02 0.37933700273E+02 0.47313802805E+02
 0.56722978089E+02 0.65710376063E+02 0.72629447364E+02 0.75286082471E+02 0.63752358737E+02
 0.56730845272E+02 0.48462688548E+02 0.39773401691E+02 0.30911759046E+02 0.22359741964E+02
 0.15087534273E+02 0.99388614424E+01 0.69346119771E+01 0.53136294967E+01 0.45667466756E+01
 0.45667712784E+01 0.53136067524E+01 0.69342843208E+01 0.99381692255E+01 0.15087244413E+02
 0.22361230448E+02 0.30915289094E+02 0.39776582127E+02 0.48461747613E+02 0.56724507755E+02
 0.63744285377E+02 0.67940898396E+02 0.67944591997E+02 0.53839318012E+02 0.47313903099E+02
 0.39773401691E+02 0.31693706952E+02 0.23597963830E+02 0.16367493663E+02 0.10901663140E+02
 0.74844219190E+01 0.55802058383E+01 0.45629463882E+01 0.42467281785E+01 0.45630216690E+01
 0.55802840877E+01 0.74841977641E+01 0.10900830692E+02 0.16366346721E+02 0.23597482751E+02
 0.31694657915E+02 0.39775392031E+02 0.47315658830E+02 0.53840002002E+02 0.58486207952E+02
 0.60199864500E+02 0.58486251475E+02 0.44045288194E+02 0.37929280736E+02 0.30911759046E+02
 0.23597963830E+02 0.16819433801E+02 0.11438892820E+02 0.78677508088E+01 0.57900560518E+01
 0.45939987935E+01 0.40546413197E+01 0.40546496492E+01 0.45941372356E+01 0.57904405658E+01
 0.78681118673E+01 0.11438582664E+02 0.16818035099E+02 0.23596006767E+02 0.30910701742E+02
 0.37930467067E+02 0.44048629686E+02 0.48710057823E+02 0.51282088217E+02 0.51280507339E+02
 0.48706403913E+02 0.34410101143E+02 0.28634854576E+02 0.22359741964E+02 0.16367493663E+02
 0.11438892820E+02 0.80057368770E+01 0.59045354223E+01 0.46260120743E+01 0.39522676396E+01
 0.37459281224E+01 0.39521236241E+01 0.46260170251E+01 0.59050719338E+01 0.80068399267E+01
 0.11439928583E+02 0.16367502502E+02 0.22358380377E+02 0.28632933237E+02 0.34408922824E+02
 0.39062829720E+02 0.42103569995E+02 0.43164983771E+02 0.42103031450E+02 0.39062770280E+02
 0.25087070374E+02 0.20039028336E+02 0.15087534273E+02 0.10901663140E+02 0.78677508088E+01
 0.59045354223E+01 0.46387935384E+01 0.39089990591E+01 0.35858492000E+01 0.35856928584E+01
 0.39085295841E+01 0.46382105417E+01 0.59044599261E+01 0.78688671319E+01 0.10903927389E+02
 0.15089797375E+02 0.20039678610E+02 0.25085262839E+02 0.29531658507E+02 0.32817211523E+02
 0.34559127269E+02 0.34560550195E+02 0.32820677413E+02 0.29535238471E+02 0.16960479361E+02
 0.13200171630E+02 0.99388614424E+01 0.74844219190E+01 0.57900560518E+01 0.46260120743E+01
 0.39089990591E+01 0.35369622255E+01 0.34235483882E+01 0.35368865785E+01 0.39083997592E+01
 0.46246516285E+01 0.57885776180E+01 0.74841878527E+01 0.99407972863E+01 0.13203563707E+02
 0.16963130039E+02 0.20685755733E+02 0.23804470856E+02 0.25863605828E+02 0.26582212049E+02
 0.25865928285E+02 0.23806812345E+02 0.20685737763E+02 0.11036283728E+02 0.87425303212E+01
 0.69346119771E+01 0.55802058383E+01 0.45939987935E+01 0.39522676396E+01 0.35858492000E+01
 0.34235483882E+01 0.34238679310E+01 0.35864577169E+01 0.39522796536E+01 0.45925964131E+01
 0.55775715080E+01 0.69322629061E+01 0.87423003868E+01 0.11038667222E+02 0.13602056289E+02
 0.16045078897E+02 0.17951207792E+02 0.18992025276E+02 0.18991705108E+02 0.17949820967E+02
 0.16042168738E+02 0.13598439520E+02 0.75218473581E+01 0.63092265648E+01 0.53136294967E+01
 0.45629463882E+01 0.40546413197E+01 0.37459281224E+01 0.35856928584E+01 0.35368865785E+01
 0.35864577169E+01 0.37473634434E+01 0.40560187517E+01 0.45629385228E+01 0.53114256517E+01
 0.63056633745E+01 0.75191066987E+01 0.89526686048E+01 0.10475983326E+02 0.11844433449E+02
 0.12795069254E+02 0.13134310406E+02 0.12792366193E+02 0.11840546955E+02 0.10473204633E+02
 0.89527020889E+01 0.56770196238E+01 0.50439619770E+01 0.45667466756E+01 0.42467281785E+01
 0.40546496492E+01 0.39521236241E+01 0.39085295841E+01 0.39083997592E+01 0.39522796536E+01
 0.40560187517E+01 0.42492655984E+01 0.45689542964E+01 0.50439834066E+01 0.56744022181E+01
 0.64164826679E+01 0.72042497997E+01 0.79697475846E+01 0.85916482831E+01 0.89417236250E+01
 0.89407836776E+01 0.85899272400E+01 0.79694528814E+01 0.72064953391E+01 0.64201272011E+01
 0.48264816348E+01 0.46449605470E+01 0.45667712784E+01 0.45630216690E+01 0.45941372356E+01
 0.46260170251E+01 0.46382105417E+01 0.46246516285E+01 0.45925964131E+01 0.45629385228E+01
 0.45689542964E+01 0.46484732482E+01 0.48291087771E+01 0.51129938675E+01 0.54699371222E+01
 0.58437534188E+01 0.61688346586E+01 0.63898077012E+01 0.64686905090E+01 0.63905304243E+01
 0.61707744870E+01 0.58466827220E+01 0.54722846508E+01 0.51129710723E+01 0.48264850185E+01
 0.50439590714E+01 0.53136067524E+01 0.55802840877E+01 0.57904405658E+01 0.59050719338E+01
 0.59044599261E+01 0.57885776180E+01 0.55775715080E+01 0.53114256517E+01 0.50439834066E+01
 0.48291087771E+01 0.47035454839E+01 0.46751551179E+01 0.47229233371E+01 0.48082629313E+01
 0.48907539710E+01 0.49401370264E+01 0.49409803517E+01 0.48927796791E+01 0.48100870711E+01
 0.47229332973E+01 0.46727279564E+01 0.46998701568E+01 0.56769786517E+01 0.63090547412E+01
 0.69342843208E+01 0.74841977641E+01 0.78681118673E+01 0.80068399267E+01 0.78688671319E+01
 0.74841878527E+01 0.69322629061E+01 0.63056633745E+01 0.56744022181E+01 0.51129938675E+01
 0.46751551179E+01 0.43748102716E+01 0.41931653614E+01 0.40963691222E+01 0.40524505769E+01
 0.40405053204E+01 0.40530312104E+01 0.40963713080E+01 0.41915165375E+01 0.43718532695E+01
 0.46727248305E+01 0.51129710723E+01 0.75216901875E+01 0.87421344490E+01 0.99381692255E+01
 0.10900830692E+02 0.11438582664E+02 0.11439928583E+02 0.10903927389E+02 0.99407972863E+01
 0.87423003868E+01 0.75191066987E+01 0.64164826679E+01 0.54699371222E+01 0.47229233371E+01
 0.41931653614E+01 0.38534967311E+01 0.36597839299E+01 0.35734983835E+01 0.35732440702E+01
 0.36588044037E+01 0.38517164131E+01 0.41914839128E+01 0.47229009219E+01 0.54723134398E+01
 0.64201272011E+01 0.11036197072E+02 0.13200185017E+02 0.15087244413E+02 0.16366346721E+02
 0.16818035099E+02 0.16367502502E+02 0.15089797375E+02 0.13203563707E+02 0.11038667222E+02
 0.89526686048E+01 0.72042497997E+01 0.58437534188E+01 0.48082629313E+01 0.40963691222E+01
 0.36597839299E+01 0.34316080066E+01 0.33613172772E+01 0.34309090824E+01 0.36589224203E+01
 0.40963626935E+01 0.48099433047E+01 0.58467000558E+01 0.72066461809E+01 0.89527020889E+01
 0.16961148161E+02 0.20040826163E+02 0.22361230448E+02 0.23597482751E+02 0.23596006767E+02
 0.22358380377E+02 0.20039678610E+02 0.16963130039E+02 0.13602056289E+02 0.10475983326E+02
 0.79697475846E+01 0.61688346586E+01 0.48907539710E+01 0.40524505769E+01 0.35734983835E+01
 0.33613172772E+01 0.33612140320E+01 0.35735240207E+01 0.40532674125E+01 0.48925148201E+01
 0.61705410147E+01 0.79697214023E+01 0.10473462258E+02 0.13598439520E+02 0.25089196968E+02
 0.28639062929E+02 0.30915289094E+02 0.31694657915E+02 0.30910701742E+02 0.28632933237E+02
 0.25085262839E+02 0.20685755733E+02 0.16045078897E+02 0.11844433449E+02 0.85916482831E+01
 0.63898077012E+01 0.49401370264E+01 0.40405053204E+01 0.35732440702E+01 0.34309090824E+01
 0.35735240207E+01 0.40411817016E+01 0.49409394309E+01 0.63898174030E+01 0.85899229463E+01
 0.11841176908E+02 0.16042178519E+02 0.20685737763E+02 0.34413136366E+02 0.37933700273E+02
 0.39776582127E+02 0.39775392031E+02 0.37930467067E+02 0.34408922824E+02 0.29531658507E+02
 0.23804470856E+02 0.17951207792E+02 0.12795069254E+02 0.89417236250E+01 0.64686905090E+01
 0.49409803517E+01 0.40530312104E+01 0.36588044037E+01 0.36589224203E+01 0.40532674125E+01
 0.49409394309E+01 0.64678326613E+01 0.89399100804E+01 0.12793079724E+02 0.17950475871E+02
 0.23806023195E+02 0.29535238471E+02 0.44046757163E+02 0.47313802805E+02 0.48461747613E+02
 0.47315658830E+02 0.44048629686E+02 0.39062829720E+02 0.32817211523E+02 0.25863605828E+02
 0.18992025276E+02 0.13134310406E+02 0.89407836776E+01 0.63905304243E+01 0.48927796791E+01
 0.40963713080E+01 0.38517164131E+01 0.40963626935E+01 0.48925148201E+01 0.63898174030E+01
 0.89399100804E+01 0.13134115525E+02 0.18993244791E+02 0.25865910049E+02 0.32819076500E+02
 0.39062770280E+02 0.53836348252E+02 0.56722978089E+02 0.56724507755E+02 0.53840002002E+02
 0.48710057823E+02 0.42103569995E+02 0.34559127269E+02 0.26582212049E+02 0.18991705108E+02
 0.12792366193E+02 0.85899272400E+01 0.61707744870E+01 0.48100870711E+01 0.41915165375E+01
 0.41914839128E+01 0.48099433047E+01 0.61705410147E+01 0.85899229463E+01 0.12793079724E+02
 0.18993244791E+02 0.26583841755E+02 0.34559506016E+02 0.42101733400E+02 0.48706403913E+02
 0.63744727209E+02 0.65710376063E+02 0.63744285377E+02 0.58486207952E+02 0.51282088217E+02
 0.43164983771E+02 0.34560550195E+02 0.25865928285E+02 0.17949820967E+02 0.11840546955E+02
 0.79694528814E+01 0.58466827220E+01 0.47229332973E+01 0.43718532695E+01 0.47229009219E+01
 0.58467000558E+01 0.79697214023E+01 0.11841176908E+02 0.17950475871E+02 0.25865910049E+02
 0.34559506016E+02 0.43163465643E+02 0.51281132108E+02 0.58486251475E+02 0.72631118396E+02
 0.72629447364E+02 0.67940898396E+02 0.60199864500E+02 0.51280507339E+02 0.42103031450E+02
 0.32820677413E+02 0.23806812345E+02 0.16042168738E+02 0.10473204633E+02 0.72064953391E+01
 0.54722846508E+01 0.46727279564E+01 0.46727248305E+01 0.54723134398E+01 0.72066461809E+01
 0.10473462258E+02 0.16042178519E+02 0.23806023195E+02 0.32819076500E+02 0.42101733400E+02
 0.51281132108E+02 0.60202869209E+02 0.67944591997E+02 0.78111390717E+02 0.75286082471E+02
 0.67944591997E+02 0.58486251475E+02 0.48706403913E+02 0.39062770280E+02 0.29535238471E+02
 0.20685737763E+02 0.13598439520E+02 0.89527020889E+01 0.64201272011E+01 0.51129710723E+01
 0.46998701568E+01 0.51129710723E+01 0.64201272011E+01 0.89527020889E+01 0.13598439520E+02
 0.20685737763E+02 0.29535238471E+02 0.39062770280E+02 0.48706403913E+02 0.58486251475E+02
 0.67944591997E+02 0.75286082471E+02 0.70183451276E+02 0.63752358737E+02 0.55283436909E+02
 0.46243866528E+02 0.37074949259E+02 0.27930938294E+02 0.19501217929E+02 0.12845313901E+02
 0.85393030050E+01 0.61890720602E+01 0.49603980268E+01 0.45739226566E+01 0.49604062914E+01
 0.61889421905E+01 0.85389228679E+01 0.12845081847E+02 0.19502207882E+02 0.27933840924E+02
 0.37078384981E+02 0.46244381260E+02 0.55278415285E+02 0.63743442982E+02 0.70176372278E+02
 0.72631118396E+02 0.63752358737E+02 0.56730845272E+02 0.48462688548E+02 0.39773401691E+02
 0.30911759046E+02 0.22359741964E+02 0.15087534273E+02 0.99388614424E+01 0.69346119771E+01
 0.53136294967E+01 0.45667466756E+01 0.45667712784E+01 0.53136067524E+01 0.69342843208E+01
 0.99381692255E+01 0.15087244413E+02 0.22361230448E+02 0.30915289094E+02 0.39776582127E+02
 0.48461747613E+02 0.56724507755E+02 0.63744285377E+02 0.67940898396E+02 0.67944591997E+02
 0.55283436909E+02 0.48462688548E+02 0.40698239582E+02 0.32461984877E+02 0.24219819942E+02
 0.16820856628E+02 0.11186063945E+02 0.76430930102E+01 0.56773591967E+01 0.46288455788E+01
 0.43022867095E+01 0.46289007846E+01 0.56773268562E+01 0.76426014007E+01 0.11184897469E+02
 0.16819630961E+02 0.24219839508E+02 0.32463917133E+02 0.40701056319E+02 0.48464448995E+02
 0.55283322572E+02 0.60202018986E+02 0.62028788339E+02 0.60202869209E+02 0.46243866528E+02
 0.39773401691E+02 0.32461984877E+02 0.24862074540E+02 0.17760193073E+02 0.12047714044E+02
 0.82118089616E+01 0.59897249938E+01 0.47215514554E+01 0.41470695899E+01 0.41471010575E+01
 0.47217012368E+01 0.59899126626E+01 0.82115051417E+01 0.12046242362E+02 0.17757631054E+02
 0.24859831969E+02 0.32462185066E+02 0.39777275921E+02 0.46250419354E+02 0.51287326910E+02
 0.54113236740E+02 0.54110699781E+02 0.51281132108E+02 0.37074949259E+02 0.30911759046E+02
 0.24219819942E+02 0.17760193073E+02 0.12355095414E+02 0.85305111008E+01 0.61990038791E+01
 0.48060503632E+01 0.40673440729E+01 0.38405992484E+01 0.40673506883E+01 0.48063231857E+01
 0.61996310958E+01 0.85309251504E+01 0.12354223772E+02 0.17757566528E+02 0.24216763959E+02
 0.30911032512E+02 0.37078429362E+02 0.42108088741E+02 0.45448048250E+02 0.46625365839E+02
 0.45443003031E+02 0.42101733400E+02 0.27930938294E+02 0.22359741964E+02 0.16820856628E+02
 0.12047714044E+02 0.85305111008E+01 0.62727633286E+01 0.48548508826E+01 0.40322297902E+01
 0.36671459391E+01 0.36670325856E+01 0.40320238815E+01 0.48549418286E+01 0.62735318004E+01
 0.85317498669E+01 0.12048425229E+02 0.16820081058E+02 0.22357768313E+02 0.27929323836E+02
 0.32819099096E+02 0.36445256542E+02 0.38378653381E+02 0.38377937037E+02 0.36444043836E+02
 0.32819076500E+02 0.19501217929E+02 0.15087534273E+02 0.11186063945E+02 0.82118089616E+01
 0.61990038791E+01 0.48548508826E+01 0.40225793533E+01 0.35903749879E+01 0.34585414603E+01
 0.35901170288E+01 0.40219873408E+01 0.48541947221E+01 0.61990040776E+01 0.82130124988E+01
 0.11188100581E+02 0.15089153731E+02 0.19501230984E+02 0.23804268316E+02 0.27376650200E+02
 0.29726296835E+02 0.30545107993E+02 0.29728069732E+02 0.27379159349E+02 0.23806023195E+02
 0.12845313901E+02 0.99388614424E+01 0.76430930102E+01 0.59897249938E+01 0.48060503632E+01
 0.40322297902E+01 0.35903749879E+01 0.33947471954E+01 0.33948453623E+01 0.35903594642E+01
 0.40315142393E+01 0.48045174432E+01 0.59881852183E+01 0.76428396629E+01 0.99405231832E+01
 0.12848056132E+02 0.16044248363E+02 0.19044354721E+02 0.21359243531E+02 0.22615542779E+02
 0.22616122890E+02 0.21360163623E+02 0.19044060716E+02 0.16042178519E+02 0.85393030050E+01
 0.69346119771E+01 0.56773591967E+01 0.47215514554E+01 0.40673440729E+01 0.36671459391E+01
 0.34585414603E+01 0.33948453623E+01 0.34591927925E+01 0.36679322106E+01 0.40673519412E+01
 0.47200566114E+01 0.56746791314E+01 0.69322509651E+01 0.85389007569E+01 0.10475435449E+02
 0.12521920087E+02 0.14340241677E+02 0.15592210489E+02 0.16037601601E+02 0.15590592618E+02
 0.14337300436E+02 0.12518666200E+02 0.10473462258E+02 0.61890720602E+01 0.53136294967E+01
 0.46288455788E+01 0.41470695899E+01 0.38405992484E+01 0.36670325856E+01 0.35901170288E+01
 0.35903594642E+01 0.36679322106E+01 0.38421984972E+01 0.41485777045E+01 0.46288771775E+01
 0.53114614130E+01 0.61856374306E+01 0.72040706373E+01 0.83349641541E+01 0.94552639270E+01
 0.10367181367E+02 0.10879593801E+02 0.10878275578E+02 0.10364201400E+02 0.94528519427E+01
 0.83349884556E+01 0.72066461809E+01 0.49603980268E+01 0.45667466756E+01 0.43022867095E+01
 0.41471010575E+01 0.40673506883E+01 0.40320238815E+01 0.40219873408E+01 0.40315142393E+01
 0.40673519412E+01 0.41485777045E+01 0.43049569521E+01 0.45689600017E+01 0.49604051220E+01
 0.54698901110E+01 0.60510402990E+01 0.66311405505E+01 0.71415589531E+01 0.74987377971E+01
 0.76272729905E+01 0.74980137756E+01 0.71415693358E+01 0.66330657198E+01 0.60542498936E+01
 0.54723134398E+01 0.45739226566E+01 0.45667712784E+01 0.46289007846E+01 0.47217012368E+01
 0.48063231857E+01 0.48549418286E+01 0.48541947221E+01 0.48045174432E+01 0.47200566114E+01
 0.46288771775E+01 0.45689600017E+01 0.45772587120E+01 0.46751045865E+01 0.48574734000E+01
 0.50923491911E+01 0.53307828981E+01 0.55223258048E+01 0.56283566376E+01 0.56288944177E+01
 0.55239858747E+01 0.53332386136E+01 0.50943501803E+01 0.48574709222E+01 0.46727248305E+01
 0.49604062914E+01 0.53136067524E+01 0.56773268562E+01 0.59899126626E+01 0.61996310958E+01
 0.62735318004E+01 0.61990040776E+01 0.59881852183E+01 0.56746791314E+01 0.53114614130E+01
 0.49604051220E+01 0.46751045865E+01 0.44852898810E+01 0.43907516739E+01 0.43674988146E+01
 0.43816977363E+01 0.44032327262E+01 0.44130358459E+01 0.44044541302E+01 0.43830644039E+01
 0.43675359462E+01 0.43887371545E+01 0.44820863540E+01 0.46727279564E+01 0.61889421905E+01
 0.69342843208E+01 0.76426014007E+01 0.82115051417E+01 0.85309251504E+01 0.85317498669E+01
 0.82130124988E+01 0.76428396629E+01 0.69322509651E+01 0.61856374306E+01 0.54698901110E+01
 0.48574734000E+01 0.43907516739E+01 0.40709945566E+01 0.38726499092E+01 0.37627569907E+01
 0.37149172046E+01 0.37150443703E+01 0.37626246691E+01 0.38713898614E+01 0.40686579660E+01
 0.43887344088E+01 0.48574709222E+01 0.54722846508E+01 0.85389228679E+01 0.99381692255E+01
 0.11184897469E+02 0.12046242362E+02 0.12354223772E+02 0.12048425229E+02 0.11188100581E+02
 0.99405231832E+01 0.85389007569E+01 0.72040706373E+01 0.60510402990E+01 0.50923491911E+01
 0.43674988146E+01 0.38726499092E+01 0.35679416890E+01 0.34072369355E+01 0.33573855730E+01
 0.34065742449E+01 0.35666604000E+01 0.38713938225E+01 0.43674986954E+01 0.50943521138E+01
 0.60542498936E+01 0.72064953391E+01 0.12845081847E+02 0.15087244413E+02 0.16819630961E+02
 0.17757631054E+02 0.17757566528E+02 0.16820081058E+02 0.15089153731E+02 0.12848056132E+02
 0.10475435449E+02 0.83349641541E+01 0.66311405505E+01 0.53307828981E+01 0.43816977363E+01
 0.37627569907E+01 0.34072369355E+01 0.32484495129E+01 0.32481695778E+01 0.34067007085E+01
 0.37627497370E+01 0.43829603774E+01 0.53331329636E+01 0.66331525407E+01 0.83349884556E+01
 0.10473204633E+02 0.19502207882E+02 0.22361230448E+02 0.24219839508E+02 0.24859831969E+02
 0.24216763959E+02 0.22357768313E+02 0.19501230984E+02 0.16044248363E+02 0.12521920087E+02
 0.94552639270E+01 0.71415589531E+01 0.55223258048E+01 0.44032327262E+01 0.37149172046E+01
 0.33573855730E+01 0.32481695778E+01 0.33574395463E+01 0.37154437411E+01 0.44044439254E+01
 0.55235872604E+01 0.71415618518E+01 0.94531954587E+01 0.12518666200E+02 0.16042168738E+02
 0.27933840924E+02 0.30915289094E+02 0.32463917133E+02 0.32462185066E+02 0.30911032512E+02
 0.27929323836E+02 0.23804268316E+02 0.19044354721E+02 0.14340241677E+02 0.10367181367E+02
 0.74987377971E+01 0.56283566376E+01 0.44130358459E+01 0.37150443703E+01 0.34065742449E+01
 0.34067007085E+01 0.37154437411E+01 0.44135367494E+01 0.56283298753E+01 0.74974779158E+01
 0.10364779439E+02 0.14337999410E+02 0.19044060716E+02 0.23806812345E+02 0.37078384981E+02
 0.39776582127E+02 0.40701056319E+02 0.39777275921E+02 0.37078429362E+02 0.32819099096E+02
 0.27376650200E+02 0.21359243531E+02 0.15592210489E+02 0.10879593801E+02 0.76272729905E+01
 0.56288944177E+01 0.44044541302E+01 0.37626246691E+01 0.35666604000E+01 0.37627497370E+01
 0.44044439254E+01 0.56283298753E+01 0.76260370793E+01 0.10878374222E+02 0.15592210367E+02
 0.21360985688E+02 0.27379159349E+02 0.32820677413E+02 0.46244381260E+02 0.48461747613E+02
 0.48464448995E+02 0.46250419354E+02 0.42108088741E+02 0.36445256542E+02 0.29726296835E+02
 0.22615542779E+02 0.16037601601E+02 0.10878275578E+02 0.74980137756E+01 0.55239858747E+01
 0.43830644039E+01 0.38713898614E+01 0.38713938225E+01 0.43829603774E+01 0.55235872604E+01
 0.74974779158E+01 0.10878374222E+02 0.16039219582E+02 0.22618436163E+02 0.29728423986E+02