   1   1   1   0
  0.1677775E+02  0.2873534E-09  0.2873534E-09  0.2873534E-09  0.5000000E-15
  1.000000000000000E-004
  CAR 
 FCC Au                                  
     38.58320991     -6.38449831  301      6.93357807      1.00000000
     -6.384  0.0000E+00  0.0000E+00
     -6.235  0.0000E+00  0.0000E+00
     -6.085 -0.6117E-33 -0.9169E-34
     -5.935 -0.1676E-27 -0.2513E-28
     -5.785 -0.1369E-22 -0.2052E-23
     -5.635 -0.3613E-18 -0.5416E-19
     -5.485 -0.2989E-14 -0.4480E-15
     -5.335 -0.8107E-11 -0.1216E-11
     -5.185 -0.7019E-08 -0.1053E-08
     -5.035 -0.1915E-05 -0.2881E-06
     -4.886 -0.1604E-03 -0.2433E-04
     -4.736 -0.3835E-02 -0.5992E-03
     -4.586 -0.1848E-01 -0.3369E-02
     -4.436  0.6737E-01  0.6729E-02
     -4.286  0.3714E+00  0.6240E-01
     -4.136  0.4225E+00  0.1257E+00
     -3.986  0.2502E+00  0.1632E+00
     -3.836  0.1846E+00  0.1909E+00
     -3.686  0.1609E+00  0.2150E+00
     -3.537  0.1514E+00  0.2377E+00
     -3.387  0.1358E+00  0.2581E+00
     -3.237  0.1289E+00  0.2774E+00
     -3.087  0.1350E+00  0.2976E+00
     -2.937  0.1052E+00  0.3134E+00
     -2.787  0.1396E+00  0.3343E+00
     -2.637  0.1113E+00  0.3510E+00
     -2.487  0.1172E+00  0.3686E+00
     -2.337  0.1482E+00  0.3908E+00
     -2.188  0.1145E+00  0.4079E+00
     -2.038  0.1504E+00  0.4305E+00
     -1.888  0.2929E+00  0.4744E+00
     -1.738  0.7167E+00  0.5818E+00
     -1.588  0.8214E+00  0.7049E+00
     -1.438  0.9725E+00  0.8507E+00
     -1.288  0.1168E+01  0.1026E+01
     -1.138  0.1203E+01  0.1206E+01
     -0.988  0.1225E+01  0.1390E+01
     -0.838  0.1257E+01  0.1578E+01
     -0.689  0.1303E+01  0.1773E+01
     -0.539  0.1204E+01  0.1954E+01
     -0.389  0.1584E+01  0.2191E+01
     -0.239  0.1943E+01  0.2483E+01
     -0.089  0.1688E+01  0.2736E+01
      0.061  0.1117E+01  0.2903E+01
      0.211  0.8362E+00  0.3028E+01
      0.361  0.9461E+00  0.3170E+01
      0.511  0.1305E+01  0.3366E+01
      0.660  0.1284E+01  0.3558E+01
      0.810  0.1696E+01  0.3812E+01
      0.960  0.3416E+01  0.4325E+01
      1.110  0.3956E+01  0.4918E+01
      1.260  0.2790E+01  0.5336E+01
      1.410  0.1565E+01  0.5570E+01
      1.560  0.8993E+00  0.5705E+01
      1.710  0.1083E+01  0.5867E+01
      1.860  0.1283E+01  0.6060E+01
      2.009  0.9096E+00  0.6196E+01
      2.159  0.5494E+00  0.6278E+01
      2.309  0.1109E+01  0.6445E+01
      2.459  0.2908E+01  0.6881E+01
      2.609  0.3535E+01  0.7410E+01
      2.759  0.2361E+01  0.7764E+01
      2.909  0.1663E+01  0.8014E+01
      3.059  0.1133E+01  0.8184E+01
      3.209  0.9143E+00  0.8321E+01
      3.359  0.9275E+00  0.8460E+01
      3.508  0.1245E+01  0.8646E+01
      3.658  0.2527E+01  0.9025E+01
      3.808  0.3327E+01  0.9524E+01
      3.958  0.2194E+01  0.9852E+01
      4.108  0.2806E+01  0.1027E+02
      4.258  0.2478E+01  0.1064E+02
      4.408  0.3865E+00  0.1070E+02
      4.558 -0.8343E-02  0.1070E+02
      4.708  0.1785E+00  0.1073E+02
      4.857  0.1644E+00  0.1075E+02
      5.007  0.9551E-01  0.1077E+02
      5.157  0.1420E+00  0.1079E+02
      5.307  0.7943E-01  0.1080E+02
      5.457  0.3726E-01  0.1081E+02
      5.607  0.6732E-01  0.1082E+02
      5.757  0.5889E-01  0.1082E+02
      5.907  0.1327E+00  0.1084E+02
      6.057  0.9570E-01  0.1086E+02
      6.206  0.1334E-01  0.1086E+02
      6.356  0.8303E-01  0.1087E+02
      6.506  0.1301E+00  0.1089E+02
      6.656  0.1870E+00  0.1092E+02
      6.806  0.3322E+00  0.1097E+02
      6.956  0.2159E+00  0.1100E+02
      7.106  0.1079E+00  0.1102E+02
      7.256  0.1515E+00  0.1104E+02
      7.406  0.1294E+00  0.1106E+02
      7.555  0.9009E-01  0.1107E+02
      7.705  0.1320E+00  0.1109E+02
      7.855  0.1289E+00  0.1111E+02
      8.005  0.7109E-01  0.1112E+02
      8.155  0.1300E+00  0.1114E+02
      8.305  0.1193E+00  0.1116E+02
      8.455  0.7021E-01  0.1117E+02
      8.605  0.5801E-01  0.1118E+02
      8.755  0.3333E+00  0.1123E+02
      8.905  0.9824E+00  0.1138E+02
      9.054  0.8858E+00  0.1151E+02
      9.204  0.3922E+00  0.1157E+02
      9.354  0.1729E+00  0.1160E+02
      9.504  0.1829E+00  0.1162E+02
      9.654  0.5331E+00  0.1170E+02
      9.804  0.7916E+00  0.1182E+02
      9.954  0.5640E+00  0.1191E+02
     10.104  0.4864E+00  0.1198E+02
     10.254  0.4149E+00  0.1204E+02
     10.403  0.6589E+00  0.1214E+02
     10.553  0.1419E+01  0.1235E+02
     10.703  0.1292E+01  0.1255E+02
     10.853  0.7052E+00  0.1265E+02
     11.003  0.5491E+00  0.1273E+02
     11.153  0.5272E+00  0.1281E+02
     11.303  0.4995E+00  0.1289E+02
     11.453  0.6587E+00  0.1299E+02
     11.603  0.7286E+00  0.1310E+02
     11.752  0.5502E+00  0.1318E+02
     11.902  0.3552E+00  0.1323E+02
     12.052  0.4860E+00  0.1330E+02
     12.202  0.5800E+00  0.1339E+02
     12.352  0.3842E+00  0.1345E+02
     12.502  0.2733E+00  0.1349E+02
     12.652  0.2445E+00  0.1353E+02
     12.802  0.3530E+00  0.1358E+02
     12.952  0.2840E+00  0.1362E+02
     13.102  0.4001E+00  0.1368E+02
     13.251  0.9119E+00  0.1382E+02
     13.401  0.8870E+00  0.1395E+02
     13.551  0.2387E+00  0.1399E+02
     13.701  0.8221E-01  0.1400E+02
     13.851  0.1400E+00  0.1402E+02
     14.001  0.1556E+00  0.1404E+02
     14.151  0.1287E+00  0.1406E+02
     14.301  0.9239E-01  0.1408E+02
     14.451  0.1366E+00  0.1410E+02
     14.600  0.1613E+00  0.1412E+02
     14.750  0.1659E+00  0.1415E+02
     14.900  0.1699E+00  0.1417E+02
     15.050  0.1283E+00  0.1419E+02
     15.200  0.2160E+00  0.1422E+02
     15.350  0.9399E+00  0.1437E+02
     15.500  0.1325E+01  0.1456E+02
     15.650  0.9410E+00  0.1470E+02
     15.800  0.8431E+00  0.1483E+02
     15.949  0.1103E+01  0.1500E+02
     16.099  0.8720E+00  0.1513E+02
     16.249  0.4620E+00  0.1520E+02
     16.399  0.2941E+00  0.1524E+02
     16.549  0.3283E+00  0.1529E+02
     16.699  0.2933E+00  0.1533E+02
     16.849  0.1491E+00  0.1536E+02
     16.999  0.3352E+00  0.1541E+02
     17.149  0.2959E+00  0.1545E+02
     17.298  0.8082E-01  0.1546E+02
     17.448  0.1680E+00  0.1549E+02
     17.598  0.3989E+00  0.1555E+02
     17.748  0.3822E+00  0.1561E+02
     17.898  0.2007E+00  0.1564E+02
     18.048  0.1837E+00  0.1566E+02
     18.198  0.2520E+00  0.1570E+02
     18.348  0.2420E+00  0.1574E+02
     18.498  0.3192E+00  0.1578E+02
     18.648  0.3492E+00  0.1584E+02
     18.797  0.2081E+00  0.1587E+02
     18.947  0.2465E+00  0.1591E+02
     19.097  0.1938E+00  0.1593E+02
     19.247  0.8983E-01  0.1595E+02
     19.397  0.1229E+00  0.1597E+02
     19.547  0.1451E+00  0.1599E+02
     19.697  0.2426E+00  0.1602E+02
     19.847  0.1963E+00  0.1605E+02
     19.997  0.8841E-01  0.1607E+02
     20.146  0.9758E-01  0.1608E+02
     20.296  0.2332E+00  0.1612E+02
     20.446  0.8145E+00  0.1624E+02
     20.596  0.8539E+00  0.1637E+02
     20.746  0.3460E+00  0.1642E+02
     20.896  0.1389E+00  0.1644E+02
     21.046  0.2545E+00  0.1648E+02
     21.196  0.6272E+00  0.1657E+02
     21.346  0.6710E+00  0.1667E+02
     21.495  0.4468E+00  0.1674E+02
     21.645  0.2247E+00  0.1677E+02
     21.795  0.1827E+00  0.1680E+02
     21.945  0.3001E+00  0.1685E+02
     22.095  0.5204E+00  0.1692E+02
     22.245  0.5620E+00  0.1701E+02
     22.395  0.3806E+00  0.1706E+02
     22.545  0.3717E+00  0.1712E+02
     22.695  0.6049E+00  0.1721E+02
     22.845  0.6032E+00  0.1730E+02
     22.994  0.5350E+00  0.1738E+02
     23.144  0.8136E+00  0.1750E+02
     23.294  0.9138E+00  0.1764E+02
     23.444  0.1072E+01  0.1780E+02
     23.594  0.1036E+01  0.1796E+02
     23.744  0.7013E+00  0.1806E+02
     23.894  0.6674E+00  0.1816E+02
     24.044  0.6124E+00  0.1825E+02
     24.194  0.5050E+00  0.1833E+02
     24.343  0.5057E+00  0.1840E+02
     24.493  0.5823E+00  0.1849E+02
     24.643  0.4534E+00  0.1856E+02
     24.793  0.5583E+00  0.1864E+02
     24.943  0.1057E+01  0.1880E+02
     25.093  0.1239E+01  0.1899E+02
     25.243  0.9344E+00  0.1913E+02
     25.393  0.7308E+00  0.1924E+02
     25.543  0.5193E+00  0.1932E+02
     25.692  0.6857E+00  0.1942E+02
     25.842  0.1039E+01  0.1957E+02
     25.992  0.9237E+00  0.1971E+02
     26.142  0.7895E+00  0.1983E+02
     26.292  0.5358E+00  0.1991E+02
     26.442  0.2371E+00  0.1995E+02
     26.592  0.2351E+00  0.1998E+02
     26.742  0.2510E+00  0.2002E+02
     26.892  0.2669E+00  0.2006E+02
     27.041  0.2566E+00  0.2010E+02
     27.191  0.2151E+00  0.2013E+02
     27.341  0.2349E+00  0.2017E+02
     27.491  0.1900E+00  0.2019E+02
     27.641  0.1226E+00  0.2021E+02
     27.791  0.2369E+00  0.2025E+02
     27.941  0.2322E+00  0.2028E+02
     28.091  0.2298E+00  0.2032E+02
     28.241  0.3043E+00  0.2036E+02
     28.391  0.4349E+00  0.2043E+02
     28.540  0.4453E+00  0.2049E+02
     28.690  0.2332E+00  0.2053E+02
     28.840  0.2512E+00  0.2057E+02
     28.990  0.3155E+00  0.2061E+02
     29.140  0.3107E+00  0.2066E+02
     29.290  0.6542E+00  0.2076E+02
     29.440  0.9087E+00  0.2090E+02
     29.590  0.8126E+00  0.2102E+02
     29.740  0.7838E+00  0.2113E+02
     29.889  0.6517E+00  0.2123E+02
     30.039  0.6959E+00  0.2134E+02
     30.189  0.8568E+00  0.2146E+02
     30.339  0.1503E+01  0.2169E+02
     30.489  0.1974E+01  0.2199E+02
     30.639  0.1393E+01  0.2219E+02
     30.789  0.1213E+01  0.2238E+02
     30.939  0.1162E+01  0.2255E+02
     31.089  0.4560E+00  0.2262E+02
     31.238  0.3561E+00  0.2267E+02
     31.388  0.4731E+00  0.2274E+02
     31.538  0.3741E+00  0.2280E+02
     31.688  0.3901E+00  0.2286E+02
     31.838  0.4165E+00  0.2292E+02
     31.988  0.3667E+00  0.2298E+02
     32.138  0.3667E+00  0.2303E+02
     32.288  0.2620E+00  0.2307E+02
     32.438  0.2803E+00  0.2311E+02
     32.588  0.3791E+00  0.2317E+02
     32.737  0.3380E+00  0.2322E+02
     32.887  0.2952E+00  0.2326E+02
     33.037  0.3436E+00  0.2331E+02
     33.187  0.3156E+00  0.2336E+02
     33.337  0.2447E+00  0.2340E+02
     33.487  0.3830E+00  0.2346E+02
     33.637  0.3071E+00  0.2350E+02
     33.787  0.1894E+00  0.2353E+02
     33.937  0.3660E+00  0.2359E+02
     34.086  0.3089E+00  0.2363E+02
     34.236  0.1175E+00  0.2365E+02
     34.386  0.7083E-01  0.2366E+02
     34.536  0.1217E+00  0.2368E+02
     34.686  0.1988E+00  0.2371E+02
     34.836  0.2039E+00  0.2374E+02
     34.986  0.1453E+00  0.2376E+02
     35.136  0.9062E-01  0.2377E+02
     35.286  0.1501E+00  0.2380E+02
     35.435  0.3509E+00  0.2385E+02
     35.585  0.4064E+00  0.2391E+02
     35.735  0.2155E+00  0.2394E+02
     35.885  0.9001E-01  0.2396E+02
     36.035  0.5992E-01  0.2396E+02
     36.185  0.7301E-01  0.2398E+02
     36.335  0.2982E-01  0.2398E+02
     36.485  0.3791E-01  0.2399E+02
     36.635  0.7565E-01  0.2400E+02
     36.785  0.2370E-01  0.2400E+02
     36.934 -0.3580E-02  0.2400E+02
     37.084 -0.1099E-02  0.2400E+02
     37.234 -0.5258E-04  0.2400E+02
     37.384 -0.6840E-06  0.2400E+02
     37.534 -0.2672E-08  0.2400E+02
     37.684 -0.3244E-11  0.2400E+02
     37.834 -0.1244E-14  0.2400E+02
     37.984  0.0000E+00  0.2400E+02
     38.134  0.0000E+00  0.2400E+02
     38.283  0.0000E+00  0.2400E+02
     38.433  0.0000E+00  0.2400E+02
     38.583  0.0000E+00  0.2400E+02
     38.58320991     -6.38449831  301      6.93357807      1.00000000
     -6.384  0.0000E+00  0.0000E+00  0.0000E+00
     -6.235  0.0000E+00  0.0000E+00  0.0000E+00
     -6.085 -0.4226E-33 -0.1529E-46 -0.1948E-46
     -5.935 -0.1158E-27 -0.2028E-31 -0.1237E-33
     -5.785 -0.9456E-23 -0.2018E-26 -0.1239E-28
     -5.635 -0.2496E-18 -0.6494E-22 -0.4053E-24
     -5.485 -0.2064E-14 -0.6561E-18 -0.4249E-20
     -5.335 -0.5599E-11 -0.2195E-14 -0.1500E-16
     -5.185 -0.4847E-08 -0.2374E-11 -0.1784E-13
     -5.035 -0.1322E-05 -0.8331E-09 -0.7219E-11
     -4.886 -0.1107E-03 -0.9490E-07 -0.1003E-08
     -4.736 -0.2646E-02 -0.3458E-05 -0.4778E-07
     -4.586 -0.1273E-01 -0.3680E-04 -0.7584E-06
     -4.436  0.4659E-01 -0.4650E-04 -0.3408E-05
     -4.286  0.2560E+00  0.5868E-03  0.4191E-05
     -4.136  0.2898E+00  0.2116E-02  0.6284E-04
     -3.986  0.1694E+00  0.3426E-02  0.1954E-03
     -3.836  0.1230E+00  0.4383E-02  0.4138E-03
     -3.686  0.1059E+00  0.4890E-02  0.6690E-03
     -3.537  0.9798E-01  0.5929E-02  0.1140E-02
     -3.387  0.8697E-01  0.5953E-02  0.1455E-02
     -3.237  0.8047E-01  0.6973E-02  0.2396E-02
     -3.087  0.8352E-01  0.7728E-02  0.2959E-02
     -2.937  0.6293E-01  0.6797E-02  0.4124E-02
     -2.787  0.8211E-01  0.9910E-02  0.6047E-02
     -2.637  0.6363E-01  0.7929E-02  0.7344E-02
     -2.487  0.6402E-01  0.9125E-02  0.1054E-01
     -2.337  0.7885E-01  0.1184E-01  0.1570E-01
     -2.188  0.5786E-01  0.8644E-02  0.1692E-01
     -2.038  0.7471E-01  0.1287E-01  0.2164E-01
     -1.888  0.1066E+00  0.1321E-01  0.1104E+00
     -1.738  0.1909E+00  0.1226E-01  0.3912E+00
     -1.588  0.1792E+00  0.1113E-01  0.4953E+00
     -1.438  0.1255E+00  0.1293E-01  0.6697E+00
     -1.288  0.1314E+00  0.2146E-01  0.8190E+00
     -1.138  0.7857E-01  0.1688E-01  0.9450E+00
     -0.988  0.3236E-01  0.1018E-01  0.1045E+01
     -0.838  0.3858E-01  0.1289E-01  0.1058E+01
     -0.689  0.4393E-01  0.1819E-01  0.1082E+01
     -0.539  0.3091E-01  0.2916E-01  0.9909E+00
     -0.389  0.1973E-01  0.6131E-01  0.1287E+01
     -0.239  0.1190E-01  0.9776E-01  0.1570E+01
     -0.089  0.8766E-02  0.9705E-01  0.1370E+01
      0.061  0.8020E-02  0.5947E-01  0.9211E+00
      0.211  0.6560E-02  0.3939E-01  0.7012E+00
      0.361  0.4276E-02  0.4910E-01  0.7949E+00
      0.511  0.1500E-02  0.7906E-01  0.1091E+01
      0.660  0.1823E-02  0.7733E-01  0.1076E+01
      0.810  0.6701E-02  0.6407E-01  0.1481E+01
      0.960  0.7970E-02  0.6031E-01  0.3114E+01
      1.110  0.7348E-02  0.5893E-01  0.3634E+01
      1.260  0.5490E-02  0.5870E-01  0.2541E+01
      1.410  0.6734E-02  0.6274E-01  0.1376E+01
      1.560  0.9100E-02  0.6650E-01  0.7384E+00
      1.710  0.1682E-01  0.8113E-01  0.8815E+00
      1.860  0.2911E-01  0.1062E+00  0.1019E+01
      2.009  0.2065E-01  0.7006E-01  0.7312E+00
      2.159  0.4884E-02  0.3155E-01  0.4683E+00
      2.309  0.3734E-01  0.5323E-01  0.9232E+00
      2.459  0.7220E-01  0.5987E-01  0.2586E+01
      2.609  0.3897E-01  0.3329E-01  0.3284E+01
      2.759  0.1955E-01  0.3932E-01  0.2180E+01
      2.909  0.3301E-01  0.7256E-01  0.1443E+01
      3.059  0.1998E-01  0.5526E-01  0.9804E+00
      3.209  0.6270E-03  0.2289E-01  0.8471E+00
      3.359  0.2168E-02  0.2521E-01  0.8562E+00
      3.508  0.2279E-01  0.6627E-01  0.1077E+01
      3.658  0.2583E-01  0.6051E-01  0.2334E+01
      3.808  0.5431E-02  0.1633E-01  0.3212E+01
      3.958  0.7167E-03  0.1647E-01  0.2116E+01
      4.108  0.6150E-02  0.4268E-01  0.2676E+01
      4.258  0.1522E-01  0.3897E-01  0.2352E+01
      4.408  0.1641E-01  0.3484E-01  0.3055E+00
      4.558  0.4757E-02  0.6632E-01 -0.1202E+00
      4.708 -0.1269E-03  0.1192E+00 -0.1651E-01
      4.857 -0.6472E-03  0.9700E-01  0.6096E-02
      5.007  0.6320E-02  0.4755E-01  0.1134E-01
      5.157  0.1409E-01  0.6432E-01  0.2266E-01
      5.307  0.5167E-02  0.3679E-01  0.1408E-01
      5.457 -0.7491E-03  0.1676E-01  0.1068E-01
      5.607 -0.5981E-03  0.3002E-01  0.1895E-01
      5.757  0.3525E-02  0.2868E-01  0.9508E-02
      5.907  0.9106E-02  0.6470E-01  0.2054E-01
      6.057  0.3853E-02  0.4448E-01  0.2047E-01
      6.206 -0.4524E-03  0.4820E-02  0.5724E-02
      6.356  0.9583E-03  0.3925E-01  0.1970E-01
      6.506  0.3170E-02  0.6987E-01  0.1800E-01
      6.656  0.1472E-02  0.1178E+00  0.6203E-02
      6.806 -0.9669E-04  0.2025E+00  0.2326E-01
      6.956 -0.6882E-04  0.1274E+00  0.2140E-01
      7.106 -0.4410E-05  0.6306E-01  0.1222E-01
      7.256 -0.7369E-07  0.7911E-01  0.2966E-01
      7.406 -0.3652E-09  0.6769E-01  0.2541E-01
      7.555 -0.5341E-12  0.4984E-01  0.1472E-01
      7.705  0.6166E-13  0.6632E-01  0.2996E-01
      7.855 -0.1130E-10  0.6515E-01  0.2909E-01
      8.005 -0.9705E-08  0.3810E-01  0.1366E-01
      8.155 -0.2614E-05  0.6494E-01  0.3066E-01
      8.305 -0.2167E-03  0.5861E-01  0.2950E-01
      8.455 -0.5104E-02  0.4210E-01  0.1328E-01
      8.605 -0.2299E-01  0.5049E-01  0.9122E-02
      8.755  0.9967E-01  0.6914E-01  0.1048E+00
      8.905  0.4665E+00  0.4516E-01  0.3403E+00
      9.054  0.4042E+00  0.6154E-01  0.2935E+00
      9.204  0.1317E+00  0.7776E-01  0.1083E+00
      9.354  0.5185E-01  0.4478E-01  0.3948E-01
      9.504  0.4994E-01  0.5395E-01  0.3742E-01
      9.654  0.2223E+00  0.1007E+00  0.8885E-01
      9.804  0.3787E+00  0.1202E+00  0.1140E+00
      9.954  0.2866E+00  0.7715E-01  0.7373E-01
     10.104  0.2117E+00  0.9180E-01  0.7250E-01
     10.254  0.2050E+00  0.6099E-01  0.5821E-01
     10.403  0.2743E+00  0.1328E+00  0.1103E+00
     10.553  0.5344E+00  0.3249E+00  0.2538E+00
     10.703  0.5208E+00  0.2758E+00  0.2183E+00
     10.853  0.2493E+00  0.1795E+00  0.1228E+00
     11.003  0.1573E+00  0.1649E+00  0.1049E+00
     11.153  0.1490E+00  0.1597E+00  0.1025E+00
     11.303  0.1592E+00  0.1352E+00  0.9978E-01
     11.453  0.2147E+00  0.1680E+00  0.1418E+00
     11.603  0.2988E+00  0.1372E+00  0.1621E+00
     11.752  0.2005E+00  0.1244E+00  0.1231E+00
     11.902  0.4938E-01  0.1456E+00  0.7644E-01
     12.052  0.3081E-01  0.2311E+00  0.1001E+00
     12.202  0.8925E-02  0.2985E+00  0.1175E+00
     12.352  0.1751E-01  0.1854E+00  0.7853E-01
     12.502  0.2034E-01  0.1243E+00  0.5605E-01
     12.652  0.3110E-01  0.1044E+00  0.4750E-01
     12.802  0.5173E-01  0.1465E+00  0.6700E-01
     12.952  0.2335E-01  0.1310E+00  0.5404E-01
     13.102  0.2570E-01  0.1729E+00  0.9241E-01
     13.251  0.9161E-01  0.3341E+00  0.2459E+00
     13.401  0.1011E+00  0.3148E+00  0.2382E+00
     13.551  0.2770E-01  0.9223E-01  0.5408E-01
     13.701  0.1681E-01  0.3515E-01  0.9107E-02
     13.851  0.3262E-01  0.5138E-01  0.2202E-01
     14.001  0.1683E-01  0.7117E-01  0.2451E-01
     14.151  0.6406E-02  0.6494E-01  0.1938E-01
     14.301  0.2202E-02  0.4757E-01  0.1291E-01
     14.451  0.1218E-01  0.5854E-01  0.2211E-01
     14.600  0.1397E-01  0.7108E-01  0.2515E-01
     14.750  0.1099E-01  0.8122E-01  0.2258E-01
     14.900  0.2244E-01  0.7754E-01  0.2021E-01
     15.050  0.2840E-01  0.5857E-01  0.5581E-02
     15.200  0.6468E-02  0.8875E-01  0.4667E-01
     15.350  0.2611E-02  0.3228E+00  0.2915E+00
     15.500  0.1954E-01  0.4668E+00  0.3816E+00
     15.650  0.1656E-01  0.3684E+00  0.2156E+00
     15.800  0.1439E-02  0.3953E+00  0.1103E+00
     15.949 -0.2049E-02  0.5783E+00  0.6062E-01
     16.099  0.5258E-02  0.4480E+00  0.5770E-01
     16.249  0.2997E-01  0.2091E+00  0.5850E-01
     16.399  0.2592E-01  0.1227E+00  0.4702E-01
     16.549  0.9390E-02  0.1381E+00  0.5546E-01
     16.699  0.9533E-02  0.1248E+00  0.4445E-01
     16.849  0.4505E-02  0.6252E-01  0.2744E-01
     16.999  0.7729E-02  0.1513E+00  0.5345E-01
     17.149  0.5735E-02  0.1371E+00  0.4267E-01
     17.298 -0.4007E-03  0.3586E-01  0.1499E-01
     17.448  0.5195E-03  0.7129E-01  0.3149E-01
     17.598  0.2162E-01  0.1707E+00  0.5804E-01
     17.748  0.3562E-01  0.1586E+00  0.5433E-01
     17.898  0.1266E-01  0.8263E-01  0.3539E-01
     18.048 -0.4082E-03  0.7786E-01  0.3437E-01
     18.198 -0.4319E-03  0.1239E+00  0.2924E-01
     18.348  0.2131E-03  0.1211E+00  0.2612E-01
     18.498  0.4578E-02  0.1476E+00  0.4546E-01
     18.648  0.1043E-01  0.1588E+00  0.4647E-01
     18.797  0.7681E-02  0.8791E-01  0.2653E-01
     18.947  0.6509E-02  0.1037E+00  0.3594E-01
     19.097  0.1732E-01  0.7505E-01  0.3142E-01
     19.247  0.1288E-01  0.3444E-01  0.1464E-01
     19.397  0.4844E-02  0.4533E-01  0.2249E-01
     19.547  0.1673E-02  0.5615E-01  0.2397E-01
     19.697  0.4695E-02  0.9806E-01  0.3289E-01
     19.847  0.4600E-02  0.6460E-01  0.3067E-01
     19.997  0.2929E-02  0.2966E-01  0.1571E-01
     20.146  0.3875E-02  0.3984E-01  0.1810E-01
     20.296  0.1003E-02  0.4116E-01  0.2029E-01
     20.446  0.7509E-02  0.1099E+00  0.4649E-01
     20.596  0.1591E-01  0.1093E+00  0.5333E-01
     20.746  0.9957E-02  0.5536E-01  0.2513E-01
     20.896  0.3529E-02  0.3215E-01  0.8463E-02
     21.046  0.1641E-03  0.9777E-02  0.3075E-02
     21.196 -0.3340E-04  0.5399E-01  0.2186E-01
     21.346  0.2308E-02  0.8355E-01  0.3961E-01
     21.495  0.3968E-02  0.5512E-01  0.2877E-01
     21.645  0.1887E-02  0.2029E-01  0.1358E-01
     21.795  0.1607E-02  0.6607E-02  0.2084E-01
     21.945  0.2374E-02  0.5368E-01  0.4072E-01
     22.095  0.3099E-02  0.1076E+00  0.4812E-01
     22.245  0.4957E-02  0.5619E-01  0.4017E-01
     22.395  0.1280E-01  0.3943E-02  0.4007E-01
     22.545  0.4433E-01  0.3460E-01  0.4904E-01
     22.695  0.6468E-01  0.1135E+00  0.7540E-01
     22.845  0.4524E-01  0.1177E+00  0.7995E-01
     22.994  0.3409E-01  0.1149E+00  0.7052E-01
     23.144  0.5981E-01  0.1657E+00  0.1278E+00
     23.294  0.6671E-01  0.2080E+00  0.1370E+00
     23.444  0.2907E-01  0.4002E+00  0.8314E-01
     23.594  0.2031E-01  0.3667E+00  0.7650E-01
     23.744  0.3830E-01  0.1818E+00  0.9927E-01
     23.894  0.3672E-01  0.1662E+00  0.1145E+00
     24.044  0.2024E-01  0.1514E+00  0.9440E-01
     24.194  0.1362E-01  0.1280E+00  0.7324E-01
     24.343  0.1136E-01  0.1106E+00  0.7483E-01
     24.493  0.1473E-01  0.1464E+00  0.7857E-01
     24.643  0.7558E-02  0.1142E+00  0.7187E-01
     24.793  0.1091E-01  0.1196E+00  0.7493E-01
     24.943  0.1089E-01  0.2509E+00  0.8731E-01
     25.093  0.3864E-02  0.2768E+00  0.6796E-01
     25.243  0.1818E-01  0.2087E+00  0.9311E-01
     25.393  0.2346E-01  0.2010E+00  0.1087E+00
     25.543  0.6894E-02  0.1153E+00  0.1097E+00
     25.692  0.6477E-02  0.1154E+00  0.2370E+00
     25.842  0.1013E-01  0.1510E+00  0.4089E+00
     25.992  0.2745E-02  0.1805E+00  0.3031E+00
     26.142  0.3416E-02  0.2223E+00  0.1907E+00
     26.292  0.1042E-01  0.1227E+00  0.1440E+00
     26.442  0.4748E-02  0.1927E-01  0.8677E-01
     26.592  0.3947E-03  0.1682E-01  0.7830E-01
     26.742  0.8509E-02  0.2979E-01  0.7669E-01
     26.892  0.1861E-01  0.5540E-01  0.7006E-01
     27.041  0.1009E-01  0.4627E-01  0.6749E-01
     27.191  0.1715E-02  0.2381E-01  0.5681E-01
     27.341  0.7042E-02  0.2748E-01  0.5950E-01
     27.491  0.5879E-02  0.1917E-01  0.5317E-01
     27.641  0.1779E-03  0.7359E-02  0.3788E-01
     27.791  0.2282E-02  0.2603E-01  0.5667E-01
     27.941  0.6950E-02  0.3148E-01  0.5072E-01
     28.091  0.5288E-02  0.2961E-01  0.4100E-01
     28.241  0.4517E-02  0.4341E-01  0.3643E-01
     28.391  0.1204E-01  0.8283E-01  0.5323E-01
     28.540  0.1754E-01  0.1011E+00  0.6176E-01
     28.690  0.7270E-02  0.3625E-01  0.4055E-01
     28.840  0.3316E-02  0.2991E-01  0.3832E-01
     28.990  0.4344E-02  0.4519E-01  0.5457E-01
     29.140  0.5083E-02  0.3254E-01  0.6305E-01
     29.290  0.6000E-02  0.2448E-01  0.1432E+00
     29.440  0.1205E-01  0.4269E-01  0.1737E+00
     29.590  0.1608E-01  0.5042E-01  0.1321E+00
     29.740  0.1336E-01  0.2920E-01  0.1446E+00
     29.889  0.1023E-01  0.4222E-01  0.1328E+00
     30.039  0.1050E-01  0.9853E-01  0.1344E+00
     30.189  0.1927E-01  0.8331E-01  0.1976E+00
     30.339  0.5891E-01  0.1626E+00  0.3311E+00
     30.489  0.6240E-01  0.3341E+00  0.3788E+00
     30.639  0.2192E-01  0.2282E+00  0.3390E+00
     30.789  0.2401E-02  0.5070E-01  0.5310E+00
     30.939  0.1857E-02  0.1267E-01  0.5522E+00
     31.089  0.1213E-02  0.6344E-02  0.1846E+00
     31.238  0.1887E-02  0.5187E-01  0.6239E-01
     31.388  0.2145E-02  0.8774E-01  0.8404E-01
     31.538  0.5355E-03  0.4664E-01  0.7215E-01
     31.688 -0.9775E-04  0.2036E-01  0.7210E-01
     31.838 -0.2807E-04  0.2826E-01  0.8823E-01
     31.988 -0.1343E-05  0.3962E-01  0.7394E-01
     32.138 -0.3684E-06  0.3053E-01  0.6182E-01
     32.288 -0.1428E-04  0.1605E-01  0.5043E-01
     32.438 -0.1139E-03  0.2177E-01  0.6613E-01
     32.588  0.2274E-03  0.2567E-01  0.7220E-01
     32.737  0.2223E-02  0.3084E-01  0.5246E-01
     32.887  0.2271E-02  0.2867E-01  0.6420E-01
     33.037  0.6305E-03  0.1934E-01  0.7963E-01
     33.187  0.7172E-03  0.1621E-01  0.5551E-01
     33.337  0.3015E-03  0.1497E-01  0.3297E-01
     33.487 -0.3164E-04  0.2276E-01  0.6715E-01
     33.637  0.2003E-04  0.1687E-01  0.9393E-01
     33.787  0.4476E-04  0.6913E-02  0.7765E-01
     33.937  0.1590E-04  0.6250E-02  0.1178E+00
     34.086  0.8336E-05  0.1766E-01  0.9705E-01
     34.236 -0.1002E-06  0.1448E-01  0.1665E-01
     34.386 -0.8698E-04  0.1339E-02  0.2225E-02
     34.536 -0.5232E-03 -0.1066E-03  0.1187E-01
     34.686  0.1704E-02  0.3238E-02  0.1307E-01
     34.836  0.1030E-01  0.6633E-02  0.1432E-01
     34.986  0.8410E-02  0.3926E-02  0.1148E-01
     35.136  0.4868E-03  0.1893E-03  0.2543E-02
     35.286 -0.4224E-03 -0.2191E-03  0.1180E-02
     35.435 -0.4497E-04  0.5799E-04  0.9761E-03
     35.585 -0.1115E-05  0.1709E-02  0.7525E-03
     35.735  0.5818E-08  0.2309E-02  0.1162E-02
     35.885  0.3044E-08  0.4497E-03  0.1619E-02
     36.035  0.1969E-08 -0.1198E-03  0.1892E-02
     36.185  0.3445E-08 -0.5101E-04  0.2753E-02
     36.335  0.3801E-09 -0.2454E-04  0.1127E-02
     36.485  0.6187E-07  0.6336E-03  0.1163E-02
     36.635  0.1174E-06  0.1199E-02  0.2339E-02
     36.785  0.3619E-07  0.3694E-03  0.7348E-03
     36.934 -0.5446E-08 -0.5557E-04 -0.1111E-03
     37.084 -0.1673E-08 -0.1707E-04 -0.3410E-04
     37.234 -0.8001E-10 -0.8164E-06 -0.1631E-05
     37.384 -0.1041E-11 -0.1062E-07 -0.2122E-07
     37.534 -0.4066E-14 -0.4149E-10 -0.8291E-10
     37.684 -0.4937E-17 -0.5038E-13 -0.1007E-12
     37.834 -0.1894E-20 -0.1932E-16 -0.3861E-16
     37.984  0.0000E+00  0.0000E+00  0.0000E+00
     38.134  0.0000E+00  0.0000E+00  0.0000E+00
     38.283  0.0000E+00  0.0000E+00  0.0000E+00
     38.433  0.0000E+00  0.0000E+00  0.0000E+00
     38.583  0.0000E+00  0.0000E+00  0.0000E+00
