    1    1    1    1
  0.1677775E+02  0.2873533E-09  0.2873533E-09  0.2873533E-09  0.5000000E-15
  1.000000000000000E-004
  CAR 
 FCC Au                                  
     11    100     12
 
  0.5000000E+00  0.2500000E+00  0.7500000E+00  0.1000000E-01
    1       -0.360150   1.000000
    2        0.476572   1.000000
    3        0.476573   1.000000
    4        2.372122   1.000000
    5        4.120721   1.000000
    6       10.555215  -0.000000
    7       12.102349  -0.000000
    8       12.102349  -0.000000
    9       15.305607   0.000000
   10       29.277202   0.000000
   11       29.277204   0.000000
   12       30.447978   0.000000
 
  0.5000000E+00  0.2631579E+00  0.7368421E+00  0.1000000E-01
    1       -0.351004   1.000000
    2        0.459188   1.000000
    3        0.488326   1.000000
    4        2.381744   1.000000
    5        4.110590   1.000000
    6       10.421893  -0.000000
    7       12.014589  -0.000000
    8       12.303324  -0.000000
    9       15.410430   0.000000
   10       28.970129   0.000000
   11       29.300910   0.000000
   12       30.775086   0.000000
 
  0.5000000E+00  0.2763158E+00  0.7236842E+00  0.1000000E-01
    1       -0.326447   1.000000
    2        0.402869   1.000000
    3        0.518392   1.000000
    4        2.391426   1.000000
    5        4.057372   1.000000
    6       10.138509  -0.000000
    7       11.761268  -0.000000
    8       12.761445   0.000000
    9       15.673574   0.000000
   10       28.385131   0.000000
   11       29.340048   0.000000
   12       31.377044   0.000000
 
  0.5000000E+00  0.2894737E+00  0.7105263E+00  0.1000000E-01
    1       -0.285956   1.000000
    2        0.313876   1.000000
    3        0.568834   1.000000
    4        2.399459   1.000000
    5        3.977753   1.000000
    6        9.839532  -0.000000
    7       11.403286  -0.000000
    8       13.346358   0.000000
    9       16.048235   0.000000
   10       27.754387   0.000000
   11       29.404948   0.000000
   12       32.038198   0.000000
 
  0.5000000E+00  0.3026316E+00  0.6973684E+00  0.1000000E-01
    1       -0.230462   1.000000
    2        0.197689   1.000000
    3        0.639743   1.000000
    4        2.394820   1.000000
    5        3.883671   1.000000
    6        9.573152  -0.000000
    7       10.985223  -0.000000
    8       14.002256   0.000000
    9       16.488775   0.000000
   10       27.120976   0.000000
   11       29.493981   0.000000
   12       32.716475   0.000000
 
  0.5000000E+00  0.3157895E+00  0.6842105E+00  0.1000000E-01
    1       -0.161248   1.000000
    2        0.059894   1.000000
    3        0.731273   1.000000
    4        2.365156   1.000000
    5        3.790741   1.000000
    6        9.353102  -0.000000
    7       10.534337  -0.000000
    8       14.704901   0.000000
    9       16.966302   0.000000
   10       26.499092   0.000000
   11       29.604814   0.000000
   12       33.399237   0.000000
 
  0.5000000E+00  0.3289474E+00  0.6710526E+00  0.1000000E-01
    1       -0.094403   1.000000
    2       -0.080030   1.000000
    3        0.843012   1.000000
    4        2.299221   1.000000
    5        3.712342   1.000000
    6        9.180466  -0.000000
    7       10.065186  -0.000000
    8       15.438839   0.000000
    9       17.462749   0.000000
   10       25.895798   0.000000
   11       29.733253   0.000000
   12       34.075377   0.000000
 
  0.5000000E+00  0.3421053E+00  0.6578947E+00  0.1000000E-01
    1       -0.260651   1.000000
    2        0.011184   1.000000
    3        0.976076   1.000000
    4        2.195711   1.000000
    5        3.662160   1.000000
    6        9.051435  -0.000000
    7        9.588858  -0.000000
    8       16.196559   0.000000
    9       17.965452   0.000000
   10       25.320558   0.000000
   11       29.876761   0.000000
   12       34.818250   0.000000
 
  0.5000000E+00  0.3552632E+00  0.6447368E+00  0.1000000E-01
    1       -0.434731   1.000000
    2        0.109102   1.000000
    3        1.131077   1.000000
    4        2.060238   1.000000
    5        3.639015   1.000000
    6        8.959827  -0.000000
    7        9.113039  -0.000000
    8       16.967347   0.000000
    9       18.456821   0.000000
   10       24.779315   0.000000
   11       30.031320   0.000000
   12       34.508374   0.000000
 
  0.5000000E+00  0.3684211E+00  0.6315789E+00  0.1000000E-01
    1       -0.612553   1.000000
    2        0.212642   1.000000
    3        1.306268   1.000000
    4        1.905006   1.000000
    5        3.636820   1.000000
    6        8.634965  -0.000000
    7        8.898915  -0.000000
    8       17.746235   0.000000
    9       18.939367   0.000000
   10       24.281930   0.000000
   11       30.188592   0.000000
   12       33.939845   0.000000
 
  0.5000000E+00  0.3815789E+00  0.6184211E+00  0.1000000E-01
    1       -0.790111   1.000000
    2        0.318408   1.000000
    3        1.502652   1.000000
    4        1.742751   1.000000
    5        3.648528   1.000000
    6        8.160982  -0.000000
    7        8.862329  -0.000000
    8       18.524557   0.000000
    9       19.393495   0.000000
   10       23.839579   0.000000
   11       30.344004   0.000000
   12       33.409973   0.000000
 
  0.5000000E+00  0.3947368E+00  0.6052632E+00  0.1000000E-01
    1       -0.963309   1.000000
    2        0.423562   1.000000
    3        1.583904   1.000000
    4        1.719938   1.000000
    5        3.667794   1.000000
    6        7.693160  -0.000001
    7        8.844242  -0.000000
    8       19.294544   0.000000
    9       19.801297   0.000000
   10       23.468240   0.000000
   11       30.491512   0.000000
   12       32.922600   0.000000
 
  0.5000000E+00  0.4078947E+00  0.5921053E+00  0.1000000E-01
    1       -1.127837   1.000000
    2        0.524807   1.000000
    3        1.434405   1.000000
    4        1.957701   1.000000
    5        3.690022   1.000000
    6        7.234530  -0.027439
    7        8.840974  -0.000000
    8       20.045671   0.000000
    9       20.136389   0.000000
   10       23.189604   0.000000
   11       30.623902   0.000000
   12       32.477690   0.000000
 
  0.5000000E+00  0.4210526E+00  0.5789474E+00  0.1000000E-01
    1       -1.280054   1.000000
    2        0.619944   1.000000
    3        1.301361   1.000000
    4        2.214457   1.000000
    5        3.712420   1.000000
    6        6.783806   0.975784
    7        8.844958  -0.000000
    8       20.374881   0.000000
    9       20.770908   0.000000
   10       23.027082   0.000000
   11       30.735950   0.000000
   12       32.074953   0.000000
 
  0.5000000E+00  0.4342105E+00  0.5657895E+00  0.1000000E-01
    1       -1.415881   1.000000
    2        0.706068   1.000000
    3        1.186597   1.000000
    4        2.489151   1.000000
    5        3.733065   1.000000
    6        6.344719   1.000127
    7        8.854294  -0.000000
    8       20.498921   0.000000
    9       21.455354   0.000000
   10       22.991269   0.000000
   11       30.822056   0.000000
   12       31.718060   0.000000
 
  0.5000000E+00  0.4473684E+00  0.5526316E+00  0.1000000E-01
    1       -1.531903   1.000000
    2        0.780630   1.000000
    3        1.091703   1.000000
    4        2.779413   1.000000
    5        3.750851   1.000000
    6        5.919917   1.000000
    7        8.865967  -0.000000
    8       20.523825   0.000000
    9       22.081167   0.000000
   10       23.059342   0.000000
   11       30.875739   0.000000
   12       31.411552   0.000000
 
  0.5000000E+00  0.4605263E+00  0.5394737E+00  0.1000000E-01
    1       -1.625217   1.000000
    2        0.841404   1.000000
    3        1.017530   1.000000
    4        3.080849   1.000000
    5        3.765145   1.000000
    6        5.513935   1.000000
    7        8.877602  -0.000000
    8       20.490518   0.000000
    9       22.624026   0.000000
   10       23.181052   0.000000
   11       30.891166   0.000000
   12       31.161799   0.000000
 
  0.5000000E+00  0.4736842E+00  0.5263158E+00  0.1000000E-01
    1       -1.693560   1.000000
    2        0.886527   1.000000
    3        0.964481   1.000000
    4        3.380440   1.000000
    5        3.774506   1.000000
    6        5.136340   1.000000
    7        8.886840  -0.000000
    8       20.439927   0.000000
    9       23.051823   0.000000
   10       23.304841   0.000000
   11       30.869022   0.000000
   12       30.976334   0.000000
 
  0.5000000E+00  0.4868421E+00  0.5131579E+00  0.1000000E-01
    1       -1.735489   1.000000
    2        0.911964   1.000000
    3        0.931819   1.000000
    4        3.650642   1.000000
    5        3.780404   1.000000
    6        4.820196   1.000000
    7        8.890684  -0.000000
    8       20.398076   0.000000
    9       23.327723   0.000000
   10       23.392848   0.000000
   11       30.824139   0.000000
   12       30.843667   0.000000
 
  0.5000000E+00  0.5000000E+00  0.5000000E+00  0.1000000E-01
    1       -1.749499   1.000000
    2        0.921158   1.000000
    3        0.921158   1.000000
    4        3.782478   1.000000
    5        3.782478   1.000000
    6        4.673343   1.000000
    7        8.892774  -0.000000
    8       20.383460   0.000000
    9       23.424884   0.000000
   10       23.424884   0.000000
   11       30.803778   0.000000
   12       30.803837   0.000000
 
  0.5000000E+00  0.5000000E+00  0.5000000E+00  0.1000000E-01
    1       -1.749499   1.000000
    2        0.921158   1.000000
    3        0.921158   1.000000
    4        3.782478   1.000000
    5        3.782478   1.000000
    6        4.673343   1.000000
    7        8.892774  -0.000000
    8       20.383460   0.000000
    9       23.424884   0.000000
   10       23.424884   0.000000
   11       30.803778   0.000000
   12       30.803830   0.000000
 
  0.4736842E+00  0.4736842E+00  0.4736842E+00  0.1000000E-01
    1       -1.749293   1.000000
    2        0.926906   1.000000
    3        0.926906   1.000000
    4        3.764339   1.000000
    5        3.764339   1.000000
    6        4.497745   1.000000
    7        9.112669  -0.000000
    8       20.407836   0.000000
    9       23.471334   0.000000
   10       23.471334   0.000000
   11       30.775792   0.000000
   12       30.775807   0.000000
 
  0.4473684E+00  0.4473684E+00  0.4473684E+00  0.1000000E-01
    1       -1.749652   1.000000
    2        0.943953   1.000000
    3        0.943953   1.000000
    4        3.713780   1.000000
    5        3.713780   1.000000
    6        4.057410   1.000000
    7        9.687587  -0.000000
    8       20.480675   0.000000
    9       23.609620   0.000000
   10       23.609620   0.000000
   11       30.693133   0.000000
   12       30.693158   0.000000
 
  0.4210526E+00  0.4210526E+00  0.4210526E+00  0.1000000E-01
    1       -1.754260   1.000000
    2        0.971507   1.000000
    3        0.971507   1.000000
    4        3.494276   1.000000
    5        3.627556   1.000000
    6        3.627556   1.000000
    7       10.475308  -0.000000
    8       20.600642   0.000000
    9       23.833196   0.000000
   10       23.833196   0.000000
   11       30.559908   0.000000
   12       30.559922   0.000000
 
  0.3947368E+00  0.3947368E+00  0.3947368E+00  0.1000000E-01
    1       -1.770269   1.000000
    2        1.008041   1.000000
    3        1.008041   1.000000
    4        2.902627   1.000000
    5        3.508370   1.000000
    6        3.508370   1.000000
    7       11.374330  -0.000000
    8       20.764624   0.000000
    9       24.132737   0.000000
   10       24.132737   0.000000
   11       30.374366   0.000000
   12       30.377777   0.000000
 
  0.3684211E+00  0.3684211E+00  0.3684211E+00  0.1000000E-01
    1       -1.805586   1.000000
    2        1.052223   1.000000
    3        1.052223   1.000000
    4        2.337555   1.000000
    5        3.372096   1.000000
    6        3.372096   1.000000
    7       12.356054  -0.000000
    8       20.969290   0.000000
    9       24.494725   0.000000
   10       24.494725   0.000000
   11       30.166352   0.000000
   12       30.169065   0.000000
 
  0.3421053E+00  0.3421053E+00  0.3421053E+00  0.1000000E-01
    1       -1.873068   1.000000
    2        1.103643   1.000000
    3        1.103644   1.000000
    4        1.833988   1.000000
    5        3.222736   1.000000
    6        3.222736   1.000000
    7       13.386894   0.000000
    8       21.209217   0.000000
    9       24.901150   0.000000
   10       24.901150   0.000000
   11       29.801782   0.000000
   12       29.955302   0.000000
 
  0.3157895E+00  0.3157895E+00  0.3157895E+00  0.1000000E-01
    1       -1.987234   1.000000
    2        1.153928   1.000000
    3        1.153928   1.000000
    4        1.416175   1.000000
    5        3.066109   1.000000
    6        3.066109   1.000000
    7       14.443004   0.000000
    8       21.468279   0.000000
    9       25.317149   0.000000
   10       25.317149   0.000000
   11       29.232520   0.000000
   12       29.754132   0.000000
 
  0.2894737E+00  0.2894737E+00  0.2894737E+00  0.1000000E-01
    1       -2.157439   1.000000
    2        1.100426   1.000000
    3        1.201116   1.000000
    4        1.201116   1.000000
    5        2.912189   1.000000
    6        2.912189   1.000000
    7       15.513272   0.000000
    8       21.729320   0.000000
    9       25.699758   0.000000
   10       25.699758   0.000000
   11       28.731008   0.000000
   12       29.619656   0.000000
 
  0.2631579E+00  0.2631579E+00  0.2631579E+00  0.1000000E-01
    1       -2.382903   1.000000
    2        0.888818   1.000000
    3        1.239578   1.000000
    4        1.239578   1.000000
    5        2.770384   1.000000
    6        2.770384   1.000000
    7       16.585373   0.000000
    8       21.963868   0.000000
    9       25.989020   0.000000
   10       25.989020   0.000000
   11       28.350786   0.000000
   12       29.612974   0.000000
 
  0.2368421E+00  0.2368421E+00  0.2368421E+00  0.1000000E-01
    1       -2.650047   1.000000
    2        0.768796   1.000000
    3        1.262911   1.000000
    4        1.262911   1.000000
    5        2.650048   1.000000
    6        2.650048   1.000000
    7       17.647387   0.000000
    8       22.136093   0.000000
    9       26.131374   0.000000
   10       26.131374   0.000000
   11       28.143504   0.000000
   12       29.788138   0.000000
 
  0.2105263E+00  0.2105263E+00  0.2105263E+00  0.1000000E-01
    1       -2.938244   1.000000
    2        0.719390   1.000000
    3        1.265463   1.000000
    4        1.265463   1.000000
    5        2.559110   1.000000
    6        2.559110   1.000000
    7       18.687310   0.000000
    8       22.214882   0.000000
    9       26.119113   0.000000
   10       26.119113   0.000000
   11       28.153268   0.000000
   12       30.151860   0.000000
 
  0.1842105E+00  0.1842105E+00  0.1842105E+00  0.1000000E-01
    1       -3.226888   1.000000
    2        0.718853   1.000000
    3        1.245933   1.000000
    4        1.245933   1.000000
    5        2.505518   1.000000
    6        2.505518   1.000000
    7       19.690063   0.000000
    8       22.195833   0.000000
    9       25.995967   0.000000
   10       25.995967   0.000000
   11       28.397221   0.000000
   12       30.663206   0.000000
 
  0.1578947E+00  0.1578947E+00  0.1578947E+00  0.1000000E-01
    1       -3.499641   1.000000
    2        0.748695   1.000000
    3        1.205030   1.000000
    4        1.205030   1.000000
    5        2.478434   1.000000
    6        2.478434   1.000000
    7       20.622557   0.000000
    8       22.123755   0.000000
    9       25.810600   0.000000
   10       25.810600   0.000000
   11       28.841751   0.000000
   12       31.254829   0.000000
 
  0.1315789E+00  0.1315789E+00  0.1315789E+00  0.1000000E-01
    1       -3.744536   1.000000
    2        0.794544   1.000000
    3        1.149125   1.000000
    4        1.149125   1.000000
    5        2.473086   1.000000
    6        2.473086   1.000000
    7       21.317193   0.000000
    8       22.196937   0.000000
    9       25.603307   0.000000
   10       25.603307   0.000000
   11       29.418281   0.000000
   12       31.861788   0.000000
 
  0.1052632E+00  0.1052632E+00  0.1052632E+00  0.1000000E-01
    1       -3.953263   1.000000
    2        0.846138   1.000000
    3        1.092097   1.000000
    4        1.092097   1.000000
    5        2.486193   1.000000
    6        2.486193   1.000000
    7       21.433013   0.000000
    8       22.789820   0.000000
    9       25.411355   0.000000
   10       25.411355   0.000000
   11       29.991493   0.000000
   12       32.470113   0.000000
 
  0.7894737E-01  0.7894737E-01  0.7894737E-01  0.1000000E-01
    1       -4.120324   1.000000
    2        0.895327   1.000000
    3        1.039977   1.000000
    4        1.039977   1.000000
    5        2.503008   1.000000
    6        2.503008   1.000000
    7       21.319788   0.000000
    8       23.563258   0.000000
    9       25.247509   0.000000
   10       25.247509   0.000000
   11       30.263647   0.000000
   12       32.739703   0.000000
 
  0.5263158E-01  0.5263158E-01  0.5263158E-01  0.1000000E-01
    1       -4.241925   1.000000
    2        0.930815   1.000000
    3        0.998743   1.000000
    4        0.998743   1.000000
    5        2.518574   1.000000
    6        2.518574   1.000000
    7       21.196940   0.000000
    8       24.275182   0.000000
    9       25.123219   0.000000
   10       25.123219   0.000000
   11       30.010118   0.000000
   12       33.107030   0.000000
 
  0.2631579E-01  0.2631579E-01  0.2631579E-01  0.1000000E-01
    1       -4.315789   1.000000
    2        0.955178   1.000000
    3        0.972550   1.000000
    4        0.972550   1.000000
    5        2.530066   1.000000
    6        2.530066   1.000000
    7       21.115266   0.000000
    8       24.811371   0.000000
    9       25.046059   0.000000
   10       25.046059   0.000000
   11       29.608523   0.000000
   12       33.659158   0.000000
 
  0.0000000E+00  0.0000000E+00  0.0000000E+00  0.1000000E-01
    1       -4.340512   1.000000
    2        0.963576   1.000000
    3        0.963576   1.000000
    4        0.963579   1.000000
    5        2.534177   1.000000
    6        2.534177   1.000000
    7       21.086704   0.000000
    8       25.019907   0.000000
    9       25.019907   0.000000
   10       25.019907   0.000000
   11       29.427600   0.000000
   12       33.915668   0.000000
 
  0.0000000E+00  0.0000000E+00  0.0000000E+00  0.1000000E-01
    1       -4.340512   1.000000
    2        0.963576   1.000000
    3        0.963576   1.000000
    4        0.963579   1.000000
    5        2.534177   1.000000
    6        2.534177   1.000000
    7       21.086704   0.000000
    8       25.019907   0.000000
    9       25.019907   0.000000
   10       25.019907   0.000000
   11       29.427600   0.000000
   12       33.915668   0.000000
 
  0.2631579E-01  0.0000000E+00  0.2631579E-01  0.1000000E-01
    1       -4.307530   1.000000
    2        0.946082   1.000000
    3        0.978741   1.000000
    4        0.978743   1.000000
    5        2.515565   1.000000
    6        2.541725   1.000000
    7       21.125075   0.000000
    8       24.865822   0.000000
    9       24.990416   0.000000
   10       24.990416   0.000000
   11       29.676472   0.000000
   12       33.564005   0.000000
 
  0.5263158E-01  0.0000000E+00  0.5263158E-01  0.1000000E-01
    1       -4.208935   1.000000
    2        0.894422   1.000000
    3        1.024130   1.000000
    4        1.024132   1.000000
    5        2.460798   1.000000
    6        2.564191   1.000000
    7       21.238682   0.000000
    8       24.489785   0.000000
    9       24.894145   0.000000
   10       24.894145   0.000000
   11       30.326401   0.000000
   12       32.917473   0.000000
 
  0.7894737E-01  0.0000000E+00  0.7894737E-01  0.1000000E-01
    1       -4.046273   1.000000
    2        0.811303   1.000000
    3        1.100901   1.000000
    4        1.100903   1.000000
    5        2.374860   1.000000
    6        2.601109   1.000000
    7       21.424451   0.000000
    8       24.033776   0.000000
    9       24.712968   0.000000
   10       24.712969   0.000000
   11       31.162398   0.000000
   12       32.317926   0.000000
 
  0.1052632E+00  0.0000000E+00  0.1052632E+00  0.1000000E-01
    1       -3.822153   1.000000
    2        0.699470   1.000000
    3        1.204405   1.000000
    4        1.204407   1.000000
    5        2.251109   1.000000
    6        2.651690   1.000000
    7       21.672555   0.000000
    8       23.585959   0.000000
    9       24.413574   0.000000
   10       24.413575   0.000000
   11       31.299534   0.000000
   12       31.848554   0.000000
 
  0.1315789E+00  0.0000000E+00  0.1315789E+00  0.1000000E-01
    1       -3.540883   1.000000
    2        0.564186   1.000000
    3        1.336886   1.000000
    4        1.336888   1.000000
    5        2.112052   1.000000
    6        2.714818   1.000000
    7       21.974871   0.000000
    8       23.190080   0.000000
    9       23.980144   0.000000
   10       23.980145   0.000000
   11       29.997575   0.000000
   12       31.584461   0.000000
 
  0.1578947E+00  0.0000000E+00  0.1578947E+00  0.1000000E-01
    1       -3.209263   1.000000
    2        0.410704   1.000000
    3        1.497029   1.000000
    4        1.497031   1.000000
    5        1.963903   1.000000
    6        2.791736   1.000000
    7       22.330304   0.000000
    8       22.864559   0.000000
    9       23.420761   0.000000
   10       23.420761   0.000000
   11       28.453527   0.000000
   12       31.539007   0.000000
 
  0.1842105E+00  0.0000000E+00  0.1842105E+00  0.1000000E-01
    1       -2.838036   1.000000
    2        0.243457   1.000000
    3        1.681652   1.000000
    4        1.681655   1.000000
    5        1.821589   1.000000
    6        2.875004   1.000000
    7       22.612998   0.000000
    8       22.706042   0.000000
    9       22.746506   0.000000
   10       22.746507   0.000000
   11       26.869206   0.000000
   12       31.692643   0.000000
 
  0.2105263E+00  0.0000000E+00  0.2105263E+00  0.1000000E-01
    1       -2.444516   1.000000
    2        0.069053   1.000000
    3        1.707956   1.000000
    4        1.889761   1.000000
    5        1.889764   1.000000
    6        2.965779   1.000000
    7       21.998032   0.000000
    8       21.998033   0.000000
    9       22.429929   0.000000
   10       23.098405   0.000000
   11       25.290264   0.000000
   12       32.025900   0.000000
 
  0.2368421E+00  0.0000000E+00  0.2368421E+00  0.1000000E-01
    1       -2.056121   1.000000
    2       -0.107308   1.000000
    3        1.655484   1.000000
    4        2.118518   1.000000
    5        2.118521   1.000000
    6        3.061832   1.000000
    7       21.209895   0.000000
    8       21.209896   0.000000
    9       22.281970   0.000000
   10       23.494255   0.000000
   11       23.763321   0.000000
   12       32.512047   0.000000
 
  0.2631579E+00  0.0000000E+00  0.2631579E+00  0.1000000E-01
    1       -1.712627   1.000000
    2       -0.280781   1.000000
    3        1.708441   1.000000
    4        2.364282   1.000000
    5        2.364284   1.000000
    6        3.160698   1.000000
    7       20.411553   0.000000
    8       20.411554   0.000000
    9       21.819193   0.000000
   10       22.641920   0.000000
   11       23.881259   0.000000
   12       33.128722   0.000000
 
  0.2894737E+00  0.0000000E+00  0.2894737E+00  0.1000000E-01
    1       -1.457735   1.000000
    2       -0.447022   1.000000
    3        1.914229   1.000000
    4        2.622332   1.000000
    5        2.622335   1.000000
    6        3.259694   1.000000
    7       19.627036   0.000000
    8       19.627037   0.000000
    9       20.490240   0.000000
   10       22.475989   0.000000
   11       24.248422   0.000000
   12       33.858819   0.000000
 
  0.3157895E+00  0.0000000E+00  0.3157895E+00  0.1000000E-01
    1       -1.314494   1.000000
    2       -0.602193   1.000000
    3        2.299467   1.000000
    4        2.887993   1.000000
    5        2.887996   1.000000
    6        3.356225   1.000000
    7       18.877676   0.000000
    8       18.877677   0.000000
    9       19.046936   0.000000
   10       22.525416   0.000000
   11       24.586587   0.000000
   12       34.689987   0.000000
 
  0.3421053E+00  0.0000000E+00  0.3421053E+00  0.1000000E-01
    1       -1.270668   1.000000
    2       -0.742973   1.000000
    3        2.848044   1.000000
    4        3.150981   1.000000
    5        3.150985   1.000000
    6        3.447138   1.000000
    7       17.621197   0.000000
    8       18.177828   0.000000
    9       18.177829   0.000000
   10       22.620380   0.000000
   11       24.888659   0.000000
   12       35.611574   0.000000
 
  0.3684211E+00  0.0000000E+00  0.3684211E+00  0.1000000E-01
    1       -1.290978   1.000000
    2       -0.866593   1.000000
    3        3.403906   1.000000
    4        3.403910   1.000000
    5        3.523213   1.000000
    6        3.529882   1.000000
    7       16.247697   0.000000
    8       17.545967   0.000000
    9       17.545968   0.000000
   10       22.740463   0.000000
   11       25.149504   0.000000
   12       36.539223   0.000000
 
  0.3947368E+00  0.0000000E+00  0.3947368E+00  0.1000000E-01
    1       -1.342001   1.000000
    2       -0.970744   1.000000
    3        3.601882   1.000000
    4        3.636131   1.000000
    5        3.636135   1.000000
    6        4.281116   1.000000
    7       14.945312   0.000000
    8       16.998084   0.000000
    9       16.998085   0.000000
   10       22.867925   0.000000
   11       25.365751   0.000000
   12       36.113052   0.000000
 
  0.4210526E+00  0.0000000E+00  0.4210526E+00  0.1000000E-01
    1       -1.400125   1.000000
    2       -1.053591   1.000000
    3        3.660870   1.000000
    4        3.835763   1.000000
    5        3.835766   1.000000
    6        5.074344   1.000000
    7       13.742903   0.000000
    8       16.549924   0.000000
    9       16.549925   0.000000
   10       22.987270   0.000000
   11       25.535356   0.000000
   12       35.827605   0.000000
 
  0.4473684E+00  0.0000000E+00  0.4473684E+00  0.1000000E-01
    1       -1.450220   1.000000
    2       -1.113741   1.000000
    3        3.704844   1.000000
    4        3.990563   1.000000
    5        3.990567   1.000000
    6        5.835499   1.000000
    7       12.696216   0.000000
    8       16.216411   0.000000
    9       16.216412   0.000000
   10       23.084772   0.000000
   11       25.657220   0.000000
   12       35.620751   0.000000
 
  0.4736842E+00  0.0000000E+00  0.4736842E+00  0.1000000E-01
    1       -1.482952   1.000000
    2       -1.150110   1.000000
    3        3.733611   1.000000
    4        4.096118   1.000000
    5        4.096122   1.000000
    6        6.441047   1.001366
    7       11.924847  -0.000000
    8       16.010442   0.000000
    9       16.010442   0.000000
   10       23.157374   0.000000
   11       25.735780   0.000000
   12       35.496070   0.000000
 
  0.5000000E+00  0.0000000E+00  0.5000000E+00  0.1000000E-01
    1       -1.494883   1.000000
    2       -1.162355   1.000000
    3        3.739287   1.000000
    4        4.125266   1.000000
    5        4.125270   1.000000
    6        6.686829   1.035446
    7       11.621066  -0.000000
    8       15.940557   0.000000
    9       15.940558   0.000000
   10       23.172625   0.000000
   11       25.759930   0.000000
   12       35.448216   0.000000
 
  0.5000000E+00  0.0000000E+00  0.5000000E+00  0.1000000E-01
    1       -1.494883   1.000000
    2       -1.162355   1.000000
    3        3.739287   1.000000
    4        4.125266   1.000000
    5        4.125270   1.000000
    6        6.686829   1.035446
    7       11.621066  -0.000000
    8       15.940557   0.000000
    9       15.940558   0.000000
   10       23.172625   0.000000
   11       25.759930   0.000000
   12       35.448218   0.000000
 
  0.5000000E+00  0.1315789E-01  0.5131579E+00  0.1000000E-01
    1       -1.489232   1.000000
    2       -1.157733   1.000000
    3        3.732543   1.000000
    4        4.089164   1.000000
    5        4.125302   1.000000
    6        6.728563   1.027537
    7       11.612192  -0.000000
    8       15.927436   0.000000
    9       15.933282   0.000000
   10       23.209553   0.000000
   11       25.769722   0.000000
   12       35.427425   0.000000
 
  0.5000000E+00  0.2631579E-01  0.5263158E+00  0.1000000E-01
    1       -1.472337   1.000000
    2       -1.143866   1.000000
    3        3.713881   1.000000
    4        3.990624   1.000000
    5        4.125396   1.000000
    6        6.847443   0.829683
    7       11.585965  -0.000000
    8       15.888178   0.000000
    9       15.912149   0.000000
   10       23.319241   0.000000
   11       25.799110   0.000000
   12       35.366733   0.000000
 
  0.5000000E+00  0.3947368E-01  0.5394737E+00  0.1000000E-01
    1       -1.444585   1.000000
    2       -1.120880   1.000000
    3        3.676864   1.000000
    4        3.837350   1.000000
    5        4.125547   1.000000
    6        7.028199   0.145029
    7       11.542290  -0.000000
    8       15.823081   0.000000
    9       15.878951   0.000000
   10       23.495104   0.000000
   11       25.844847   0.000000
   12       35.255306   0.000000
 
  0.5000000E+00  0.5263158E-01  0.5526316E+00  0.1000000E-01
    1       -1.405896   1.000000
    2       -1.088572   1.000000
    3        3.629647   1.000000
    4        3.649456   1.000000
    5        4.125752   1.000000
    6        7.254703  -0.022806
    7       11.485248  -0.000000
    8       15.732660   0.000000
    9       15.836339   0.000000
   10       23.738949   0.000000
   11       25.913119   0.000000