       N       E                     dE             d eps       ncg     rms          rms(c)
DAV:   1     0.348967872623E+02    0.34897E+02   -0.34946E+03  2884   0.425E+02
DAV:   2    -0.349056973167E+01   -0.38387E+02   -0.35282E+02  2844   0.148E+02
DAV:   3    -0.384396981806E+01   -0.35340E+00   -0.35328E+00  2856   0.148E+01
DAV:   4    -0.384492007380E+01   -0.95026E-03   -0.95023E-03  2844   0.798E-01
DAV:   5    -0.384492701262E+01   -0.69388E-05   -0.69380E-05  2480   0.659E-02
DAV:   6    -0.384492725136E+01   -0.23874E-06   -0.23894E-06  2044   0.117E-02
   1 F= -.38449273E+01 E0= -.38451336E+01  d E =0.619127E-03
