 vasp.5.4.4.18Apr17-6-g9f103f2a35 (build May 18 2018 14:42:58) complex          
  
 executed on             LinuxIFC date 2020.06.30  13:47:35
 running on    4 total cores
 distrk:  each k-point on    4 cores,    1 groups
 distr:  one band on NCORES_PER_BAND=   1 cores,    4 groups


--------------------------------------------------------------------------------------------------------


 INCAR:
 POTCAR:   PAW Au 04Feb1998                       
 POTCAR:   PAW Au 04Feb1998                       
   VRHFIN =Au: s1d10                                                            
   LEXCH  = CA                                                                  
   EATOM  =   929.4667 eV,   68.3139 Ry                                         
                                                                                
   TITEL  = PAW Au 04Feb1998                                                    
   LULTRA =        F    use ultrasoft PP ?                                      
   IUNSCR =        1    unscreen: 0-lin 1-nonlin 2-no                           
   RPACOR =    2.330    partial core radius                                     
   POMASS =  196.966; ZVAL   =   11.000    mass and valenz                      
   RCORE  =    2.500    outmost cutoff radius                                   
   RWIGS  =    2.840; RWIGS  =    1.503    wigner-seitz radius (au A)           
   ENMAX  =  229.869; ENMIN  =  172.402 eV                                      
   RCLOC  =    1.964    cutoff for local pot                                    
   LCOR   =        T    correct aug charges                                     
   LPAW   =        T    paw PP                                                  
   EAUG   =  356.670                                                            
   DEXC   =    -.020                                                            
   RMAX   =    3.041    core radius for proj-oper                               
   RDEP   =    2.598    core radius for depl-charge                             
   QCUT   =   -4.110; QGAM   =    8.221    optimization parameters              
                                                                                
   Description                                                                  
     l     E      TYP  RCUT    TYP  RCUT                                        
     2   .000     23  2.500                                                     
     2   .000     23  2.500                                                     
     0   .000     23  2.500                                                     
     0   .000     23  2.500                                                     
     1  -.200     23  2.500                                                     
     1   .000     23  2.500                                                     
     3   .000      7   .000                                                     
  local pseudopotential read in
  partial core-charges read in
  atomic valenz-charges read in
  non local Contribution for L=           2  read in
    real space projection operators read in
  non local Contribution for L=           2  read in
    real space projection operators read in
  non local Contribution for L=           0  read in
    real space projection operators read in
  non local Contribution for L=           0  read in
    real space projection operators read in
  non local Contribution for L=           1  read in
    real space projection operators read in
  non local Contribution for L=           1  read in
    real space projection operators read in
    PAW grid and wavefunctions read in
 
   number of l-projection  operators is LMAX  =           6
   number of lm-projection operators is LMMAX =          18
 
 PAW Au 04Feb1998                       :
 energy of atom  1       EATOM= -929.4667
 kinetic energy error for atom=    0.0704 (will be added to EATOM!!)
 
 
 POSCAR: Au bulk FCC                             
  positions in direct lattice
  No initial velocities read in
 exchange correlation table for  LEXCH =        2
   RHO(1)=    0.500       N(1)  =     2000
   RHO(2)=  100.500       N(2)  =     4000
 


--------------------------------------------------------------------------------------------------------


 ion  position               nearest neighbor table
   1  0.000  0.000  0.000-
 
  LATTYP: Found a face centered cubic cell.
 ALAT       =     4.0637900000
  
  Lattice vectors:
  
 A1 = (   0.0000000000,   2.0318950000,   2.0318950000)
 A2 = (   2.0318950000,   0.0000000000,   2.0318950000)
 A3 = (   2.0318950000,   2.0318950000,   0.0000000000)


Analysis of symmetry for initial positions (statically):
=====================================================================
 Subroutine PRICEL returns:
 Original cell was already a primitive cell.
 

 Routine SETGRP: Setting up the symmetry group for a 
 face centered cubic supercell.


 Subroutine GETGRP returns: Found 48 space group operations
 (whereof 48 operations were pure point group operations)
 out of a pool of 48 trial point group operations.


The static configuration has the point symmetry O_h .


Analysis of symmetry for dynamics (positions and initial velocities):
=====================================================================
 Subroutine PRICEL returns:
 Original cell was already a primitive cell.
 

 Routine SETGRP: Setting up the symmetry group for a 
 face centered cubic supercell.


 Subroutine GETGRP returns: Found 48 space group operations
 (whereof 48 operations were pure point group operations)
 out of a pool of 48 trial point group operations.


The dynamic configuration has the point symmetry O_h .


 Subroutine INISYM returns: Found 48 space group operations
 (whereof 48 operations are pure point group operations),
 and found     1 'primitive' translations

 
 
 KPOINTS: K-points along high symmetry lines for F
  interpolating k-points between supplied coordinates
  k-points in cartesian coordinates
Space group operators:
 irot       det(A)        alpha          n_x          n_y          n_z        tau_x        tau_y        tau_z
    1     1.000000     0.000000     1.000000     0.000000     0.000000     0.000000     0.000000     0.000000
    2    -1.000000     0.000000     1.000000     0.000000     0.000000     0.000000     0.000000     0.000000
    3     1.000000   120.000000    -0.577350    -0.577350    -0.577350     0.000000     0.000000     0.000000
    4    -1.000000   120.000000    -0.577350    -0.577350    -0.577350     0.000000     0.000000     0.000000
    5     1.000000   120.000000     0.577350     0.577350     0.577350     0.000000     0.000000     0.000000
    6    -1.000000   120.000000     0.577350     0.577350     0.577350     0.000000     0.000000     0.000000
    7     1.000000    90.000000     0.000000     0.000000    -1.000000     0.000000     0.000000     0.000000
    8    -1.000000    90.000000     0.000000     0.000000    -1.000000     0.000000     0.000000     0.000000
    9     1.000000   180.000000     0.000000     0.707107     0.707107     0.000000     0.000000     0.000000
   10    -1.000000   180.000000     0.000000     0.707107     0.707107     0.000000     0.000000     0.000000
   11     1.000000    90.000000     0.000000     1.000000     0.000000     0.000000     0.000000     0.000000
   12    -1.000000    90.000000     0.000000     1.000000     0.000000     0.000000     0.000000     0.000000
   13     1.000000   180.000000     0.000000     0.000000     1.000000     0.000000     0.000000     0.000000
   14    -1.000000   180.000000     0.000000     0.000000     1.000000     0.000000     0.000000     0.000000
   15     1.000000   120.000000    -0.577350     0.577350     0.577350     0.000000     0.000000     0.000000
   16    -1.000000   120.000000    -0.577350     0.577350     0.577350     0.000000     0.000000     0.000000
   17     1.000000   120.000000    -0.577350     0.577350    -0.577350     0.000000     0.000000     0.000000
   18    -1.000000   120.000000    -0.577350     0.577350    -0.577350     0.000000     0.000000     0.000000
   19     1.000000    90.000000     0.000000     0.000000     1.000000     0.000000     0.000000     0.000000
   20    -1.000000    90.000000     0.000000     0.000000     1.000000     0.000000     0.000000     0.000000
   21     1.000000    90.000000    -1.000000     0.000000     0.000000     0.000000     0.000000     0.000000
   22    -1.000000    90.000000    -1.000000     0.000000     0.000000     0.000000     0.000000     0.000000
   23     1.000000   180.000000     0.707107     0.000000     0.707107     0.000000     0.000000     0.000000
   24    -1.000000   180.000000     0.707107     0.000000     0.707107     0.000000     0.000000     0.000000
   25     1.000000   120.000000     0.577350    -0.577350     0.577350     0.000000     0.000000     0.000000
   26    -1.000000   120.000000     0.577350    -0.577350     0.577350     0.000000     0.000000     0.000000
   27     1.000000   120.000000    -0.577350    -0.577350     0.577350     0.000000     0.000000     0.000000
   28    -1.000000   120.000000    -0.577350    -0.577350     0.577350     0.000000     0.000000     0.000000
   29     1.000000   180.000000     1.000000     0.000000     0.000000     0.000000     0.000000     0.000000
   30    -1.000000   180.000000     1.000000     0.000000     0.000000     0.000000     0.000000     0.000000
   31     1.000000    90.000000     0.000000    -1.000000     0.000000     0.000000     0.000000     0.000000
   32    -1.000000    90.000000     0.000000    -1.000000     0.000000     0.000000     0.000000     0.000000
   33     1.000000   180.000000     0.707107     0.707107     0.000000     0.000000     0.000000     0.000000
   34    -1.000000   180.000000     0.707107     0.707107     0.000000     0.000000     0.000000     0.000000
   35     1.000000    90.000000     1.000000     0.000000     0.000000     0.000000     0.000000     0.000000
   36    -1.000000    90.000000     1.000000     0.000000     0.000000     0.000000     0.000000     0.000000
   37     1.000000   120.000000     0.577350    -0.577350    -0.577350     0.000000     0.000000     0.000000
   38    -1.000000   120.000000     0.577350    -0.577350    -0.577350     0.000000     0.000000     0.000000
   39     1.000000   180.000000     0.000000     1.000000     0.000000     0.000000     0.000000     0.000000
   40    -1.000000   180.000000     0.000000     1.000000     0.000000     0.000000     0.000000     0.000000
   41     1.000000   120.000000     0.577350     0.577350    -0.577350     0.000000     0.000000     0.000000
   42    -1.000000   120.000000     0.577350     0.577350    -0.577350     0.000000     0.000000     0.000000
   43     1.000000   180.000000     0.000000    -0.707107     0.707107     0.000000     0.000000     0.000000
   44    -1.000000   180.000000     0.000000    -0.707107     0.707107     0.000000     0.000000     0.000000
   45     1.000000   180.000000     0.707107    -0.707107     0.000000     0.000000     0.000000     0.000000
   46    -1.000000   180.000000     0.707107    -0.707107     0.000000     0.000000     0.000000     0.000000
   47     1.000000   180.000000     0.707107     0.000000    -0.707107     0.000000     0.000000     0.000000
   48    -1.000000   180.000000     0.707107     0.000000    -0.707107     0.000000     0.000000     0.000000


--------------------------------------------------------------------------------------------------------




 Dimension of arrays:
   k-points           NKPTS =    100   k-points in BZ     NKDIM =    100   number of bands    NBANDS=     12
   number of dos      NEDOS =    301   number of ions     NIONS =      1
   non local maximal  LDIM  =      6   non local SUM 2l+1 LMDIM =     18
   total plane-waves  NPLWV =   1728
   max r-space proj   IRMAX =      1   max aug-charges    IRDMAX=   6497
   dimension x,y,z NGX =    12 NGY =   12 NGZ =   12
   dimension x,y,z NGXF=    24 NGYF=   24 NGZF=   24
   support grid    NGXF=    24 NGYF=   24 NGZF=   24
   ions per type =               1
   NGX,Y,Z   is equivalent  to a cutoff of   6.94,  6.94,  6.94 a.u.
   NGXF,Y,Z  is equivalent  to a cutoff of  13.89, 13.89, 13.89 a.u.

 SYSTEM =  FCC Au                                  
 POSCAR =  Au bulk FCC                             

 Startparameter for this run:
   NWRITE =      2    write-flag & timer
   PREC   = normal    normal or accurate (medium, high low for compatibility)
   ISTART =      0    job   : 0-new  1-cont  2-samecut
   ICHARG =     11    charge: 1-file 2-atom 10-const
   ISPIN  =      1    spin polarized calculation?
   LNONCOLLINEAR =      F non collinear calculations
   LSORBIT =      F    spin-orbit coupling
   INIWAV =      1    electr: 0-lowe 1-rand  2-diag
   LASPH  =      F    aspherical Exc in radial PAW
   METAGGA=      F    non-selfconsistent MetaGGA calc.

 Electronic Relaxation 1
   ENCUT  =  230.0 eV  16.90 Ry    4.11 a.u.   3.55  3.55  3.55*2*pi/ulx,y,z
   ENINI  =  230.0     initial cutoff
   ENAUG  =  356.7 eV  augmentation charge cutoff
   NELM   =     60;   NELMIN=  2; NELMDL= -5     # of ELM steps 
   EDIFF  = 0.1E-03   stopping-criterion for ELM
   LREAL  =      F    real-space projection
   NLSPLINE    = F    spline interpolate recip. space projectors
   LCOMPAT=      F    compatible to vasp.4.4
   GGA_COMPAT  = T    GGA compatible to vasp.4.4-vasp.4.6
   LMAXPAW     = -100 max onsite density
   LMAXMIX     =    2 max onsite mixed and CHGCAR
   VOSKOWN=      0    Vosko Wilk Nusair interpolation
   ROPT   =    0.00000
 Ionic relaxation
   EDIFFG = 0.1E-02   stopping-criterion for IOM
   NSW    =      0    number of steps for IOM
   NBLOCK =      1;   KBLOCK =      1    inner block; outer block 
   IBRION =     -1    ionic relax: 0-MD 1-quasi-New 2-CG
   NFREE  =      0    steps in history (QN), initial steepest desc. (CG)
   ISIF   =      2    stress and relaxation
   IWAVPR =     10    prediction:  0-non 1-charg 2-wave 3-comb
   ISYM   =      2    0-nonsym 1-usesym 2-fastsym
   LCORR  =      T    Harris-Foulkes like correction to forces

   POTIM  = 0.5000    time-step for ionic-motion
   TEIN   =    0.0    initial temperature
   TEBEG  =    0.0;   TEEND  =   0.0 temperature during run
   SMASS  =  -3.00    Nose mass-parameter (am)
   estimated Nose-frequenzy (Omega)   =  0.10E-29 period in steps =****** mass=  -0.189E-27a.u.
   SCALEE = 1.0000    scale energy and forces
   NPACO  =    256;   APACO  = 16.0  distance and # of slots for P.C.
   PSTRESS=    0.0 pullay stress

  Mass of Ions in am
   POMASS = 196.97
  Ionic Valenz
   ZVAL   =  11.00
  Atomic Wigner-Seitz radii
   RWIGS  =   1.50
  virtual crystal weights 
   VCA    =   1.00
   NELECT =      11.0000    total number of electrons
   NUPDOWN=      -1.0000    fix difference up-down

 DOS related values:
   EMIN   =  10.00;   EMAX   =-10.00  energy-range for DOS
   EFERMI =   0.00
   ISMEAR =     1;   SIGMA  =   0.20  broadening in eV -4-tet -1-fermi 0-gaus

 Electronic relaxation 2 (details)
   IALGO  =     38    algorithm
   LDIAG  =      T    sub-space diagonalisation (order eigenvalues)
   LSUBROT=      F    optimize rotation matrix (better conditioning)
   TURBO    =      0    0=normal 1=particle mesh
   IRESTART =      0    0=no restart 2=restart with 2 vectors
   NREBOOT  =      0    no. of reboots
   NMIN     =      0    reboot dimension
   EREF     =   0.00    reference energy to select bands
   IMIX   =      4    mixing-type and parameters
     AMIX     =   0.40;   BMIX     =  1.00
     AMIX_MAG =   1.60;   BMIX_MAG =  1.00
     AMIN     =   0.10
     WC   =   100.;   INIMIX=   1;  MIXPRE=   1;  MAXMIX= -45

 Intra band minimization:
   WEIMIN = 0.0000     energy-eigenvalue tresh-hold
   EBREAK =  0.21E-05  absolut break condition
   DEPER  =   0.30     relativ break condition  

   TIME   =   0.40     timestep for ELM

  volume/ion in A,a.u.               =      16.78       113.22
  Fermi-wavevector in a.u.,A,eV,Ry     =   1.422202  2.687571 27.519921  2.022657
  Thomas-Fermi vector in A             =   2.542930
 
 Write flags
   LWAVE        =      T    write WAVECAR
   LDOWNSAMPLE  =      F    k-point downsampling of WAVECAR
   LCHARG       =      F    write CHGCAR
   LVTOT        =      F    write LOCPOT, total local potential
   LVHAR        =      F    write LOCPOT, Hartree potential only
   LELF         =      F    write electronic localiz. function (ELF)
   LORBIT       =      0    0 simple, 1 ext, 2 COOP (PROOUT), +10 PAW based schemes


 Dipole corrections
   LMONO  =      F    monopole corrections only (constant potential shift)
   LDIPOL =      F    correct potential (dipole corrections)
   IDIPOL =      0    1-x, 2-y, 3-z, 4-all directions 
   EPSILON=  1.0000000 bulk dielectric constant

 Exchange correlation treatment:
   GGA     =    --    GGA type
   LEXCH   =     2    internal setting for exchange type
   VOSKOWN=      0    Vosko Wilk Nusair interpolation
   LHFCALC =     F    Hartree Fock is set to
   LHFONE  =     F    Hartree Fock one center treatment
   AEXX    =    0.0000 exact exchange contribution

 Linear response parameters
   LEPSILON=     F    determine dielectric tensor
   LRPA    =     F    only Hartree local field effects (RPA)
   LNABLA  =     F    use nabla operator in PAW spheres
   LVEL    =     F    velocity operator in full k-point grid
   LINTERFAST=   F  fast interpolation
   KINTER  =     0    interpolate to denser k-point grid
   CSHIFT  =0.1000    complex shift for real part using Kramers Kronig
   OMEGAMAX=  -1.0    maximum frequency
   DEG_THRESHOLD= 0.2000000E-02 threshold for treating states as degnerate
   RTIME   =   -0.100 relaxation time in fs
  (WPLASMAI=    0.000 imaginary part of plasma frequency in eV, 0.658/RTIME)
   DFIELD  = 0.0000000 0.0000000 0.0000000 field for delta impulse in time
 
 Orbital magnetization related:
   ORBITALMAG=     F  switch on orbital magnetization
   LCHIMAG   =     F  perturbation theory with respect to B field
   DQ        =  0.001000  dq finite difference perturbation B field
   LLRAUG    =     F  two centre corrections for induced B field



--------------------------------------------------------------------------------------------------------


 Static calculation
 charge density and potential remain constant during run
 non-spin polarized calculation
 Variant of blocked Davidson
 Davidson routine will perform the subspace rotation
 perform sub-space diagonalisation
    after iterative eigenvector-optimisation
 no mixing
 using additional bands            6
 reciprocal scheme for non local part
 use partial core corrections
 calculate Harris-corrections to forces 
   (improved forces if not selfconsistent)
 use of overlap-Matrix (Vanderbilt PP)
 Methfessel and Paxton  Order N= 1 SIGMA  =   0.20


--------------------------------------------------------------------------------------------------------


  energy-cutoff  :      230.00
  volume of cell :       16.78
      direct lattice vectors                 reciprocal lattice vectors
     0.000000000  2.031895000  2.031895000    -0.246075708  0.246075708  0.246075708
     2.031895000  0.000000000  2.031895000     0.246075708 -0.246075708  0.246075708
     2.031895000  2.031895000  0.000000000     0.246075708  0.246075708 -0.246075708

  length of vectors
     2.873533466  2.873533466  2.873533466     0.426215628  0.426215628  0.426215628


 
 k-points in units of 2pi/SCALE and weight: K-points along high symmetry lines for F
   0.50000000  1.00000000  0.00000000       0.010
   0.50000000  0.97368421  0.02631579       0.010
   0.50000000  0.94736842  0.05263158       0.010
   0.50000000  0.92105263  0.07894737       0.010
   0.50000000  0.89473684  0.10526316       0.010
   0.50000000  0.86842105  0.13157895       0.010
   0.50000000  0.84210526  0.15789474       0.010
   0.50000000  0.81578947  0.18421053       0.010
   0.50000000  0.78947368  0.21052632       0.010
   0.50000000  0.76315789  0.23684211       0.010
   0.50000000  0.73684211  0.26315789       0.010
   0.50000000  0.71052632  0.28947368       0.010
   0.50000000  0.68421053  0.31578947       0.010
   0.50000000  0.65789474  0.34210526       0.010
   0.50000000  0.63157895  0.36842105       0.010
   0.50000000  0.60526316  0.39473684       0.010
   0.50000000  0.57894737  0.42105263       0.010
   0.50000000  0.55263158  0.44736842       0.010
   0.50000000  0.52631579  0.47368421       0.010
   0.50000000  0.50000000  0.50000000       0.010
   0.50000000  0.50000000  0.50000000       0.010
   0.47368421  0.47368421  0.47368421       0.010
   0.44736842  0.44736842  0.44736842       0.010
   0.42105263  0.42105263  0.42105263       0.010
   0.39473684  0.39473684  0.39473684       0.010
   0.36842105  0.36842105  0.36842105       0.010
   0.34210526  0.34210526  0.34210526       0.010
   0.31578947  0.31578947  0.31578947       0.010
   0.28947368  0.28947368  0.28947368       0.010
   0.26315789  0.26315789  0.26315789       0.010
   0.23684211  0.23684211  0.23684211       0.010
   0.21052632  0.21052632  0.21052632       0.010
   0.18421053  0.18421053  0.18421053       0.010
   0.15789474  0.15789474  0.15789474       0.010
   0.13157895  0.13157895  0.13157895       0.010
   0.10526316  0.10526316  0.10526316       0.010
   0.07894737  0.07894737  0.07894737       0.010
   0.05263158  0.05263158  0.05263158       0.010
   0.02631579  0.02631579  0.02631579       0.010
   0.00000000  0.00000000  0.00000000       0.010
   0.00000000  0.00000000  0.00000000       0.010
   0.00000000  0.05263158  0.00000000       0.010
   0.00000000  0.10526316  0.00000000       0.010
   0.00000000  0.15789474  0.00000000       0.010
   0.00000000  0.21052632  0.00000000       0.010
   0.00000000  0.26315789  0.00000000       0.010
   0.00000000  0.31578947  0.00000000       0.010
   0.00000000  0.36842105  0.00000000       0.010
   0.00000000  0.42105263  0.00000000       0.010
   0.00000000  0.47368421  0.00000000       0.010
   0.00000000  0.52631579  0.00000000       0.010
   0.00000000  0.57894737  0.00000000       0.010
   0.00000000  0.63157895  0.00000000       0.010
   0.00000000  0.68421053  0.00000000       0.010
   0.00000000  0.73684211  0.00000000       0.010
   0.00000000  0.78947368  0.00000000       0.010
   0.00000000  0.84210526  0.00000000       0.010
   0.00000000  0.89473684  0.00000000       0.010
   0.00000000  0.94736842  0.00000000       0.010
   0.00000000  1.00000000  0.00000000       0.010
   0.00000000  1.00000000  0.00000000       0.010
   0.02631579  1.00000000  0.00000000       0.010
   0.05263158  1.00000000  0.00000000       0.010
   0.07894737  1.00000000  0.00000000       0.010
   0.10526316  1.00000000  0.00000000       0.010
   0.13157895  1.00000000  0.00000000       0.010
   0.15789474  1.00000000  0.00000000       0.010
   0.18421053  1.00000000  0.00000000       0.010
   0.21052632  1.00000000  0.00000000       0.010
   0.23684211  1.00000000 -0.00000000       0.010
   0.26315789  1.00000000  0.00000000       0.010
   0.28947368  1.00000000  0.00000000       0.010
   0.31578947  1.00000000  0.00000000       0.010
   0.34210526  1.00000000  0.00000000       0.010
   0.36842105  1.00000000  0.00000000       0.010
   0.39473684  1.00000000  0.00000000       0.010
   0.42105263  1.00000000 -0.00000000       0.010
   0.44736842  1.00000000  0.00000000       0.010
   0.47368421  1.00000000  0.00000000       0.010
   0.50000000  1.00000000  0.00000000       0.010
   0.50000000  1.00000000  0.00000000       0.010
   0.51315789  0.98684211  0.00000000       0.010
   0.52631579  0.97368421  0.00000000       0.010
   0.53947368  0.96052632  0.00000000       0.010
   0.55263158  0.94736842  0.00000000       0.010
   0.56578947  0.93421053  0.00000000       0.010
   0.57894737  0.92105263  0.00000000       0.010
   0.59210526  0.90789474  0.00000000       0.010
   0.60526316  0.89473684  0.00000000       0.010
   0.61842105  0.88157895  0.00000000       0.010
   0.63157895  0.86842105  0.00000000       0.010
   0.64473684  0.85526316  0.00000000       0.010
   0.65789474  0.84210526  0.00000000       0.010
   0.67105263  0.82894737  0.00000000       0.010
   0.68421053  0.81578947  0.00000000       0.010
   0.69736842  0.80263158  0.00000000       0.010
   0.71052632  0.78947368  0.00000000       0.010
   0.72368421  0.77631579  0.00000000       0.010
   0.73684211  0.76315789  0.00000000       0.010
   0.75000000  0.75000000  0.00000000       0.010
 
 k-points in reciprocal lattice and weights: K-points along high symmetry lines for F
   0.50000000  0.25000000  0.75000000       0.010
   0.50000000  0.26315789  0.73684211       0.010
   0.50000000  0.27631579  0.72368421       0.010
   0.50000000  0.28947368  0.71052632       0.010
   0.50000000  0.30263158  0.69736842       0.010
   0.50000000  0.31578947  0.68421053       0.010
   0.50000000  0.32894737  0.67105263       0.010
   0.50000000  0.34210526  0.65789474       0.010
   0.50000000  0.35526316  0.64473684       0.010
   0.50000000  0.36842105  0.63157895       0.010
   0.50000000  0.38157895  0.61842105       0.010
   0.50000000  0.39473684  0.60526316       0.010
   0.50000000  0.40789474  0.59210526       0.010
   0.50000000  0.42105263  0.57894737       0.010
   0.50000000  0.43421053  0.56578947       0.010
   0.50000000  0.44736842  0.55263158       0.010
   0.50000000  0.46052632  0.53947368       0.010
   0.50000000  0.47368421  0.52631579       0.010
   0.50000000  0.48684211  0.51315789       0.010
   0.50000000  0.50000000  0.50000000       0.010
   0.50000000  0.50000000  0.50000000       0.010
   0.47368421  0.47368421  0.47368421       0.010
   0.44736842  0.44736842  0.44736842       0.010
   0.42105263  0.42105263  0.42105263       0.010
   0.39473684  0.39473684  0.39473684       0.010
   0.36842105  0.36842105  0.36842105       0.010
   0.34210526  0.34210526  0.34210526       0.010
   0.31578947  0.31578947  0.31578947       0.010
   0.28947368  0.28947368  0.28947368       0.010
   0.26315789  0.26315789  0.26315789       0.010
   0.23684211  0.23684211  0.23684211       0.010
   0.21052632  0.21052632  0.21052632       0.010
   0.18421053  0.18421053  0.18421053       0.010
   0.15789474  0.15789474  0.15789474       0.010
   0.13157895  0.13157895  0.13157895       0.010
   0.10526316  0.10526316  0.10526316       0.010
   0.07894737  0.07894737  0.07894737       0.010
   0.05263158  0.05263158  0.05263158       0.010
   0.02631579  0.02631579  0.02631579       0.010
   0.00000000  0.00000000  0.00000000       0.010
   0.00000000  0.00000000  0.00000000       0.010
   0.02631579  0.00000000  0.02631579       0.010
   0.05263158  0.00000000  0.05263158       0.010
   0.07894737  0.00000000  0.07894737       0.010
   0.10526316  0.00000000  0.10526316       0.010
   0.13157895  0.00000000  0.13157895       0.010
   0.15789474  0.00000000  0.15789474       0.010
   0.18421053  0.00000000  0.18421053       0.010
   0.21052632  0.00000000  0.21052632       0.010
   0.23684211  0.00000000  0.23684211       0.010
   0.26315789  0.00000000  0.26315789       0.010
   0.28947368  0.00000000  0.28947368       0.010
   0.31578947  0.00000000  0.31578947       0.010
   0.34210526  0.00000000  0.34210526       0.010
   0.36842105  0.00000000  0.36842105       0.010
   0.39473684  0.00000000  0.39473684       0.010
   0.42105263  0.00000000  0.42105263       0.010
   0.44736842  0.00000000  0.44736842       0.010
   0.47368421  0.00000000  0.47368421       0.010
   0.50000000  0.00000000  0.50000000       0.010
   0.50000000  0.00000000  0.50000000       0.010
   0.50000000  0.01315789  0.51315789       0.010
   0.50000000  0.02631579  0.52631579       0.010
   0.50000000  0.03947368  0.53947368       0.010
   0.50000000  0.05263158  0.55263158       0.010
   0.50000000  0.06578947  0.56578947       0.010
   0.50000000  0.07894737  0.57894737       0.010
   0.50000000  0.09210526  0.59210526       0.010
   0.50000000  0.10526316  0.60526316       0.010
   0.50000000  0.11842105  0.61842105       0.010
   0.50000000  0.13157895  0.63157895       0.010
   0.50000000  0.14473684  0.64473684       0.010
   0.50000000  0.15789474  0.65789474       0.010
   0.50000000  0.17105263  0.67105263       0.010
   0.50000000  0.18421053  0.68421053       0.010
   0.50000000  0.19736842  0.69736842       0.010
   0.50000000  0.21052632  0.71052632       0.010
   0.50000000  0.22368421  0.72368421       0.010
   0.50000000  0.23684211  0.73684211       0.010
   0.50000000  0.25000000  0.75000000       0.010
   0.50000000  0.25000000  0.75000000       0.010
   0.49342105  0.25657895  0.75000000       0.010
   0.48684211  0.26315789  0.75000000       0.010
   0.48026316  0.26973684  0.75000000       0.010
   0.47368421  0.27631579  0.75000000       0.010
   0.46710526  0.28289474  0.75000000       0.010
   0.46052632  0.28947368  0.75000000       0.010
   0.45394737  0.29605263  0.75000000       0.010
   0.44736842  0.30263158  0.75000000       0.010
   0.44078947  0.30921053  0.75000000       0.010
   0.43421053  0.31578947  0.75000000       0.010
   0.42763158  0.32236842  0.75000000       0.010
   0.42105263  0.32894737  0.75000000       0.010
   0.41447368  0.33552632  0.75000000       0.010
   0.40789474  0.34210526  0.75000000       0.010
   0.40131579  0.34868421  0.75000000       0.010
   0.39473684  0.35526316  0.75000000       0.010
   0.38815789  0.36184211  0.75000000       0.010
   0.38157895  0.36842105  0.75000000       0.010
   0.37500000  0.37500000  0.75000000       0.010
 
 position of ions in fractional coordinates (direct lattice) 
   0.00000000  0.00000000  0.00000000
 
 position of ions in cartesian coordinates  (Angst):
   0.00000000  0.00000000  0.00000000
 


--------------------------------------------------------------------------------------------------------


 k-point  1 :   0.5000 0.2500 0.7500  plane waves:     144
 k-point  2 :   0.5000 0.2632 0.7368  plane waves:     130
 k-point  3 :   0.5000 0.2763 0.7237  plane waves:     130
 k-point  4 :   0.5000 0.2895 0.7105  plane waves:     130
 k-point  5 :   0.5000 0.3026 0.6974  plane waves:     130
 k-point  6 :   0.5000 0.3158 0.6842  plane waves:     130
 k-point  7 :   0.5000 0.3289 0.6711  plane waves:     132
 k-point  8 :   0.5000 0.3421 0.6579  plane waves:     132
 k-point  9 :   0.5000 0.3553 0.6447  plane waves:     132
 k-point 10 :   0.5000 0.3684 0.6316  plane waves:     132
 k-point 11 :   0.5000 0.3816 0.6184  plane waves:     132
 k-point 12 :   0.5000 0.3947 0.6053  plane waves:     132
 k-point 13 :   0.5000 0.4079 0.5921  plane waves:     132
 k-point 14 :   0.5000 0.4211 0.5789  plane waves:     132
 k-point 15 :   0.5000 0.4342 0.5658  plane waves:     132
 k-point 16 :   0.5000 0.4474 0.5526  plane waves:     132
 k-point 17 :   0.5000 0.4605 0.5395  plane waves:     132
 k-point 18 :   0.5000 0.4737 0.5263  plane waves:     134
 k-point 19 :   0.5000 0.4868 0.5132  plane waves:     138
 k-point 20 :   0.5000 0.5000 0.5000  plane waves:     138
 k-point 21 :   0.5000 0.5000 0.5000  plane waves:     138
 k-point 22 :   0.4737 0.4737 0.4737  plane waves:     138
 k-point 23 :   0.4474 0.4474 0.4474  plane waves:     135
 k-point 24 :   0.4211 0.4211 0.4211  plane waves:     135
 k-point 25 :   0.3947 0.3947 0.3947  plane waves:     144
 k-point 26 :   0.3684 0.3684 0.3684  plane waves:     144
 k-point 27 :   0.3421 0.3421 0.3421  plane waves:     138
 k-point 28 :   0.3158 0.3158 0.3158  plane waves:     138
 k-point 29 :   0.2895 0.2895 0.2895  plane waves:     138
 k-point 30 :   0.2632 0.2632 0.2632  plane waves:     138
 k-point 31 :   0.2368 0.2368 0.2368  plane waves:     138
 k-point 32 :   0.2105 0.2105 0.2105  plane waves:     138
 k-point 33 :   0.1842 0.1842 0.1842  plane waves:     132
 k-point 34 :   0.1579 0.1579 0.1579  plane waves:     132
 k-point 35 :   0.1316 0.1316 0.1316  plane waves:     138
 k-point 36 :   0.1053 0.1053 0.1053  plane waves:     135
 k-point 37 :   0.0789 0.0789 0.0789  plane waves:     134
 k-point 38 :   0.0526 0.0526 0.0526  plane waves:     137
 k-point 39 :   0.0263 0.0263 0.0263  plane waves:     137
 k-point 40 :   0.0000 0.0000 0.0000  plane waves:     137
 k-point 41 :   0.0000 0.0000 0.0000  plane waves:     137
 k-point 42 :   0.0263 0.0000 0.0263  plane waves:     137
 k-point 43 :   0.0526 0.0000 0.0526  plane waves:     137
 k-point 44 :   0.0789 0.0000 0.0789  plane waves:     133
 k-point 45 :   0.1053 0.0000 0.1053  plane waves:     137
 k-point 46 :   0.1316 0.0000 0.1316  plane waves:     137
 k-point 47 :   0.1579 0.0000 0.1579  plane waves:     133
 k-point 48 :   0.1842 0.0000 0.1842  plane waves:     133
 k-point 49 :   0.2105 0.0000 0.2105  plane waves:     133
 k-point 50 :   0.2368 0.0000 0.2368  plane waves:     133
 k-point 51 :   0.2632 0.0000 0.2632  plane waves:     133
 k-point 52 :   0.2895 0.0000 0.2895  plane waves:     133
 k-point 53 :   0.3158 0.0000 0.3158  plane waves:     129
 k-point 54 :   0.3421 0.0000 0.3421  plane waves:     129
 k-point 55 :   0.3684 0.0000 0.3684  plane waves:     129
 k-point 56 :   0.3947 0.0000 0.3947  plane waves:     129
 k-point 57 :   0.4211 0.0000 0.4211  plane waves:     129
 k-point 58 :   0.4474 0.0000 0.4474  plane waves:     129
 k-point 59 :   0.4737 0.0000 0.4737  plane waves:     121
 k-point 60 :   0.5000 0.0000 0.5000  plane waves:     126
 k-point 61 :   0.5000 0.0000 0.5000  plane waves:     126
 k-point 62 :   0.5000 0.0132 0.5132  plane waves:     126
 k-point 63 :   0.5000 0.0263 0.5263  plane waves:     124
 k-point 64 :   0.5000 0.0395 0.5395  plane waves:     126
 k-point 65 :   0.5000 0.0526 0.5526  plane waves:     126
 k-point 66 :   0.5000 0.0658 0.5658  plane waves:     130
 k-point 67 :   0.5000 0.0789 0.5789  plane waves:     130
 k-point 68 :   0.5000 0.0921 0.5921  plane waves:     130
 k-point 69 :   0.5000 0.1053 0.6053  plane waves:     130
 k-point 70 :   0.5000 0.1184 0.6184  plane waves:     130
 k-point 71 :   0.5000 0.1316 0.6316  plane waves:     130
 k-point 72 :   0.5000 0.1447 0.6447  plane waves:     130
 k-point 73 :   0.5000 0.1579 0.6579  plane waves:     130
 k-point 74 :   0.5000 0.1711 0.6711  plane waves:     130
 k-point 75 :   0.5000 0.1842 0.6842  plane waves:     130
 k-point 76 :   0.5000 0.1974 0.6974  plane waves:     130
 k-point 77 :   0.5000 0.2105 0.7105  plane waves:     130
 k-point 78 :   0.5000 0.2237 0.7237  plane waves:     130
 k-point 79 :   0.5000 0.2368 0.7368  plane waves:     130
 k-point 80 :   0.5000 0.2500 0.7500  plane waves:     144
 k-point 81 :   0.5000 0.2500 0.7500  plane waves:     144
 k-point 82 :   0.4934 0.2566 0.7500  plane waves:     131
 k-point 83 :   0.4868 0.2632 0.7500  plane waves:     131
 k-point 84 :   0.4803 0.2697 0.7500  plane waves:     131
 k-point 85 :   0.4737 0.2763 0.7500  plane waves:     131
 k-point 86 :   0.4671 0.2829 0.7500  plane waves:     131
 k-point 87 :   0.4605 0.2895 0.7500  plane waves:     131
 k-point 88 :   0.4539 0.2961 0.7500  plane waves:     131
 k-point 89 :   0.4474 0.3026 0.7500  plane waves:     131
 k-point 90 :   0.4408 0.3092 0.7500  plane waves:     131
 k-point 91 :   0.4342 0.3158 0.7500  plane waves:     131
 k-point 92 :   0.4276 0.3224 0.7500  plane waves:     131
 k-point 93 :   0.4211 0.3289 0.7500  plane waves:     132
 k-point 94 :   0.4145 0.3355 0.7500  plane waves:     132
 k-point 95 :   0.4079 0.3421 0.7500  plane waves:     132
 k-point 96 :   0.4013 0.3487 0.7500  plane waves:     132
 k-point 97 :   0.3947 0.3553 0.7500  plane waves:     132
 k-point 98 :   0.3882 0.3618 0.7500  plane waves:     132
 k-point 99 :   0.3816 0.3684 0.7500  plane waves:     134
 k-point ** :   0.3750 0.3750 0.7500  plane waves:     134

 maximum and minimum number of plane-waves per node :       144      121

 maximum number of plane-waves:       144
 maximum index in each direction: 
   IXMAX=    3   IYMAX=    3   IZMAX=    3
   IXMIN=   -4   IYMIN=   -4   IZMIN=   -4


 serial   3D FFT for wavefunctions
 parallel 3D FFT for charge:
    minimum data exchange during FFTs selected (reduces bandwidth)


 total amount of memory used by VASP MPI-rank0    33446. kBytes
=======================================================================

   base      :      30000. kBytes
   nonl-proj :       2075. kBytes
   fftplans  :        238. kBytes
   grid      :        331. kBytes
   one-center:         15. kBytes
   wavefun   :        787. kBytes
 
     INWAV:  cpu time    0.0000: real time    0.0000
 initial charge density was supplied:
 number of electron      11.0000047 magnetization 
 keeping initial charge density in first step


--------------------------------------------------------------------------------------------------------


 Maximum index for augmentation-charges         1509 (set IRDMAX)


--------------------------------------------------------------------------------------------------------


 First call to EWALD:  gamma=   0.692
 Maximum number of real-space cells 3x 3x 3
 Maximum number of reciprocal cells 3x 3x 3

    FEWALD:  cpu time    0.0012: real time    0.0012


--------------------------------------- Iteration      1(   1)  ---------------------------------------


    POTLOK:  cpu time    0.0020: real time    0.0099
    SETDIJ:  cpu time    0.0019: real time    0.0019
     EDDAV:  cpu time    0.2331: real time    0.2391
       DOS:  cpu time    0.0015: real time    0.0014
    --------------------------------------------
      LOOP:  cpu time    0.2385: real time    0.2524

 eigenvalue-minimisations  :  2884
 total energy-change (2. order) : 0.3489679E+02  (-0.3494616E+03)
 number of electron      11.0000047 magnetization 
 augmentation part       11.0000047 magnetization 

 Free energy of the ion-electron system (eV)
  ---------------------------------------------------
  alpha Z        PSCENC =       109.54264301
  Ewald energy   TEWEN  =      -982.89350627
  -Hartree energ DENC   =      -109.68785819
  -exchange      EXHF   =         0.00000000
  -V(xc)+E(xc)   XCENC  =        15.77784597
  PAW double counting   =       754.80419456     -736.99518971
  entropy T*S    EENTRO =        -0.00262293
  eigenvalues    EBANDS =        54.95494874
  atomic energy  EATOM  =       929.39633208
  Solvation  Ediel_sol  =         0.00000000
  ---------------------------------------------------
  free energy    TOTEN  =        34.89678726 eV

  energy without entropy =       34.89941019  energy(sigma->0) =       34.89766157


--------------------------------------------------------------------------------------------------------




--------------------------------------- Iteration      1(   2)  ---------------------------------------


     EDDAV:  cpu time    0.2180: real time    0.2225
       DOS:  cpu time    0.0013: real time    0.0013
    --------------------------------------------
      LOOP:  cpu time    0.2193: real time    0.2238

 eigenvalue-minimisations  :  2844
 total energy-change (2. order) :-0.3838736E+02  (-0.3528159E+02)
 number of electron      11.0000047 magnetization 
 augmentation part       11.0000047 magnetization 

 Free energy of the ion-electron system (eV)
  ---------------------------------------------------
  alpha Z        PSCENC =       109.54264301
  Ewald energy   TEWEN  =      -982.89350627
  -Hartree energ DENC   =      -109.68785819
  -exchange      EXHF   =         0.00000000
  -V(xc)+E(xc)   XCENC  =        15.77784597
  PAW double counting   =       754.80419456     -736.99518971
  entropy T*S    EENTRO =         0.00060323
  eigenvalues    EBANDS =        16.56436559
  atomic energy  EATOM  =       929.39633208
  Solvation  Ediel_sol  =         0.00000000
  ---------------------------------------------------
  free energy    TOTEN  =        -3.49056973 eV

  energy without entropy =       -3.49117296  energy(sigma->0) =       -3.49077081


--------------------------------------------------------------------------------------------------------




--------------------------------------- Iteration      1(   3)  ---------------------------------------


     EDDAV:  cpu time    0.2179: real time    0.2227
       DOS:  cpu time    0.0013: real time    0.0013
    --------------------------------------------
      LOOP:  cpu time    0.2192: real time    0.2240

 eigenvalue-minimisations  :  2856
 total energy-change (2. order) :-0.3534001E+00  (-0.3532834E+00)
 number of electron      11.0000047 magnetization 
 augmentation part       11.0000047 magnetization 

 Free energy of the ion-electron system (eV)
  ---------------------------------------------------
  alpha Z        PSCENC =       109.54264301
  Ewald energy   TEWEN  =      -982.89350627
  -Hartree energ DENC   =      -109.68785819
  -exchange      EXHF   =         0.00000000
  -V(xc)+E(xc)   XCENC  =        15.77784597
  PAW double counting   =       754.80419456     -736.99518971
  entropy T*S    EENTRO =         0.00061933
  eigenvalues    EBANDS =        16.21094941
  atomic energy  EATOM  =       929.39633208
  Solvation  Ediel_sol  =         0.00000000
  ---------------------------------------------------
  free energy    TOTEN  =        -3.84396982 eV

  energy without entropy =       -3.84458915  energy(sigma->0) =       -3.84417626


--------------------------------------------------------------------------------------------------------




--------------------------------------- Iteration      1(   4)  ---------------------------------------


     EDDAV:  cpu time    0.2176: real time    0.2221
       DOS:  cpu time    0.0013: real time    0.0013
    --------------------------------------------
      LOOP:  cpu time    0.2189: real time    0.2234

 eigenvalue-minimisations  :  2844
 total energy-change (2. order) :-0.9502557E-03  (-0.9502331E-03)
 number of electron      11.0000047 magnetization 
 augmentation part       11.0000047 magnetization 

 Free energy of the ion-electron system (eV)
  ---------------------------------------------------
  alpha Z        PSCENC =       109.54264301
  Ewald energy   TEWEN  =      -982.89350627
  -Hartree energ DENC   =      -109.68785819
  -exchange      EXHF   =         0.00000000
  -V(xc)+E(xc)   XCENC  =        15.77784597
  PAW double counting   =       754.80419456     -736.99518971
  entropy T*S    EENTRO =         0.00061913
  eigenvalues    EBANDS =        16.20999935
  atomic energy  EATOM  =       929.39633208
  Solvation  Ediel_sol  =         0.00000000
  ---------------------------------------------------
  free energy    TOTEN  =        -3.84492007 eV

  energy without entropy =       -3.84553920  energy(sigma->0) =       -3.84512645


--------------------------------------------------------------------------------------------------------




--------------------------------------- Iteration      1(   5)  ---------------------------------------


     EDDAV:  cpu time    0.2082: real time    0.2132
       DOS:  cpu time    0.0013: real time    0.0013
    --------------------------------------------
      LOOP:  cpu time    0.2095: real time    0.2145

 eigenvalue-minimisations  :  2480
 total energy-change (2. order) :-0.6938818E-05  (-0.6937983E-05)
 number of electron      11.0000047 magnetization 
 augmentation part       11.0000047 magnetization 

 Free energy of the ion-electron system (eV)
  ---------------------------------------------------
  alpha Z        PSCENC =       109.54264301
  Ewald energy   TEWEN  =      -982.89350627
  -Hartree energ DENC   =      -109.68785819
  -exchange      EXHF   =         0.00000000
  -V(xc)+E(xc)   XCENC  =        15.77784597
  PAW double counting   =       754.80419456     -736.99518971
  entropy T*S    EENTRO =         0.00061913
  eigenvalues    EBANDS =        16.20999242
  atomic energy  EATOM  =       929.39633208
  Solvation  Ediel_sol  =         0.00000000
  ---------------------------------------------------
  free energy    TOTEN  =        -3.84492701 eV

  energy without entropy =       -3.84554614  energy(sigma->0) =       -3.84513339


--------------------------------------------------------------------------------------------------------




--------------------------------------- Iteration      1(   6)  ---------------------------------------


     EDDAV:  cpu time    0.1924: real time    0.1971
       DOS:  cpu time    0.0013: real time    0.0013
    --------------------------------------------
      LOOP:  cpu time    0.1937: real time    0.1984

 eigenvalue-minimisations  :  2044
 total energy-change (2. order) :-0.2387387E-06  (-0.2389406E-06)
 number of electron      11.0000047 magnetization 
 augmentation part       11.0000047 magnetization 

 Free energy of the ion-electron system (eV)
  ---------------------------------------------------
  alpha Z        PSCENC =       109.54264301
  Ewald energy   TEWEN  =      -982.89350627
  -Hartree energ DENC   =      -109.68785819
  -exchange      EXHF   =         0.00000000
  -V(xc)+E(xc)   XCENC  =        15.77784597
  PAW double counting   =       754.80419456     -736.99518971
  entropy T*S    EENTRO =         0.00061913
  eigenvalues    EBANDS =        16.20999218
  atomic energy  EATOM  =       929.39633208
  Solvation  Ediel_sol  =         0.00000000
  ---------------------------------------------------
  free energy    TOTEN  =        -3.84492725 eV

  energy without entropy =       -3.84554638  energy(sigma->0) =       -3.84513363


--------------------------------------------------------------------------------------------------------




 average (electrostatic) potential at core
  the test charge radii are     1.2098
  (the norm of the test charge is              1.0000)
       1 -45.6778
 
 
 
 E-fermi :   6.9336     XC(G=0): -13.0739     alpha+bet :-10.4532


 k-point     1 :       0.5000    0.2500    0.7500
  band No.  band energies     occupation 
      1      -0.3601      2.00000
      2       0.4766      2.00000
      3       0.4766      2.00000
      4       2.3721      2.00000
      5       4.1207      2.00000
      6      10.5552     -0.00000
      7      12.1023     -0.00000
      8      12.1023     -0.00000
      9      15.3056      0.00000
     10      29.2772      0.00000
     11      29.2772      0.00000
     12      30.4480      0.00000

 k-point     2 :       0.5000    0.2632    0.7368
  band No.  band energies     occupation 
      1      -0.3510      2.00000
      2       0.4592      2.00000
      3       0.4883      2.00000
      4       2.3817      2.00000
      5       4.1106      2.00000
      6      10.4219     -0.00000
      7      12.0146     -0.00000
      8      12.3033     -0.00000
      9      15.4104      0.00000
     10      28.9701      0.00000
     11      29.3009      0.00000
     12      30.7751      0.00000

 k-point     3 :       0.5000    0.2763    0.7237
  band No.  band energies     occupation 
      1      -0.3264      2.00000
      2       0.4029      2.00000
      3       0.5184      2.00000
      4       2.3914      2.00000
      5       4.0574      2.00000
      6      10.1385     -0.00000
      7      11.7613     -0.00000
      8      12.7614      0.00000
      9      15.6736      0.00000
     10      28.3851      0.00000
     11      29.3400      0.00000
     12      31.3770      0.00000

 k-point     4 :       0.5000    0.2895    0.7105
  band No.  band energies     occupation 
      1      -0.2860      2.00000
      2       0.3139      2.00000
      3       0.5688      2.00000
      4       2.3995      2.00000
      5       3.9778      2.00000
      6       9.8395     -0.00000
      7      11.4033     -0.00000
      8      13.3464      0.00000
      9      16.0482      0.00000
     10      27.7544      0.00000
     11      29.4049      0.00000
     12      32.0382      0.00000

 k-point     5 :       0.5000    0.3026    0.6974
  band No.  band energies     occupation 
      1      -0.2305      2.00000
      2       0.1977      2.00000
      3       0.6397      2.00000
      4       2.3948      2.00000
      5       3.8837      2.00000
      6       9.5732     -0.00000
      7      10.9852     -0.00000
      8      14.0023      0.00000
      9      16.4888      0.00000
     10      27.1210      0.00000
     11      29.4940      0.00000
     12      32.7165      0.00000

 k-point     6 :       0.5000    0.3158    0.6842
  band No.  band energies     occupation 
      1      -0.1612      2.00000
      2       0.0599      2.00000
      3       0.7313      2.00000
      4       2.3652      2.00000
      5       3.7907      2.00000
      6       9.3531     -0.00000
      7      10.5343     -0.00000
      8      14.7049      0.00000
      9      16.9663      0.00000
     10      26.4991      0.00000
     11      29.6048      0.00000
     12      33.3992      0.00000

 k-point     7 :       0.5000    0.3289    0.6711
  band No.  band energies     occupation 
      1      -0.0944      2.00000
      2      -0.0800      2.00000
      3       0.8430      2.00000
      4       2.2992      2.00000
      5       3.7123      2.00000
      6       9.1805     -0.00000
      7      10.0652     -0.00000
      8      15.4388      0.00000
      9      17.4627      0.00000
     10      25.8958      0.00000
     11      29.7333      0.00000
     12      34.0754      0.00000

 k-point     8 :       0.5000    0.3421    0.6579
  band No.  band energies     occupation 
      1      -0.2607      2.00000
      2       0.0112      2.00000
      3       0.9761      2.00000
      4       2.1957      2.00000
      5       3.6622      2.00000
      6       9.0514     -0.00000
      7       9.5889     -0.00000
      8      16.1966      0.00000
      9      17.9655      0.00000
     10      25.3206      0.00000
     11      29.8768      0.00000
     12      34.8182      0.00000

 k-point     9 :       0.5000    0.3553    0.6447
  band No.  band energies     occupation 
      1      -0.4347      2.00000
      2       0.1091      2.00000
      3       1.1311      2.00000
      4       2.0602      2.00000
      5       3.6390      2.00000
      6       8.9598     -0.00000
      7       9.1130     -0.00000
      8      16.9673      0.00000
      9      18.4568      0.00000
     10      24.7793      0.00000
     11      30.0313      0.00000
     12      34.5084      0.00000

 k-point    10 :       0.5000    0.3684    0.6316
  band No.  band energies     occupation 
      1      -0.6126      2.00000
      2       0.2126      2.00000
      3       1.3063      2.00000
      4       1.9050      2.00000
      5       3.6368      2.00000
      6       8.6350     -0.00000
      7       8.8989     -0.00000
      8      17.7462      0.00000
      9      18.9394      0.00000
     10      24.2819      0.00000
     11      30.1886      0.00000
     12      33.9398      0.00000

 k-point    11 :       0.5000    0.3816    0.6184
  band No.  band energies     occupation 
      1      -0.7901      2.00000
      2       0.3184      2.00000
      3       1.5027      2.00000
      4       1.7428      2.00000
      5       3.6485      2.00000
      6       8.1610     -0.00000
      7       8.8623     -0.00000
      8      18.5246      0.00000
      9      19.3935      0.00000
     10      23.8396      0.00000
     11      30.3440      0.00000
     12      33.4100      0.00000

 k-point    12 :       0.5000    0.3947    0.6053
  band No.  band energies     occupation 
      1      -0.9633      2.00000
      2       0.4236      2.00000
      3       1.5839      2.00000
      4       1.7199      2.00000
      5       3.6678      2.00000
      6       7.6932     -0.00000
      7       8.8442     -0.00000
      8      19.2945      0.00000
      9      19.8013      0.00000
     10      23.4682      0.00000
     11      30.4915      0.00000
     12      32.9226      0.00000

 k-point    13 :       0.5000    0.4079    0.5921
  band No.  band energies     occupation 
      1      -1.1278      2.00000
      2       0.5248      2.00000
      3       1.4344      2.00000
      4       1.9577      2.00000
      5       3.6900      2.00000
      6       7.2345     -0.05488
      7       8.8410     -0.00000
      8      20.0457      0.00000
      9      20.1364      0.00000
     10      23.1896      0.00000
     11      30.6239      0.00000
     12      32.4777      0.00000

 k-point    14 :       0.5000    0.4211    0.5789
  band No.  band energies     occupation 
      1      -1.2801      2.00000
      2       0.6199      2.00000
      3       1.3014      2.00000
      4       2.2145      2.00000
      5       3.7124      2.00000
      6       6.7838      1.95157
      7       8.8450     -0.00000
      8      20.3749      0.00000
      9      20.7709      0.00000
     10      23.0271      0.00000
     11      30.7360      0.00000
     12      32.0750      0.00000

 k-point    15 :       0.5000    0.4342    0.5658
  band No.  band energies     occupation 
      1      -1.4159      2.00000
      2       0.7061      2.00000
      3       1.1866      2.00000
      4       2.4892      2.00000
      5       3.7331      2.00000
      6       6.3447      2.00025
      7       8.8543     -0.00000
      8      20.4989      0.00000
      9      21.4554      0.00000
     10      22.9913      0.00000
     11      30.8221      0.00000
     12      31.7181      0.00000

 k-point    16 :       0.5000    0.4474    0.5526
  band No.  band energies     occupation 
      1      -1.5319      2.00000
      2       0.7806      2.00000
      3       1.0917      2.00000
      4       2.7794      2.00000
      5       3.7509      2.00000
      6       5.9199      2.00000
      7       8.8660     -0.00000
      8      20.5238      0.00000
      9      22.0812      0.00000
     10      23.0593      0.00000
     11      30.8757      0.00000
     12      31.4116      0.00000

 k-point    17 :       0.5000    0.4605    0.5395
  band No.  band energies     occupation 
      1      -1.6252      2.00000
      2       0.8414      2.00000
      3       1.0175      2.00000
      4       3.0808      2.00000
      5       3.7651      2.00000
      6       5.5139      2.00000
      7       8.8776     -0.00000
      8      20.4905      0.00000
      9      22.6240      0.00000
     10      23.1811      0.00000
     11      30.8912      0.00000
     12      31.1618      0.00000

 k-point    18 :       0.5000    0.4737    0.5263
  band No.  band energies     occupation 
      1      -1.6936      2.00000
      2       0.8865      2.00000
      3       0.9645      2.00000
      4       3.3804      2.00000
      5       3.7745      2.00000
      6       5.1363      2.00000
      7       8.8868     -0.00000
      8      20.4399      0.00000
      9      23.0518      0.00000
     10      23.3048      0.00000
     11      30.8690      0.00000
     12      30.9763      0.00000

 k-point    19 :       0.5000    0.4868    0.5132
  band No.  band energies     occupation 
      1      -1.7355      2.00000
      2       0.9120      2.00000
      3       0.9318      2.00000
      4       3.6506      2.00000
      5       3.7804      2.00000
      6       4.8202      2.00000
      7       8.8907     -0.00000
      8      20.3981      0.00000
      9      23.3277      0.00000
     10      23.3928      0.00000
     11      30.8241      0.00000
     12      30.8437      0.00000

 k-point    20 :       0.5000    0.5000    0.5000
  band No.  band energies     occupation 
      1      -1.7495      2.00000
      2       0.9212      2.00000
      3       0.9212      2.00000
      4       3.7825      2.00000
      5       3.7825      2.00000
      6       4.6733      2.00000
      7       8.8928     -0.00000
      8      20.3835      0.00000
      9      23.4249      0.00000
     10      23.4249      0.00000
     11      30.8038      0.00000
     12      30.8038      0.00000

 k-point    21 :       0.5000    0.5000    0.5000
  band No.  band energies     occupation 
      1      -1.7495      2.00000
      2       0.9212      2.00000
      3       0.9212      2.00000
      4       3.7825      2.00000
      5       3.7825      2.00000
      6       4.6733      2.00000
      7       8.8928     -0.00000
      8      20.3835      0.00000
      9      23.4249      0.00000
     10      23.4249      0.00000
     11      30.8038      0.00000
     12      30.8038      0.00000

 k-point    22 :       0.4737    0.4737    0.4737
  band No.  band energies     occupation 
      1      -1.7493      2.00000
      2       0.9269      2.00000
      3       0.9269      2.00000
      4       3.7643      2.00000
      5       3.7643      2.00000
      6       4.4977      2.00000
      7       9.1127     -0.00000
      8      20.4078      0.00000
      9      23.4713      0.00000
     10      23.4713      0.00000
     11      30.7758      0.00000
     12      30.7758      0.00000

 k-point    23 :       0.4474    0.4474    0.4474
  band No.  band energies     occupation 
      1      -1.7497      2.00000
      2       0.9440      2.00000
      3       0.9440      2.00000
      4       3.7138      2.00000
      5       3.7138      2.00000
      6       4.0574      2.00000
      7       9.6876     -0.00000
      8      20.4807      0.00000
      9      23.6096      0.00000
     10      23.6096      0.00000
     11      30.6931      0.00000
     12      30.6932      0.00000

 k-point    24 :       0.4211    0.4211    0.4211
  band No.  band energies     occupation 
      1      -1.7543      2.00000
      2       0.9715      2.00000
      3       0.9715      2.00000
      4       3.4943      2.00000
      5       3.6276      2.00000
      6       3.6276      2.00000
      7      10.4753     -0.00000
      8      20.6006      0.00000
      9      23.8332      0.00000
     10      23.8332      0.00000
     11      30.5599      0.00000
     12      30.5599      0.00000

 k-point    25 :       0.3947    0.3947    0.3947
  band No.  band energies     occupation 
      1      -1.7703      2.00000
      2       1.0080      2.00000
      3       1.0080      2.00000
      4       2.9026      2.00000
      5       3.5084      2.00000
      6       3.5084      2.00000
      7      11.3743     -0.00000
      8      20.7646      0.00000
      9      24.1327      0.00000
     10      24.1327      0.00000
     11      30.3744      0.00000
     12      30.3778      0.00000

 k-point    26 :       0.3684    0.3684    0.3684
  band No.  band energies     occupation 
      1      -1.8056      2.00000
      2       1.0522      2.00000
      3       1.0522      2.00000
      4       2.3376      2.00000
      5       3.3721      2.00000
      6       3.3721      2.00000
      7      12.3561     -0.00000
      8      20.9693      0.00000
      9      24.4947      0.00000
     10      24.4947      0.00000
     11      30.1664      0.00000
     12      30.1691      0.00000

 k-point    27 :       0.3421    0.3421    0.3421
  band No.  band energies     occupation 
      1      -1.8731      2.00000
      2       1.1036      2.00000
      3       1.1036      2.00000
      4       1.8340      2.00000
      5       3.2227      2.00000
      6       3.2227      2.00000
      7      13.3869      0.00000
      8      21.2092      0.00000
      9      24.9012      0.00000
     10      24.9012      0.00000
     11      29.8018      0.00000
     12      29.9553      0.00000

 k-point    28 :       0.3158    0.3158    0.3158
  band No.  band energies     occupation 
      1      -1.9872      2.00000
      2       1.1539      2.00000
      3       1.1539      2.00000
      4       1.4162      2.00000
      5       3.0661      2.00000
      6       3.0661      2.00000
      7      14.4430      0.00000
      8      21.4683      0.00000
      9      25.3171      0.00000
     10      25.3171      0.00000
     11      29.2325      0.00000
     12      29.7541      0.00000

 k-point    29 :       0.2895    0.2895    0.2895
  band No.  band energies     occupation 
      1      -2.1574      2.00000
      2       1.1004      2.00000
      3       1.2011      2.00000
      4       1.2011      2.00000
      5       2.9122      2.00000
      6       2.9122      2.00000
      7      15.5133      0.00000
      8      21.7293      0.00000
      9      25.6998      0.00000
     10      25.6998      0.00000
     11      28.7310      0.00000
     12      29.6197      0.00000

 k-point    30 :       0.2632    0.2632    0.2632
  band No.  band energies     occupation 
      1      -2.3829      2.00000
      2       0.8888      2.00000
      3       1.2396      2.00000
      4       1.2396      2.00000
      5       2.7704      2.00000
      6       2.7704      2.00000
      7      16.5854      0.00000
      8      21.9639      0.00000
      9      25.9890      0.00000
     10      25.9890      0.00000
     11      28.3508      0.00000
     12      29.6130      0.00000

 k-point    31 :       0.2368    0.2368    0.2368
  band No.  band energies     occupation 
      1      -2.6500      2.00000
      2       0.7688      2.00000
      3       1.2629      2.00000
      4       1.2629      2.00000
      5       2.6500      2.00000
      6       2.6500      2.00000
      7      17.6474      0.00000
      8      22.1361      0.00000
      9      26.1314      0.00000
     10      26.1314      0.00000
     11      28.1435      0.00000
     12      29.7881      0.00000

 k-point    32 :       0.2105    0.2105    0.2105
  band No.  band energies     occupation 
      1      -2.9382      2.00000
      2       0.7194      2.00000
      3       1.2655      2.00000
      4       1.2655      2.00000
      5       2.5591      2.00000
      6       2.5591      2.00000
      7      18.6873      0.00000
      8      22.2149      0.00000
      9      26.1191      0.00000
     10      26.1191      0.00000
     11      28.1533      0.00000
     12      30.1519      0.00000

 k-point    33 :       0.1842    0.1842    0.1842
  band No.  band energies     occupation 
      1      -3.2269      2.00000
      2       0.7189      2.00000
      3       1.2459      2.00000
      4       1.2459      2.00000
      5       2.5055      2.00000
      6       2.5055      2.00000
      7      19.6901      0.00000
      8      22.1958      0.00000
      9      25.9960      0.00000
     10      25.9960      0.00000
     11      28.3972      0.00000
     12      30.6632      0.00000

 k-point    34 :       0.1579    0.1579    0.1579
  band No.  band energies     occupation 
      1      -3.4996      2.00000
      2       0.7487      2.00000
      3       1.2050      2.00000
      4       1.2050      2.00000
      5       2.4784      2.00000
      6       2.4784      2.00000
      7      20.6226      0.00000
      8      22.1238      0.00000
      9      25.8106      0.00000
     10      25.8106      0.00000
     11      28.8418      0.00000
     12      31.2548      0.00000

 k-point    35 :       0.1316    0.1316    0.1316
  band No.  band energies     occupation 
      1      -3.7445      2.00000
      2       0.7945      2.00000
      3       1.1491      2.00000
      4       1.1491      2.00000
      5       2.4731      2.00000
      6       2.4731      2.00000
      7      21.3172      0.00000
      8      22.1969      0.00000
      9      25.6033      0.00000
     10      25.6033      0.00000
     11      29.4183      0.00000
     12      31.8618      0.00000

 k-point    36 :       0.1053    0.1053    0.1053
  band No.  band energies     occupation 
      1      -3.9533      2.00000
      2       0.8461      2.00000
      3       1.0921      2.00000
      4       1.0921      2.00000
      5       2.4862      2.00000
      6       2.4862      2.00000
      7      21.4330      0.00000
      8      22.7898      0.00000
      9      25.4114      0.00000
     10      25.4114      0.00000
     11      29.9915      0.00000
     12      32.4701      0.00000

 k-point    37 :       0.0789    0.0789    0.0789
  band No.  band energies     occupation 
      1      -4.1203      2.00000
      2       0.8953      2.00000
      3       1.0400      2.00000
      4       1.0400      2.00000
      5       2.5030      2.00000
      6       2.5030      2.00000
      7      21.3198      0.00000
      8      23.5633      0.00000
      9      25.2475      0.00000
     10      25.2475      0.00000
     11      30.2636      0.00000
     12      32.7397      0.00000

 k-point    38 :       0.0526    0.0526    0.0526
  band No.  band energies     occupation 
      1      -4.2419      2.00000
      2       0.9308      2.00000
      3       0.9987      2.00000
      4       0.9987      2.00000
      5       2.5186      2.00000
      6       2.5186      2.00000
      7      21.1969      0.00000
      8      24.2752      0.00000
      9      25.1232      0.00000
     10      25.1232      0.00000
     11      30.0101      0.00000
     12      33.1070      0.00000

 k-point    39 :       0.0263    0.0263    0.0263
  band No.  band energies     occupation 
      1      -4.3158      2.00000
      2       0.9552      2.00000
      3       0.9726      2.00000
      4       0.9726      2.00000
      5       2.5301      2.00000
      6       2.5301      2.00000
      7      21.1153      0.00000
      8      24.8114      0.00000
      9      25.0461      0.00000
     10      25.0461      0.00000
     11      29.6085      0.00000
     12      33.6592      0.00000

 k-point    40 :       0.0000    0.0000    0.0000
  band No.  band energies     occupation 
      1      -4.3405      2.00000
      2       0.9636      2.00000
      3       0.9636      2.00000
      4       0.9636      2.00000
      5       2.5342      2.00000
      6       2.5342      2.00000
      7      21.0867      0.00000
      8      25.0199      0.00000
      9      25.0199      0.00000
     10      25.0199      0.00000
     11      29.4276      0.00000
     12      33.9157      0.00000

 k-point    41 :       0.0000    0.0000    0.0000
  band No.  band energies     occupation 
      1      -4.3405      2.00000
      2       0.9636      2.00000
      3       0.9636      2.00000
      4       0.9636      2.00000
      5       2.5342      2.00000
      6       2.5342      2.00000
      7      21.0867      0.00000
      8      25.0199      0.00000
      9      25.0199      0.00000
     10      25.0199      0.00000
     11      29.4276      0.00000
     12      33.9157      0.00000

 k-point    42 :       0.0263    0.0000    0.0263
  band No.  band energies     occupation 
      1      -4.3075      2.00000
      2       0.9461      2.00000
      3       0.9787      2.00000
      4       0.9787      2.00000
      5       2.5156      2.00000
      6       2.5417      2.00000
      7      21.1251      0.00000
      8      24.8658      0.00000
      9      24.9904      0.00000
     10      24.9904      0.00000
     11      29.6765      0.00000
     12      33.5640      0.00000

 k-point    43 :       0.0526    0.0000    0.0526
  band No.  band energies     occupation 
      1      -4.2089      2.00000
      2       0.8944      2.00000
      3       1.0241      2.00000
      4       1.0241      2.00000
      5       2.4608      2.00000
      6       2.5642      2.00000
      7      21.2387      0.00000
      8      24.4898      0.00000
      9      24.8941      0.00000
     10      24.8941      0.00000
     11      30.3264      0.00000
     12      32.9175      0.00000

 k-point    44 :       0.0789    0.0000    0.0789
  band No.  band energies     occupation 
      1      -4.0463      2.00000
      2       0.8113      2.00000
      3       1.1009      2.00000
      4       1.1009      2.00000
      5       2.3749      2.00000
      6       2.6011      2.00000
      7      21.4245      0.00000
      8      24.0338      0.00000
      9      24.7130      0.00000
     10      24.7130      0.00000
     11      31.1624      0.00000
     12      32.3179      0.00000

 k-point    45 :       0.1053    0.0000    0.1053
  band No.  band energies     occupation 
      1      -3.8222      2.00000
      2       0.6995      2.00000
      3       1.2044      2.00000
      4       1.2044      2.00000
      5       2.2511      2.00000
      6       2.6517      2.00000
      7      21.6726      0.00000
      8      23.5860      0.00000
      9      24.4136      0.00000
     10      24.4136      0.00000
     11      31.2995      0.00000
     12      31.8486      0.00000

 k-point    46 :       0.1316    0.0000    0.1316
  band No.  band energies     occupation 
      1      -3.5409      2.00000
      2       0.5642      2.00000
      3       1.3369      2.00000
      4       1.3369      2.00000
      5       2.1121      2.00000
      6       2.7148      2.00000
      7      21.9749      0.00000
      8      23.1901      0.00000
      9      23.9801      0.00000
     10      23.9801      0.00000
     11      29.9976      0.00000
     12      31.5845      0.00000

 k-point    47 :       0.1579    0.0000    0.1579
  band No.  band energies     occupation 
      1      -3.2093      2.00000
      2       0.4107      2.00000
      3       1.4970      2.00000
      4       1.4970      2.00000
      5       1.9639      2.00000
      6       2.7917      2.00000
      7      22.3303      0.00000
      8      22.8646      0.00000
      9      23.4208      0.00000
     10      23.4208      0.00000
     11      28.4535      0.00000
     12      31.5390      0.00000

 k-point    48 :       0.1842    0.0000    0.1842
  band No.  band energies     occupation 
      1      -2.8380      2.00000
      2       0.2435      2.00000
      3       1.6817      2.00000
      4       1.6817      2.00000
      5       1.8216      2.00000
      6       2.8750      2.00000
      7      22.6130      0.00000
      8      22.7060      0.00000
      9      22.7465      0.00000
     10      22.7465      0.00000
     11      26.8692      0.00000
     12      31.6926      0.00000

 k-point    49 :       0.2105    0.0000    0.2105
  band No.  band energies     occupation 
      1      -2.4445      2.00000
      2       0.0691      2.00000
      3       1.7080      2.00000
      4       1.8898      2.00000
      5       1.8898      2.00000
      6       2.9658      2.00000
      7      21.9980      0.00000
      8      21.9980      0.00000
      9      22.4299      0.00000
     10      23.0984      0.00000
     11      25.2903      0.00000
     12      32.0259      0.00000

 k-point    50 :       0.2368    0.0000    0.2368
  band No.  band energies     occupation 
      1      -2.0561      2.00000
      2      -0.1073      2.00000
      3       1.6555      2.00000
      4       2.1185      2.00000
      5       2.1185      2.00000
      6       3.0618      2.00000
      7      21.2099      0.00000
      8      21.2099      0.00000
      9      22.2820      0.00000
     10      23.4943      0.00000
     11      23.7633      0.00000
     12      32.5120      0.00000

 k-point    51 :       0.2632    0.0000    0.2632
  band No.  band energies     occupation 
      1      -1.7126      2.00000
      2      -0.2808      2.00000
      3       1.7084      2.00000
      4       2.3643      2.00000
      5       2.3643      2.00000
      6       3.1607      2.00000
      7      20.4116      0.00000
      8      20.4116      0.00000
      9      21.8192      0.00000
     10      22.6419      0.00000
     11      23.8813      0.00000
     12      33.1287      0.00000

 k-point    52 :       0.2895    0.0000    0.2895
  band No.  band energies     occupation 
      1      -1.4577      2.00000
      2      -0.4470      2.00000
      3       1.9142      2.00000
      4       2.6223      2.00000
      5       2.6223      2.00000
      6       3.2597      2.00000
      7      19.6270      0.00000
      8      19.6270      0.00000
      9      20.4902      0.00000
     10      22.4760      0.00000
     11      24.2484      0.00000
     12      33.8588      0.00000

 k-point    53 :       0.3158    0.0000    0.3158
  band No.  band energies     occupation 
      1      -1.3145      2.00000
      2      -0.6022      2.00000
      3       2.2995      2.00000
      4       2.8880      2.00000
      5       2.8880      2.00000
      6       3.3562      2.00000
      7      18.8777      0.00000
      8      18.8777      0.00000
      9      19.0469      0.00000
     10      22.5254      0.00000
     11      24.5866      0.00000
     12      34.6900      0.00000

 k-point    54 :       0.3421    0.0000    0.3421
  band No.  band energies     occupation 
      1      -1.2707      2.00000
      2      -0.7430      2.00000
      3       2.8480      2.00000
      4       3.1510      2.00000
      5       3.1510      2.00000
      6       3.4471      2.00000
      7      17.6212      0.00000
      8      18.1778      0.00000
      9      18.1778      0.00000
     10      22.6204      0.00000
     11      24.8887      0.00000
     12      35.6116      0.00000

 k-point    55 :       0.3684    0.0000    0.3684
  band No.  band energies     occupation 
      1      -1.2910      2.00000
      2      -0.8666      2.00000
      3       3.4039      2.00000
      4       3.4039      2.00000
      5       3.5232      2.00000
      6       3.5299      2.00000
      7      16.2477      0.00000
      8      17.5460      0.00000
      9      17.5460      0.00000
     10      22.7405      0.00000
     11      25.1495      0.00000
     12      36.5392      0.00000

 k-point    56 :       0.3947    0.0000    0.3947
  band No.  band energies     occupation 
      1      -1.3420      2.00000
      2      -0.9707      2.00000
      3       3.6019      2.00000
      4       3.6361      2.00000
      5       3.6361      2.00000
      6       4.2811      2.00000
      7      14.9453      0.00000
      8      16.9981      0.00000
      9      16.9981      0.00000
     10      22.8679      0.00000
     11      25.3658      0.00000
     12      36.1131      0.00000

 k-point    57 :       0.4211    0.0000    0.4211
  band No.  band energies     occupation 
      1      -1.4001      2.00000
      2      -1.0536      2.00000
      3       3.6609      2.00000
      4       3.8358      2.00000
      5       3.8358      2.00000
      6       5.0743      2.00000
      7      13.7429      0.00000
      8      16.5499      0.00000
      9      16.5499      0.00000
     10      22.9873      0.00000
     11      25.5354      0.00000
     12      35.8276      0.00000

 k-point    58 :       0.4474    0.0000    0.4474
  band No.  band energies     occupation 
      1      -1.4502      2.00000
      2      -1.1137      2.00000
      3       3.7048      2.00000
      4       3.9906      2.00000
      5       3.9906      2.00000
      6       5.8355      2.00000
      7      12.6962      0.00000
      8      16.2164      0.00000
      9      16.2164      0.00000
     10      23.0848      0.00000
     11      25.6572      0.00000
     12      35.6208      0.00000

 k-point    59 :       0.4737    0.0000    0.4737
  band No.  band energies     occupation 
      1      -1.4830      2.00000
      2      -1.1501      2.00000
      3       3.7336      2.00000
      4       4.0961      2.00000
      5       4.0961      2.00000
      6       6.4410      2.00273
      7      11.9248     -0.00000
      8      16.0104      0.00000
      9      16.0104      0.00000
     10      23.1574      0.00000
     11      25.7358      0.00000
     12      35.4961      0.00000

 k-point    60 :       0.5000    0.0000    0.5000
  band No.  band energies     occupation 
      1      -1.4949      2.00000
      2      -1.1624      2.00000
      3       3.7393      2.00000
      4       4.1253      2.00000
      5       4.1253      2.00000
      6       6.6868      2.07089
      7      11.6211     -0.00000
      8      15.9406      0.00000
      9      15.9406      0.00000
     10      23.1726      0.00000
     11      25.7599      0.00000
     12      35.4482      0.00000

 k-point    61 :       0.5000    0.0000    0.5000
  band No.  band energies     occupation 
      1      -1.4949      2.00000
      2      -1.1624      2.00000
      3       3.7393      2.00000
      4       4.1253      2.00000
      5       4.1253      2.00000
      6       6.6868      2.07089
      7      11.6211     -0.00000
      8      15.9406      0.00000
      9      15.9406      0.00000
     10      23.1726      0.00000
     11      25.7599      0.00000
     12      35.4482      0.00000

 k-point    62 :       0.5000    0.0132    0.5132
  band No.  band energies     occupation 
      1      -1.4892      2.00000
      2      -1.1577      2.00000
      3       3.7325      2.00000
      4       4.0892      2.00000
      5       4.1253      2.00000
      6       6.7286      2.05507
      7      11.6122     -0.00000
      8      15.9274      0.00000
      9      15.9333      0.00000
     10      23.2096      0.00000
     11      25.7697      0.00000
     12      35.4274      0.00000

 k-point    63 :       0.5000    0.0263    0.5263
  band No.  band energies     occupation 
      1      -1.4723      2.00000
      2      -1.1439      2.00000
      3       3.7139      2.00000
      4       3.9906      2.00000
      5       4.1254      2.00000
      6       6.8474      1.65937
      7      11.5860     -0.00000
      8      15.8882      0.00000
      9      15.9121      0.00000
     10      23.3192      0.00000
     11      25.7991      0.00000
     12      35.3667      0.00000

 k-point    64 :       0.5000    0.0395    0.5395
  band No.  band energies     occupation 
      1      -1.4446      2.00000
      2      -1.1209      2.00000
      3       3.6769      2.00000
      4       3.8373      2.00000
      5       4.1255      2.00000
      6       7.0282      0.29006
      7      11.5423     -0.00000
      8      15.8231      0.00000
      9      15.8790      0.00000
     10      23.4951      0.00000
     11      25.8448      0.00000
     12      35.2553      0.00000

 k-point    65 :       0.5000    0.0526    0.5526
  band No.  band energies     occupation 
      1      -1.4059      2.00000
      2      -1.0886      2.00000
      3       3.6296      2.00000
      4       3.6495      2.00000
      5       4.1258      2.00000
      6       7.2547     -0.04561
      7      11.4852     -0.00000
      8      15.7327      0.00000
      9      15.8363      0.00000
     10      23.7389      0.00000
     11      25.9131      0.00000
     12      35.0904      0.00000

 k-point    66 :       0.5000    0.0658    0.5658
  band No.  band energies     occupation 
      1      -1.3571      2.00000
      2      -1.0471      2.00000
      3       3.4350      2.00000
      4       3.5693      2.00000
      5       4.1251      2.00000
      6       7.5110     -0.00035
      7      11.4147     -0.00000
      8      15.6176      0.00000
      9      15.7860      0.00000
     10      24.0372      0.00000
     11      25.9988      0.00000
     12      34.8672      0.00000

 k-point    67 :       0.5000    0.0789    0.5789
  band No.  band energies     occupation 
      1      -1.2983      2.00000
      2      -0.9964      2.00000
      3       3.2125      2.00000
      4       3.4977      2.00000
      5       4.1253      2.00000
      6       7.7931     -0.00000
      7      11.3363     -0.00000
      8      15.4790      0.00000
      9      15.7327      0.00000
     10      24.3934      0.00000
     11      26.1065      0.00000
     12      34.5863      0.00000

 k-point    68 :       0.5000    0.0921    0.5921
  band No.  band energies     occupation 
      1      -1.2304      2.00000
      2      -0.9366      2.00000
      3       2.9833      2.00000
      4       3.4150      2.00000
      5       4.1255      2.00000
      6       8.0924     -0.00000
      7      11.2514     -0.00000
      8      15.3177      0.00000
      9      15.6783      0.00000
     10      24.7967      0.00000
     11      26.2341      0.00000
     12      34.2532      0.00000

 k-point    69 :       0.5000    0.1053    0.6053
  band No.  band energies     occupation 
[...]
  band No.  band energies     occupation 
      1      -0.3680      2.00000
      2       0.3094      2.00000
      3       0.6522      2.00000
      4       2.3919      2.00000
      5       4.1197      2.00000
      6      10.5037     -0.00000
      7      11.7943     -0.00000
      8      12.4506      0.00000
      9      15.3686      0.00000
     10      28.7792      0.00000
     11      29.6601      0.00000
     12      30.4892      0.00000

 k-point    84 :       0.4803    0.2697    0.7500
  band No.  band energies     occupation 
      1      -0.3790      2.00000
      2       0.2286      2.00000
      3       0.7412      2.00000
      4       2.4093      2.00000
      5       4.1076      2.00000
      6      10.4508     -0.00000
      7      11.6463     -0.00000
      8      12.6148      0.00000
      9      15.4460      0.00000
     10      28.4537      0.00000
     11      29.8545      0.00000
     12      30.5067      0.00000

 k-point    85 :       0.4737    0.2763    0.7500
  band No.  band energies     occupation 
      1      -0.3955      2.00000
      2       0.1525      2.00000
      3       0.8314      2.00000
      4       2.4323      2.00000
      5       4.0911      2.00000
      6      10.3891     -0.00000
      7      11.5060     -0.00000
      8      12.7608      0.00000
      9      15.5591      0.00000
     10      28.1027      0.00000
     11      30.0543      0.00000
     12      30.5132      0.00000

 k-point    86 :       0.4671    0.2829    0.7500
  band No.  band energies     occupation 
      1      -0.4179      2.00000
      2       0.0829      2.00000
      3       0.9225      2.00000
      4       2.4600      2.00000
      5       4.0702      2.00000
      6      10.3221     -0.00000
      7      11.3736     -0.00000
      8      12.8842      0.00000
      9      15.7078      0.00000
     10      27.7351      0.00000
     11      30.2599      0.00000
     12      30.5089      0.00000

 k-point    87 :       0.4605    0.2895    0.7500
  band No.  band energies     occupation 
      1      -0.4468      2.00000
      2       0.0214      2.00000
      3       1.0140      2.00000
      4       2.4914      2.00000
      5       4.0451      2.00000
      6      10.2523     -0.00000
      7      11.2493     -0.00000
      8      12.9843      0.00000
      9      15.8900      0.00000
     10      27.3574      0.00000
     11      30.4712      0.00000
     12      30.4960      0.00000

 k-point    88 :       0.4539    0.2961    0.7500
  band No.  band energies     occupation 
      1      -0.4820      2.00000
      2      -0.0310      2.00000
      3       1.1052      2.00000
      4       2.5255      2.00000
      5       4.0163      2.00000
      6      10.1816     -0.00000
      7      11.1334     -0.00000
      8      13.0626      0.00000
      9      16.1012      0.00000
     10      26.9745      0.00000
     11      30.4769      0.00000
     12      30.6884      0.00000

 k-point    89 :       0.4474    0.3026    0.7500
  band No.  band energies     occupation 
      1      -0.5228      2.00000
      2      -0.0742      2.00000
      3       1.1956      2.00000
      4       2.5614      2.00000
      5       3.9840      2.00000
      6      10.1114     -0.00000
      7      11.0262     -0.00000
      8      13.1224      0.00000
      9      16.3360      0.00000
     10      26.5907      0.00000
     11      30.4541      0.00000
     12      30.9117      0.00000

 k-point    90 :       0.4408    0.3092    0.7500
  band No.  band energies     occupation 
      1      -0.5674      2.00000
      2      -0.1090      2.00000
      3       1.2844      2.00000
      4       2.5981      2.00000
      5       3.9488      2.00000
      6      10.0429     -0.00000
      7      10.9277     -0.00000
      8      13.1670      0.00000
      9      16.5883      0.00000
     10      26.2097      0.00000
     11      30.4293      0.00000
     12      31.1409      0.00000

 k-point    91 :       0.4342    0.3158    0.7500
  band No.  band energies     occupation 
      1      -0.6137      2.00000
      2      -0.1367      2.00000
      3       1.3708      2.00000
      4       2.6346      2.00000
      5       3.9113      2.00000
      6       9.9772     -0.00000
      7      10.8382     -0.00000
      8      13.1999      0.00000
      9      16.8521      0.00000
     10      25.8353      0.00000
     11      30.4040      0.00000
     12      31.3762      0.00000

 k-point    92 :       0.4276    0.3224    0.7500
  band No.  band energies     occupation 
      1      -0.6596      2.00000
      2      -0.1588      2.00000
      3       1.4538      2.00000
      4       2.6701      2.00000
      5       3.8725      2.00000
      6       9.9154     -0.00000
      7      10.7578     -0.00000
      8      13.2239      0.00000
      9      17.1213      0.00000
     10      25.4714      0.00000
     11      30.3794      0.00000
     12      31.6174      0.00000

 k-point    93 :       0.4211    0.3289    0.7500
  band No.  band energies     occupation 
      1      -0.7037      2.00000
      2      -0.1764      2.00000
      3       1.5323      2.00000
      4       2.7030      2.00000
      5       3.8332      2.00000
      6       9.8583     -0.00000
      7      10.6866     -0.00000
      8      13.2411      0.00000
      9      17.3864      0.00000
     10      25.1205      0.00000
     11      30.3560      0.00000
     12      31.8643      0.00000

 k-point    94 :       0.4145    0.3355    0.7500
  band No.  band energies     occupation 
      1      -0.7440      2.00000
      2      -0.1903      2.00000
      3       1.6050      2.00000
      4       2.7339      2.00000
      5       3.7947      2.00000
      6       9.8069     -0.00000
      7      10.6248     -0.00000
      8      13.2535      0.00000
      9      17.6475      0.00000
     10      24.7914      0.00000
     11      30.3350      0.00000
     12      32.1168      0.00000

 k-point    95 :       0.4079    0.3421    0.7500
  band No.  band energies     occupation 
      1      -0.7795      2.00000
      2      -0.2014      2.00000
      3       1.6705      2.00000
      4       2.7613      2.00000
      5       3.7582      2.00000
      6       9.7619     -0.00000
      7      10.5723     -0.00000
      8      13.2623      0.00000
      9      17.8941      0.00000
     10      24.4888      0.00000
     11      30.3166      0.00000
     12      32.3740      0.00000

 k-point    96 :       0.4013    0.3487    0.7500
  band No.  band energies     occupation 
      1      -0.8096      2.00000
      2      -0.2100      2.00000
      3       1.7272      2.00000
      4       2.7847      2.00000
      5       3.7254      2.00000
      6       9.7241     -0.00000
      7      10.5294     -0.00000
      8      13.2685      0.00000
      9      18.1175      0.00000
     10      24.2203      0.00000
     11      30.3012      0.00000
     12      32.6348      0.00000

 k-point    97 :       0.3947    0.3553    0.7500
  band No.  band energies     occupation 
      1      -0.8335      2.00000
      2      -0.2165      2.00000
      3       1.7736      2.00000
      4       2.8035      2.00000
      5       3.6976      2.00000
      6       9.6941     -0.00000
      7      10.4960     -0.00000
      8      13.2728      0.00000
      9      18.3080      0.00000
     10      23.9952      0.00000
     11      30.2890      0.00000
     12      32.8968      0.00000

 k-point    98 :       0.3882    0.3618    0.7500
  band No.  band energies     occupation 
      1      -0.8508      2.00000
      2      -0.2209      2.00000
      3       1.8081      2.00000
      4       2.8173      2.00000
      5       3.6765      2.00000
      6       9.6722     -0.00000
      7      10.4722     -0.00000
      8      13.2756      0.00000
      9      18.4551      0.00000
     10      23.8237      0.00000
     11      30.2802      0.00000
     12      33.1525      0.00000

 k-point    99 :       0.3816    0.3684    0.7500
  band No.  band energies     occupation 
      1      -0.8614      2.00000
      2      -0.2238      2.00000
      3       1.8294      2.00000
      4       2.8255      2.00000
      5       3.6601      2.00000
      6       9.6590     -0.00000
      7      10.4574     -0.00000
      8      13.2755      0.00000
      9      18.5485      0.00000
     10      23.7157      0.00000
     11      30.2715      0.00000
     12      33.3771      0.00000

 k-point   100 :       0.3750    0.3750    0.7500
  band No.  band energies     occupation 
      1      -0.8649      2.00000
      2      -0.2247      2.00000
      3       1.8366      2.00000
      4       2.8283      2.00000
      5       3.6555      2.00000
      6       9.6545     -0.00000
      7      10.4526     -0.00000
      8      13.2759      0.00000
      9      18.5806      0.00000
     10      23.6787      0.00000
     11      30.2697      0.00000
     12      33.4867      0.00000


--------------------------------------------------------------------------------------------------------


 soft charge-density along one line, spin component           1
         0         1         2         3         4         5         6         7         8         9
 total charge-density along one line
 
 pseudopotential strength for first ion, spin component:           1
 -9.738   0.000   0.000   0.000   0.000   0.000   0.000   0.000  -0.000   0.000  -0.105   0.000  -0.000   0.000  -0.000   0.000
  0.000   0.000  -9.738   0.000  -0.000   0.000   0.000   0.000   0.000   0.000  -0.000   0.000  -0.105   0.000   0.000   0.000
  0.000   0.000  -0.000   0.000  -9.733   0.000  -0.000   0.000  -0.000   0.000  -0.000   0.000   0.000   0.000  -0.105   0.000
  0.000   0.000   0.000   0.000  -0.000   0.000  -9.738   0.000  -0.000   0.000  -0.000   0.000  -0.000   0.000   0.000   0.000
 -0.000   0.000   0.000   0.000  -0.000   0.000  -0.000   0.000  -9.733   0.000   0.000   0.000  -0.000   0.000   0.000   0.000
 -0.105   0.000  -0.000   0.000  -0.000   0.000  -0.000   0.000   0.000   0.000   0.285   0.000  -0.000   0.000   0.000   0.000
 -0.000   0.000  -0.105   0.000   0.000   0.000  -0.000   0.000  -0.000   0.000  -0.000   0.000   0.285   0.000  -0.000   0.000
 -0.000   0.000   0.000   0.000  -0.105   0.000   0.000   0.000   0.000   0.000   0.000   0.000  -0.000   0.000   0.285   0.000
 -0.000   0.000  -0.000   0.000   0.000   0.000  -0.105   0.000   0.000   0.000  -0.000   0.000  -0.000   0.000  -0.000   0.000
  0.000   0.000  -0.000   0.000   0.000   0.000   0.000   0.000  -0.105   0.000  -0.000   0.000   0.000   0.000  -0.000   0.000
  0.000   0.000   0.000   0.000   0.000   0.000   0.000   0.000  -0.000   0.000   0.000   0.000   0.000   0.000  -0.000   0.000
 -0.000   0.000  -0.000   0.000  -0.000   0.000  -0.000   0.000   0.000   0.000   0.000   0.000   0.000   0.000   0.000   0.000
 -0.000   0.000   0.000   0.000   0.000   0.000  -0.000   0.000   0.000   0.000   0.000   0.000  -0.000   0.000  -0.000   0.000
 -0.000   0.000   0.000   0.000   0.000   0.000  -0.000   0.000   0.000   0.000   0.000   0.000   0.000   0.000  -0.000   0.000
  0.000   0.000  -0.000   0.000   0.000   0.000   0.000   0.000  -0.000   0.000   0.000   0.000   0.000   0.000  -0.000   0.000
  0.000   0.000  -0.000   0.000  -0.000   0.000   0.000   0.000  -0.000   0.000  -0.000   0.000   0.000   0.000   0.000   0.000
  0.000   0.000  -0.000   0.000  -0.000   0.000   0.000   0.000  -0.000   0.000  -0.000   0.000   0.000   0.000   0.000   0.000
 -0.000   0.000   0.000   0.000  -0.000   0.000  -0.000   0.000   0.000   0.000   0.000   0.000  -0.000   0.000   0.000   0.000
 total augmentation occupancy for first ion, spin component:           1
  2.000   0.000   0.000   0.000   0.000   0.000   0.000   0.000   0.000   0.000   0.000   0.000   0.000   0.000   0.000   0.000
  0.000   2.000   0.000   0.000   0.000   0.000   0.000   0.000   0.000   0.000   0.000   0.000   0.000   0.000   0.000   0.000
  0.000   0.000   2.000   0.000   0.000   0.000   0.000   0.000   0.000   0.000   0.000   0.000   0.000   0.000   0.000   0.000
  0.000   0.000   0.000   2.000   0.000   0.000   0.000   0.000   0.000   0.000   0.000   0.000   0.000   0.000   0.000   0.000
  0.000   0.000   0.000   0.000   2.000   0.000   0.000   0.000   0.000   0.000   0.000   0.000   0.000   0.000   0.000   0.000
  0.000   0.000   0.000   0.000   0.000   0.000   0.000   0.000   0.000   0.000   0.000   0.000   0.000   0.000   0.000   0.000
  0.000   0.000   0.000   0.000   0.000   0.000   0.000   0.000   0.000   0.000   0.000   0.000   0.000   0.000   0.000   0.000
  0.000   0.000   0.000   0.000   0.000   0.000   0.000   0.000   0.000   0.000   0.000   0.000   0.000   0.000   0.000   0.000
  0.000   0.000   0.000   0.000   0.000   0.000   0.000   0.000   0.000   0.000   0.000   0.000   0.000   0.000   0.000   0.000
  0.000   0.000   0.000   0.000   0.000   0.000   0.000   0.000   0.000   0.000   0.000   0.000   0.000   0.000   0.000   0.000
  0.000   0.000   0.000   0.000   0.000   0.000   0.000   0.000   0.000   0.000   1.000   0.000   0.000   0.000   0.000   0.000
  0.000   0.000   0.000   0.000   0.000   0.000   0.000   0.000   0.000   0.000   0.000   0.000   0.000   0.000   0.000   0.000
  0.000   0.000   0.000   0.000   0.000   0.000   0.000   0.000   0.000   0.000   0.000   0.000   0.000   0.000   0.000   0.000
  0.000   0.000   0.000   0.000   0.000   0.000   0.000   0.000   0.000   0.000   0.000   0.000   0.000   0.000   0.000   0.000
  0.000   0.000   0.000   0.000   0.000   0.000   0.000   0.000   0.000   0.000   0.000   0.000   0.000   0.000   0.000   0.000
  0.000   0.000   0.000   0.000   0.000   0.000   0.000   0.000   0.000   0.000   0.000   0.000   0.000   0.000   0.000   0.000
  0.000   0.000   0.000   0.000   0.000   0.000   0.000   0.000   0.000   0.000   0.000   0.000   0.000   0.000   0.000   0.000
  0.000   0.000   0.000   0.000   0.000   0.000   0.000   0.000   0.000   0.000   0.000   0.000   0.000   0.000   0.000   0.000


------------------------ aborting loop because EDIFF is reached ----------------------------------------


    CHARGE:  cpu time    0.0040: real time    0.0040
    FORLOC:  cpu time    0.0001: real time    0.0001
    FORNL :  cpu time    0.0083: real time    0.0083
    STRESS:  cpu time    0.0499: real time    0.0501
    FORCOR:  cpu time    0.0010: real time    0.0010
    FORHAR:  cpu time    0.0008: real time    0.0007
    OFIELD:  cpu time    0.0000: real time    0.0000

  FORCE on cell =-STRESS in cart. coord.  units (eV):
  Direction    XX          YY          ZZ          XY          YZ          ZX
  --------------------------------------------------------------------------------------
  Alpha Z   109.54264   109.54264   109.54264
  Ewald    -327.63118  -327.63118  -327.63118     0.00000     0.00000    -0.00000
  Hartree    37.49169    37.49169    37.49169    -0.00000    -0.00000    -0.00000
  E(xc)     -49.03749   -49.03749   -49.03749     0.00001     0.00001     0.00001
  Local      84.18929    84.18929    84.18929     0.00014     0.00014     0.00014
  n-local   -47.16775   -53.26832   -53.64904    -1.16592    -0.69113    -0.64503
  augment    43.39433    43.39433    43.39433    -0.00001    -0.00001    -0.00001
  Kinetic   151.97446   157.74202   154.72367     0.39766     1.32935     0.91768
  Fock        0.00000     0.00000     0.00000     0.00000     0.00000     0.00000
  -------------------------------------------------------------------------------------
  Total       1.40096     1.40096     1.40096     0.00000     0.00000    -0.00000
  in kB     133.78331   133.78331   133.78331     0.00000     0.00000    -0.00000
  external pressure =      133.78 kB  Pullay stress =        0.00 kB


 VOLUME and BASIS-vectors are now :
 -----------------------------------------------------------------------------
  energy-cutoff  :      230.00
  volume of cell :       16.78
      direct lattice vectors                 reciprocal lattice vectors
     0.000000000  2.031895000  2.031895000    -0.246075708  0.246075708  0.246075708
     2.031895000  0.000000000  2.031895000     0.246075708 -0.246075708  0.246075708
     2.031895000  2.031895000  0.000000000     0.246075708  0.246075708 -0.246075708

  length of vectors
     2.873533466  2.873533466  2.873533466     0.426215628  0.426215628  0.426215628


 FORCES acting on ions
    electron-ion (+dipol)            ewald-force                    non-local-force                 convergence-correction
 -----------------------------------------------------------------------------------------------
   0.208E-14 0.117E-14 -.412E-14   -.123E-14 0.876E-15 0.276E-14   0.212E-21 -.212E-21 0.212E-21   0.993E-15 -.145E-14 -.329E-14
 -----------------------------------------------------------------------------------------------
   0.208E-14 0.117E-14 -.412E-14   -.123E-14 0.876E-15 0.276E-14   0.212E-21 -.212E-21 0.212E-21   0.993E-15 -.145E-14 -.329E-14
 
 
 POSITION                                       TOTAL-FORCE (eV/Angst)
 -----------------------------------------------------------------------------------
      0.00000      0.00000      0.00000         0.000000      0.000000     -0.000000
 -----------------------------------------------------------------------------------
    total drift:                                0.000000      0.000000     -0.000000


--------------------------------------------------------------------------------------------------------



  FREE ENERGIE OF THE ION-ELECTRON SYSTEM (eV)
  ---------------------------------------------------
  free  energy   TOTEN  =        -3.84492725 eV

  energy  without entropy=       -3.84554638  energy(sigma->0) =       -3.84513363
 


--------------------------------------------------------------------------------------------------------


    POTLOK:  cpu time    0.0030: real time    0.0030


--------------------------------------------------------------------------------------------------------


 writing wavefunctions
     LOOP+:  cpu time    1.4144: real time    1.4617
    4ORBIT:  cpu time    0.0000: real time    0.0000

volume of typ            1:    84.8 %
 
total charge     
 
# of ion       s       p       d       tot
------------------------------------------
    1        0.496   0.493   8.957   9.946
 
orbital moment (x)
 
# of ion     s             p             d             tot
-----------------------------------------------------------------
    1     0.000000E+00 -0.300545E-07  0.244536E-07 -0.560083E-08
 
orbital moment (y)
 
# of ion     s             p             d             tot
-----------------------------------------------------------------
    1     0.000000E+00  0.335214E-07  0.971163E-07  0.130638E-06
 
orbital moment (z)
 
# of ion     s             p             d             tot
-----------------------------------------------------------------
    1     0.000000E+00  0.323193E-07  0.834651E-07  0.115784E-06
 

 total amount of memory used by VASP MPI-rank0    33446. kBytes
=======================================================================

   base      :      30000. kBytes
   nonl-proj :       2075. kBytes
   fftplans  :        238. kBytes
   grid      :        331. kBytes
   one-center:         15. kBytes
   wavefun   :        787. kBytes
 
  
  
 General timing and accounting informations for this job:
 ========================================================
  
                  Total CPU time used (sec):        1.794
                            User time (sec):        1.433
                          System time (sec):        0.361
                         Elapsed time (sec):        2.134
  
                   Maximum memory used (kb):       60404.
                   Average memory used (kb):           0.
  
                          Minor page faults:        15114
                          Major page faults:            0
                 Voluntary context switches:         1939
