PROCAR new format
# of k-points:  100         # of bands:   12         # of ions:    1

 k-point     1 :    0.50000000 0.25000000 0.75000000     weight = 0.01000000

band     1 # energy   -0.36014965 # occ.  2.00000000
 
ion      s      p      d    tot
    1  0.000  0.049  0.801  0.850
 
band     2 # energy    0.47657249 # occ.  2.00000000
 
ion      s      p      d    tot
    1  0.000  0.076  0.819  0.894
 
band     3 # energy    0.47657283 # occ.  2.00000000
 
ion      s      p      d    tot
    1  0.000  0.076  0.819  0.894
 
band     4 # energy    2.37212189 # occ.  2.00000000
 
ion      s      p      d    tot
    1  0.044  0.000  0.883  0.928
 
band     5 # energy    4.12072068 # occ.  2.00000000
 
ion      s      p      d    tot
    1  0.000  0.000  0.981  0.981
 
band     6 # energy   10.55521463 # occ. -0.00000000
 
ion      s      p      d    tot
    1  0.705  0.000  0.101  0.806
 
band     7 # energy   12.10234888 # occ. -0.00000000
 
ion      s      p      d    tot
    1  0.000  0.528  0.202  0.730
 
band     8 # energy   12.10234910 # occ. -0.00000000
 
ion      s      p      d    tot
    1  0.000  0.528  0.202  0.730
 
band     9 # energy   15.30560653 # occ.  0.00000000
 
ion      s      p      d    tot
    1  0.000  0.304  0.359  0.663
 
band    10 # energy   29.27720214 # occ.  0.00000000
 
ion      s      p      d    tot
    1  0.000  0.019  0.249  0.268
 
band    11 # energy   29.27720435 # occ.  0.00000000
 
ion      s      p      d    tot
    1  0.000  0.019  0.249  0.268
 
band    12 # energy   30.44797759 # occ.  0.00000000
 
ion      s      p      d    tot
    1  0.000  0.413  0.042  0.455
 

 k-point     2 :    0.50000000 0.26315789 0.73684211     weight = 0.01000000

band     1 # energy   -0.35100426 # occ.  2.00000000
 
ion      s      p      d    tot
    1  0.000  0.049  0.801  0.850
 
band     2 # energy    0.45918782 # occ.  2.00000000
 
ion      s      p      d    tot
    1  0.002  0.075  0.816  0.893
 
band     3 # energy    0.48832630 # occ.  2.00000000
 
ion      s      p      d    tot
    1  0.000  0.076  0.817  0.894
 
band     4 # energy    2.38174383 # occ.  2.00000000
 
ion      s      p      d    tot
    1  0.043  0.001  0.885  0.928
 
band     5 # energy    4.11059045 # occ.  2.00000000
 
ion      s      p      d    tot
    1  0.000  0.000  0.980  0.981
 
band     6 # energy   10.42189312 # occ. -0.00000000
 
ion      s      p      d    tot
    1  0.657  0.032  0.114  0.802
 
band     7 # energy   12.01458868 # occ. -0.00000000
 
ion      s      p      d    tot
    1  0.000  0.522  0.208  0.730
 
band     8 # energy   12.30332371 # occ. -0.00000000
 
ion      s      p      d    tot
    1  0.047  0.495  0.192  0.734
 
band     9 # energy   15.41042983 # occ.  0.00000000
 
ion      s      p      d    tot
    1  0.000  0.309  0.353  0.662
 
band    10 # energy   28.97012943 # occ.  0.00000000
 
ion      s      p      d    tot
    1  0.000  0.090  0.204  0.294
 
band    11 # energy   29.30090986 # occ.  0.00000000
 
ion      s      p      d    tot
    1  0.000  0.019  0.249  0.269
 
band    12 # energy   30.77508561 # occ.  0.00000000
 
ion      s      p      d    tot
    1  0.000  0.342  0.085  0.427
 

 k-point     3 :    0.50000000 0.27631579 0.72368421     weight = 0.01000000

band     1 # energy   -0.32644721 # occ.  2.00000000
 
ion      s      p      d    tot
    1  0.000  0.048  0.803  0.852
 
band     2 # energy    0.40286861 # occ.  2.00000000
 
ion      s      p      d    tot
    1  0.009  0.073  0.809  0.892
 
band     3 # energy    0.51839188 # occ.  2.00000000
 
ion      s      p      d    tot
    1  0.000  0.079  0.814  0.893
 
band     4 # energy    2.39142643 # occ.  2.00000000
 
ion      s      p      d    tot
    1  0.038  0.003  0.889  0.929
 
band     5 # energy    4.05737180 # occ.  2.00000000
 
ion      s      p      d    tot
    1  0.000  0.001  0.977  0.979
 
band     6 # energy   10.13850883 # occ. -0.00000000
 
ion      s      p      d    tot
    1  0.599  0.066  0.135  0.800
 
band     7 # energy   11.76126826 # occ. -0.00000000
 
ion      s      p      d    tot
    1  0.000  0.509  0.221  0.730
 
band     8 # energy   12.76144493 # occ.  0.00000000
 
ion      s      p      d    tot
    1  0.103  0.456  0.180  0.740
 
band     9 # energy   15.67357447 # occ.  0.00000000
 
ion      s      p      d    tot
    1  0.000  0.319  0.339  0.658
 
band    10 # energy   28.38513108 # occ.  0.00000000
 
ion      s      p      d    tot
    1  0.000  0.143  0.165  0.307
 
band    11 # energy   29.34004825 # occ.  0.00000000
 
ion      s      p      d    tot
    1  0.000  0.019  0.253  0.272
 
band    12 # energy   31.37704390 # occ.  0.00000000
 
ion      s      p      d    tot
    1  0.000  0.291  0.120  0.411
 

 k-point     4 :    0.50000000 0.28947368 0.71052632     weight = 0.01000000

band     1 # energy   -0.28595639 # occ.  2.00000000
 
ion      s      p      d    tot
    1  0.000  0.047  0.807  0.854
 
band     2 # energy    0.31387634 # occ.  2.00000000
 
ion      s      p      d    tot
    1  0.020  0.071  0.799  0.889
 
band     3 # energy    0.56883442 # occ.  2.00000000
 
ion      s      p      d    tot
    1  0.000  0.082  0.809  0.892
 
band     4 # energy    2.39945898 # occ.  2.00000000
 
ion      s      p      d    tot
    1  0.030  0.006  0.895  0.931
 
band     5 # energy    3.97775318 # occ.  2.00000000
 
ion      s      p      d    tot
    1  0.001  0.002  0.973  0.977
 
band     6 # energy    9.83953157 # occ. -0.00000000
 
ion      s      p      d    tot
    1  0.569  0.078  0.155  0.802
 
band     7 # energy   11.40328588 # occ. -0.00000000
 
ion      s      p      d    tot
    1  0.000  0.496  0.236  0.732
 
band     8 # energy   13.34635836 # occ.  0.00000000
 
ion      s      p      d    tot
    1  0.129  0.439  0.173  0.741
 
band     9 # energy   16.04823457 # occ.  0.00000000
 
ion      s      p      d    tot
    1  0.000  0.328  0.324  0.651
 
band    10 # energy   27.75438726 # occ.  0.00000000
 
ion      s      p      d    tot
    1  0.000  0.168  0.140  0.308
 
band    11 # energy   29.40494842 # occ.  0.00000000
 
ion      s      p      d    tot
    1  0.001  0.019  0.258  0.278
 
band    12 # energy   32.03819826 # occ.  0.00000000
 
ion      s      p      d    tot
    1  0.000  0.267  0.139  0.406
 

 k-point     5 :    0.50000000 0.30263158 0.69736842     weight = 0.01000000

band     1 # energy   -0.23046220 # occ.  2.00000000
 
ion      s      p      d    tot
    1  0.000  0.044  0.812  0.857
 
band     2 # energy    0.19768930 # occ.  2.00000000
 
ion      s      p      d    tot
    1  0.033  0.067  0.785  0.886
 
band     3 # energy    0.63974324 # occ.  2.00000000
 
ion      s      p      d    tot
    1  0.000  0.088  0.802  0.889
 
band     4 # energy    2.39482019 # occ.  2.00000000
 
ion      s      p      d    tot
    1  0.022  0.009  0.901  0.933
 
band     5 # energy    3.88367055 # occ.  2.00000000
 
ion      s      p      d    tot
    1  0.002  0.003  0.969  0.974
 
band     6 # energy    9.57315220 # occ. -0.00000000
 
ion      s      p      d    tot
    1  0.554  0.076  0.176  0.807
 
band     7 # energy   10.98522311 # occ. -0.00000000
 
ion      s      p      d    tot
    1  0.000  0.484  0.249  0.733
 
band     8 # energy   14.00225594 # occ.  0.00000000
 
ion      s      p      d    tot
    1  0.136  0.435  0.170  0.741
 
band     9 # energy   16.48877547 # occ.  0.00000000
 
ion      s      p      d    tot
    1  0.000  0.332  0.309  0.642
 
band    10 # energy   27.12097585 # occ.  0.00000000
 
ion      s      p      d    tot
    1  0.000  0.184  0.119  0.303
 
band    11 # energy   29.49398113 # occ.  0.00000000
 
ion      s      p      d    tot
    1  0.001  0.019  0.266  0.285
 
band    12 # energy   32.71647460 # occ.  0.00000000
 
ion      s      p      d    tot
    1  0.000  0.254  0.150  0.404
 

 k-point     6 :    0.50000000 0.31578947 0.68421053     weight = 0.01000000

band     1 # energy   -0.16124790 # occ.  2.00000000
 
ion      s      p      d    tot
    1  0.000  0.041  0.819  0.860
 
band     2 # energy    0.05989362 # occ.  2.00000000
 
ion      s      p      d    tot
    1  0.048  0.064  0.770  0.882
 
band     3 # energy    0.73127263 # occ.  2.00000000
 
ion      s      p      d    tot
    1  0.000  0.094  0.792  0.887
 
band     4 # energy    2.36515570 # occ.  2.00000000
 
ion      s      p      d    tot
    1  0.014  0.013  0.908  0.934
 
band     5 # energy    3.79074068 # occ.  2.00000000
 
ion      s      p      d    tot
    1  0.004  0.003  0.964  0.971
 
band     6 # energy    9.35310208 # occ. -0.00000000
 
ion      s      p      d    tot
    1  0.547  0.068  0.198  0.814
 
band     7 # energy   10.53433703 # occ. -0.00000000
 
ion      s      p      d    tot
    1  0.000  0.475  0.261  0.735
 
band     8 # energy   14.70490092 # occ.  0.00000000
 
ion      s      p      d    tot
    1  0.134  0.436  0.168  0.738
 
band     9 # energy   16.96630185 # occ.  0.00000000
 
ion      s      p      d    tot
    1  0.000  0.333  0.296  0.629
 
band    10 # energy   26.49909204 # occ.  0.00000000
 
ion      s      p      d    tot
    1  0.000  0.196  0.101  0.297
 
band    11 # energy   29.60481401 # occ.  0.00000000
 
ion      s      p      d    tot
    1  0.002  0.018  0.276  0.296
 
band    12 # energy   33.39923747 # occ.  0.00000000
 
ion      s      p      d    tot
    1  0.000  0.246  0.157  0.404
 

 k-point     7 :    0.50000000 0.32894737 0.67105263     weight = 0.01000000

band     1 # energy   -0.09440289 # occ.  2.00000000
 
ion      s      p      d    tot
    1  0.064  0.060  0.754  0.878
 
band     2 # energy   -0.08002983 # occ.  2.00000000
 
ion      s      p      d    tot
    1  0.000  0.038  0.828  0.865
 
band     3 # energy    0.84301240 # occ.  2.00000000
 
ion      s      p      d    tot
    1  0.000  0.102  0.781  0.883
 
band     4 # energy    2.29922074 # occ.  2.00000000
 
ion      s      p      d    tot
    1  0.008  0.015  0.913  0.936
 
band     5 # energy    3.71234247 # occ.  2.00000000
 
ion      s      p      d    tot
    1  0.006  0.002  0.962  0.970
 
band     6 # energy    9.18046562 # occ. -0.00000000
 
ion      s      p      d    tot
    1  0.542  0.058  0.221  0.822
 
band     7 # energy   10.06518596 # occ. -0.00000000
 
ion      s      p      d    tot
    1  0.000  0.467  0.271  0.737
 
band     8 # energy   15.43883916 # occ.  0.00000000
 
ion      s      p      d    tot
    1  0.127  0.440  0.166  0.734
 
band     9 # energy   17.46274940 # occ.  0.00000000
 
ion      s      p      d    tot
    1  0.000  0.329  0.283  0.612
 
band    10 # energy   25.89579828 # occ.  0.00000000
 
ion      s      p      d    tot
    1  0.000  0.207  0.084  0.291
 
band    11 # energy   29.73325262 # occ.  0.00000000
 
ion      s      p      d    tot
    1  0.003  0.018  0.289  0.310
 
band    12 # energy   34.07537704 # occ.  0.00000000
 
ion      s      p      d    tot
    1  0.000  0.241  0.162  0.403
 

 k-point     8 :    0.50000000 0.34210526 0.65789474     weight = 0.01000000

band     1 # energy   -0.26065121 # occ.  2.00000000
 
ion      s      p      d    tot
    1  0.080  0.056  0.738  0.874
 
band     2 # energy    0.01118382 # occ.  2.00000000
 
ion      s      p      d    tot
    1  0.000  0.034  0.837  0.871
 
band     3 # energy    0.97607636 # occ.  2.00000000
 
ion      s      p      d    tot
    1  0.000  0.111  0.768  0.879
 
band     4 # energy    2.19571125 # occ.  2.00000000
 
ion      s      p      d    tot
    1  0.003  0.016  0.917  0.936
 
band     5 # energy    3.66216017 # occ.  2.00000000
 
ion      s      p      d    tot
    1  0.007  0.001  0.961  0.969
 
band     6 # energy    9.05143498 # occ. -0.00000000
 
ion      s      p      d    tot
    1  0.538  0.048  0.244  0.830
 
band     7 # energy    9.58885750 # occ. -0.00000000
 
ion      s      p      d    tot
    1  0.000  0.460  0.279  0.739
 
band     8 # energy   16.19655944 # occ.  0.00000000
 
ion      s      p      d    tot
    1  0.117  0.445  0.165  0.727
 
band     9 # energy   17.96545166 # occ.  0.00000000
 
ion      s      p      d    tot
    1  0.000  0.321  0.270  0.591
 
band    10 # energy   25.32055768 # occ.  0.00000000
 
ion      s      p      d    tot
    1  0.000  0.219  0.067  0.286
 
band    11 # energy   29.87676149 # occ.  0.00000000
 
ion      s      p      d    tot
    1  0.004  0.016  0.306  0.326
 
band    12 # energy   34.81824961 # occ.  0.00000000
 
ion      s      p      d    tot
    1  0.148  0.062  0.167  0.378
 

 k-point     9 :    0.50000000 0.35526316 0.64473684     weight = 0.01000000

band     1 # energy   -0.43473074 # occ.  2.00000000
 
ion      s      p      d    tot
    1  0.097  0.051  0.722  0.870
 
band     2 # energy    0.10910193 # occ.  2.00000000
 
ion      s      p      d    tot
    1  0.000  0.029  0.849  0.878
 
band     3 # energy    1.13107745 # occ.  2.00000000
 
ion      s      p      d    tot
    1  0.000  0.121  0.754  0.875
 
band     4 # energy    2.06023802 # occ.  2.00000000
 
ion      s      p      d    tot
    1  0.001  0.016  0.919  0.936
 
band     5 # energy    3.63901511 # occ.  2.00000000
 
ion      s      p      d    tot
    1  0.007  0.000  0.962  0.969
 
band     6 # energy    8.95982740 # occ. -0.00000000
 
ion      s      p      d    tot
    1  0.534  0.038  0.267  0.839
 
band     7 # energy    9.11303927 # occ. -0.00000000
 
ion      s      p      d    tot
    1  0.000  0.453  0.287  0.740
 
band     8 # energy   16.96734676 # occ.  0.00000000
 
ion      s      p      d    tot
    1  0.106  0.450  0.162  0.718
 
band     9 # energy   18.45682093 # occ.  0.00000000
 
ion      s      p      d    tot
    1  0.000  0.309  0.256  0.565
 
band    10 # energy   24.77931520 # occ.  0.00000000
 
ion      s      p      d    tot
    1  0.000  0.233  0.052  0.285
 
band    11 # energy   30.03131964 # occ.  0.00000000
 
ion      s      p      d    tot
    1  0.006  0.015  0.325  0.346
 
band    12 # energy   34.50837387 # occ.  0.00000000
 
ion      s      p      d    tot
    1  0.000  0.006  0.153  0.159
 

 k-point    10 :    0.50000000 0.36842105 0.63157895     weight = 0.01000000

band     1 # energy   -0.61255310 # occ.  2.00000000
 
ion      s      p      d    tot
    1  0.114  0.046  0.707  0.867
 
band     2 # energy    0.21264214 # occ.  2.00000000
 
ion      s      p      d    tot
    1  0.000  0.024  0.860  0.885
 
band     3 # energy    1.30626782 # occ.  2.00000000
 
ion      s      p      d    tot
    1  0.000  0.132  0.739  0.871
 
band     4 # energy    1.90500633 # occ.  2.00000000
 
ion      s      p      d    tot
    1  0.000  0.014  0.922  0.936
 
band     5 # energy    3.63681986 # occ.  2.00000000
 
ion      s      p      d    tot
    1  0.005  0.000  0.964  0.970
 
band     6 # energy    8.63496503 # occ. -0.00000000
 
ion      s      p      d    tot
    1  0.000  0.447  0.294  0.741
 
band     7 # energy    8.89891483 # occ. -0.00000000
 
ion      s      p      d    tot
    1  0.530  0.030  0.288  0.848
 
band     8 # energy   17.74623471 # occ.  0.00000000
 
ion      s      p      d    tot
    1  0.094  0.455  0.158  0.707
 
band     9 # energy   18.93936705 # occ.  0.00000000
 
ion      s      p      d    tot
    1  0.000  0.291  0.240  0.531
 
band    10 # energy   24.28192978 # occ.  0.00000000
 
ion      s      p      d    tot
    1  0.000  0.252  0.038  0.290
 
band    11 # energy   30.18859243 # occ.  0.00000000
 
ion      s      p      d    tot
    1  0.008  0.013  0.347  0.367
 
band    12 # energy   33.93984489 # occ.  0.00000000
 
ion      s      p      d    tot
    1  0.000  0.006  0.186  0.192
 

 k-point    11 :    0.50000000 0.38157895 0.61842105     weight = 0.01000000

band     1 # energy   -0.79011095 # occ.  2.00000000
 
ion      s      p      d    tot
    1  0.130  0.040  0.693  0.863
 
band     2 # energy    0.31840836 # occ.  2.00000000
 
ion      s      p      d    tot
    1  0.000  0.020  0.873  0.893
 
band     3 # energy    1.50265239 # occ.  2.00000000
 
ion      s      p      d    tot
    1  0.000  0.142  0.724  0.866
 
band     4 # energy    1.74275146 # occ.  2.00000000
 
ion      s      p      d    tot
    1  0.000  0.012  0.924  0.936
 
band     5 # energy    3.64852771 # occ.  2.00000000
 
ion      s      p      d    tot
    1  0.004  0.000  0.966  0.971
 
band     6 # energy    8.16098207 # occ. -0.00000000
 
ion      s      p      d    tot
    1  0.000  0.442  0.300  0.742
 
band     7 # energy    8.86232916 # occ. -0.00000000
 
ion      s      p      d    tot
    1  0.525  0.023  0.308  0.856
 
band     8 # energy   18.52455659 # occ.  0.00000000
 
ion      s      p      d    tot
    1  0.082  0.459  0.151  0.693
 
band     9 # energy   19.39349500 # occ.  0.00000000
 
ion      s      p      d    tot
    1  0.000  0.265  0.222  0.486
 
band    10 # energy   23.83957893 # occ.  0.00000000
 
ion      s      p      d    tot
    1  0.000  0.277  0.026  0.303
 
band    11 # energy   30.34400434 # occ.  0.00000000
 
ion      s      p      d    tot
    1  0.010  0.011  0.371  0.391
 
band    12 # energy   33.40997307 # occ.  0.00000000
 
ion      s      p      d    tot
    1  0.000  0.007  0.223  0.230
 

 k-point    12 :    0.50000000 0.39473684 0.60526316     weight = 0.01000000

band     1 # energy   -0.96330924 # occ.  2.00000000
 
ion      s      p      d    tot
    1  0.146  0.034  0.681  0.861
 
band     2 # energy    0.42356153 # occ.  2.00000000
 
ion      s      p      d    tot
    1  0.000  0.016  0.885  0.900
 
band     3 # energy    1.58390424 # occ.  2.00000000
 
ion      s      p      d    tot
    1  0.000  0.010  0.927  0.937
 
band     4 # energy    1.71993848 # occ.  2.00000000
 
ion      s      p      d    tot
    1  0.000  0.152  0.711  0.862
 
band     5 # energy    3.66779377 # occ.  2.00000000
 
ion      s      p      d    tot
    1  0.003  0.000  0.969  0.972
 
band     6 # energy    7.69315972 # occ. -0.00000109
 
ion      s      p      d    tot
    1  0.000  0.437  0.305  0.742
 
band     7 # energy    8.84424197 # occ. -0.00000000
 
ion      s      p      d    tot
    1  0.520  0.017  0.326  0.863
 
band     8 # energy   19.29454384 # occ.  0.00000000
 
ion      s      p      d    tot
    1  0.071  0.464  0.142  0.676
 
band     9 # energy   19.80129712 # occ.  0.00000000
 
ion      s      p      d    tot
    1  0.000  0.228  0.199  0.427
 
band    10 # energy   23.46824004 # occ.  0.00000000
 
ion      s      p      d    tot
    1  0.000  0.312  0.017  0.329
 
band    11 # energy   30.49151166 # occ.  0.00000000
 
ion      s      p      d    tot
    1  0.012  0.008  0.396  0.416
 
band    12 # energy   32.92260010 # occ.  0.00000000
 
ion      s      p      d    tot
    1  0.000  0.007  0.264  0.271
 

 k-point    13 :    0.50000000 0.40789474 0.59210526     weight = 0.01000000

band     1 # energy   -1.12783712 # occ.  2.00000000
 
ion      s      p      d    tot
    1  0.160  0.028  0.671  0.858
 
band     2 # energy    0.52480669 # occ.  2.00000000
 
ion      s      p      d    tot
    1  0.000  0.012  0.896  0.908
 
band     3 # energy    1.43440510 # occ.  2.00000000
 
ion      s      p      d    tot
    1  0.000  0.007  0.929  0.937
 
band     4 # energy    1.95770127 # occ.  2.00000000
 
ion      s      p      d    tot
    1  0.000  0.160  0.699  0.860
 
band     5 # energy    3.69002168 # occ.  2.00000000
 
ion      s      p      d    tot
    1  0.002  0.000  0.971  0.973
 
band     6 # energy    7.23453018 # occ. -0.05487725
 
ion      s      p      d    tot
    1  0.000  0.433  0.308  0.741
 
band     7 # energy    8.84097412 # occ. -0.00000000
 
ion      s      p      d    tot
    1  0.516  0.012  0.342  0.871
 
band     8 # energy   20.04567058 # occ.  0.00000000
 
ion      s      p      d    tot
    1  0.059  0.468  0.130  0.657
 
band     9 # energy   20.13638928 # occ.  0.00000000
 
ion      s      p      d    tot
    1  0.000  0.180  0.169  0.350
 
band    10 # energy   23.18960423 # occ.  0.00000000
 
ion      s      p      d    tot
    1  0.000  0.359  0.013  0.372
 
band    11 # energy   30.62390177 # occ.  0.00000000
 
ion      s      p      d    tot
    1  0.013  0.005  0.421  0.440
 
band    12 # energy   32.47769022 # occ.  0.00000000
 
ion      s      p      d    tot
    1  0.000  0.007  0.308  0.315
 

 k-point    14 :    0.50000000 0.42105263 0.57894737     weight = 0.01000000

band     1 # energy   -1.28005423 # occ.  2.00000000
 
ion      s      p      d    tot
    1  0.173  0.021  0.662  0.856
 
band     2 # energy    0.61994378 # occ.  2.00000000
 
ion      s      p      d    tot
    1  0.000  0.008  0.906  0.915
 
band     3 # energy    1.30136096 # occ.  2.00000000
 
ion      s      p      d    tot
    1  0.000  0.005  0.932  0.937
 
band     4 # energy    2.21445719 # occ.  2.00000000
 
ion      s      p      d    tot
    1  0.000  0.167  0.691  0.858
 
band     5 # energy    3.71242008 # occ.  2.00000000
 
ion      s      p      d    tot
    1  0.001  0.000  0.973  0.974
 
band     6 # energy    6.78380575 # occ.  1.95156741
 
ion      s      p      d    tot
    1  0.000  0.431  0.308  0.739
 
band     7 # energy    8.84495829 # occ. -0.00000000
 
ion      s      p      d    tot
    1  0.512  0.009  0.356  0.877
 
band     8 # energy   20.37488066 # occ.  0.00000000
 
ion      s      p      d    tot
    1  0.000  0.124  0.133  0.257
 
band     9 # energy   20.77090802 # occ.  0.00000000
 
ion      s      p      d    tot
    1  0.048  0.473  0.114  0.635
 
band    10 # energy   23.02708166 # occ.  0.00000000
 
ion      s      p      d    tot
    1  0.000  0.414  0.015  0.429
 
band    11 # energy   30.73595015 # occ.  0.00000000
 
ion      s      p      d    tot
    1  0.014  0.003  0.447  0.464
 
band    12 # energy   32.07495325 # occ.  0.00000000
 
ion      s      p      d    tot
    1  0.000  0.006  0.355  0.362
 

 k-point    15 :    0.50000000 0.43421053 0.56578947     weight = 0.01000000

band     1 # energy   -1.41588137 # occ.  2.00000000
 
ion      s      p      d    tot
    1  0.183  0.016  0.656  0.855
 
band     2 # energy    0.70606820 # occ.  2.00000000
 
ion      s      p      d    tot
    1  0.000  0.006  0.916  0.921
 
band     3 # energy    1.18659748 # occ.  2.00000000
 
ion      s      p      d    tot
    1  0.000  0.003  0.934  0.937
 
band     4 # energy    2.48915093 # occ.  2.00000000
 
ion      s      p      d    tot
    1  0.000  0.170  0.688  0.859
 
band     5 # energy    3.73306502 # occ.  2.00000000
 
ion      s      p      d    tot
    1  0.000  0.000  0.974  0.975
 
band     6 # energy    6.34471911 # occ.  2.00025418
 
ion      s      p      d    tot
    1  0.000  0.432  0.304  0.736
 
band     7 # energy    8.85429428 # occ. -0.00000000
 
ion      s      p      d    tot
    1  0.508  0.006  0.368  0.882
 
band     8 # energy   20.49892106 # occ.  0.00000000
 
ion      s      p      d    tot
    1  0.000  0.074  0.093  0.167
 
band     9 # energy   21.45535439 # occ.  0.00000000
 
ion      s      p      d    tot
    1  0.036  0.479  0.095  0.611
 
band    10 # energy   22.99126920 # occ.  0.00000000
 
ion      s      p      d    tot
    1  0.000  0.463  0.021  0.484
 
band    11 # energy   30.82205620 # occ.  0.00000000
 
ion      s      p      d    tot
    1  0.013  0.001  0.472  0.486
 
band    12 # energy   31.71806013 # occ.  0.00000000
 
ion      s      p      d    tot
    1  0.000  0.006  0.404  0.409
 

 k-point    16 :    0.50000000 0.44736842 0.55263158     weight = 0.01000000

band     1 # energy   -1.53190294 # occ.  2.00000000
 
ion      s      p      d    tot
    1  0.193  0.010  0.651  0.853
 
band     2 # energy    0.78063019 # occ.  2.00000000
 
ion      s      p      d    tot
    1  0.000  0.004  0.923  0.927
 
band     3 # energy    1.09170276 # occ.  2.00000000
 
ion      s      p      d    tot
    1  0.000  0.002  0.935  0.937
 
band     4 # energy    2.77941290 # occ.  2.00000000
 
ion      s      p      d    tot
    1  0.000  0.168  0.694  0.862
 
band     5 # energy    3.75085111 # occ.  2.00000000
 
ion      s      p      d    tot
    1  0.000  0.000  0.975  0.975
 
band     6 # energy    5.91991708 # occ.  2.00000000
 
ion      s      p      d    tot
    1  0.000  0.436  0.293  0.729
 
band     7 # energy    8.86596657 # occ. -0.00000000
 
ion      s      p      d    tot
    1  0.505  0.004  0.378  0.887
 
band     8 # energy   20.52382464 # occ.  0.00000000
 
ion      s      p      d    tot
    1  0.000  0.043  0.057  0.100
 
band     9 # energy   22.08116684 # occ.  0.00000000
 
ion      s      p      d    tot
    1  0.026  0.487  0.073  0.586
 
band    10 # energy   23.05934249 # occ.  0.00000000
 
ion      s      p      d    tot
    1  0.000  0.494  0.023  0.517
 
band    11 # energy   30.87573880 # occ.  0.00000000
 
ion      s      p      d    tot
    1  0.011  0.000  0.496  0.506
 
band    12 # energy   31.41155172 # occ.  0.00000000
 
ion      s      p      d    tot
    1  0.000  0.004  0.451  0.455
 

 k-point    17 :    0.50000000 0.46052632 0.53947368     weight = 0.01000000

band     1 # energy   -1.62521697 # occ.  2.00000000
 
ion      s      p      d    tot
    1  0.200  0.006  0.647  0.853
 
band     2 # energy    0.84140424 # occ.  2.00000000
 
ion      s      p      d    tot
    1  0.000  0.002  0.929  0.931
 
band     3 # energy    1.01752954 # occ.  2.00000000
 
ion      s      p      d    tot
    1  0.000  0.001  0.936  0.937
 
band     4 # energy    3.08084903 # occ.  2.00000000
 
ion      s      p      d    tot
    1  0.000  0.157  0.715  0.872
 
band     5 # energy    3.76514543 # occ.  2.00000000
 
ion      s      p      d    tot
    1  0.000  0.000  0.976  0.976
 
band     6 # energy    5.51393499 # occ.  2.00000000
 
ion      s      p      d    tot
    1  0.000  0.450  0.267  0.717
 
band     7 # energy    8.87760167 # occ. -0.00000000
 
ion      s      p      d    tot
    1  0.503  0.002  0.386  0.890
 
band     8 # energy   20.49051819 # occ.  0.00000000
 
ion      s      p      d    tot
    1  0.000  0.028  0.030  0.059
 
band     9 # energy   22.62402614 # occ.  0.00000000
 
ion      s      p      d    tot
    1  0.016  0.496  0.048  0.560
 
band    10 # energy   23.18105196 # occ.  0.00000000
 
ion      s      p      d    tot
    1  0.000  0.509  0.019  0.528
 
band    11 # energy   30.89116601 # occ.  0.00000000
 
ion      s      p      d    tot
    1  0.006  0.000  0.519  0.525
 
band    12 # energy   31.16179934 # occ.  0.00000000
 
ion      s      p      d    tot
    1  0.000  0.003  0.494  0.497
 

 k-point    18 :    0.50000000 0.47368421 0.52631579     weight = 0.01000000

band     1 # energy   -1.69356020 # occ.  2.00000000
 
ion      s      p      d    tot
    1  0.205  0.003  0.645  0.852
 
band     2 # energy    0.88652683 # occ.  2.00000000
 
ion      s      p      d    tot
    1  0.000  0.001  0.934  0.935
 
band     3 # energy    0.96448117 # occ.  2.00000000
 
ion      s      p      d    tot
    1  0.000  0.001  0.937  0.937
 
band     4 # energy    3.38043966 # occ.  2.00000000
 
ion      s      p      d    tot
    1  0.000  0.128  0.765  0.893
 
band     5 # energy    3.77450634 # occ.  2.00000000
 
ion      s      p      d    tot
    1  0.000  0.000  0.976  0.976
 
band     6 # energy    5.13634005 # occ.  2.00000000
 
ion      s      p      d    tot
    1  0.000  0.481  0.214  0.695
 
band     7 # energy    8.88684015 # occ. -0.00000000
 
ion      s      p      d    tot
    1  0.501  0.001  0.391  0.893
 
band     8 # energy   20.43992653 # occ.  0.00000000
 
ion      s      p      d    tot
    1  0.000  0.024  0.013  0.036
 
band     9 # energy   23.05182317 # occ.  0.00000000
 
ion      s      p      d    tot
    1  0.008  0.505  0.025  0.538
 
band    10 # energy   23.30484098 # occ.  0.00000000
 
ion      s      p      d    tot
    1  0.000  0.514  0.010  0.525
 
band    11 # energy   30.86902219 # occ.  0.00000000
 
ion      s      p      d    tot
    1  0.002  0.000  0.540  0.543
 
band    12 # energy   30.97633366 # occ.  0.00000000
 
ion      s      p      d    tot
    1  0.000  0.002  0.529  0.531
 

 k-point    19 :    0.50000000 0.48684211 0.51315789     weight = 0.01000000

band     1 # energy   -1.73548913 # occ.  2.00000000
 
ion      s      p      d    tot
    1  0.208  0.001  0.643  0.852
 
band     2 # energy    0.91196404 # occ.  2.00000000
 
ion      s      p      d    tot
    1  0.000  0.000  0.937  0.937
 
band     3 # energy    0.93181913 # occ.  2.00000000
 
ion      s      p      d    tot
    1  0.000  0.000  0.937  0.938
 
band     4 # energy    3.65064158 # occ.  2.00000000
 
ion      s      p      d    tot
    1  0.000  0.064  0.871  0.936
 
band     5 # energy    3.78040383 # occ.  2.00000000
 
ion      s      p      d    tot
    1  0.000  0.000  0.976  0.976
 
band     6 # energy    4.82019636 # occ.  2.00000000
 
ion      s      p      d    tot
    1  0.000  0.545  0.106  0.652
 
band     7 # energy    8.89068441 # occ. -0.00000000
 
ion      s      p      d    tot
    1  0.500  0.000  0.394  0.894
 
band     8 # energy   20.39807600 # occ.  0.00000000
 
ion      s      p      d    tot
    1  0.000  0.023  0.003  0.026
 
band     9 # energy   23.32772289 # occ.  0.00000000
 
ion      s      p      d    tot
    1  0.002  0.513  0.007  0.522
 
band    10 # energy   23.39284786 # occ.  0.00000000
 
ion      s      p      d    tot
    1  0.000  0.516  0.003  0.519
 
band    11 # energy   30.82413892 # occ.  0.00000000
 
ion      s      p      d    tot
    1  0.000  0.000  0.555  0.556
 
band    12 # energy   30.84366717 # occ.  0.00000000
 
ion      s      p      d    tot
    1  0.000  0.000  0.553  0.553
 

 k-point    20 :    0.50000000 0.50000000 0.50000000     weight = 0.01000000

band     1 # energy   -1.74949912 # occ.  2.00000000
 
ion      s      p      d    tot
    1  0.209  0.000  0.643  0.852
 
band     2 # energy    0.92115825 # occ.  2.00000000
 
ion      s      p      d    tot
    1  0.000  0.000  0.938  0.938
 