<?xml version="1.0" encoding="ISO-8859-1"?>
<modeling>
 <generator>
  <i name="program" type="string">vasp </i>
  <i name="version" type="string">5.4.4.18Apr17-6-g9f103f2a35  </i>
  <i name="subversion" type="string">(build May 18 2018 14:42:58) complex            parallel </i>
  <i name="platform" type="string">LinuxIFC </i>
  <i name="date" type="string">2020 06 30 </i>
  <i name="time" type="string">13:47:35 </i>
 </generator>
 <incar>
  <i type="string" name="SYSTEM"> FCC Au</i>
  <i type="string" name="PREC">normal</i>
  <i type="int" name="ICHARG">    11</i>
  <i name="EDIFF">      0.00010000</i>
  <i name="ENCUT">    230.00000000</i>
  <v name="RWIGS">      1.50300000</v>
  <i type="logical" name="LCHARG"> F  </i>
  <v type="int" name="KPOINT_BSE">    -1     0     0     0</v>
 </incar>
 <structure name="primitive_cell" >
  <crystal>
   <varray name="basis" >
    <v>       0.00000000       2.03189500       2.03189500 </v>
    <v>       2.03189500       0.00000000       2.03189500 </v>
    <v>       2.03189500       2.03189500       0.00000000 </v>
   </varray>
   <i name="volume">     16.77775239 </i>
   <varray name="rec_basis" >
    <v>      -0.24607571       0.24607571       0.24607571 </v>
    <v>       0.24607571      -0.24607571       0.24607571 </v>
    <v>       0.24607571       0.24607571      -0.24607571 </v>
   </varray>
  </crystal>
  <varray name="positions" >
   <v>       0.00000000       0.00000000       0.00000000 </v>
  </varray>
 </structure>
 <varray name="primitive_index" >
  <v type="int" >        1 </v>
 </varray>
 <kpoints>
  <generation param="listgenerated">
   <i name="divisions" type="int">      20 </i>
   <v>       0.50000000       0.25000000       0.75000000 </v>
   <v>       0.50000000       0.50000000       0.50000000 </v>
   <v>       0.00000000       0.00000000       0.00000000 </v>
   <v>       0.50000000       0.00000000       0.50000000 </v>
   <v>       0.50000000       0.25000000       0.75000000 </v>
   <v>       0.37500000       0.37500000       0.75000000 </v>
  </generation>
  <varray name="kpointlist" >
   <v>       0.50000000       0.25000000       0.75000000 </v>
   <v>       0.50000000       0.26315789       0.73684211 </v>
   <v>       0.50000000       0.27631579       0.72368421 </v>
   <v>       0.50000000       0.28947368       0.71052632 </v>
   <v>       0.50000000       0.30263158       0.69736842 </v>
   <v>       0.50000000       0.31578947       0.68421053 </v>
   <v>       0.50000000       0.32894737       0.67105263 </v>
   <v>       0.50000000       0.34210526       0.65789474 </v>
   <v>       0.50000000       0.35526316       0.64473684 </v>
   <v>       0.50000000       0.36842105       0.63157895 </v>
   <v>       0.50000000       0.38157895       0.61842105 </v>
   <v>       0.50000000       0.39473684       0.60526316 </v>
   <v>       0.50000000       0.40789474       0.59210526 </v>
   <v>       0.50000000       0.42105263       0.57894737 </v>
   <v>       0.50000000       0.43421053       0.56578947 </v>
   <v>       0.50000000       0.44736842       0.55263158 </v>
   <v>       0.50000000       0.46052632       0.53947368 </v>
   <v>       0.50000000       0.47368421       0.52631579 </v>
   <v>       0.50000000       0.48684211       0.51315789 </v>
   <v>       0.50000000       0.50000000       0.50000000 </v>
   <v>       0.50000000       0.50000000       0.50000000 </v>
   <v>       0.47368421       0.47368421       0.47368421 </v>
   <v>       0.44736842       0.44736842       0.44736842 </v>
   <v>       0.42105263       0.42105263       0.42105263 </v>
   <v>       0.39473684       0.39473684       0.39473684 </v>
   <v>       0.36842105       0.36842105       0.36842105 </v>
   <v>       0.34210526       0.34210526       0.34210526 </v>
   <v>       0.31578947       0.31578947       0.31578947 </v>
   <v>       0.28947368       0.28947368       0.28947368 </v>
   <v>       0.26315789       0.26315789       0.26315789 </v>
   <v>       0.23684211       0.23684211       0.23684211 </v>
   <v>       0.21052632       0.21052632       0.21052632 </v>
   <v>       0.18421053       0.18421053       0.18421053 </v>
   <v>       0.15789474       0.15789474       0.15789474 </v>
   <v>       0.13157895       0.13157895       0.13157895 </v>
   <v>       0.10526316       0.10526316       0.10526316 </v>
   <v>       0.07894737       0.07894737       0.07894737 </v>
   <v>       0.05263158       0.05263158       0.05263158 </v>
   <v>       0.02631579       0.02631579       0.02631579 </v>
   <v>       0.00000000       0.00000000       0.00000000 </v>
   <v>       0.00000000       0.00000000       0.00000000 </v>
   <v>       0.02631579       0.00000000       0.02631579 </v>
   <v>       0.05263158       0.00000000       0.05263158 </v>
   <v>       0.07894737       0.00000000       0.07894737 </v>
   <v>       0.10526316       0.00000000       0.10526316 </v>
   <v>       0.13157895       0.00000000       0.13157895 </v>
   <v>       0.15789474       0.00000000       0.15789474 </v>
   <v>       0.18421053       0.00000000       0.18421053 </v>
   <v>       0.21052632       0.00000000       0.21052632 </v>
   <v>       0.23684211       0.00000000       0.23684211 </v>
   <v>       0.26315789       0.00000000       0.26315789 </v>
   <v>       0.28947368       0.00000000       0.28947368 </v>
   <v>       0.31578947       0.00000000       0.31578947 </v>
   <v>       0.34210526       0.00000000       0.34210526 </v>
   <v>       0.36842105       0.00000000       0.36842105 </v>
   <v>       0.39473684       0.00000000       0.39473684 </v>
   <v>       0.42105263       0.00000000       0.42105263 </v>
   <v>       0.44736842       0.00000000       0.44736842 </v>
   <v>       0.47368421       0.00000000       0.47368421 </v>
   <v>       0.50000000       0.00000000       0.50000000 </v>
   <v>       0.50000000       0.00000000       0.50000000 </v>
   <v>       0.50000000       0.01315789       0.51315789 </v>
   <v>       0.50000000       0.02631579       0.52631579 </v>
   <v>       0.50000000       0.03947368       0.53947368 </v>
   <v>       0.50000000       0.05263158       0.55263158 </v>
   <v>       0.50000000       0.06578947       0.56578947 </v>
   <v>       0.50000000       0.07894737       0.57894737 </v>
   <v>       0.50000000       0.09210526       0.59210526 </v>
   <v>       0.50000000       0.10526316       0.60526316 </v>
   <v>       0.50000000       0.11842105       0.61842105 </v>
   <v>       0.50000000       0.13157895       0.63157895 </v>
   <v>       0.50000000       0.14473684       0.64473684 </v>
   <v>       0.50000000       0.15789474       0.65789474 </v>
   <v>       0.50000000       0.17105263       0.67105263 </v>
   <v>       0.50000000       0.18421053       0.68421053 </v>
   <v>       0.50000000       0.19736842       0.69736842 </v>
   <v>       0.50000000       0.21052632       0.71052632 </v>
   <v>       0.50000000       0.22368421       0.72368421 </v>
   <v>       0.50000000       0.23684211       0.73684211 </v>
   <v>       0.50000000       0.25000000       0.75000000 </v>
   <v>       0.50000000       0.25000000       0.75000000 </v>
   <v>       0.49342105       0.25657895       0.75000000 </v>
   <v>       0.48684211       0.26315789       0.75000000 </v>
   <v>       0.48026316       0.26973684       0.75000000 </v>
   <v>       0.47368421       0.27631579       0.75000000 </v>
   <v>       0.46710526       0.28289474       0.75000000 </v>
   <v>       0.46052632       0.28947368       0.75000000 </v>
   <v>       0.45394737       0.29605263       0.75000000 </v>
   <v>       0.44736842       0.30263158       0.75000000 </v>
   <v>       0.44078947       0.30921053       0.75000000 </v>
   <v>       0.43421053       0.31578947       0.75000000 </v>
   <v>       0.42763158       0.32236842       0.75000000 </v>
   <v>       0.42105263       0.32894737       0.75000000 </v>
   <v>       0.41447368       0.33552632       0.75000000 </v>
   <v>       0.40789474       0.34210526       0.75000000 </v>
   <v>       0.40131579       0.34868421       0.75000000 </v>
   <v>       0.39473684       0.35526316       0.75000000 </v>
   <v>       0.38815789       0.36184211       0.75000000 </v>
   <v>       0.38157895       0.36842105       0.75000000 </v>
   <v>       0.37500000       0.37500000       0.75000000 </v>
  </varray>
  <varray name="weights" >
   <v>       0.01000000 </v>
   <v>       0.01000000 </v>
   <v>       0.01000000 </v>
   <v>       0.01000000 </v>
   <v>       0.01000000 </v>
   <v>       0.01000000 </v>
   <v>       0.01000000 </v>
   <v>       0.01000000 </v>
   <v>       0.01000000 </v>
   <v>       0.01000000 </v>
   <v>       0.01000000 </v>
   <v>       0.01000000 </v>
   <v>       0.01000000 </v>
   <v>       0.01000000 </v>
   <v>       0.01000000 </v>
   <v>       0.01000000 </v>
   <v>       0.01000000 </v>
   <v>       0.01000000 </v>
   <v>       0.01000000 </v>
   <v>       0.01000000 </v>
   <v>       0.01000000 </v>
   <v>       0.01000000 </v>
   <v>       0.01000000 </v>
   <v>       0.01000000 </v>
   <v>       0.01000000 </v>
   <v>       0.01000000 </v>
   <v>       0.01000000 </v>
   <v>       0.01000000 </v>
   <v>       0.01000000 </v>
   <v>       0.01000000 </v>
   <v>       0.01000000 </v>
   <v>       0.01000000 </v>
   <v>       0.01000000 </v>
   <v>       0.01000000 </v>
   <v>       0.01000000 </v>
   <v>       0.01000000 </v>
   <v>       0.01000000 </v>
   <v>       0.01000000 </v>
   <v>       0.01000000 </v>
   <v>       0.01000000 </v>
   <v>       0.01000000 </v>
   <v>       0.01000000 </v>
   <v>       0.01000000 </v>
   <v>       0.01000000 </v>
   <v>       0.01000000 </v>
   <v>       0.01000000 </v>
   <v>       0.01000000 </v>
   <v>       0.01000000 </v>
   <v>       0.01000000 </v>
   <v>       0.01000000 </v>
   <v>       0.01000000 </v>
   <v>       0.01000000 </v>
   <v>       0.01000000 </v>
   <v>       0.01000000 </v>
   <v>       0.01000000 </v>
   <v>       0.01000000 </v>
   <v>       0.01000000 </v>
   <v>       0.01000000 </v>
   <v>       0.01000000 </v>
   <v>       0.01000000 </v>
   <v>       0.01000000 </v>
   <v>       0.01000000 </v>
   <v>       0.01000000 </v>
   <v>       0.01000000 </v>
   <v>       0.01000000 </v>
   <v>       0.01000000 </v>
   <v>       0.01000000 </v>
   <v>       0.01000000 </v>
   <v>       0.01000000 </v>
   <v>       0.01000000 </v>
   <v>       0.01000000 </v>
   <v>       0.01000000 </v>
   <v>       0.01000000 </v>
   <v>       0.01000000 </v>
   <v>       0.01000000 </v>
   <v>       0.01000000 </v>
   <v>       0.01000000 </v>
   <v>       0.01000000 </v>
   <v>       0.01000000 </v>
   <v>       0.01000000 </v>
   <v>       0.01000000 </v>
   <v>       0.01000000 </v>
   <v>       0.01000000 </v>
   <v>       0.01000000 </v>
   <v>       0.01000000 </v>
   <v>       0.01000000 </v>
   <v>       0.01000000 </v>
   <v>       0.01000000 </v>
   <v>       0.01000000 </v>
   <v>       0.01000000 </v>
   <v>       0.01000000 </v>
   <v>       0.01000000 </v>
   <v>       0.01000000 </v>
   <v>       0.01000000 </v>
   <v>       0.01000000 </v>
   <v>       0.01000000 </v>
   <v>       0.01000000 </v>
   <v>       0.01000000 </v>
   <v>       0.01000000 </v>
   <v>       0.01000000 </v>
  </varray>
 </kpoints>
 <parameters>
  <separator name="general" >
   <i type="string" name="SYSTEM">FCC Au</i>
   <i type="logical" name="LCOMPAT"> F  </i>
  </separator>
  <separator name="electronic" >
   <i type="string" name="PREC">normal</i>
   <i name="ENMAX">    230.00000000</i>
   <i name="ENAUG">    356.67000000</i>
   <i name="EDIFF">      0.00010000</i>
   <i type="int" name="IALGO">    38</i>
   <i type="int" name="IWAVPR">    10</i>
   <i type="int" name="NBANDS">    12</i>
   <i name="NELECT">     11.00000000</i>
   <i type="int" name="TURBO">     0</i>
   <i type="int" name="IRESTART">     0</i>
   <i type="int" name="NREBOOT">     0</i>
   <i type="int" name="NMIN">     0</i>
   <i name="EREF">      0.00000000</i>
   <separator name="electronic smearing" >
    <i type="int" name="ISMEAR">     1</i>
    <i name="SIGMA">      0.20000000</i>
    <i name="KSPACING">      0.50000000</i>
    <i type="logical" name="KGAMMA"> T  </i>
   </separator>
   <separator name="electronic projectors" >
    <i type="logical" name="LREAL"> F  </i>
    <v name="ROPT">      0.00000000</v>
    <i type="int" name="LMAXPAW">  -100</i>
    <i type="int" name="LMAXMIX">     2</i>
    <i type="logical" name="NLSPLINE"> F  </i>
   </separator>
   <separator name="electronic startup" >
    <i type="int" name="ISTART">     0</i>
    <i type="int" name="ICHARG">    11</i>
    <i type="int" name="INIWAV">     1</i>
   </separator>
   <separator name="electronic spin" >
    <i type="int" name="ISPIN">     1</i>
    <i type="logical" name="LNONCOLLINEAR"> F  </i>
    <v name="MAGMOM">      1.00000000</v>
    <i name="NUPDOWN">     -1.00000000</i>
    <i type="logical" name="LSORBIT"> F  </i>
    <v name="SAXIS">      0.00000000      0.00000000      1.00000000</v>
    <i type="logical" name="LSPIRAL"> F  </i>
    <v name="QSPIRAL">      0.00000000      0.00000000      0.00000000</v>
    <i type="logical" name="LZEROZ"> F  </i>
   </separator>
   <separator name="electronic exchange-correlation" >
    <i type="logical" name="LASPH"> F  </i>
    <i type="logical" name="LMETAGGA"> F  </i>
   </separator>
   <separator name="electronic convergence" >
    <i type="int" name="NELM">    60</i>
    <i type="int" name="NELMDL">    -5</i>
    <i type="int" name="NELMIN">     2</i>
    <i name="ENINI">    230.00000000</i>
    <separator name="electronic convergence detail" >
     <i type="logical" name="LDIAG"> T  </i>
     <i type="logical" name="LSUBROT"> F  </i>
     <i name="WEIMIN">      0.00000000</i>
     <i name="EBREAK">      0.00000208</i>
     <i name="DEPER">      0.30000000</i>
     <i type="int" name="NRMM">     4</i>
     <i name="TIME">      0.40000000</i>
    </separator>
   </separator>
   <separator name="electronic mixer" >
    <i name="AMIX">      0.40000000</i>
    <i name="BMIX">      1.00000000</i>
    <i name="AMIN">      0.10000000</i>
    <i name="AMIX_MAG">      1.60000000</i>
    <i name="BMIX_MAG">      1.00000000</i>
    <separator name="electronic mixer details" >
     <i type="int" name="IMIX">     4</i>
     <i type="logical" name="MIXFIRST"> F  </i>
     <i type="int" name="MAXMIX">   -45</i>
     <i name="WC">    100.00000000</i>
     <i type="int" name="INIMIX">     1</i>
     <i type="int" name="MIXPRE">     1</i>
     <i type="int" name="MREMOVE">     5</i>
    </separator>
   </separator>
   <separator name="electronic dipolcorrection" >
    <i type="logical" name="LDIPOL"> F  </i>
    <i type="logical" name="LMONO"> F  </i>
    <i type="int" name="IDIPOL">     0</i>
    <i name="EPSILON">      1.00000000</i>
    <v name="DIPOL">   -100.00000000   -100.00000000   -100.00000000</v>
    <i name="EFIELD">      0.00000000</i>
   </separator>
  </separator>
  <separator name="grids" >
   <i type="int" name="NGX">    12</i>
   <i type="int" name="NGY">    12</i>
   <i type="int" name="NGZ">    12</i>
   <i type="int" name="NGXF">    24</i>
   <i type="int" name="NGYF">    24</i>
   <i type="int" name="NGZF">    24</i>
   <i type="logical" name="ADDGRID"> F  </i>
  </separator>
  <separator name="ionic" >
   <i type="int" name="NSW">     0</i>
   <i type="int" name="IBRION">    -1</i>
   <i type="int" name="MDALGO">     0</i>
   <i type="int" name="ISIF">     2</i>
   <i name="PSTRESS">      0.00000000</i>
   <i name="EDIFFG">      0.00100000</i>
   <i type="int" name="NFREE">     0</i>
   <i name="POTIM">      0.50000000</i>
   <i name="SMASS">     -3.00000000</i>
   <i name="SCALEE">      1.00000000</i>
  </separator>
  <separator name="ionic md" >
   <i name="TEBEG">      0.00010000</i>
   <i name="TEEND">      0.00010000</i>
   <i type="int" name="NBLOCK">     1</i>
   <i type="int" name="KBLOCK">     1</i>
   <i type="int" name="NPACO">   256</i>
   <i name="APACO">     16.00000000</i>
  </separator>
  <separator name="symmetry" >
   <i type="int" name="ISYM">     2</i>
   <i name="SYMPREC">      0.00001000</i>
  </separator>
  <separator name="dos" >
   <i type="int" name="LORBIT">     0</i>
   <v name="RWIGS">      1.50300000</v>
   <i type="int" name="NEDOS">   301</i>
   <i name="EMIN">     10.00000000</i>
   <i name="EMAX">    -10.00000000</i>
   <i name="EFERMI">      0.00000000</i>
  </separator>
  <separator name="writing" >
   <i type="int" name="NWRITE">     2</i>
   <i type="logical" name="LWAVE"> T  </i>
   <i type="logical" name="LDOWNSAMPLE"> F  </i>
   <i type="logical" name="LCHARG"> F  </i>
   <i type="logical" name="LPARD"> F  </i>
   <i type="logical" name="LVTOT"> F  </i>
   <i type="logical" name="LVHAR"> F  </i>
   <i type="logical" name="LELF"> F  </i>
   <i type="logical" name="LOPTICS"> F  </i>
   <v name="STM">      0.00000000      0.00000000      0.00000000      0.00000000      0.00000000      0.00000000      0.00000000</v>
  </separator>
  <separator name="performance" >
   <i type="int" name="NPAR">     4</i>
   <i type="int" name="NSIM">     4</i>
   <i type="int" name="NBLK">    -1</i>
   <i type="logical" name="LPLANE"> T  </i>
   <i type="logical" name="LSCALAPACK"> T  </i>
   <i type="logical" name="LSCAAWARE"> F  </i>
   <i type="logical" name="LSCALU"> F  </i>
   <i type="logical" name="LASYNC"> F  </i>
   <i type="logical" name="LORBITALREAL"> F  </i>
  </separator>
  <separator name="miscellaneous" >
   <i type="int" name="IDIOT">     3</i>
   <i type="int" name="ISPECIAL">     0</i>
   <i type="logical" name="LMUSIC"> F  </i>
   <v name="POMASS">    196.96600000</v>
   <v name="DARWINR">      0.00000000</v>
   <v name="DARWINV">      1.00000000</v>
   <i type="logical" name="LCORR"> T  </i>
  </separator>
  <i type="logical" name="GGA_COMPAT"> T  </i>
  <i type="logical" name="LBERRY"> F  </i>
  <i type="int" name="ICORELEVEL">     0</i>
  <i type="logical" name="LDAU"> F  </i>
  <i type="int" name="I_CONSTRAINED_M">     0</i>
  <separator name="electronic exchange-correlation" >
   <i type="string" name="GGA">--</i>
   <i type="int" name="VOSKOWN">     0</i>
   <i type="logical" name="LHFCALC"> F  </i>
   <i type="string" name="PRECFOCK"></i>
   <i type="logical" name="LSYMGRAD"> F  </i>
   <i type="logical" name="LHFONE"> F  </i>
   <i type="logical" name="LRHFCALC"> F  </i>
   <i type="logical" name="LTHOMAS"> F  </i>
   <i type="logical" name="LMODELHF"> F  </i>
   <i name="ENCUT4O">     -1.00000000</i>
   <i type="int" name="EXXOEP">     0</i>
   <i type="int" name="FOURORBIT">     0</i>
   <i name="AEXX">      0.00000000</i>
   <i name="HFALPHA">      0.00000000</i>
   <i name="MCALPHA">      0.00000000</i>
   <i name="ALDAX">      1.00000000</i>
   <i name="AGGAX">      1.00000000</i>
   <i name="ALDAC">      1.00000000</i>
   <i name="AGGAC">      1.00000000</i>
   <i type="int" name="NKREDX">     1</i>
   <i type="int" name="NKREDY">     1</i>
   <i type="int" name="NKREDZ">     1</i>
   <i type="logical" name="SHIFTRED"> F  </i>
   <i type="logical" name="ODDONLY"> F  </i>
   <i type="logical" name="EVENONLY"> F  </i>
   <i type="int" name="LMAXFOCK">     0</i>
   <i type="int" name="NMAXFOCKAE">     0</i>
   <i type="logical" name="LFOCKAEDFT"> F  </i>
   <i name="HFSCREEN">      0.00000000</i>
   <i name="HFSCREENC">      0.00000000</i>
   <i type="int" name="NBANDSGWLOW">     0</i>
  </separator>
  <separator name="vdW DFT" >
   <i type="logical" name="LUSE_VDW"> F  </i>
   <i name="Zab_VDW">     -0.84910000</i>
   <i name="PARAM1">      0.12340000</i>
   <i name="PARAM2">      1.00000000</i>
   <i name="PARAM3">      0.00000000</i>
  </separator>
  <separator name="model GW" >
   <i type="int" name="MODEL_GW">     0</i>
   <i name="MODEL_EPS0">     10.06665143</i>
   <i name="MODEL_ALPHA">      1.00000000</i>
  </separator>
  <separator name="linear response parameters" >
   <i type="logical" name="LEPSILON"> F  </i>
   <i type="logical" name="LRPA"> F  </i>
   <i type="logical" name="LNABLA"> F  </i>
   <i type="logical" name="LVEL"> F  </i>
   <i type="int" name="KINTER">     0</i>
   <i name="CSHIFT">      0.10000000</i>
   <i name="OMEGAMAX">     -1.00000000</i>
   <i name="DEG_THRESHOLD">      0.00200000</i>
   <i name="RTIME">     -0.10000000</i>
   <i name="WPLASMAI">      0.00000000</i>
   <v name="DFIELD">      0.00000000      0.00000000      0.00000000</v>
   <v name="WPLASMA">      0.00000000      0.00000000      0.00000000      0.00000000      0.00000000      0.00000000      0.00000000      0.00000000      0.00000000</v>
  </separator>
  <separator name="orbital magnetization" >
   <i type="logical" name="NUCIND"> F  </i>
   <v name="MAGPOS">      0.00000000      0.00000000      0.00000000</v>
   <i type="logical" name="LNICSALL"> T  </i>
   <i type="logical" name="ORBITALMAG"> F  </i>
   <i type="logical" name="LMAGBLOCH"> F  </i>
   <i type="logical" name="LCHIMAG"> F  </i>
   <i type="logical" name="LGAUGE"> T  </i>
   <i type="int" name="MAGATOM">     0</i>
   <v name="MAGDIPOL">      0.00000000      0.00000000      0.00000000</v>
   <v name="AVECCONST">      0.00000000      0.00000000      0.00000000</v>
  </separator>
  <separator name="response functions" >
   <i type="logical" name="LADDER"> F  </i>
   <i type="logical" name="LRPAFORCE"> F  </i>
   <i type="logical" name="LFXC"> F  </i>
   <i type="logical" name="LHARTREE"> T  </i>
   <i type="int" name="IBSE">     0</i>
   <v type="int" name="KPOINT">    -1     0     0     0</v>
   <i type="logical" name="LTCTE"> F  </i>
   <i type="logical" name="LTETE"> F  </i>
   <i type="logical" name="LTRIPLET"> F  </i>
   <i type="logical" name="LFXCEPS"> F  </i>
   <i type="logical" name="LFXHEG"> F  </i>
   <i type="int" name="NATURALO">     2</i>
   <i type="logical" name="L2ORDER"> F  </i>
   <i type="logical" name="LMP2LT"> F  </i>
   <i type="logical" name="LUSEW"> F  </i>
   <i name="ENCUTGW">     -2.00000000</i>
   <i name="ENCUTGWSOFT">     -2.00000000</i>
   <i name="ENCUTLF">     -1.00000000</i>
   <i type="int" name="LMAXMP2">    -1</i>
   <i name="SCISSOR">      0.00000000</i>
   <i type="int" name="NOMEGA">     0</i>
   <i type="int" name="NOMEGAR">     0</i>
   <i type="int" name="NBANDSGW">    -1</i>
   <i type="int" name="NBANDSO">    -1</i>
   <i type="int" name="NBANDSV">    -1</i>
   <i type="int" name="NELM">     1</i>
   <i type="int" name="NELMHF">     1</i>
   <i type="int" name="DIM">     3</i>
   <i type="int" name="ANTIRES">     0</i>
   <i name="OMEGAMAX">    -30.00000000</i>
   <i name="OMEGAMIN">    -30.00000000</i>
   <i name="OMEGATL">   -200.00000000</i>
   <i type="int" name="OMEGAGRID">   140</i>
   <i name="CSHIFT">     -0.10000000</i>
   <i type="logical" name="SELFENERGY"> F  </i>
   <i type="logical" name="LSPECTRAL"> F  </i>
   <i type="logical" name="LSPECTRALGW"> F  </i>
   <i type="logical" name="LSINGLES"> F  </i>
   <i type="logical" name="LFERMIGW"> F  </i>
   <i type="logical" name="ODDONLYGW"> F  </i>
   <i type="logical" name="EVENONLYGW"> F  </i>
   <i type="int" name="NKREDLFX">     1</i>
   <i type="int" name="NKREDLFY">     1</i>
   <i type="int" name="NKREDLFZ">     1</i>
   <i type="int" name="MAXMEM">  2800</i>
   <i type="int" name="TELESCOPE">     0</i>
   <i type="int" name="TAUPAR">     1</i>
   <i type="int" name="OMEGAPAR">    -1</i>
   <i name="LAMBDA">      1.00000000</i>
  </separator>
  <separator name="External order field" >
   <i name="OFIELD_KAPPA">      0.00000000</i>
   <v name="OFIELD_K">      0.00000000      0.00000000      0.00000000</v>
   <i name="OFIELD_Q6_NEAR">      0.00000000</i>
   <i name="OFIELD_Q6_FAR">      0.00000000</i>
   <i name="OFIELD_A">      0.00000000</i>
  </separator>
 </parameters>
 <atominfo>
  <atoms>       1 </atoms>
  <types>       1 </types>
  <array name="atoms" >
   <dimension dim="1">ion</dimension>
   <field type="string">element</field>
   <field type="int">atomtype</field>
   <set>
    <rc><c>Au</c><c>   1</c></rc>
   </set>
  </array>
  <array name="atomtypes" >
   <dimension dim="1">type</dimension>
   <field type="int">atomspertype</field>
   <field type="string">element</field>
   <field>mass</field>
   <field>valence</field>
   <field type="string">pseudopotential</field>
   <set>
    <rc><c>   1</c><c>Au</c><c>    196.96600000</c><c>     11.00000000</c><c> PAW Au 04Feb1998                       </c></rc>
   </set>
  </array>
 </atominfo>
 <structure name="initialpos" >
  <crystal>
   <varray name="basis" >
    <v>       0.00000000       2.03189500       2.03189500 </v>
    <v>       2.03189500       0.00000000       2.03189500 </v>
    <v>       2.03189500       2.03189500       0.00000000 </v>
   </varray>
   <i name="volume">     16.77775239 </i>
   <varray name="rec_basis" >
    <v>      -0.24607571       0.24607571       0.24607571 </v>
    <v>       0.24607571      -0.24607571       0.24607571 </v>
    <v>       0.24607571       0.24607571      -0.24607571 </v>
   </varray>
  </crystal>
  <varray name="positions" >
   <v>       0.00000000       0.00000000       0.00000000 </v>
  </varray>
 </structure>
 <calculation>
  <scstep>
   <time name="dav">    0.23    0.24</time>
   <time name="total">    0.24    0.25</time>
   <energy>
    <i name="alphaZ">    109.54264301 </i>
    <i name="ewald">   -982.89350627 </i>
    <i name="hartreedc">   -109.68785819 </i>
    <i name="XCdc">     15.77784597 </i>
    <i name="pawpsdc">    754.80419456 </i>
    <i name="pawaedc">   -736.99518971 </i>
    <i name="eentropy">     -0.00262293 </i>
    <i name="bandstr">     54.95494874 </i>
    <i name="atom">    929.39633208 </i>
    <i name="e_fr_energy">     34.89678726 </i>
    <i name="e_wo_entrp">     34.89941019 </i>
    <i name="e_0_energy">     34.89766157 </i>
   </energy>
  </scstep>
  <scstep>
   <time name="dav">    0.22    0.22</time>
   <time name="total">    0.22    0.22</time>
   <energy>
    <i name="e_fr_energy">     -3.49056973 </i>
    <i name="e_wo_entrp">     -3.49117296 </i>
    <i name="e_0_energy">     -3.49077081 </i>
   </energy>
  </scstep>
  <scstep>
   <time name="dav">    0.22    0.22</time>
   <time name="total">    0.22    0.22</time>
   <energy>
    <i name="e_fr_energy">     -3.84396982 </i>
    <i name="e_wo_entrp">     -3.84458915 </i>
    <i name="e_0_energy">     -3.84417626 </i>
   </energy>
  </scstep>
  <scstep>
   <time name="dav">    0.22    0.22</time>
   <time name="total">    0.22    0.22</time>
   <energy>
    <i name="e_fr_energy">     -3.84492007 </i>
    <i name="e_wo_entrp">     -3.84553920 </i>
    <i name="e_0_energy">     -3.84512645 </i>
   </energy>
  </scstep>
  <scstep>
   <time name="dav">    0.21    0.21</time>
   <time name="total">    0.21    0.21</time>
   <energy>
    <i name="e_fr_energy">     -3.84492701 </i>
    <i name="e_wo_entrp">     -3.84554614 </i>
    <i name="e_0_energy">     -3.84513339 </i>
   </energy>
  </scstep>
  <scstep>
   <time name="dav">    0.19    0.20</time>
   <time name="total">    0.19    0.20</time>
   <energy>
    <i name="alphaZ">    109.54264301 </i>
    <i name="ewald">   -982.89350627 </i>
    <i name="hartreedc">   -109.68785819 </i>
    <i name="XCdc">     15.77784597 </i>
    <i name="pawpsdc">    754.80419456 </i>
    <i name="pawaedc">   -736.99518971 </i>
    <i name="eentropy">      0.00061913 </i>
    <i name="bandstr">     16.20999218 </i>
    <i name="atom">    929.39633208 </i>
    <i name="e_fr_energy">     -3.84492725 </i>
    <i name="e_wo_entrp">     -3.84554638 </i>
    <i name="e_0_energy">     -3.84513363 </i>
   </energy>
  </scstep>
  <structure>
   <crystal>
    <varray name="basis" >
     <v>       0.00000000       2.03189500       2.03189500 </v>
     <v>       2.03189500       0.00000000       2.03189500 </v>
     <v>       2.03189500       2.03189500       0.00000000 </v>
    </varray>
    <i name="volume">     16.77775239 </i>
    <varray name="rec_basis" >
     <v>      -0.24607571       0.24607571       0.24607571 </v>
     <v>       0.24607571      -0.24607571       0.24607571 </v>
     <v>       0.24607571       0.24607571      -0.24607571 </v>
    </varray>
   </crystal>
   <varray name="positions" >
    <v>       0.00000000       0.00000000       0.00000000 </v>
   </varray>
  </structure>
  <varray name="forces" >
   <v>       0.00000000       0.00000000      -0.00000000 </v>
  </varray>
  <varray name="stress" >
   <v>     133.78330666       0.00000000      -0.00000000 </v>
   <v>       0.00000000     133.78330666       0.00000000 </v>
   <v>      -0.00000000       0.00000000     133.78330666 </v>
  </varray>
  <energy>
   <i name="e_fr_energy">     -3.84492725 </i>
   <i name="e_wo_entrp">     -3.84513363 </i>
   <i name="e_0_energy">      0.00061913 </i>
  </energy>
  <time name="totalsc">    1.41    1.46</time>
  <eigenvalues>
   <array>
    <dimension dim="1">band</dimension>
    <dimension dim="2">kpoint</dimension>
    <dimension dim="3">spin</dimension>
    <field>eigene</field>
    <field>occ</field>
    <set>
     <set comment="spin 1">
      <set comment="kpoint 1">
       <r>   -0.3601    1.0000 </r>
       <r>    0.4766    1.0000 </r>
       <r>    0.4766    1.0000 </r>
       <r>    2.3721    1.0000 </r>
       <r>    4.1207    1.0000 </r>
       <r>   10.5552   -0.0000 </r>
       <r>   12.1023   -0.0000 </r>
       <r>   12.1023   -0.0000 </r>
       <r>   15.3056    0.0000 </r>
       <r>   29.2772    0.0000 </r>
       <r>   29.2772    0.0000 </r>
       <r>   30.4480    0.0000 </r>
      </set>
      <set comment="kpoint 2">
       <r>   -0.3510    1.0000 </r>
       <r>    0.4592    1.0000 </r>
       <r>    0.4883    1.0000 </r>
       <r>    2.3817    1.0000 </r>
       <r>    4.1106    1.0000 </r>
       <r>   10.4219   -0.0000 </r>
       <r>   12.0146   -0.0000 </r>
       <r>   12.3033   -0.0000 </r>
       <r>   15.4104    0.0000 </r>
       <r>   28.9701    0.0000 </r>
       <r>   29.3009    0.0000 </r>
       <r>   30.7751    0.0000 </r>
      </set>
      <set comment="kpoint 3">
       <r>   -0.3264    1.0000 </r>
       <r>    0.4029    1.0000 </r>
       <r>    0.5184    1.0000 </r>
       <r>    2.3914    1.0000 </r>
       <r>    4.0574    1.0000 </r>
       <r>   10.1385   -0.0000 </r>
       <r>   11.7613   -0.0000 </r>
       <r>   12.7614    0.0000 </r>
       <r>   15.6736    0.0000 </r>
       <r>   28.3851    0.0000 </r>
       <r>   29.3400    0.0000 </r>
       <r>   31.3770    0.0000 </r>
      </set>
      <set comment="kpoint 4">
       <r>   -0.2860    1.0000 </r>
       <r>    0.3139    1.0000 </r>
       <r>    0.5688    1.0000 </r>
       <r>    2.3995    1.0000 </r>
       <r>    3.9778    1.0000 </r>
       <r>    9.8395   -0.0000 </r>
       <r>   11.4033   -0.0000 </r>
       <r>   13.3464    0.0000 </r>
       <r>   16.0482    0.0000 </r>
       <r>   27.7544    0.0000 </r>
       <r>   29.4049    0.0000 </r>
       <r>   32.0382    0.0000 </r>
      </set>
      <set comment="kpoint 5">
       <r>   -0.2305    1.0000 </r>
       <r>    0.1977    1.0000 </r>
       <r>    0.6397    1.0000 </r>
       <r>    2.3948    1.0000 </r>
       <r>    3.8837    1.0000 </r>
       <r>    9.5732   -0.0000 </r>
       <r>   10.9852   -0.0000 </r>
       <r>   14.0023    0.0000 </r>
       <r>   16.4888    0.0000 </r>
       <r>   27.1210    0.0000 </r>
       <r>   29.4940    0.0000 </r>
       <r>   32.7165    0.0000 </r>
      </set>
      <set comment="kpoint 6">
       <r>   -0.1612    1.0000 </r>
       <r>    0.0599    1.0000 </r>
       <r>    0.7313    1.0000 </r>
       <r>    2.3652    1.0000 </r>
       <r>    3.7907    1.0000 </r>
       <r>    9.3531   -0.0000 </r>
       <r>   10.5343   -0.0000 </r>
       <r>   14.7049    0.0000 </r>
       <r>   16.9663    0.0000 </r>
       <r>   26.4991    0.0000 </r>
       <r>   29.6048    0.0000 </r>
       <r>   33.3992    0.0000 </r>
      </set>
      <set comment="kpoint 7">
       <r>   -0.0944    1.0000 </r>
       <r>   -0.0800    1.0000 </r>
       <r>    0.8430    1.0000 </r>
       <r>    2.2992    1.0000 </r>
       <r>    3.7123    1.0000 </r>
       <r>    9.1805   -0.0000 </r>
       <r>   10.0652   -0.0000 </r>
       <r>   15.4388    0.0000 </r>
       <r>   17.4627    0.0000 </r>
       <r>   25.8958    0.0000 </r>
       <r>   29.7333    0.0000 </r>
       <r>   34.0754    0.0000 </r>
      </set>
      <set comment="kpoint 8">
       <r>   -0.2607    1.0000 </r>
       <r>    0.0112    1.0000 </r>
       <r>    0.9761    1.0000 </r>
       <r>    2.1957    1.0000 </r>
       <r>    3.6622    1.0000 </r>
       <r>    9.0514   -0.0000 </r>
       <r>    9.5889   -0.0000 </r>
       <r>   16.1966    0.0000 </r>
       <r>   17.9655    0.0000 </r>
       <r>   25.3206    0.0000 </r>
       <r>   29.8768    0.0000 </r>
       <r>   34.8182    0.0000 </r>
      </set>
      <set comment="kpoint 9">
       <r>   -0.4347    1.0000 </r>
       <r>    0.1091    1.0000 </r>
       <r>    1.1311    1.0000 </r>
       <r>    2.0602    1.0000 </r>
       <r>    3.6390    1.0000 </r>
       <r>    8.9598   -0.0000 </r>
       <r>    9.1130   -0.0000 </r>
       <r>   16.9673    0.0000 </r>
       <r>   18.4568    0.0000 </r>
       <r>   24.7793    0.0000 </r>
       <r>   30.0313    0.0000 </r>
       <r>   34.5084    0.0000 </r>
      </set>
      <set comment="kpoint 10">
       <r>   -0.6126    1.0000 </r>
       <r>    0.2126    1.0000 </r>
       <r>    1.3063    1.0000 </r>
       <r>    1.9050    1.0000 </r>
       <r>    3.6368    1.0000 </r>
       <r>    8.6350   -0.0000 </r>
       <r>    8.8989   -0.0000 </r>
       <r>   17.7462    0.0000 </r>
       <r>   18.9394    0.0000 </r>
       <r>   24.2819    0.0000 </r>
       <r>   30.1886    0.0000 </r>
       <r>   33.9398    0.0000 </r>
      </set>
      <set comment="kpoint 11">
       <r>   -0.7901    1.0000 </r>
       <r>    0.3184    1.0000 </r>
       <r>    1.5027    1.0000 </r>
       <r>    1.7428    1.0000 </r>
       <r>    3.6485    1.0000 </r>
       <r>    8.1610   -0.0000 </r>
       <r>    8.8623   -0.0000 </r>
       <r>   18.5246    0.0000 </r>
       <r>   19.3935    0.0000 </r>
       <r>   23.8396    0.0000 </r>
       <r>   30.3440    0.0000 </r>
       <r>   33.4100    0.0000 </r>
      </set>
      <set comment="kpoint 12">
       <r>   -0.9633    1.0000 </r>
       <r>    0.4236    1.0000 </r>
       <r>    1.5839    1.0000 </r>
       <r>    1.7199    1.0000 </r>
       <r>    3.6678    1.0000 </r>
       <r>    7.6932   -0.0000 </r>
       <r>    8.8442   -0.0000 </r>
       <r>   19.2945    0.0000 </r>
       <r>   19.8013    0.0000 </r>
       <r>   23.4682    0.0000 </r>
       <r>   30.4915    0.0000 </r>
       <r>   32.9226    0.0000 </r>
      </set>
      <set comment="kpoint 13">
       <r>   -1.1278    1.0000 </r>
       <r>    0.5248    1.0000 </r>
       <r>    1.4344    1.0000 </r>
       <r>    1.9577    1.0000 </r>
       <r>    3.6900    1.0000 </r>
       <r>    7.2345   -0.0274 </r>
       <r>    8.8410   -0.0000 </r>
       <r>   20.0457    0.0000 </r>
       <r>   20.1364    0.0000 </r>
       <r>   23.1896    0.0000 </r>
       <r>   30.6239    0.0000 </r>
       <r>   32.4777    0.0000 </r>
      </set>
      <set comment="kpoint 14">
       <r>   -1.2801    1.0000 </r>
       <r>    0.6199    1.0000 </r>
       <r>    1.3014    1.0000 </r>
       <r>    2.2145    1.0000 </r>
       <r>    3.7124    1.0000 </r>
       <r>    6.7838    0.9758 </r>
       <r>    8.8450   -0.0000 </r>
       <r>   20.3749    0.0000 </r>
       <r>   20.7709    0.0000 </r>
       <r>   23.0271    0.0000 </r>
       <r>   30.7360    0.0000 </r>
       <r>   32.0750    0.0000 </r>
      </set>
      <set comment="kpoint 15">
       <r>   -1.4159    1.0000 </r>
       <r>    0.7061    1.0000 </r>
       <r>    1.1866    1.0000 </r>
       <r>    2.4892    1.0000 </r>
       <r>    3.7331    1.0000 </r>
       <r>    6.3447    1.0001 </r>
       <r>    8.8543   -0.0000 </r>
       <r>   20.4989    0.0000 </r>
       <r>   21.4554    0.0000 </r>
       <r>   22.9913    0.0000 </r>
       <r>   30.8221    0.0000 </r>
       <r>   31.7181    0.0000 </r>
      </set>
      <set comment="kpoint 16">
       <r>   -1.5319    1.0000 </r>
       <r>    0.7806    1.0000 </r>
       <r>    1.0917    1.0000 </r>
       <r>    2.7794    1.0000 </r>
       <r>    3.7509    1.0000 </r>
       <r>    5.9199    1.0000 </r>
       <r>    8.8660   -0.0000 </r>
       <r>   20.5238    0.0000 </r>
       <r>   22.0812    0.0000 </r>
       <r>   23.0593    0.0000 </r>
       <r>   30.8757    0.0000 </r>
       <r>   31.4116    0.0000 </r>
      </set>
      <set comment="kpoint 17">
       <r>   -1.6252    1.0000 </r>
       <r>    0.8414    1.0000 </r>
       <r>    1.0175    1.0000 </r>
       <r>    3.0808    1.0000 </r>
       <r>    3.7651    1.0000 </r>
       <r>    5.5139    1.0000 </r>
       <r>    8.8776   -0.0000 </r>
       <r>   20.4905    0.0000 </r>
       <r>   22.6240    0.0000 </r>
       <r>   23.1811    0.0000 </r>
       <r>   30.8912    0.0000 </r>
       <r>   31.1618    0.0000 </r>
      </set>
      <set comment="kpoint 18">
       <r>   -1.6936    1.0000 </r>
       <r>    0.8865    1.0000 </r>
       <r>    0.9645    1.0000 </r>
       <r>    3.3804    1.0000 </r>
       <r>    3.7745    1.0000 </r>
       <r>    5.1363    1.0000 </r>
       <r>    8.8868   -0.0000 </r>
       <r>   20.4399    0.0000 </r>
       <r>   23.0518    0.0000 </r>
       <r>   23.3048    0.0000 </r>
       <r>   30.8690    0.0000 </r>
       <r>   30.9763    0.0000 </r>
      </set>
      <set comment="kpoint 19">
       <r>   -1.7355    1.0000 </r>
       <r>    0.9120    1.0000 </r>
       <r>    0.9318    1.0000 </r>
       <r>    3.6506    1.0000 </r>
       <r>    3.7804    1.0000 </r>
       <r>    4.8202    1.0000 </r>
       <r>    8.8907   -0.0000 </r>
       <r>   20.3981    0.0000 </r>
       <r>   23.3277    0.0000 </r>
       <r>   23.3928    0.0000 </r>
       <r>   30.8241    0.0000 </r>
       <r>   30.8437    0.0000 </r>
      </set>
      <set comment="kpoint 20">
       <r>   -1.7495    1.0000 </r>
       <r>    0.9212    1.0000 </r>
       <r>    0.9212    1.0000 </r>
       <r>    3.7825    1.0000 </r>
       <r>    3.7825    1.0000 </r>
       <r>    4.6733    1.0000 </r>
       <r>    8.8928   -0.0000 </r>
       <r>   20.3835    0.0000 </r>
       <r>   23.4249    0.0000 </r>
       <r>   23.4249    0.0000 </r>
       <r>   30.8038    0.0000 </r>
       <r>   30.8038    0.0000 </r>
      </set>
      <set comment="kpoint 21">
       <r>   -1.7495    1.0000 </r>
       <r>    0.9212    1.0000 </r>
       <r>    0.9212    1.0000 </r>
       <r>    3.7825    1.0000 </r>
       <r>    3.7825    1.0000 </r>
       <r>    4.6733    1.0000 </r>
       <r>    8.8928   -0.0000 </r>
       <r>   20.3835    0.0000 </r>
       <r>   23.4249    0.0000 </r>
       <r>   23.4249    0.0000 </r>
       <r>   30.8038    0.0000 </r>
       <r>   30.8038    0.0000 </r>
      </set>
      <set comment="kpoint 22">
       <r>   -1.7493    1.0000 </r>
       <r>    0.9269    1.0000 </r>
       <r>    0.9269    1.0000 </r>
       <r>    3.7643    1.0000 </r>
       <r>    3.7643    1.0000 </r>
       <r>    4.4977    1.0000 </r>
       <r>    9.1127   -0.0000 </r>
       <r>   20.4078    0.0000 </r>
       <r>   23.4713    0.0000 </r>
       <r>   23.4713    0.0000 </r>
       <r>   30.7758    0.0000 </r>
       <r>   30.7758    0.0000 </r>
      </set>
      <set comment="kpoint 23">
       <r>   -1.7497    1.0000 </r>
       <r>    0.9440    1.0000 </r>
       <r>    0.9440    1.0000 </r>
       <r>    3.7138    1.0000 </r>
       <r>    3.7138    1.0000 </r>
       <r>    4.0574    1.0000 </r>
       <r>    9.6876   -0.0000 </r>
       <r>   20.4807    0.0000 </r>
       <r>   23.6096    0.0000 </r>
       <r>   23.6096    0.0000 </r>
       <r>   30.6931    0.0000 </r>
       <r>   30.6932    0.0000 </r>
      </set>
      <set comment="kpoint 24">
       <r>   -1.7543    1.0000 </r>
       <r>    0.9715    1.0000 </r>
       <r>    0.9715    1.0000 </r>
       <r>    3.4943    1.0000 </r>
       <r>    3.6276    1.0000 </r>
       <r>    3.6276    1.0000 </r>
       <r>   10.4753   -0.0000 </r>
       <r>   20.6006    0.0000 </r>
       <r>   23.8332    0.0000 </r>
       <r>   23.8332    0.0000 </r>
       <r>   30.5599    0.0000 </r>
       <r>   30.5599    0.0000 </r>
      </set>
      <set comment="kpoint 25">
       <r>   -1.7703    1.0000 </r>
       <r>    1.0080    1.0000 </r>
       <r>    1.0080    1.0000 </r>
       <r>    2.9026    1.0000 </r>
       <r>    3.5084    1.0000 </r>
       <r>    3.5084    1.0000 </r>
       <r>   11.3743   -0.0000 </r>
       <r>   20.7646    0.0000 </r>
       <r>   24.1327    0.0000 </r>
       <r>   24.1327    0.0000 </r>
       <r>   30.3744    0.0000 </r>
       <r>   30.3778    0.0000 </r>
      </set>
      <set comment="kpoint 26">
       <r>   -1.8056    1.0000 </r>
       <r>    1.0522    1.0000 </r>
       <r>    1.0522    1.0000 </r>
       <r>    2.3376    1.0000 </r>
       <r>    3.3721    1.0000 </r>
       <r>    3.3721    1.0000 </r>
       <r>   12.3561   -0.0000 </r>
       <r>   20.9693    0.0000 </r>
       <r>   24.4947    0.0000 </r>
       <r>   24.4947    0.0000 </r>
       <r>   30.1664    0.0000 </r>
       <r>   30.1691    0.0000 </r>
      </set>
      <set comment="kpoint 27">
       <r>   -1.8731    1.0000 </r>
       <r>    1.1036    1.0000 </r>
       <r>    1.1036    1.0000 </r>
       <r>    1.8340    1.0000 </r>
       <r>    3.2227    1.0000 </r>
       <r>    3.2227    1.0000 </r>
       <r>   13.3869    0.0000 </r>
       <r>   21.2092    0.0000 </r>
       <r>   24.9012    0.0000 </r>
       <r>   24.9012    0.0000 </r>
       <r>   29.8018    0.0000 </r>
       <r>   29.9553    0.0000 </r>
      </set>
      <set comment="kpoint 28">
       <r>   -1.9872    1.0000 </r>
       <r>    1.1539    1.0000 </r>
       <r>    1.1539    1.0000 </r>
       <r>    1.4162    1.0000 </r>
       <r>    3.0661    1.0000 </r>
       <r>    3.0661    1.0000 </r>
       <r>   14.4430    0.0000 </r>
       <r>   21.4683    0.0000 </r>
       <r>   25.3171    0.0000 </r>
       <r>   25.3171    0.0000 </r>
       <r>   29.2325    0.0000 </r>
       <r>   29.7541    0.0000 </r>
      </set>
      <set comment="kpoint 29">
       <r>   -2.1574    1.0000 </r>
       <r>    1.1004    1.0000 </r>
       <r>    1.2011    1.0000 </r>
       <r>    1.2011    1.0000 </r>
       <r>    2.9122    1.0000 </r>
       <r>    2.9122    1.0000 </r>
       <r>   15.5133    0.0000 </r>
       <r>   21.7293    0.0000 </r>
       <r>   25.6998    0.0000 </r>
       <r>   25.6998    0.0000 </r>
       <r>   28.7310    0.0000 </r>
       <r>   29.6197    0.0000 </r>
      </set>
      <set comment="kpoint 30">
       <r>   -2.3829    1.0000 </r>
       <r>    0.8888    1.0000 </r>
       <r>    1.2396    1.0000 </r>
       <r>    1.2396    1.0000 </r>
       <r>    2.7704    1.0000 </r>
       <r>    2.7704    1.0000 </r>
       <r>   16.5854    0.0000 </r>
       <r>   21.9639    0.0000 </r>
       <r>   25.9890    0.0000 </r>
       <r>   25.9890    0.0000 </r>
       <r>   28.3508    0.0000 </r>
       <r>   29.6130    0.0000 </r>
      </set>
      <set comment="kpoint 31">
       <r>   -2.6500    1.0000 </r>
       <r>    0.7688    1.0000 </r>
       <r>    1.2629    1.0000 </r>
       <r>    1.2629    1.0000 </r>
       <r>    2.6500    1.0000 </r>
       <r>    2.6500    1.0000 </r>
       <r>   17.6474    0.0000 </r>
       <r>   22.1361    0.0000 </r>
       <r>   26.1314    0.0000 </r>
       <r>   26.1314    0.0000 </r>
       <r>   28.1435    0.0000 </r>
       <r>   29.7881    0.0000 </r>
      </set>
      <set comment="kpoint 32">
       <r>   -2.9382    1.0000 </r>
       <r>    0.7194    1.0000 </r>
       <r>    1.2655    1.0000 </r>
       <r>    1.2655    1.0000 </r>
       <r>    2.5591    1.0000 </r>
       <r>    2.5591    1.0000 </r>
       <r>   18.6873    0.0000 </r>
       <r>   22.2149    0.0000 </r>
       <r>   26.1191    0.0000 </r>
       <r>   26.1191    0.0000 </r>
       <r>   28.1533    0.0000 </r>
       <r>   30.1519    0.0000 </r>
      </set>
      <set comment="kpoint 33">
       <r>   -3.2269    1.0000 </r>
       <r>    0.7189    1.0000 </r>
       <r>    1.2459    1.0000 </r>
       <r>    1.2459    1.0000 </r>
       <r>    2.5055    1.0000 </r>
       <r>    2.5055    1.0000 </r>
       <r>   19.6901    0.0000 </r>
       <r>   22.1958    0.0000 </r>
       <r>   25.9960    0.0000 </r>
       <r>   25.9960    0.0000 </r>
       <r>   28.3972    0.0000 </r>
       <r>   30.6632    0.0000 </r>
      </set>
      <set comment="kpoint 34">
       <r>   -3.4996    1.0000 </r>
       <r>    0.7487    1.0000 </r>
       <r>    1.2050    1.0000 </r>
       <r>    1.2050    1.0000 </r>
       <r>    2.4784    1.0000 </r>
       <r>    2.4784    1.0000 </r>
       <r>   20.6226    0.0000 </r>
       <r>   22.1238    0.0000 </r>
       <r>   25.8106    0.0000 </r>
       <r>   25.8106    0.0000 </r>
       <r>   28.8418    0.0000 </r>
       <r>   31.2548    0.0000 </r>
      </set>
      <set comment="kpoint 35">
       <r>   -3.7445    1.0000 </r>
       <r>    0.7945    1.0000 </r>
       <r>    1.1491    1.0000 </r>
       <r>    1.1491    1.0000 </r>
       <r>    2.4731    1.0000 </r>
       <r>    2.4731    1.0000 </r>
       <r>   21.3172    0.0000 </r>
       <r>   22.1969    0.0000 </r>
       <r>   25.6033    0.0000 </r>
       <r>   25.6033    0.0000 </r>
       <r>   29.4183    0.0000 </r>
       <r>   31.8618    0.0000 </r>
      </set>
      <set comment="kpoint 36">
       <r>   -3.9533    1.0000 </r>
       <r>    0.8461    1.0000 </r>
       <r>    1.0921    1.0000 </r>
       <r>    1.0921    1.0000 </r>
       <r>    2.4862    1.0000 </r>
       <r>    2.4862    1.0000 </r>
       <r>   21.4330    0.0000 </r>
       <r>   22.7898    0.0000 </r>
       <r>   25.4114    0.0000 </r>
       <r>   25.4114    0.0000 </r>
       <r>   29.9915    0.0000 </r>
       <r>   32.4701    0.0000 </r>
      </set>
      <set comment="kpoint 37">
       <r>   -4.1203    1.0000 </r>
       <r>    0.8953    1.0000 </r>
       <r>    1.0400    1.0000 </r>
       <r>    1.0400    1.0000 </r>
       <r>    2.5030    1.0000 </r>
       <r>    2.5030    1.0000 </r>
       <r>   21.3198    0.0000 </r>
       <r>   23.5633    0.0000 </r>
       <r>   25.2475    0.0000 </r>
       <r>   25.2475    0.0000 </r>
       <r>   30.2636    0.0000 </r>
       <r>   32.7397    0.0000 </r>
      </set>
      <set comment="kpoint 38">
       <r>   -4.2419    1.0000 </r>
       <r>    0.9308    1.0000 </r>
       <r>    0.9987    1.0000 </r>
       <r>    0.9987    1.0000 </r>
       <r>    2.5186    1.0000 </r>
       <r>    2.5186    1.0000 </r>
       <r>   21.1969    0.0000 </r>
       <r>   24.2752    0.0000 </r>
       <r>   25.1232    0.0000 </r>
       <r>   25.1232    0.0000 </r>
       <r>   30.0101    0.0000 </r>
       <r>   33.1070    0.0000 </r>
      </set>
      <set comment="kpoint 39">
       <r>   -4.3158    1.0000 </r>
       <r>    0.9552    1.0000 </r>
       <r>    0.9726    1.0000 </r>
       <r>    0.9726    1.0000 </r>
       <r>    2.5301    1.0000 </r>
       <r>    2.5301    1.0000 </r>
       <r>   21.1153    0.0000 </r>
       <r>   24.8114    0.0000 </r>
       <r>   25.0461    0.0000 </r>
       <r>   25.0461    0.0000 </r>
       <r>   29.6085    0.0000 </r>
       <r>   33.6592    0.0000 </r>
      </set>
      <set comment="kpoint 40">
       <r>   -4.3405    1.0000 </r>
       <r>    0.9636    1.0000 </r>
       <r>    0.9636    1.0000 </r>
       <r>    0.9636    1.0000 </r>
       <r>    2.5342    1.0000 </r>
       <r>    2.5342    1.0000 </r>
       <r>   21.0867    0.0000 </r>
       <r>   25.0199    0.0000 </r>
       <r>   25.0199    0.0000 </r>
       <r>   25.0199    0.0000 </r>
       <r>   29.4276    0.0000 </r>
       <r>   33.9157    0.0000 </r>
      </set>
      <set comment="kpoint 41">
       <r>   -4.3405    1.0000 </r>
       <r>    0.9636    1.0000 </r>
       <r>    0.9636    1.0000 </r>
       <r>    0.9636    1.0000 </r>
       <r>    2.5342    1.0000 </r>
       <r>    2.5342    1.0000 </r>
       <r>   21.0867    0.0000 </r>
       <r>   25.0199    0.0000 </r>
       <r>   25.0199    0.0000 </r>
       <r>   25.0199    0.0000 </r>
       <r>   29.4276    0.0000 </r>
       <r>   33.9157    0.0000 </r>
      </set>
      <set comment="kpoint 42">
       <r>   -4.3075    1.0000 </r>
       <r>    0.9461    1.0000 </r>
       <r>    0.9787    1.0000 </r>
       <r>    0.9787    1.0000 </r>
       <r>    2.5156    1.0000 </r>
       <r>    2.5417    1.0000 </r>
       <r>   21.1251    0.0000 </r>
       <r>   24.8658    0.0000 </r>
       <r>   24.9904    0.0000 </r>
       <r>   24.9904    0.0000 </r>
       <r>   29.6765    0.0000 </r>
       <r>   33.5640    0.0000 </r>
      </set>
      <set comment="kpoint 43">
       <r>   -4.2089    1.0000 </r>
       <r>    0.8944    1.0000 </r>
       <r>    1.0241    1.0000 </r>
       <r>    1.0241    1.0000 </r>
       <r>    2.4608    1.0000 </r>
       <r>    2.5642    1.0000 </r>
       <r>   21.2387    0.0000 </r>
       <r>   24.4898    0.0000 </r>
       <r>   24.8941    0.0000 </r>
       <r>   24.8941    0.0000 </r>
       <r>   30.3264    0.0000 </r>
       <r>   32.9175    0.0000 </r>
      </set>
      <set comment="kpoint 44">
       <r>   -4.0463    1.0000 </r>
       <r>    0.8113    1.0000 </r>
       <r>    1.1009    1.0000 </r>
       <r>    1.1009    1.0000 </r>
       <r>    2.3749    1.0000 </r>
       <r>    2.6011    1.0000 </r>
       <r>   21.4245    0.0000 </r>
       <r>   24.0338    0.0000 </r>
       <r>   24.7130    0.0000 </r>
       <r>   24.7130    0.0000 </r>
       <r>   31.1624    0.0000 </r>
       <r>   32.3179    0.0000 </r>
      </set>
      <set comment="kpoint 45">
       <r>   -3.8222    1.0000 </r>
       <r>    0.6995    1.0000 </r>
       <r>    1.2044    1.0000 </r>
       <r>    1.2044    1.0000 </r>
       <r>    2.2511    1.0000 </r>
       <r>    2.6517    1.0000 </r>
       <r>   21.6726    0.0000 </r>
       <r>   23.5860    0.0000 </r>
       <r>   24.4136    0.0000 </r>
       <r>   24.4136    0.0000 </r>
       <r>   31.2995    0.0000 </r>
       <r>   31.8486    0.0000 </r>
      </set>
      <set comment="kpoint 46">
       <r>   -3.5409    1.0000 </r>
       <r>    0.5642    1.0000 </r>
       <r>    1.3369    1.0000 </r>
       <r>    1.3369    1.0000 </r>
       <r>    2.1121    1.0000 </r>
       <r>    2.7148    1.0000 </r>
       <r>   21.9749    0.0000 </r>
       <r>   23.1901    0.0000 </r>
       <r>   23.9801    0.0000 </r>
       <r>   23.9801    0.0000 </r>
       <r>   29.9976    0.0000 </r>
       <r>   31.5845    0.0000 </r>
      </set>
      <set comment="kpoint 47">
       <r>   -3.2093    1.0000 </r>
       <r>    0.4107    1.0000 </r>
       <r>    1.4970    1.0000 </r>
       <r>    1.4970    1.0000 </r>
       <r>    1.9639    1.0000 </r>
       <r>    2.7917    1.0000 </r>
       <r>   22.3303    0.0000 </r>
       <r>   22.8646    0.0000 </r>
       <r>   23.4208    0.0000 </r>
       <r>   23.4208    0.0000 </r>
       <r>   28.4535    0.0000 </r>
       <r>   31.5390    0.0000 </r>
      </set>
      <set comment="kpoint 48">
       <r>   -2.8380    1.0000 </r>
       <r>    0.2435    1.0000 </r>
       <r>    1.6817    1.0000 </r>
       <r>    1.6817    1.0000 </r>
       <r>    1.8216    1.0000 </r>
       <r>    2.8750    1.0000 </r>
       <r>   22.6130    0.0000 </r>
       <r>   22.7060    0.0000 </r>
       <r>   22.7465    0.0000 </r>
       <r>   22.7465    0.0000 </r>
       <r>   26.8692    0.0000 </r>
       <r>   31.6926    0.0000 </r>
      </set>
      <set comment="kpoint 49">
       <r>   -2.4445    1.0000 </r>
       <r>    0.0691    1.0000 </r>
       <r>    1.7080    1.0000 </r>
       <r>    1.8898    1.0000 </r>
       <r>    1.8898    1.0000 </r>
       <r>    2.9658    1.0000 </r>
       <r>   21.9980    0.0000 </r>
       <r>   21.9980    0.0000 </r>
       <r>   22.4299    0.0000 </r>
       <r>   23.0984    0.0000 </r>
       <r>   25.2903    0.0000 </r>
       <r>   32.0259    0.0000 </r>
      </set>
      <set comment="kpoint 50">
       <r>   -2.0561    1.0000 </r>
       <r>   -0.1073    1.0000 </r>
       <r>    1.6555    1.0000 </r>
       <r>    2.1185    1.0000 </r>
       <r>    2.1185    1.0000 </r>
       <r>    3.0618    1.0000 </r>
       <r>   21.2099    0.0000 </r>
       <r>   21.2099    0.0000 </r>
       <r>   22.2820    0.0000 </r>
       <r>   23.4943    0.0000 </r>
       <r>   23.7633    0.0000 </r>
       <r>   32.5120    0.0000 </r>
      </set>
      <set comment="kpoint 51">
       <r>   -1.7126    1.0000 </r>
       <r>   -0.2808    1.0000 </r>
       <r>    1.7084    1.0000 </r>
       <r>    2.3643    1.0000 </r>
       <r>    2.3643    1.0000 </r>
       <r>    3.1607    1.0000 </r>
       <r>   20.4116    0.0000 </r>
       <r>   20.4116    0.0000 </r>
       <r>   21.8192    0.0000 </r>
       <r>   22.6419    0.0000 </r>
       <r>   23.8813    0.0000 </r>
       <r>   33.1287    0.0000 </r>
      </set>
      <set comment="kpoint 52">
       <r>   -1.4577    1.0000 </r>
       <r>   -0.4470    1.0000 </r>
       <r>    1.9142    1.0000 </r>
       <r>    2.6223    1.0000 </r>
       <r>    2.6223    1.0000 </r>
       <r>    3.2597    1.0000 </r>
       <r>   19.6270    0.0000 </r>
       <r>   19.6270    0.0000 </r>
       <r>   20.4902    0.0000 </r>
       <r>   22.4760    0.0000 </r>
       <r>   24.2484    0.0000 </r>
       <r>   33.8588    0.0000 </r>
      </set>
      <set comment="kpoint 53">
       <r>   -1.3145    1.0000 </r>
       <r>   -0.6022    1.0000 </r>
       <r>    2.2995    1.0000 </r>
       <r>    2.8880    1.0000 </r>
       <r>    2.8880    1.0000 </r>
       <r>    3.3562    1.0000 </r>
       <r>   18.8777    0.0000 </r>
       <r>   18.8777    0.0000 </r>
       <r>   19.0469    0.0000 </r>
       <r>   22.5254    0.0000 </r>
       <r>   24.5866    0.0000 </r>
       <r>   34.6900    0.0000 </r>
      </set>
      <set comment="kpoint 54">
       <r>   -1.2707    1.0000 </r>
       <r>   -0.7430    1.0000 </r>
       <r>    2.8480    1.0000 </r>
       <r>    3.1510    1.0000 </r>
       <r>    3.1510    1.0000 </r>
       <r>    3.4471    1.0000 </r>
       <r>   17.6212    0.0000 </r>
       <r>   18.1778    0.0000 </r>
       <r>   18.1778    0.0000 </r>
       <r>   22.6204    0.0000 </r>
       <r>   24.8887    0.0000 </r>
       <r>   35.6116    0.0000 </r>
      </set>
      <set comment="kpoint 55">
       <r>   -1.2910    1.0000 </r>
       <r>   -0.8666    1.0000 </r>
       <r>    3.4039    1.0000 </r>
       <r>    3.4039    1.0000 </r>
       <r>    3.5232    1.0000 </r>
       <r>    3.5299    1.0000 </r>
       <r>   16.2477    0.0000 </r>
       <r>   17.5460    0.0000 </r>
       <r>   17.5460    0.0000 </r>
       <r>   22.7405    0.0000 </r>
       <r>   25.1495    0.0000 </r>
       <r>   36.5392    0.0000 </r>
      </set>
      <set comment="kpoint 56">
       <r>   -1.3420    1.0000 </r>
       <r>   -0.9707    1.0000 </r>
       <r>    3.6019    1.0000 </r>
       <r>    3.6361    1.0000 </r>
       <r>    3.6361    1.0000 </r>
       <r>    4.2811    1.0000 </r>
       <r>   14.9453    0.0000 </r>
       <r>   16.9981    0.0000 </r>
       <r>   16.9981    0.0000 </r>
       <r>   22.8679    0.0000 </r>
       <r>   25.3658    0.0000 </r>
       <r>   36.1131    0.0000 </r>
      </set>
      <set comment="kpoint 57">
       <r>   -1.4001    1.0000 </r>
       <r>   -1.0536    1.0000 </r>
       <r>    3.6609    1.0000 </r>
       <r>    3.8358    1.0000 </r>
       <r>    3.8358    1.0000 </r>
       <r>    5.0743    1.0000 </r>
       <r>   13.7429    0.0000 </r>
       <r>   16.5499    0.0000 </r>
       <r>   16.5499    0.0000 </r>
       <r>   22.9873    0.0000 </r>
       <r>   25.5354    0.0000 </r>
       <r>   35.8276    0.0000 </r>
      </set>
      <set comment="kpoint 58">
       <r>   -1.4502    1.0000 </r>
       <r>   -1.1137    1.0000 </r>
       <r>    3.7048    1.0000 </r>
       <r>    3.9906    1.0000 </r>
       <r>    3.9906    1.0000 </r>
       <r>    5.8355    1.0000 </r>
       <r>   12.6962    0.0000 </r>
       <r>   16.2164    0.0000 </r>
       <r>   16.2164    0.0000 </r>
       <r>   23.0848    0.0000 </r>
       <r>   25.6572    0.0000 </r>
       <r>   35.6208    0.0000 </r>
      </set>
      <set comment="kpoint 59">
       <r>   -1.4830    1.0000 </r>
       <r>   -1.1501    1.0000 </r>
       <r>    3.7336    1.0000 </r>
       <r>    4.0961    1.0000 </r>
       <r>    4.0961    1.0000 </r>
       <r>    6.4410    1.0014 </r>
       <r>   11.9248   -0.0000 </r>
       <r>   16.0104    0.0000 </r>
       <r>   16.0104    0.0000 </r>
       <r>   23.1574    0.0000 </r>
       <r>   25.7358    0.0000 </r>
       <r>   35.4961    0.0000 </r>
      </set>
      <set comment="kpoint 60">
       <r>   -1.4949    1.0000 </r>
       <r>   -1.1624    1.0000 </r>
       <r>    3.7393    1.0000 </r>
       <r>    4.1253    1.0000 </r>
       <r>    4.1253    1.0000 </r>
       <r>    6.6868    1.0354 </r>
       <r>   11.6211   -0.0000 </r>
       <r>   15.9406    0.0000 </r>
       <r>   15.9406    0.0000 </r>
       <r>   23.1726    0.0000 </r>
       <r>   25.7599    0.0000 </r>
       <r>   35.4482    0.0000 </r>
      </set>
      <set comment="kpoint 61">
       <r>   -1.4949    1.0000 </r>
       <r>   -1.1624    1.0000 </r>
       <r>    3.7393    1.0000 </r>
       <r>    4.1253    1.0000 </r>
       <r>    4.1253    1.0000 </r>
       <r>    6.6868    1.0354 </r>
       <r>   11.6211   -0.0000 </r>
       <r>   15.9406    0.0000 </r>
       <r>   15.9406    0.0000 </r>
       <r>   23.1726    0.0000 </r>
       <r>   25.7599    0.0000 </r>
       <r>   35.4482    0.0000 </r>
      </set>
      <set comment="kpoint 62">
       <r>   -1.4892    1.0000 </r>
       <r>   -1.1577    1.0000 </r>
       <r>    3.7325    1.0000 </r>
       <r>    4.0892    1.0000 </r>
       <r>    4.1253    1.0000 </r>
       <r>    6.7286    1.0275 </r>
       <r>   11.6122   -0.0000 </r>
       <r>   15.9274    0.0000 </r>
       <r>   15.9333    0.0000 </r>
       <r>   23.2096    0.0000 </r>
       <r>   25.7697    0.0000 </r>
       <r>   35.4274    0.0000 </r>
      </set>
      <set comment="kpoint 63">
       <r>   -1.4723    1.0000 </r>
       <r>   -1.1439    1.0000 </r>
       <r>    3.7139    1.0000 </r>
       <r>    3.9906    1.0000 </r>
       <r>    4.1254    1.0000 </r>
       <r>    6.8474    0.8297 </r>
       <r>   11.5860   -0.0000 </r>
       <r>   15.8882    0.0000 </r>
       <r>   15.9121    0.0000 </r>
       <r>   23.3192    0.0000 </r>
       <r>   25.7991    0.0000 </r>
       <r>   35.3667    0.0000 </r>
      </set>
      <set comment="kpoint 64">
       <r>   -1.4446    1.0000 </r>
       <r>   -1.1209    1.0000 </r>
       <r>    3.6769    1.0000 </r>
       <r>    3.8373    1.0000 </r>
       <r>    4.1255    1.0000 </r>
       <r>    7.0282    0.1450 </r>
       <r>   11.5423   -0.0000 </r>
       <r>   15.8231    0.0000 </r>
       <r>   15.8790    0.0000 </r>
       <r>   23.4951    0.0000 </r>
       <r>   25.8448    0.0000 </r>
       <r>   35.2553    0.0000 </r>
      </set>
      <set comment="kpoint 65">
       <r>   -1.4059    1.0000 </r>
       <r>   -1.0886    1.0000 </r>
       <r>    3.6296    1.0000 </r>
       <r>    3.6495    1.0000 </r>
       <r>    4.1258    1.0000 </r>
       <r>    7.2547   -0.0228 </r>
       <r>   11.4852   -0.0000 </r>
       <r>   15.7327    0.0000 </r>
       <r>   15.8363    0.0000 </r>
       <r>   23.7389    0.0000 </r>
       <r>   25.9131    0.0000 </r>
       <r>   35.0904    0.0000 </r>
      </set>
      <set comment="kpoint 66">
       <r>   -1.3571    1.0000 </r>
       <r>   -1.0471    1.0000 </r>
       <r>    3.4350    1.0000 </r>
       <r>    3.5693    1.0000 </r>
       <r>    4.1251    1.0000 </r>
       <r>    7.5110   -0.0002 </r>
       <r>   11.4147   -0.0000 </r>
       <r>   15.6176    0.0000 </r>
       <r>   15.7860    0.0000 </r>
       <r>   24.0372    0.0000 </r>
       <r>   25.9988    0.0000 </r>
       <r>   34.8672    0.0000 </r>
      </set>
      <set comment="kpoint 67">
       <r>   -1.2983    1.0000 </r>
       <r>   -0.9964    1.0000 </r>
       <r>    3.2125    1.0000 </r>
       <r>    3.4977    1.0000 </r>
       <r>    4.1253    1.0000 </r>
       <r>    7.7931   -0.0000 </r>
       <r>   11.3363   -0.0000 </r>
       <r>   15.4790    0.0000 </r>
       <r>   15.7327    0.0000 </r>
       <r>   24.3934    0.0000 </r>
       <r>   26.1065    0.0000 </r>
       <r>   34.5863    0.0000 </r>
      </set>
      <set comment="kpoint 68">
       <r>   -1.2304    1.0000 </r>
       <r>   -0.9366    1.0000 </r>
       <r>    2.9833    1.0000 </r>
       <r>    3.4150    1.0000 </r>
       <r>    4.1255    1.0000 </r>
       <r>    8.0924   -0.0000 </r>
       <r>   11.2514   -0.0000 </r>
       <r>   15.3177    0.0000 </r>
       <r>   15.6783    0.0000 </r>
       <r>   24.7967    0.0000 </r>
       <r>   26.2341    0.0000 </r>
       <r>   34.2532    0.0000 </r>
      </set>
      <set comment="kpoint 69">
       <r>   -1.1544    1.0000 </r>
       <r>   -0.8677    1.0000 </r>
       <r>    2.7515    1.0000 </r>
       <r>    3.3225    1.0000 </r>
       <r>    4.1258    1.0000 </r>
       <r>    8.4046   -0.0000 </r>
       <r>   11.1631   -0.0000 </r>
       <r>   15.1350    0.0000 </r>
       <r>   15.6248    0.0000 </r>
       <r>   25.2413    0.0000 </r>
       <r>   26.3817    0.0000 </r>
       <r>   33.8776    0.0000 </r>
      </set>
      <set comment="kpoint 70">
       <r>   -1.0713    1.0000 </r>
       <r>   -0.7896    1.0000 </r>
       <r>    2.5199    1.0000 </r>
       <r>    3.2217    1.0000 </r>
       <r>    4.1261    1.0000 </r>
       <r>    8.7264   -0.0000 </r>
       <r>   11.0741   -0.0000 </r>
       <r>   14.9321    0.0000 </r>
       <r>   15.5735    0.0000 </r>
       <r>   25.7212    0.0000 </r>
       <r>   26.5491    0.0000 </r>
       <r>   33.4710    0.0000 </r>
      </set>
      <set comment="kpoint 71">
       <r>   -0.9826    1.0000 </r>
       <r>   -0.7025    1.0000 </r>
       <r>    2.2906    1.0000 </r>
       <r>    3.1143    1.0000 </r>
       <r>    4.1264    1.0000 </r>
       <r>    9.0557   -0.0000 </r>
       <r>   10.9870   -0.0000 </r>
       <r>   14.7104    0.0000 </r>
       <r>   15.5257    0.0000 </r>
       <r>   26.2312    0.0000 </r>
       <r>   26.7364    0.0000 </r>
       <r>   33.0441    0.0000 </r>
      </set>
      <set comment="kpoint 72">
       <r>   -0.8899    1.0000 </r>
       <r>   -0.6064    1.0000 </r>
       <r>    2.0649    1.0000 </r>
       <r>    3.0027    1.0000 </r>
       <r>    4.1268    1.0000 </r>
       <r>    9.3904   -0.0000 </r>
       <r>   10.9042   -0.0000 </r>
       <r>   14.4714    0.0000 </r>
       <r>   15.4820    0.0000 </r>
       <r>   26.7657    0.0000 </r>
       <r>   26.9435    0.0000 </r>
       <r>   32.6061    0.0000 </r>
      </set>
      <set comment="kpoint 73">
       <r>   -0.7955    1.0000 </r>
       <r>   -0.5013    1.0000 </r>
       <r>    1.8439    1.0000 </r>
       <r>    2.8895    1.0000 </r>
       <r>    4.1272    1.0000 </r>
       <r>    9.7292   -0.0000 </r>
       <r>   10.8276   -0.0000 </r>
       <r>   14.2164    0.0000 </r>
       <r>   15.4430    0.0000 </r>
       <r>   27.1704    0.0000 </r>
       <r>   27.3187    0.0000 </r>
       <r>   32.1640    0.0000 </r>
      </set>
      <set comment="kpoint 74">
       <r>   -0.7018    1.0000 </r>
       <r>   -0.3874    1.0000 </r>
       <r>    1.6284    1.0000 </r>
       <r>    2.7779    1.0000 </r>
       <r>    4.1276    1.0000 </r>
       <r>   10.0706   -0.0000 </r>
       <r>   10.7586   -0.0000 </r>
       <r>   13.9470    0.0000 </r>
       <r>   15.4089    0.0000 </r>
       <r>   27.4167    0.0000 </r>
       <r>   27.8836    0.0000 </r>
       <r>   31.7235    0.0000 </r>
      </set>
      <set comment="kpoint 75">
       <r>   -0.6122    1.0000 </r>
       <r>   -0.2646    1.0000 </r>
       <r>    1.4191    1.0000 </r>
       <r>    2.6718    1.0000 </r>
       <r>    4.1280    1.0000 </r>
       <r>   10.4136   -0.0000 </r>
       <r>   10.6986   -0.0000 </r>
       <r>   13.6645    0.0000 </r>
       <r>   15.3799    0.0000 </r>
       <r>   27.6824    0.0000 </r>
       <r>   28.4513    0.0000 </r>
       <r>   31.2886    0.0000 </r>
      </set>
      <set comment="kpoint 76">
       <r>   -0.5301    1.0000 </r>
       <r>   -0.1332    1.0000 </r>
       <r>    1.2164    1.0000 </r>
       <r>    2.5754    1.0000 </r>
       <r>    4.1284    1.0000 </r>
       <r>   10.6485   -0.0000 </r>
       <r>   10.7569   -0.0000 </r>
       <r>   13.3704    0.0000 </r>
       <r>   15.3561    0.0000 </r>
       <r>   27.9672    0.0000 </r>
       <r>   29.0091    0.0000 </r>
       <r>   30.8626    0.0000 </r>
      </set>
      <set comment="kpoint 77">
       <r>   -0.4598    1.0000 </r>
       <r>    0.0069    1.0000 </r>
       <r>    1.0208    1.0000 </r>
       <r>    2.4935    1.0000 </r>
       <r>    4.1289    1.0000 </r>
       <r>   10.6090   -0.0000 </r>
       <r>   11.0995   -0.0000 </r>
       <r>   13.0660    0.0000 </r>
       <r>   15.3377    0.0000 </r>
       <r>   28.2706    0.0000 </r>
       <r>   29.5362    0.0000 </r>
       <r>   30.4479    0.0000 </r>
      </set>
      <set comment="kpoint 78">
       <r>   -0.4055    1.0000 </r>
       <r>    0.1555    1.0000 </r>
       <r>    0.8326    1.0000 </r>
       <r>    2.4306    1.0000 </r>
       <r>    4.1293    1.0000 </r>
       <r>   10.5806   -0.0000 </r>
       <r>   11.4403   -0.0000 </r>
       <r>   12.7527    0.0000 </r>
       <r>   15.3246    0.0000 </r>
       <r>   28.5924    0.0000 </r>
       <r>   29.9963    0.0000 </r>
       <r>   30.0462    0.0000 </r>
      </set>
      <set comment="kpoint 79">
       <r>   -0.3710    1.0000 </r>
       <r>    0.3125    1.0000 </r>
       <r>    0.6521    1.0000 </r>
       <r>    2.3911    1.0000 </r>
       <r>    4.1298    1.0000 </r>
       <r>   10.5635   -0.0000 </r>
       <r>   11.7782   -0.0000 </r>
       <r>   12.4318    0.0000 </r>
       <r>   15.3169    0.0000 </r>
       <r>   28.9319    0.0000 </r>
       <r>   29.6592    0.0000 </r>
       <r>   30.3283    0.0000 </r>
      </set>
      <set comment="kpoint 80">
       <r>   -0.3601    1.0000 </r>
       <r>    0.4766    1.0000 </r>
       <r>    0.4766    1.0000 </r>
       <r>    2.3721    1.0000 </r>
       <r>    4.1207    1.0000 </r>
       <r>   10.5552   -0.0000 </r>
       <r>   12.1023   -0.0000 </r>
       <r>   12.1023   -0.0000 </r>
       <r>   15.3056    0.0000 </r>
       <r>   29.2772    0.0000 </r>
       <r>   29.2772    0.0000 </r>
       <r>   30.4480    0.0000 </r>
      </set>
      <set comment="kpoint 81">
       <r>   -0.3601    1.0000 </r>
       <r>    0.4766    1.0000 </r>
       <r>    0.4766    1.0000 </r>
       <r>    2.3721    1.0000 </r>
       <r>    4.1207    1.0000 </r>
       <r>   10.5552   -0.0000 </r>
       <r>   12.1023   -0.0000 </r>
       <r>   12.1023   -0.0000 </r>
       <r>   15.3056    0.0000 </r>
       <r>   29.2772    0.0000 </r>
       <r>   29.2772    0.0000 </r>
       <r>   30.4480    0.0000 </r>
      </set>
      <set comment="kpoint 82">
       <r>   -0.3616    1.0000 </r>
       <r>    0.3930    1.0000 </r>
       <r>    0.5648    1.0000 </r>
       <r>    2.3810    1.0000 </r>
       <r>    4.1272    1.0000 </r>
       <r>   10.5423   -0.0000 </r>
       <r>   11.9496   -0.0000 </r>
       <r>   12.2763   -0.0000 </r>
       <r>   15.3248    0.0000 </r>
       <r>   29.0654    0.0000 </r>
       <r>   29.4711    0.0000 </r>
       <r>   30.4655    0.0000 </r>
      </set>
      <set comment="kpoint 83">
       <r>   -0.3680    1.0000 </r>
       <r>    0.3094    1.0000 </r>
       <r>    0.6522    1.0000 </r>
       <r>    2.3919    1.0000 </r>
       <r>    4.1197    1.0000 </r>
       <r>   10.5037   -0.0000 </r>
       <r>   11.7943   -0.0000 </r>
       <r>   12.4506    0.0000 </r>
       <r>   15.3686    0.0000 </r>
       <r>   28.7792    0.0000 </r>
       <r>   29.6601    0.0000 </r>
       <r>   30.4892    0.0000 </r>
      </set>
      <set comment="kpoint 84">
       <r>   -0.3790    1.0000 </r>
       <r>    0.2286    1.0000 </r>
       <r>    0.7412    1.0000 </r>
       <r>    2.4093    1.0000 </r>
       <r>    4.1076    1.0000 </r>
       <r>   10.4508   -0.0000 </r>
       <r>   11.6463   -0.0000 </r>
       <r>   12.6148    0.0000 </r>
       <r>   15.4460    0.0000 </r>
       <r>   28.4537    0.0000 </r>
       <r>   29.8545    0.0000 </r>
       <r>   30.5067    0.0000 </r>
      </set>
      <set comment="kpoint 85">
       <r>   -0.3955    1.0000 </r>
       <r>    0.1525    1.0000 </r>
       <r>    0.8314    1.0000 </r>
       <r>    2.4323    1.0000 </r>
       <r>    4.0911    1.0000 </r>
       <r>   10.3891   -0.0000 </r>
       <r>   11.5060   -0.0000 </r>
       <r>   12.7608    0.0000 </r>
       <r>   15.5591    0.0000 </r>
       <r>   28.1027    0.0000 </r>
       <r>   30.0543    0.0000 </r>
       <r>   30.5132    0.0000 </r>
      </set>
      <set comment="kpoint 86">
       <r>   -0.4179    1.0000 </r>
       <r>    0.0829    1.0000 </r>
       <r>    0.9225    1.0000 </r>
       <r>    2.4600    1.0000 </r>
       <r>    4.0702    1.0000 </r>
       <r>   10.3221   -0.0000 </r>
       <r>   11.3736   -0.0000 </r>
       <r>   12.8842    0.0000 </r>
       <r>   15.7078    0.0000 </r>
       <r>   27.7351    0.0000 </r>
       <r>   30.2599    0.0000 </r>
       <r>   30.5089    0.0000 </r>
      </set>
      <set comment="kpoint 87">
       <r>   -0.4468    1.0000 </r>
       <r>    0.0214    1.0000 </r>
       <r>    1.0140    1.0000 </r>
       <r>    2.4914    1.0000 </r>
       <r>    4.0451    1.0000 </r>
       <r>   10.2523   -0.0000 </r>
       <r>   11.2493   -0.0000 </r>
       <r>   12.9843    0.0000 </r>
       <r>   15.8900    0.0000 </r>
       <r>   27.3574    0.0000 </r>
       <r>   30.4712    0.0000 </r>
       <r>   30.4960    0.0000 </r>
      </set>
      <set comment="kpoint 88">
       <r>   -0.4820    1.0000 </r>
       <r>   -0.0310    1.0000 </r>
       <r>    1.1052    1.0000 </r>
       <r>    2.5255    1.0000 </r>
       <r>    4.0163    1.0000 </r>
       <r>   10.1816   -0.0000 </r>
       <r>   11.1334   -0.0000 </r>
       <r>   13.0626    0.0000 </r>
       <r>   16.1012    0.0000 </r>
       <r>   26.9745    0.0000 </r>
       <r>   30.4769    0.0000 </r>
       <r>   30.6884    0.0000 </r>
      </set>
      <set comment="kpoint 89">
       <r>   -0.5228    1.0000 </r>
       <r>   -0.0742    1.0000 </r>
       <r>    1.1956    1.0000 </r>
       <r>    2.5614    1.0000 </r>
       <r>    3.9840    1.0000 </r>
       <r>   10.1114   -0.0000 </r>
       <r>   11.0262   -0.0000 </r>
       <r>   13.1224    0.0000 </r>
       <r>   16.3360    0.0000 </r>
       <r>   26.5907    0.0000 </r>
       <r>   30.4541    0.0000 </r>
       <r>   30.9117    0.0000 </r>
      </set>
      <set comment="kpoint 90">
       <r>   -0.5674    1.0000 </r>
       <r>   -0.1090    1.0000 </r>
       <r>    1.2844    1.0000 </r>
       <r>    2.5981    1.0000 </r>
       <r>    3.9488    1.0000 </r>
       <r>   10.0429   -0.0000 </r>
       <r>   10.9277   -0.0000 </r>
       <r>   13.1670    0.0000 </r>
       <r>   16.5883    0.0000 </r>
       <r>   26.2097    0.0000 </r>
       <r>   30.4293    0.0000 </r>
       <r>   31.1409    0.0000 </r>
      </set>
      <set comment="kpoint 91">
       <r>   -0.6137    1.0000 </r>
       <r>   -0.1367    1.0000 </r>
       <r>    1.3708    1.0000 </r>
       <r>    2.6346    1.0000 </r>
       <r>    3.9113    1.0000 </r>
       <r>    9.9772   -0.0000 </r>
       <r>   10.8382   -0.0000 </r>
       <r>   13.1999    0.0000 </r>
       <r>   16.8521    0.0000 </r>
       <r>   25.8353    0.0000 </r>
       <r>   30.4040    0.0000 </r>
       <r>   31.3762    0.0000 </r>
      </set>
      <set comment="kpoint 92">
       <r>   -0.6596    1.0000 </r>
       <r>   -0.1588    1.0000 </r>
       <r>    1.4538    1.0000 </r>
       <r>    2.6701    1.0000 </r>
       <r>    3.8725    1.0000 </r>
       <r>    9.9154   -0.0000 </r>
       <r>   10.7578   -0.0000 </r>
       <r>   13.2239    0.0000 </r>
       <r>   17.1213    0.0000 </r>
       <r>   25.4714    0.0000 </r>
       <r>   30.3794    0.0000 </r>
       <r>   31.6174    0.0000 </r>
      </set>
      <set comment="kpoint 93">
       <r>   -0.7037    1.0000 </r>
       <r>   -0.1764    1.0000 </r>
       <r>    1.5323    1.0000 </r>
       <r>    2.7030    1.0000 </r>
       <r>    3.8332    1.0000 </r>
       <r>    9.8583   -0.0000 </r>
       <r>   10.6866   -0.0000 </r>
       <r>   13.2411    0.0000 </r>
       <r>   17.3864    0.0000 </r>
       <r>   25.1205    0.0000 </r>
       <r>   30.3560    0.0000 </r>
       <r>   31.8643    0.0000 </r>
      </set>
      <set comment="kpoint 94">
       <r>   -0.7440    1.0000 </r>
       <r>   -0.1903    1.0000 </r>
       <r>    1.6050    1.0000 </r>
       <r>    2.7339    1.0000 </r>
       <r>    3.7947    1.0000 </r>
       <r>    9.8069   -0.0000 </r>
       <r>   10.6248   -0.0000 </r>
       <r>   13.2535    0.0000 </r>
       <r>   17.6475    0.0000 </r>
       <r>   24.7914    0.0000 </r>
       <r>   30.3350    0.0000 </r>
       <r>   32.1168    0.0000 </r>
      </set>
      <set comment="kpoint 95">
       <r>   -0.7795    1.0000 </r>
       <r>   -0.2014    1.0000 </r>
       <r>    1.6705    1.0000 </r>
       <r>    2.7613    1.0000 </r>
       <r>    3.7582    1.0000 </r>
       <r>    9.7619   -0.0000 </r>
       <r>   10.5723   -0.0000 </r>
       <r>   13.2623    0.0000 </r>
       <r>   17.8941    0.0000 </r>
       <r>   24.4888    0.0000 </r>
       <r>   30.3166    0.0000 </r>
       <r>   32.3740    0.0000 </r>
      </set>
      <set comment="kpoint 96">
       <r>   -0.8096    1.0000 </r>
       <r>   -0.2100    1.0000 </r>
       <r>    1.7272    1.0000 </r>
       <r>    2.7847    1.0000 </r>
       <r>    3.7254    1.0000 </r>
       <r>    9.7241   -0.0000 </r>
       <r>   10.5294   -0.0000 </r>
       <r>   13.2685    0.0000 </r>
       <r>   18.1175    0.0000 </r>
       <r>   24.2203    0.0000 </r>
       <r>   30.3012    0.0000 </r>
       <r>   32.6348    0.0000 </r>
      </set>
      <set comment="kpoint 97">
       <r>   -0.8335    1.0000 </r>
       <r>   -0.2165    1.0000 </r>
       <r>    1.7736    1.0000 </r>
       <r>    2.8035    1.0000 </r>
       <r>    3.6976    1.0000 </r>
       <r>    9.6941   -0.0000 </r>
       <r>   10.4960   -0.0000 </r>
       <r>   13.2728    0.0000 </r>
       <r>   18.3080    0.0000 </r>
       <r>   23.9952    0.0000 </r>
       <r>   30.2890    0.0000 </r>
       <r>   32.8968    0.0000 </r>
      </set>
      <set comment="kpoint 98">
       <r>   -0.8508    1.0000 </r>
       <r>   -0.2209    1.0000 </r>
       <r>    1.8081    1.0000 </r>
       <r>    2.8173    1.0000 </r>
       <r>    3.6765    1.0000 </r>
       <r>    9.6722   -0.0000 </r>
       <r>   10.4722   -0.0000 </r>
       <r>   13.2756    0.0000 </r>
       <r>   18.4551    0.0000 </r>
       <r>   23.8237    0.0000 </r>
       <r>   30.2802    0.0000 </r>
       <r>   33.1525    0.0000 </r>
      </set>
      <set comment="kpoint 99">
       <r>   -0.8614    1.0000 </r>
       <r>   -0.2238    1.0000 </r>
       <r>    1.8294    1.0000 </r>
       <r>    2.8255    1.0000 </r>
       <r>    3.6601    1.0000 </r>
       <r>    9.6590   -0.0000 </r>
       <r>   10.4574   -0.0000 </r>
       <r>   13.2755    0.0000 </r>
       <r>   18.5485    0.0000 </r>
       <r>   23.7157    0.0000 </r>
       <r>   30.2715    0.0000 </r>
       <r>   33.3771    0.0000 </r>
      </set>
      <set comment="kpoint 100">
       <r>   -0.8649    1.0000 </r>
       <r>   -0.2247    1.0000 </r>
       <r>    1.8366    1.0000 </r>
       <r>    2.8283    1.0000 </r>
       <r>    3.6555    1.0000 </r>
       <r>    9.6545   -0.0000 </r>
       <r>   10.4526   -0.0000 </r>
       <r>   13.2759    0.0000 </r>
       <r>   18.5806    0.0000 </r>
       <r>   23.6787    0.0000 </r>
       <r>   30.2697    0.0000 </r>
       <r>   33.4867    0.0000 </r>
      </set>
     </set>
    </set>
   </array>
  </eigenvalues>
  <separator name="orbital magnetization" >
   <v name="MAGDIPOLOUT">      0.00000000      0.00000000      0.00000000</v>
  </separator>
  <dos>
   <i name="efermi">      6.93357807 </i>
   <total>
    <array>
     <dimension dim="1">gridpoints</dimension>
     <dimension dim="2">spin</dimension>
     <field>energy</field>
     <field>total</field>
     <field>integrated</field>
     <set>
      <set comment="spin 1">
       <r>    -6.3845     0.0000     0.0000 </r>
       <r>    -6.2346     0.0000     0.0000 </r>
       <r>    -6.0847    -0.0000    -0.0000 </r>
       <r>    -5.9348    -0.0000    -0.0000 </r>
       <r>    -5.7849    -0.0000    -0.0000 </r>
       <r>    -5.6350    -0.0000    -0.0000 </r>
       <r>    -5.4851    -0.0000    -0.0000 </r>
       <r>    -5.3353    -0.0000    -0.0000 </r>
       <r>    -5.1854    -0.0000    -0.0000 </r>
       <r>    -5.0355    -0.0000    -0.0000 </r>
       <r>    -4.8856    -0.0002    -0.0000 </r>
       <r>    -4.7357    -0.0038    -0.0006 </r>
       <r>    -4.5858    -0.0185    -0.0034 </r>
       <r>    -4.4359     0.0674     0.0067 </r>
       <r>    -4.2860     0.3714     0.0624 </r>
       <r>    -4.1361     0.4225     0.1257 </r>
       <r>    -3.9862     0.2502     0.1632 </r>
       <r>    -3.8363     0.1846     0.1909 </r>
       <r>    -3.6864     0.1609     0.2150 </r>
       <r>    -3.5365     0.1514     0.2377 </r>
       <r>    -3.3867     0.1358     0.2581 </r>
       <r>    -3.2368     0.1289     0.2774 </r>
       <r>    -3.0869     0.1350     0.2976 </r>
       <r>    -2.9370     0.1052     0.3134 </r>
       <r>    -2.7871     0.1396     0.3343 </r>
       <r>    -2.6372     0.1113     0.3510 </r>
       <r>    -2.4873     0.1172     0.3686 </r>
       <r>    -2.3374     0.1482     0.3908 </r>
       <r>    -2.1875     0.1145     0.4079 </r>
       <r>    -2.0376     0.1504     0.4305 </r>
       <r>    -1.8877     0.2929     0.4744 </r>
       <r>    -1.7378     0.7167     0.5818 </r>
       <r>    -1.5879     0.8214     0.7049 </r>
       <r>    -1.4381     0.9725     0.8507 </r>
       <r>    -1.2882     1.1681     1.0258 </r>
       <r>    -1.1383     1.2028     1.2061 </r>
       <r>    -0.9884     1.2247     1.3897 </r>
       <r>    -0.8385     1.2569     1.5781 </r>
       <r>    -0.6886     1.3029     1.7733 </r>
       <r>    -0.5387     1.2041     1.9538 </r>
       <r>    -0.3888     1.5844     2.1913 </r>
       <r>    -0.2389     1.9427     2.4825 </r>
       <r>    -0.0890     1.6879     2.7355 </r>
       <r>     0.0609     1.1167     2.9029 </r>
       <r>     0.2108     0.8362     3.0283 </r>
       <r>     0.3607     0.9461     3.1701 </r>
       <r>     0.5106     1.3054     3.3657 </r>
       <r>     0.6604     1.2844     3.5583 </r>
       <r>     0.8103     1.6957     3.8124 </r>
       <r>     0.9602     3.4165     4.3245 </r>
       <r>     1.1101     3.9561     4.9175 </r>
       <r>     1.2600     2.7903     5.3358 </r>
       <r>     1.4099     1.5647     5.5703 </r>
       <r>     1.5598     0.8993     5.7051 </r>
[...]
      </set>
      <set comment="kpoint 83">
       <set comment="band 1">
        <r>  0.0011  0.0485  0.8006 </r>
       </set>
       <set comment="band 2">
        <r>  0.0010  0.0697  0.8236 </r>
       </set>
       <set comment="band 3">
        <r>  0.0000  0.0819  0.8117 </r>
       </set>
       <set comment="band 4">
        <r>  0.0427  0.0006  0.8848 </r>
       </set>
       <set comment="band 5">
        <r>  0.0000  0.0002  0.9807 </r>
       </set>
       <set comment="band 6">
        <r>  0.6848  0.0136  0.1058 </r>
       </set>
       <set comment="band 7">
        <r>  0.0000  0.5252  0.2092 </r>
       </set>
       <set comment="band 8">
        <r>  0.0195  0.5122  0.1953 </r>
       </set>
       <set comment="band 9">
        <r>  0.0000  0.3084  0.3533 </r>
       </set>
       <set comment="band 10">
        <r>  0.0006  0.0553  0.2463 </r>
       </set>
       <set comment="band 11">
        <r>  0.0000  0.0194  0.2280 </r>
       </set>
       <set comment="band 12">
        <r>  0.0077  0.3606  0.0723 </r>
       </set>
      </set>
      <set comment="kpoint 84">
       <set comment="band 1">
        <r>  0.0024  0.0470  0.8011 </r>
       </set>
       <set comment="band 2">
        <r>  0.0018  0.0673  0.8247 </r>
       </set>
       <set comment="band 3">
        <r>  0.0000  0.0849  0.8085 </r>
       </set>
       <set comment="band 4">
        <r>  0.0407  0.0013  0.8868 </r>
       </set>
       <set comment="band 5">
        <r>  0.0000  0.0004  0.9801 </r>
       </set>
       <set comment="band 6">
        <r>  0.6693  0.0241  0.1088 </r>
       </set>
       <set comment="band 7">
        <r>  0.0000  0.5240  0.2129 </r>
       </set>
       <set comment="band 8">
        <r>  0.0343  0.4968  0.1956 </r>
       </set>
       <set comment="band 9">
        <r>  0.0002  0.3149  0.3452 </r>
       </set>
       <set comment="band 10">
        <r>  0.0019  0.0775  0.2413 </r>
       </set>
       <set comment="band 11">
        <r>  0.0000  0.0194  0.2180 </r>
       </set>
       <set comment="band 12">
        <r>  0.0153  0.3214  0.0957 </r>
       </set>
      </set>
      <set comment="kpoint 85">
       <set comment="band 1">
        <r>  0.0045  0.0447  0.8021 </r>
       </set>
       <set comment="band 2">
        <r>  0.0026  0.0657  0.8246 </r>
       </set>
       <set comment="band 3">
        <r>  0.0000  0.0878  0.8054 </r>
       </set>
       <set comment="band 4">
        <r>  0.0382  0.0022  0.8896 </r>
       </set>
       <set comment="band 5">
        <r>  0.0000  0.0007  0.9794 </r>
       </set>
       <set comment="band 6">
        <r>  0.6542  0.0345  0.1111 </r>
       </set>
       <set comment="band 7">
        <r>  0.0000  0.5226  0.2168 </r>
       </set>
       <set comment="band 8">
        <r>  0.0482  0.4788  0.1997 </r>
       </set>
       <set comment="band 9">
        <r>  0.0006  0.3245  0.3331 </r>
       </set>
       <set comment="band 10">
        <r>  0.0039  0.0956  0.2380 </r>
       </set>
       <set comment="band 11">
        <r>  0.0000  0.0194  0.2080 </r>
       </set>
       <set comment="band 12">
        <r>  0.0239  0.2834  0.1180 </r>
       </set>
      </set>
      <set comment="kpoint 86">
       <set comment="band 1">
        <r>  0.0072  0.0416  0.8040 </r>
       </set>
       <set comment="band 2">
        <r>  0.0030  0.0649  0.8234 </r>
       </set>
       <set comment="band 3">
        <r>  0.0000  0.0908  0.8023 </r>
       </set>
       <set comment="band 4">
        <r>  0.0353  0.0031  0.8928 </r>
       </set>
       <set comment="band 5">
        <r>  0.0000  0.0011  0.9784 </r>
       </set>
       <set comment="band 6">
        <r>  0.6403  0.0442  0.1126 </r>
       </set>
       <set comment="band 7">
        <r>  0.0000  0.5210  0.2207 </r>
       </set>
       <set comment="band 8">
        <r>  0.0605  0.4594  0.2076 </r>
       </set>
       <set comment="band 9">
        <r>  0.0014  0.3369  0.3173 </r>
       </set>
       <set comment="band 10">
        <r>  0.0064  0.1093  0.2369 </r>
       </set>
       <set comment="band 11">
        <r>  0.0000  0.0193  0.1982 </r>
       </set>
       <set comment="band 12">
        <r>  0.0324  0.2490  0.1381 </r>
       </set>
      </set>
      <set comment="kpoint 87">
       <set comment="band 1">
        <r>  0.0106  0.0375  0.8067 </r>
       </set>
       <set comment="band 2">
        <r>  0.0031  0.0651  0.8210 </r>
       </set>
       <set comment="band 3">
        <r>  0.0000  0.0937  0.7993 </r>
       </set>
       <set comment="band 4">
        <r>  0.0320  0.0041  0.8966 </r>
       </set>
       <set comment="band 5">
        <r>  0.0000  0.0014  0.9773 </r>
       </set>
       <set comment="band 6">
        <r>  0.6278  0.0532  0.1132 </r>
       </set>
       <set comment="band 7">
        <r>  0.0000  0.5193  0.2248 </r>
       </set>
       <set comment="band 8">
        <r>  0.0710  0.4394  0.2182 </r>
       </set>
       <set comment="band 9">
        <r>  0.0025  0.3511  0.2988 </r>
       </set>
       <set comment="band 10">
        <r>  0.0094  0.1191  0.2378 </r>
       </set>
       <set comment="band 11">
        <r>  0.0000  0.0193  0.1886 </r>
       </set>
       <set comment="band 12">
        <r>  0.0403  0.2190  0.1554 </r>
       </set>
      </set>
      <set comment="kpoint 88">
       <set comment="band 1">
        <r>  0.0146  0.0328  0.8102 </r>
       </set>
       <set comment="band 2">
        <r>  0.0027  0.0660  0.8175 </r>
       </set>
       <set comment="band 3">
        <r>  0.0000  0.0965  0.7963 </r>
       </set>
       <set comment="band 4">
        <r>  0.0286  0.0051  0.9006 </r>
       </set>
       <set comment="band 5">
        <r>  0.0000  0.0018  0.9761 </r>
       </set>
       <set comment="band 6">
        <r>  0.6166  0.0613  0.1130 </r>
       </set>
       <set comment="band 7">
        <r>  0.0000  0.5176  0.2288 </r>
       </set>
       <set comment="band 8">
        <r>  0.0799  0.4200  0.2303 </r>
       </set>
       <set comment="band 9">
        <r>  0.0037  0.3664  0.2787 </r>
       </set>
       <set comment="band 10">
        <r>  0.0125  0.1255  0.2404 </r>
       </set>
       <set comment="band 11">
        <r>  0.0474  0.1932  0.1701 </r>
       </set>
       <set comment="band 12">
        <r>  0.0000  0.0192  0.1791 </r>
       </set>
      </set>
      <set comment="kpoint 89">
       <set comment="band 1">
        <r>  0.0187  0.0279  0.8141 </r>
       </set>
       <set comment="band 2">
        <r>  0.0020  0.0672  0.8135 </r>
       </set>
       <set comment="band 3">
        <r>  0.0000  0.0994  0.7933 </r>
       </set>
       <set comment="band 4">
        <r>  0.0251  0.0060  0.9049 </r>
       </set>
       <set comment="band 5">
        <r>  0.0000  0.0022  0.9749 </r>
       </set>
       <set comment="band 6">
        <r>  0.6068  0.0686  0.1122 </r>
       </set>
       <set comment="band 7">
        <r>  0.0000  0.5157  0.2328 </r>
       </set>
       <set comment="band 8">
        <r>  0.0873  0.4018  0.2427 </r>
       </set>
       <set comment="band 9">
        <r>  0.0050  0.3820  0.2581 </r>
       </set>
       <set comment="band 10">
        <r>  0.0159  0.1289  0.2446 </r>
       </set>
       <set comment="band 11">
        <r>  0.0536  0.1715  0.1824 </r>
       </set>
       <set comment="band 12">
        <r>  0.0000  0.0191  0.1700 </r>
       </set>
      </set>
      <set comment="kpoint 90">
       <set comment="band 1">
        <r>  0.0229  0.0230  0.8180 </r>
       </set>
       <set comment="band 2">
        <r>  0.0014  0.0686  0.8095 </r>
       </set>
       <set comment="band 3">
        <r>  0.0000  0.1022  0.7904 </r>
       </set>
       <set comment="band 4">
        <r>  0.0215  0.0070  0.9093 </r>
       </set>
       <set comment="band 5">
        <r>  0.0000  0.0025  0.9737 </r>
       </set>
       <set comment="band 6">
        <r>  0.5981  0.0753  0.1108 </r>
       </set>
       <set comment="band 7">
        <r>  0.0000  0.5139  0.2368 </r>
       </set>
       <set comment="band 8">
        <r>  0.0937  0.3853  0.2546 </r>
       </set>
       <set comment="band 9">
        <r>  0.0061  0.3975  0.2375 </r>
       </set>
       <set comment="band 10">
        <r>  0.0194  0.1297  0.2503 </r>
       </set>
       <set comment="band 11">
        <r>  0.0589  0.1532  0.1926 </r>
       </set>
       <set comment="band 12">
        <r>  0.0000  0.0189  0.1611 </r>
       </set>
      </set>
      <set comment="kpoint 91">
       <set comment="band 1">
        <r>  0.0267  0.0186  0.8215 </r>
       </set>
       <set comment="band 2">
        <r>  0.0008  0.0698  0.8057 </r>
       </set>
       <set comment="band 3">
        <r>  0.0000  0.1050  0.7875 </r>
       </set>
       <set comment="band 4">
        <r>  0.0181  0.0079  0.9137 </r>
       </set>
       <set comment="band 5">
        <r>  0.0000  0.0027  0.9725 </r>
       </set>
       <set comment="band 6">
        <r>  0.5906  0.0812  0.1089 </r>
       </set>
       <set comment="band 7">
        <r>  0.0000  0.5120  0.2406 </r>
       </set>
       <set comment="band 8">
        <r>  0.0991  0.3708  0.2654 </r>
       </set>
       <set comment="band 9">
        <r>  0.0069  0.4129  0.2175 </r>
       </set>
       <set comment="band 10">
        <r>  0.0229  0.1281  0.2572 </r>
       </set>
       <set comment="band 11">
        <r>  0.0634  0.1380  0.2010 </r>
       </set>
       <set comment="band 12">
        <r>  0.0000  0.0187  0.1525 </r>
       </set>
      </set>
      <set comment="kpoint 92">
       <set comment="band 1">
        <r>  0.0302  0.0146  0.8245 </r>
       </set>
       <set comment="band 2">
        <r>  0.0004  0.0708  0.8025 </r>
       </set>
       <set comment="band 3">
        <r>  0.0000  0.1077  0.7847 </r>
       </set>
       <set comment="band 4">
        <r>  0.0147  0.0087  0.9181 </r>
       </set>
       <set comment="band 5">
        <r>  0.0000  0.0028  0.9716 </r>
       </set>
       <set comment="band 6">
        <r>  0.5841  0.0865  0.1068 </r>
       </set>
       <set comment="band 7">
        <r>  0.0000  0.5102  0.2443 </r>
       </set>
       <set comment="band 8">
        <r>  0.1038  0.3582  0.2751 </r>
       </set>
       <set comment="band 9">
        <r>  0.0073  0.4282  0.1980 </r>
       </set>
       <set comment="band 10">
        <r>  0.0264  0.1242  0.2655 </r>
       </set>
       <set comment="band 11">
        <r>  0.0671  0.1254  0.2080 </r>
       </set>
       <set comment="band 12">
        <r>  0.0000  0.0184  0.1443 </r>
       </set>
      </set>
      <set comment="kpoint 93">
       <set comment="band 1">
        <r>  0.0333  0.0111  0.8269 </r>
       </set>
       <set comment="band 2">
        <r>  0.0002  0.0716  0.7998 </r>
       </set>
       <set comment="band 3">
        <r>  0.0000  0.1104  0.7818 </r>
       </set>
       <set comment="band 4">
        <r>  0.0116  0.0094  0.9223 </r>
       </set>
       <set comment="band 5">
        <r>  0.0000  0.0028  0.9709 </r>
       </set>
       <set comment="band 6">
        <r>  0.5786  0.0912  0.1046 </r>
       </set>
       <set comment="band 7">
        <r>  0.0000  0.5084  0.2477 </r>
       </set>
       <set comment="band 8">
        <r>  0.1079  0.3475  0.2835 </r>
       </set>
       <set comment="band 9">
        <r>  0.0072  0.4438  0.1791 </r>
       </set>
       <set comment="band 10">
        <r>  0.0300  0.1182  0.2748 </r>
       </set>
       <set comment="band 11">
        <r>  0.0703  0.1151  0.2136 </r>
       </set>
       <set comment="band 12">
        <r>  0.0000  0.0180  0.1364 </r>
       </set>
      </set>
      <set comment="kpoint 94">
       <set comment="band 1">
        <r>  0.0359  0.0081  0.8289 </r>
       </set>
       <set comment="band 2">
        <r>  0.0001  0.0722  0.7976 </r>
       </set>
       <set comment="band 3">
        <r>  0.0000  0.1131  0.7790 </r>
       </set>
       <set comment="band 4">
        <r>  0.0087  0.0100  0.9262 </r>
       </set>
       <set comment="band 5">
        <r>  0.0000  0.0025  0.9704 </r>
       </set>
       <set comment="band 6">
        <r>  0.5739  0.0952  0.1022 </r>
       </set>
       <set comment="band 7">
        <r>  0.0000  0.5068  0.2508 </r>
       </set>
       <set comment="band 8">
        <r>  0.1113  0.3385  0.2905 </r>
       </set>
       <set comment="band 9">
        <r>  0.0066  0.4596  0.1607 </r>
       </set>
       <set comment="band 10">
        <r>  0.0336  0.1100  0.2853 </r>
       </set>
       <set comment="band 11">
        <r>  0.0728  0.1066  0.2182 </r>
       </set>
       <set comment="band 12">
        <r>  0.0000  0.0174  0.1291 </r>
       </set>
      </set>
      <set comment="kpoint 95">
       <set comment="band 1">
        <r>  0.0381  0.0056  0.8304 </r>
       </set>
       <set comment="band 2">
        <r>  0.0000  0.0726  0.7958 </r>
       </set>
       <set comment="band 3">
        <r>  0.0000  0.1155  0.7763 </r>
       </set>
       <set comment="band 4">
        <r>  0.0062  0.0105  0.9296 </r>
       </set>
       <set comment="band 5">
        <r>  0.0000  0.0021  0.9703 </r>
       </set>
       <set comment="band 6">
        <r>  0.5701  0.0986  0.1000 </r>
       </set>
       <set comment="band 7">
        <r>  0.0000  0.5054  0.2536 </r>
       </set>
       <set comment="band 8">
        <r>  0.1142  0.3311  0.2964 </r>
       </set>
       <set comment="band 9">
        <r>  0.0056  0.4757  0.1430 </r>
       </set>
       <set comment="band 10">
        <r>  0.0371  0.1001  0.2967 </r>
       </set>
       <set comment="band 11">
        <r>  0.0749  0.0998  0.2219 </r>
       </set>
       <set comment="band 12">
        <r>  0.0000  0.0167  0.1223 </r>
       </set>
      </set>
      <set comment="kpoint 96">
       <set comment="band 1">
        <r>  0.0399  0.0036  0.8316 </r>
       </set>
       <set comment="band 2">
        <r>  0.0000  0.0729  0.7945 </r>
       </set>
       <set comment="band 3">
        <r>  0.0000  0.1178  0.7738 </r>
       </set>
       <set comment="band 4">
        <r>  0.0040  0.0110  0.9326 </r>
       </set>
       <set comment="band 5">
        <r>  0.0000  0.0016  0.9703 </r>
       </set>
       <set comment="band 6">
        <r>  0.5671  0.1014  0.0981 </r>
       </set>
       <set comment="band 7">
        <r>  0.0000  0.5041  0.2559 </r>
       </set>
       <set comment="band 8">
        <r>  0.1166  0.3251  0.3010 </r>
       </set>
       <set comment="band 9">
        <r>  0.0043  0.4918  0.1262 </r>
       </set>
       <set comment="band 10">
        <r>  0.0405  0.0888  0.3085 </r>
       </set>
       <set comment="band 11">
        <r>  0.0765  0.0945  0.2248 </r>
       </set>
       <set comment="band 12">
        <r>  0.0000  0.0156  0.1166 </r>
       </set>
      </set>
      <set comment="kpoint 97">
       <set comment="band 1">
        <r>  0.0413  0.0020  0.8324 </r>
       </set>
       <set comment="band 2">
        <r>  0.0000  0.0732  0.7935 </r>
       </set>
       <set comment="band 3">
        <r>  0.0000  0.1198  0.7716 </r>
       </set>
       <set comment="band 4">
        <r>  0.0023  0.0113  0.9351 </r>
       </set>
       <set comment="band 5">
        <r>  0.0000  0.0010  0.9706 </r>
       </set>
       <set comment="band 6">
        <r>  0.5648  0.1035  0.0964 </r>
       </set>
       <set comment="band 7">
        <r>  0.0000  0.5031  0.2578 </r>
       </set>
       <set comment="band 8">
        <r>  0.1185  0.3206  0.3046 </r>
       </set>
       <set comment="band 9">
        <r>  0.0028  0.5070  0.1110 </r>
       </set>
       <set comment="band 10">
        <r>  0.0435  0.0771  0.3199 </r>
       </set>
       <set comment="band 11">
        <r>  0.0778  0.0905  0.2270 </r>
       </set>
       <set comment="band 12">
        <r>  0.0000  0.0138  0.1123 </r>
       </set>
      </set>
      <set comment="kpoint 98">
       <set comment="band 1">
        <r>  0.0423  0.0009  0.8330 </r>
       </set>
       <set comment="band 2">
        <r>  0.0001  0.0733  0.7928 </r>
       </set>
       <set comment="band 3">
        <r>  0.0000  0.1214  0.7699 </r>
       </set>
       <set comment="band 4">
        <r>  0.0010  0.0116  0.9369 </r>
       </set>
       <set comment="band 5">
        <r>  0.0000  0.0005  0.9709 </r>
       </set>
       <set comment="band 6">
        <r>  0.5632  0.1051  0.0951 </r>
       </set>
       <set comment="band 7">
        <r>  0.0000  0.5024  0.2591 </r>
       </set>
       <set comment="band 8">
        <r>  0.1198  0.3175  0.3071 </r>
       </set>
       <set comment="band 9">
        <r>  0.0014  0.5199  0.0985 </r>
       </set>
       <set comment="band 10">
        <r>  0.0461  0.0666  0.3297 </r>
       </set>
       <set comment="band 11">
        <r>  0.0786  0.0878  0.2285 </r>
       </set>
       <set comment="band 12">
        <r>  0.0000  0.0107  0.1105 </r>
       </set>
      </set>
      <set comment="kpoint 99">
       <set comment="band 1">
        <r>  0.0429  0.0002  0.8333 </r>
       </set>
       <set comment="band 2">
        <r>  0.0001  0.0734  0.7924 </r>
       </set>
       <set comment="band 3">
        <r>  0.0000  0.1223  0.7688 </r>
       </set>
       <set comment="band 4">
        <r>  0.0003  0.0117  0.9380 </r>
       </set>
       <set comment="band 5">
        <r>  0.0000  0.0001  0.9712 </r>
       </set>
       <set comment="band 6">
        <r>  0.5623  0.1060  0.0944 </r>
       </set>
       <set comment="band 7">
        <r>  0.0000  0.5021  0.2600 </r>
       </set>
       <set comment="band 8">
        <r>  0.1205  0.3156  0.3086 </r>
       </set>
       <set comment="band 9">
        <r>  0.0004  0.5288  0.0902 </r>
       </set>
       <set comment="band 10">
        <r>  0.0478  0.0592  0.3365 </r>
       </set>
       <set comment="band 11">
        <r>  0.0792  0.0861  0.2293 </r>
       </set>
       <set comment="band 12">
        <r>  0.0000  0.0048  0.1144 </r>
       </set>
      </set>
      <set comment="kpoint 100">
       <set comment="band 1">
        <r>  0.0431  0.0000  0.8335 </r>
       </set>
       <set comment="band 2">
        <r>  0.0001  0.0734  0.7923 </r>
       </set>
       <set comment="band 3">
        <r>  0.0000  0.1227  0.7684 </r>
       </set>
       <set comment="band 4">
        <r>  0.0000  0.0118  0.9383 </r>
       </set>
       <set comment="band 5">
        <r>  0.0000  0.0000  0.9713 </r>
       </set>
       <set comment="band 6">
        <r>  0.5620  0.1063  0.0941 </r>
       </set>
       <set comment="band 7">
        <r>  0.0000  0.5019  0.2602 </r>
       </set>
       <set comment="band 8">
        <r>  0.1208  0.3150  0.3091 </r>
       </set>
       <set comment="band 9">
        <r>  0.0000  0.5320  0.0872 </r>
       </set>
       <set comment="band 10">
        <r>  0.0484  0.0565  0.3389 </r>
       </set>
       <set comment="band 11">
        <r>  0.0793  0.0856  0.2296 </r>
       </set>
       <set comment="band 12">
        <r>  0.0000  0.0000  0.1194 </r>
       </set>
      </set>
     </set>
    </set>
   </array>
  </projected>
 </calculation>
 <structure name="finalpos" >
  <crystal>
   <varray name="basis" >
    <v>       0.00000000       2.03189500       2.03189500 </v>
    <v>       2.03189500       0.00000000       2.03189500 </v>
    <v>       2.03189500       2.03189500       0.00000000 </v>
   </varray>
   <i name="volume">     16.77775239 </i>
   <varray name="rec_basis" >
    <v>      -0.24607571       0.24607571       0.24607571 </v>
    <v>       0.24607571      -0.24607571       0.24607571 </v>
    <v>       0.24607571       0.24607571      -0.24607571 </v>
   </varray>
  </crystal>
  <varray name="positions" >
   <v>       0.00000000       0.00000000       0.00000000 </v>
  </varray>
 </structure>
</modeling>
