FCC Au                                  
   3.85000000000000     
     0.000000    0.500000    0.500000
     0.500000    0.000000    0.500000
     0.500000    0.500000    0.000000
   Au
     1
Direct
  0.000000  0.000000  0.000000
 
   20   20   20
  68.384      65.212      57.208      47.395      37.712      28.436      19.706      12.555      8.0692      6.0637    
  5.4982      6.0637      8.0692      12.555      19.706      28.436      37.712      47.395      57.208      65.212    
  65.212      59.687      50.942      41.465      32.228      23.327      15.417      9.7136      6.6993      5.5418    
  5.5451      6.7035      9.7129      15.418      23.340      32.239      41.443      50.872      59.603      65.174    
  57.208      50.942      42.826      34.254      25.691      17.675      11.307      7.4278      5.6743      5.1663    
  5.6770      7.4273      11.306      17.684      25.711      34.260      42.789      50.867      57.145      59.603    
  47.395      41.465      34.254      26.508      18.902      12.454      8.1003      5.8606      4.9339      4.9343    
  5.8595      8.0959      12.451      18.906      26.521      34.265      41.463      47.385      50.867      50.872    
  37.712      32.228      25.691      18.902      12.871      8.5109      6.0272      4.8168      4.4581      4.8185    
  6.0271      8.5049      12.859      18.891      25.692      32.245      37.738      41.463      42.789      41.443    
  28.436      23.327      17.675      12.454      8.5109      6.0970      4.7756      4.1982      4.1990      4.7791    
  6.1026      8.5113      12.441      17.650      23.305      28.429      32.245      34.265      34.260      32.239    
  19.706      15.417      11.307      8.1003      6.0272      4.7756      4.1172      3.9187      4.1163      4.7812    
  6.0422      8.1148      11.306      15.394      19.669      23.305      25.692      26.521      25.711      23.340    
  12.555      9.7136      7.4278      5.8606      4.8168      4.1982      3.9187      3.9160      4.1933      4.8176    
  5.8745      7.4536      9.7367      12.557      15.394      17.650      18.891      18.906      17.684      15.418    
  8.0692      6.6993      5.6743      4.9339      4.4581      4.1990      4.1163      4.1933      4.4446      4.9191    
  5.6745      6.7237      8.1057      9.7367      11.306      12.441      12.859      12.451      11.306      9.7129    
  6.0637      5.5418      5.1663      4.9343      4.8185      4.7791      4.7812      4.8176      4.9191      5.1392    
  5.5202      6.0634      6.7237      7.4536      8.1148      8.5113      8.5049      8.0959      7.4273      6.7035    
  5.4982      5.5451      5.6770      5.8595      6.0271      6.1026      6.0422      5.8745      5.6745      5.5202    
  5.4633      5.5202      5.6745      5.8745      6.0422      6.1026      6.0271      5.8595      5.6770      5.5451    
  6.0637      6.7035      7.4273      8.0959      8.5049      8.5113      8.1148      7.4536      6.7237      6.0634    
  5.5202      5.1392      4.9191      4.8176      4.7812      4.7791      4.8185      4.9343      5.1663      5.5418    
  8.0692      9.7129      11.306      12.451      12.859      12.441      11.306      9.7367      8.1057      6.7237    
  5.6745      4.9191      4.4446      4.1933      4.1163      4.1990      4.4581      4.9339      5.6743      6.6993    
  12.555      15.418      17.684      18.906      18.891      17.650      15.394      12.557      9.7367      7.4536    
  5.8745      4.8176      4.1933      3.9160      3.9187      4.1982      4.8168      5.8606      7.4278      9.7136    
  19.706      23.340      25.711      26.521      25.692      23.305      19.669      15.394      11.306      8.1148    
  6.0422      4.7812      4.1163      3.9187      4.1172      4.7756      6.0272      8.1003      11.307      15.417    
  28.436      32.239      34.260      34.265      32.245      28.429      23.305      17.650      12.441      8.5113    
  6.1026      4.7791      4.1990      4.1982      4.7756      6.0970      8.5109      12.454      17.675      23.327    
  37.712      41.443      42.789      41.463      37.738      32.245      25.692      18.891      12.859      8.5049    
  6.0271      4.8185      4.4581      4.8168      6.0272      8.5109      12.871      18.902      25.691      32.228    
  47.395      50.872      50.867      47.385      41.463      34.265      26.521      18.906      12.451      8.0959    
  5.8595      4.9343      4.9339      5.8606      8.1003      12.454      18.902      26.508      34.254      41.465    
  57.208      59.603      57.145      50.867      42.789      34.260      25.711      17.684      11.306      7.4273    
  5.6770      5.1663      5.6743      7.4278      11.307      17.675      25.691      34.254      42.826      50.942    
  65.212      65.174      59.603      50.872      41.443      32.239      23.340      15.418      9.7129      6.7035    
  5.5451      5.5418      6.6993      9.7136      15.417      23.327      32.228      41.465      50.942      59.687    
  65.212      59.687      50.942      41.465      32.228      23.327      15.417      9.7136      6.6993      5.5418    
  5.5451      6.7035      9.7129      15.418      23.340      32.239      41.443      50.872      59.603      65.174    
  59.687      52.854      44.175      35.246      26.484      18.280      11.693      7.6336      5.8041      5.2788    
  5.8075      7.6327      11.692      18.295      26.513      35.250      44.109      52.732      59.587      62.311    
  50.942      44.175      36.300      28.136      20.176      13.319      8.5800      6.1240      5.1308      5.1317    
  6.1229      8.5751      13.322      20.198      28.164      36.299      44.125      50.871      54.988      55.021    
  41.465      35.246      28.136      20.836      14.230      9.2960      6.4309      5.0768      4.6771      5.0796    
  6.4291      9.2873      14.224      20.844      28.159      35.270      41.479      45.907      47.542      45.902    
  32.228      26.484      20.176      14.230      9.5659      6.6323      5.0790      4.4057      4.4081      5.0829    
  6.6308      9.5547      14.213      20.167      26.495      32.258      36.675      39.089      39.075      36.642    
  23.327      18.280      13.319      9.2960      6.6323      5.0901      4.2851      4.0462      4.2855      5.0950    
  6.6404      9.2967      13.304      18.255      23.310      27.581      30.398      31.375      30.393      27.583    
  15.417      11.693      8.5800      6.4309      5.0790      4.2851      3.9350      3.9326      4.2839      5.0886    
  6.4509      8.5968      11.692      15.395      19.013      21.833      23.361      23.371      21.859      19.045    
  9.7136      7.6336      6.1240      5.0768      4.4057      4.0462      3.9326      4.0411      4.3995      5.0780    
  6.1404      7.6621      9.7378      12.130      14.356      15.920      16.489      15.939      14.374      12.128    
  6.6993      5.8041      5.1308      4.6771      4.4081      4.2855      4.2839      4.3995      4.6587      5.1133    
  5.8056      6.7249      7.8716      9.1325      10.233      10.879      10.881      10.231      9.1123      7.8381    
  5.5418      5.2788      5.1317      5.0796      5.0829      5.0950      5.0886      5.0780      5.1133      5.2504    
  5.5212      5.9181      6.3926      6.8812      7.2660      7.4095      7.2531      6.8608      6.3763      5.9187    
  5.5451      5.8075      6.1229      6.4291      6.6308      6.6404      6.4509      6.1404      5.8056      5.5212    
  5.3387      5.2746      5.3102      5.3922      5.4524      5.4460      5.3814      5.3119      5.2967      5.3714    
  6.7035      7.6327      8.5751      9.2873      9.5547      9.2967      8.5968      7.6621      6.7249      5.9181    
  5.2746      4.8312      4.5696      4.4402      4.4009      4.4406      4.5793      4.8523      5.2941      5.9187    
  9.7129      11.692      13.322      14.224      14.213      13.304      11.692      9.7378      7.8716      6.3926    
  5.3102      4.5696      4.1341      3.9376      3.9404      4.1427      4.5798      5.3103      6.3727      7.8381    
  15.418      18.295      20.198      20.844      20.167      18.255      15.395      12.130      9.1325      6.8812    
  5.3922      4.4402      3.9376      3.7861      3.9405      4.4404      5.3829      6.8618      9.1131      12.128    
  23.340      26.513      28.164      28.159      26.495      23.310      19.013      14.356      10.233      7.2660    
  5.4524      4.4009      3.9404      3.9405      4.3980      5.4433      7.2561      10.235      14.376      19.045    
  32.239      35.250      36.299      35.270      32.258      27.581      21.833      15.920      10.879      7.4095    
  5.4460      4.4406      4.1427      4.4404      5.4433      7.4077      10.887      15.941      21.854      27.583    
  41.443      44.109      44.125      41.479      36.675      30.398      23.361      16.489      10.881      7.2531    
  5.3814      4.5793      4.5798      5.3829      7.2561      10.887      16.497      23.362      30.383      36.642    
  50.872      52.732      50.871      45.907      39.089      31.375      23.371      15.939      10.231      6.8608    
  5.3119      4.8523      5.3103      6.8618      10.235      15.941      23.362      31.359      39.076      45.902    
  59.603      59.587      54.988      47.542      39.075      30.393      21.859      14.374      9.1123      6.3763    
  5.2967      5.2941      6.3727      9.1131      14.376      21.854      30.383      39.076      47.566      55.021    
  65.174      62.311      55.021      45.902      36.642      27.583      19.045      12.128      7.8381      5.9187    
  5.3714      5.9187      7.8381      12.128      19.045      27.583      36.642      45.902      55.021      62.311    
  57.208      50.942      42.826      34.254      25.691      17.675      11.307      7.4278      5.6743      5.1663    
  5.6770      7.4273      11.306      17.684      25.711      34.260      42.789      50.867      57.145      59.603    
  50.942      44.175      36.300      28.136      20.176      13.319      8.5800      6.1240      5.1308      5.1317    
  6.1229      8.5751      13.322      20.198      28.164      36.299      44.125      50.871      54.988      55.021    
  42.826      36.300      28.968      21.497      14.705      9.5787      6.5768      5.1701      4.7554      5.1727    
  6.5739      9.5703      14.706      21.518      29.001      36.322      42.825      47.555      49.328      47.566    
  34.254      28.136      21.497      15.196      10.160      6.9361      5.2487      4.5226      4.5253      5.2519    
  6.9313      10.147      15.185      21.505      28.171      34.308      39.125      41.818      41.798      39.076    
  25.691      20.176      14.705      10.160      7.0759      5.3143      4.4062      4.1391      4.4076      5.3166    
  7.0740      10.147      14.685      20.166      25.711      30.427      33.584      34.680      33.546      30.383    
  17.675      13.319      9.5787      6.9361      5.3143      4.3736      3.9642      3.9625      4.3734      5.3220    
  6.9463      9.5776      13.301      17.652      21.842      25.092      26.849      26.846      25.091      21.854    
  11.307      8.5800      6.5768      5.2487      4.4062      3.9642      3.8275      3.9601      4.4064      5.2605    
  6.5968      8.5956      11.307      14.357      17.133      19.052      19.740      19.070      17.159      14.376    
  7.4278      6.1240      5.1701      4.5226      4.1391      3.9625      3.9601      4.1320      4.5146      5.1704    
  6.1404      7.4553      9.1345      10.939      12.469      13.348      13.355      12.480      10.937      9.1131    
  5.6743      5.1308      4.7554      4.5253      4.4076      4.3734      4.4064      4.5146      4.7340      5.1130    
  5.6765      6.3952      7.2285      8.0709      8.7129      8.9540      8.7087      8.0554      7.2021      6.3727    
  5.1663      5.1317      5.1727      5.2519      5.3166      5.3220      5.2605      5.1704      5.1130      5.1403    
  5.2765      5.5122      5.8030      6.0753      6.2433      6.2375      6.0616      5.7912      5.5132      5.2941    
  5.6770      6.1229      6.5739      6.9313      7.0740      6.9463      6.5968      6.1404      5.6765      5.2765    
  4.9924      4.8365      4.7832      4.7814      4.7833      4.7749      4.7831      4.8529      5.0193      5.2967    
  7.4273      8.5751      9.5703      10.147      10.147      9.5776      8.5956      7.4553      6.3952      5.5122    
  4.8365      4.3882      4.1303      4.0146      4.0148      4.1348      4.4011      4.8509      5.5132      6.3763    
  11.306      13.322      14.706      15.185      14.685      13.301      11.307      9.1345      7.2285      5.8030    
  4.7832      4.1303      3.7827      3.6763      3.7872      4.1363      4.7829      5.7886      7.2021      9.1123    
  17.684      20.198      21.518      21.505      20.166      17.652      14.357      10.939      8.0709      6.0753    
  4.7814      4.0146      3.6763      3.6777      4.0155      4.7761      6.0624      8.0572      10.937      14.374    
  25.711      28.164      29.001      28.171      25.711      21.842      17.133      12.469      8.7129      6.2433    
  4.7833      4.0148      3.7872      4.0155      4.7794      6.2358      8.7128      12.485      17.159      21.859    
  34.260      36.299      36.322      34.308      30.427      25.092      19.052      13.348      8.9540      6.2375    
  4.7749      4.1348      4.1363      4.7761      6.2358      8.9562      13.363      19.070      25.091      30.393    
  42.789      44.125      42.825      39.125      33.584      26.849      19.740      13.355      8.7087      6.0616    
  4.7831      4.4011      4.7829      6.0624      8.7128      13.363      19.743      26.835      33.546      39.075    
  50.867      50.871      47.555      41.818      34.680      26.846      19.070      12.480      8.0554      5.7912    
  4.8529      4.8509      5.7886      8.0572      12.485      19.070      26.835      34.661      41.798      47.542    
  57.145      54.988      49.328      41.798      33.546      25.091      17.159      10.937      7.2021      5.5132    
  5.0193      5.5132      7.2021      10.937      17.159      25.091      33.546      41.798      49.328      54.988    
  59.603      55.021      47.566      39.076      30.383      21.854      14.376      9.1131      6.3727      5.2941    
  5.2967      6.3763      9.1123      14.374      21.859      30.393      39.075      47.542      54.988      59.587    
  47.395      41.465      34.254      26.508      18.902      12.454      8.1003      5.8606      4.9339      4.9343    
  5.8595      8.0959      12.451      18.906      26.521      34.265      41.463      47.385      50.867      50.872    
  41.465      35.246      28.136      20.836      14.230      9.2960      6.4309      5.0768      4.6771      5.0796    
  6.4291      9.2873      14.224      20.844      28.159      35.270      41.479      45.907      47.542      45.902    
  34.254      28.136      21.497      15.196      10.160      6.9361      5.2487      4.5226      4.5253      5.2519    
  6.9313      10.147      15.185      21.505      28.171      34.308      39.125      41.818      41.798      39.076    
  26.508      20.836      15.196      10.472      7.2375      5.3951      4.4510      4.1735      4.4520      5.3965    
  7.2333      10.456      15.173      20.832      26.545      31.427      34.716      35.859      34.661      31.359    
  18.902      14.230      10.160      7.2375      5.4520      4.4282      3.9859      3.9846      4.4285      5.4571    
  7.2378      10.142      14.199      18.885      23.380      26.873      28.761      28.741      26.835      23.362    
  12.454      9.2960      6.9361      5.3951      4.4282      3.9270      3.7751      3.9242      4.4306      5.4057    
  6.9448      9.2901      12.433      15.918      19.057      21.213      21.977      21.217      19.070      15.941    
  8.1003      6.4309      5.2487      4.4510      3.9859      3.7751      3.7722      3.9809      4.4521      5.2604    
  6.4485      8.1126      10.232      12.468      14.328      15.383      15.392      14.349      12.485      10.235    
  5.8606      5.0768      4.5226      4.1735      3.9846      3.9242      3.9809      4.1652      4.5137      5.0767    
  5.8748      6.8834      8.0720      9.2475      10.121      10.446      10.126      9.2464      8.0572      6.8618    
  4.9339      4.6771      4.5253      4.4520      4.4285      4.4306      4.4521      4.5137      4.6560      4.9182    
  5.3121      5.8049      6.3286      6.7980      7.0824      7.0796      6.7877      6.3108      5.7886      5.3103    
  4.9343      5.0796      5.2519      5.3965      5.4571      5.4057      5.2604      5.0767      4.9182      4.8317    
  4.8373      4.9262      5.0602      5.1781      5.2221      5.1706      5.0524      4.9273      4.8509      4.8523    
  5.8595      6.4291      6.9313      7.2333      7.2378      6.9448      6.4485      5.8748      5.3121      4.8373    
  4.4963      4.2903      4.1872      4.1463      4.1438      4.1857      4.2994      4.5153      4.8529      5.3119    
  8.0959      9.2873      10.147      10.456      10.142      9.2901      8.1126      6.8834      5.8049      4.9262    
  4.2903      3.8882      3.6725      3.6047      3.6737      3.8939      4.2986      4.9273      5.7912      6.8608    
  12.451      14.224      15.185      15.173      14.199      12.433      10.232      8.0720      6.3286      5.0602    
  4.1872      3.6725      3.4411      3.4428      3.6755      4.1868      5.0509      6.3108      8.0554      10.231    
  18.906      20.844      21.505      20.832      18.885      15.918      12.468      9.2475      6.7980      5.1781    
  4.1463      3.6047      3.4428      3.6069      4.1449      5.1700      6.7883      9.2464      12.480      15.939    
  26.521      28.159      28.171      26.545      23.380      19.057      14.328      10.121      7.0824      5.2221    
  4.1438      3.6737      3.6755      4.1449      5.2181      7.0795      10.130      14.349      19.070      23.371    
  34.265      35.270      34.308      31.427      26.873      21.213      15.383      10.446      7.0796      5.1706    
  4.1857      3.8939      4.1868      5.1700      7.0795      10.454      15.398      21.217      26.846      31.375    
  41.463      41.479      39.125      34.716      28.761      21.977      15.392      10.126      6.7877      5.0524    
  4.2994      4.2986      5.0509      6.7883      10.130      15.398      21.975      28.741      34.680      39.089    
  47.385      45.907      41.818      35.859      28.741      21.217      14.349      9.2464      6.3108      4.9273    
  4.5153      4.9273      6.3108      9.2464      14.349      21.217      28.741      35.859      41.818      45.907    
  50.867      47.542      41.798      34.661      26.835      19.070      12.485      8.0572      5.7886      4.8509    
  4.8529      5.7912      8.0554      12.480      19.070      26.846      34.680      41.818      47.555      50.871    
  50.872      45.902      39.076      31.359      23.362      15.941      10.235      6.8618      5.3103      4.8523    
  5.3119      6.8608      10.231      15.939      23.371      31.375      39.089      45.907      50.871      52.732    
  37.712      32.228      25.691      18.902      12.871      8.5109      6.0272      4.8168      4.4581      4.8185    
  6.0271      8.5049      12.859      18.891      25.692      32.245      37.738      41.463      42.789      41.443    
  32.228      26.484      20.176      14.230      9.5659      6.6323      5.0790      4.4057      4.4081      5.0829    
  6.6308      9.5547      14.213      20.167      26.495      32.258      36.675      39.089      39.075      36.642    
  25.691      20.176      14.705      10.160      7.0759      5.3143      4.4062      4.1391      4.4076      5.3166    
  7.0740      10.147      14.685      20.166      25.711      30.427      33.584      34.680      33.546      30.383    
  18.902      14.230      10.160      7.2375      5.4520      4.4282      3.9859      3.9846      4.4285      5.4571    
  7.2378      10.142      14.199      18.885      23.380      26.873      28.761      28.741      26.835      23.362    
  12.871      9.5659      7.0759      5.4520      4.4385      3.9164      3.7600      3.9149      4.4425      5.4609    
  7.0763      9.5467      12.840      16.476      19.743      21.984      22.773      21.975      19.743      16.497    
  8.5109      6.6323      5.3143      4.4282      3.9164      3.6891      3.6873      3.9148      4.4331      5.3249    
  6.6393      8.5054      10.869      13.340      15.381      16.530      16.536      15.398      13.363      10.887    
  6.0272      5.0790      4.4062      3.9859      3.7600      3.6873      3.7561      3.9821      4.4080      5.0890    
  6.0415      7.2651      8.7092      10.117      11.147      11.529      11.159      10.130      8.7128      7.2561    
  4.8168      4.4057      4.1391      3.9846      3.9149      3.9148      3.9821      4.1318      4.3978      4.8164    
  5.3931      6.0766      6.7973      7.4319      7.8097      7.8105      7.4304      6.7883      6.0624      5.3829    
  4.4581      4.4081      4.4076      4.4285      4.4425      4.4331      4.4080      4.3978      4.4415      4.5682    
  4.7833      5.0603      5.3419      5.5540      5.6320      5.5480      5.3314      5.0509      4.7829      4.5798    
  4.8185      5.0829      5.3166      5.4571      5.4609      5.3249      5.0890      4.8164      4.5682      4.3868    
  4.2891      4.2662      4.2864      4.3089      4.3062      4.2819      4.2669      4.2986      4.4011      4.5793    
  6.0271      6.6308      7.0740      7.2378      7.0763      6.6393      6.0415      5.3931      4.7833      4.2891    
  3.9402      3.7244      3.6108      3.5745      3.6096      3.7281      3.9510      4.2994      4.7831      5.3814    
  8.5049      9.5547      10.147      10.142      9.5467      8.5054      7.2651      6.0766      5.0603      4.2662    
  3.7244      3.4016      3.2524      3.2526      3.4032      3.7279      4.2669      5.0524      6.0616      7.2531    
  12.859      14.213      14.685      14.199      12.840      10.869      8.7092      6.7973      5.3419      4.2864    
  3.6108      3.2524      3.1429      3.2543      3.6109      4.2811      5.3314      6.7877      8.7087      10.881    
  18.891      20.167      20.166      18.885      16.476      13.340      10.117      7.4319      5.5540      4.3089    
  3.5745      3.2526      3.2543      3.5762      4.3055      5.5474      7.4304      10.126      13.355      16.489    
  25.692      26.495      25.711      23.380      19.743      15.381      11.147      7.8097      5.6320      4.3062    
  3.6096      3.4032      3.6109      4.3055      5.6302      7.8135      11.159      15.392      19.740      23.361    
  32.245      32.258      30.427      26.873      21.984      16.530      11.529      7.8105      5.5480      4.2819    
  3.7281      3.7279      4.2811      5.5474      7.8135      11.537      16.536      21.977      26.849      30.398    
  37.738      36.675      33.584      28.761      22.773      16.536      11.159      7.4304      5.3314      4.2669    
  3.9510      4.2669      5.3314      7.4304      11.159      16.536      22.773      28.761      33.584      36.675    
  41.463      39.089      34.680      28.741      21.975      15.398      10.130      6.7883      5.0509      4.2986    
  4.2994      5.0524      6.7877      10.126      15.392      21.977      28.761      34.716      39.125      41.479    
  42.789      39.075      33.546      26.835      19.743      13.363      8.7128      6.0624      4.7829      4.4011    
  4.7831      6.0616      8.7087      13.355      19.740      26.849      33.584      39.125      42.825      44.125    
  41.443      36.642      30.383      23.362      16.497      10.887      7.2561      5.3829      4.5798      4.5793    
  5.3814      7.2531      10.881      16.489      23.361      30.398      36.675      41.479      44.125      44.109    
  28.436      23.327      17.675      12.454      8.5109      6.0970      4.7756      4.1982      4.1990      4.7791    
  6.1026      8.5113      12.441      17.650      23.305      28.429      32.245      34.265      34.260      32.239    
  23.327      18.280      13.319      9.2960      6.6323      5.0901      4.2851      4.0462      4.2855      5.0950    
  6.6404      9.2967      13.304      18.255      23.310      27.581      30.398      31.375      30.393      27.583    
  17.675      13.319      9.5787      6.9361      5.3143      4.3736      3.9642      3.9625      4.3734      5.3220    
  6.9463      9.5776      13.301      17.652      21.842      25.092      26.849      26.846      25.091      21.854    
  12.454      9.2960      6.9361      5.3951      4.4282      3.9270      3.7751      3.9242      4.4306      5.4057    
  6.9448      9.2901      12.433      15.918      19.057      21.213      21.977      21.217      19.070      15.941    
  8.5109      6.6323      5.3143      4.4282      3.9164      3.6891      3.6873      3.9148      4.4331      5.3249    
  6.6393      8.5054      10.869      13.340      15.381      16.530      16.536      15.398      13.363      10.887    
  6.0970      5.0901      4.3736      3.9270      3.6891      3.6136      3.6869      3.9261      4.3778      5.0999    
  6.1075      7.4106      8.9465      10.436      11.523      11.925      11.537      10.454      8.9562      7.4077    
  4.7756      4.2851      3.9642      3.7751      3.6873      3.6869      3.7736      3.9618      4.2858      4.7833    
  5.4561      6.2450      7.0784      7.8055      8.2358      8.2404      7.8135      7.0795      6.2358      5.4433    
  4.1982      4.0462      3.9625      3.9242      3.9148      3.9261      3.9618      4.0410      4.1925      4.4404    
  4.7829      5.1784      5.5524      5.8258      5.9275      5.8244      5.5474      5.1700      4.7761      4.4404    
  4.1990      4.2855      4.3734      4.4306      4.4331      4.3778      4.2858      4.1925      4.1326      4.1289    
  4.1858      4.2854      4.3904      4.4564      4.4540      4.3849      4.2811      4.1868      4.1363      4.1427    
  4.7791      5.0950      5.3220      5.4057      5.3249      5.0999      4.7833      4.4404      4.1289      3.8856    
  3.7225      3.6304      3.5880      3.5753      3.5861      3.6307      3.7279      3.8939      4.1348      4.4406    
  6.1026      6.6404      6.9463      6.9448      6.6393      6.1075      5.4561      4.7829      4.1858      3.7225    
  3.4027      3.2073      3.1146      3.1143      3.2084      3.4075      3.7281      4.1857      4.7749      5.4460    
  8.5113      9.2967      9.5776      9.2901      8.5054      7.4106      6.2450      5.1784      4.2854      3.6304    
  3.2073      2.9754      2.9019      2.9759      3.2085      3.6307      4.2819      5.1706      6.2375      7.4095    
  12.441      13.304      13.301      12.433      10.869      8.9465      7.0784      5.5524      4.3904      3.5880    
  3.1146      2.9019      2.9030      3.1159      3.5859      4.3849      5.5480      7.0796      8.9540      10.879    
  17.650      18.255      17.652      15.918      13.340      10.436      7.8055      5.8258      4.4564      3.5753    
  3.1143      2.9759      3.1159      3.5751      4.4535      5.8244      7.8105      10.446      13.348      15.920    
  23.305      23.310      21.842      19.057      15.381      11.523      8.2358      5.9275      4.4540      3.5861    
  3.2084      3.2085      3.5859      4.4535      5.9286      8.2404      11.529      15.383      19.052      21.833    
  28.429      27.581      25.092      21.213      16.530      11.925      8.2404      5.8244      4.3849      3.6307    
  3.4075      3.6307      4.3849      5.8244      8.2404      11.925      16.530      21.213      25.092      27.581    
  32.245      30.398      26.849      21.977      16.536      11.537      7.8135      5.5474      4.2811      3.7279    
  3.7281      4.2819      5.5480      7.8105      11.529      16.530      21.984      26.873      30.427      32.258    
  34.265      31.375      26.846      21.217      15.398      10.454      7.0795      5.1700      4.1868      3.8939    
  4.1857      5.1706      7.0796      10.446      15.383      21.213      26.873      31.427      34.308      35.270    
  34.260      30.393      25.091      19.070      13.363      8.9562      6.2358      4.7761      4.1363      4.1348    
  4.7749      6.2375      8.9540      13.348      19.052      25.092      30.427      34.308      36.322      36.299    
  32.239      27.583      21.854      15.941      10.887      7.4077      5.4433      4.4404      4.1427      4.4406    
  5.4460      7.4095      10.879      15.920      21.833      27.581      32.258      35.270      36.299      35.250    
  19.706      15.417      11.307      8.1003      6.0272      4.7756      4.1172      3.9187      4.1163      4.7812    
  6.0422      8.1148      11.306      15.394      19.669      23.305      25.692      26.521      25.711      23.340    
  15.417      11.693      8.5800      6.4309      5.0790      4.2851      3.9350      3.9326      4.2839      5.0886    
  6.4509      8.5968      11.692      15.395      19.013      21.833      23.361      23.371      21.859      19.045    
  11.307      8.5800      6.5768      5.2487      4.4062      3.9642      3.8275      3.9601      4.4064      5.2605    