FCC Au                                  
   3.85000000000000     
     0.000000    0.500000    0.500000
     0.500000    0.000000    0.500000
     0.500000    0.500000    0.000000
   Au
     1
Direct
  0.000000  0.000000  0.000000
 
   20   20   20
 0.68383758622E+02 0.65211646642E+02 0.57207586464E+02 0.47394554201E+02 0.37711761376E+02
 0.28436314348E+02 0.19705537460E+02 0.12555363658E+02 0.80692376457E+01 0.60637331143E+01
 0.54982283444E+01 0.60637331143E+01 0.80692376457E+01 0.12555363658E+02 0.19705537460E+02
 0.28436314348E+02 0.37711761376E+02 0.47394554201E+02 0.57207586464E+02 0.65211646642E+02
 0.65211646642E+02 0.59686535055E+02 0.50941596164E+02 0.41464570507E+02 0.32227943782E+02
 0.23327335518E+02 0.15417224665E+02 0.97135756748E+01 0.66992673270E+01 0.55418095334E+01
 0.55450841260E+01 0.67035415674E+01 0.97128706947E+01 0.15418444136E+02 0.23339755141E+02
 0.32239459963E+02 0.41443191868E+02 0.50872492649E+02 0.59602736253E+02 0.65173552058E+02
 0.57207586464E+02 0.50941596164E+02 0.42826119155E+02 0.34254384424E+02 0.25691008137E+02
 0.17674563773E+02 0.11307481890E+02 0.74278225005E+01 0.56743341612E+01 0.51662593188E+01
 0.56769606624E+01 0.74272525907E+01 0.11305992422E+02 0.17683845591E+02 0.25711354904E+02
 0.34260471921E+02 0.42788568098E+02 0.50866778732E+02 0.57145232507E+02 0.59602736253E+02
 0.47394554201E+02 0.41464570507E+02 0.34254384424E+02 0.26508367707E+02 0.18901530976E+02
 0.12453998436E+02 0.81002916199E+01 0.58605789076E+01 0.49339200524E+01 0.49342526681E+01
 0.58594827253E+01 0.80959102195E+01 0.12450680181E+02 0.18906409999E+02 0.26521198792E+02
 0.34264885638E+02 0.41463272317E+02 0.47384627287E+02 0.50866778732E+02 0.50872492649E+02
 0.37711761376E+02 0.32227943782E+02 0.25691008137E+02 0.18901530976E+02 0.12871124683E+02
 0.85108699177E+01 0.60271963489E+01 0.48167893731E+01 0.44581480839E+01 0.48184617575E+01
 0.60270553773E+01 0.85048962608E+01 0.12859369793E+02 0.18890788474E+02 0.25691554561E+02
 0.32244927444E+02 0.37738351902E+02 0.41463272317E+02 0.42788568098E+02 0.41443191868E+02
 0.28436314348E+02 0.23327335518E+02 0.17674563773E+02 0.12453998436E+02 0.85108699177E+01
 0.60969929321E+01 0.47755597270E+01 0.41982234965E+01 0.41990412795E+01 0.47791259018E+01
 0.61025974878E+01 0.85113305251E+01 0.12441056487E+02 0.17650191812E+02 0.23305384939E+02
 0.28429243101E+02 0.32244927444E+02 0.34264885638E+02 0.34260471921E+02 0.32239459963E+02
 0.19705537460E+02 0.15417224665E+02 0.11307481890E+02 0.81002916199E+01 0.60271963489E+01
 0.47755597270E+01 0.41171515867E+01 0.39186724837E+01 0.41162839071E+01 0.47812176307E+01
 0.60421875057E+01 0.81148330513E+01 0.11306297802E+02 0.15394044606E+02 0.19668888377E+02
 0.23305384939E+02 0.25691554561E+02 0.26521198792E+02 0.25711354904E+02 0.23339755141E+02
 0.12555363658E+02 0.97135756748E+01 0.74278225005E+01 0.58605789076E+01 0.48167893731E+01
 0.41982234965E+01 0.39186724837E+01 0.39160036624E+01 0.41933029365E+01 0.48175512567E+01
 0.58745469774E+01 0.74535853492E+01 0.97367406174E+01 0.12557352922E+02 0.15394044606E+02
 0.17650191812E+02 0.18890788474E+02 0.18906409999E+02 0.17683845591E+02 0.15418444136E+02
 0.80692376457E+01 0.66992673270E+01 0.56743341612E+01 0.49339200524E+01 0.44581480839E+01
 0.41990412795E+01 0.41162839071E+01 0.41933029365E+01 0.44446443802E+01 0.49191412249E+01
 0.56744856362E+01 0.67237190781E+01 0.81056951954E+01 0.97367406174E+01 0.11306297802E+02
 0.12441056487E+02 0.12859369793E+02 0.12450680181E+02 0.11305992422E+02 0.97128706947E+01
 0.60637331143E+01 0.55418095334E+01 0.51662593188E+01 0.49342526681E+01 0.48184617575E+01
 0.47791259018E+01 0.47812176307E+01 0.48175512567E+01 0.49191412249E+01 0.51392120351E+01
 0.55202254853E+01 0.60634204561E+01 0.67237190781E+01 0.74535853492E+01 0.81148330513E+01
 0.85113305251E+01 0.85048962608E+01 0.80959102195E+01 0.74272525907E+01 0.67035415674E+01
 0.54982283444E+01 0.55450841260E+01 0.56769606624E+01 0.58594827253E+01 0.60270553773E+01
 0.61025974878E+01 0.60421875057E+01 0.58745469774E+01 0.56744856362E+01 0.55202254853E+01
 0.54633059972E+01 0.55202254853E+01 0.56744856362E+01 0.58745469774E+01 0.60421875057E+01
 0.61025974878E+01 0.60270553773E+01 0.58594827253E+01 0.56769606624E+01 0.55450841260E+01
 0.60637331143E+01 0.67035415674E+01 0.74272525907E+01 0.80959102195E+01 0.85048962608E+01
 0.85113305251E+01 0.81148330513E+01 0.74535853492E+01 0.67237190781E+01 0.60634204561E+01
 0.55202254853E+01 0.51392120351E+01 0.49191412249E+01 0.48175512567E+01 0.47812176307E+01
 0.47791259018E+01 0.48184617575E+01 0.49342526681E+01 0.51662593188E+01 0.55418095334E+01
 0.80692376457E+01 0.97128706947E+01 0.11305992422E+02 0.12450680181E+02 0.12859369793E+02
 0.12441056487E+02 0.11306297802E+02 0.97367406174E+01 0.81056951954E+01 0.67237190781E+01
 0.56744856362E+01 0.49191412249E+01 0.44446443802E+01 0.41933029365E+01 0.41162839071E+01
 0.41990412795E+01 0.44581480839E+01 0.49339200524E+01 0.56743341612E+01 0.66992673270E+01
 0.12555363658E+02 0.15418444136E+02 0.17683845591E+02 0.18906409999E+02 0.18890788474E+02
 0.17650191812E+02 0.15394044606E+02 0.12557352922E+02 0.97367406174E+01 0.74535853492E+01
 0.58745469774E+01 0.48175512567E+01 0.41933029365E+01 0.39160036624E+01 0.39186724837E+01
 0.41982234965E+01 0.48167893731E+01 0.58605789076E+01 0.74278225005E+01 0.97135756748E+01
 0.19705537460E+02 0.23339755141E+02 0.25711354904E+02 0.26521198792E+02 0.25691554561E+02
 0.23305384939E+02 0.19668888377E+02 0.15394044606E+02 0.11306297802E+02 0.81148330513E+01
 0.60421875057E+01 0.47812176307E+01 0.41162839071E+01 0.39186724837E+01 0.41171515867E+01
 0.47755597270E+01 0.60271963489E+01 0.81002916199E+01 0.11307481890E+02 0.15417224665E+02
 0.28436314348E+02 0.32239459963E+02 0.34260471921E+02 0.34264885638E+02 0.32244927444E+02
 0.28429243101E+02 0.23305384939E+02 0.17650191812E+02 0.12441056487E+02 0.85113305251E+01
 0.61025974878E+01 0.47791259018E+01 0.41990412795E+01 0.41982234965E+01 0.47755597270E+01
 0.60969929321E+01 0.85108699177E+01 0.12453998436E+02 0.17674563773E+02 0.23327335518E+02
 0.37711761376E+02 0.41443191868E+02 0.42788568098E+02 0.41463272317E+02 0.37738351902E+02
 0.32244927444E+02 0.25691554561E+02 0.18890788474E+02 0.12859369793E+02 0.85048962608E+01
 0.60270553773E+01 0.48184617575E+01 0.44581480839E+01 0.48167893731E+01 0.60271963489E+01
 0.85108699177E+01 0.12871124683E+02 0.18901530976E+02 0.25691008137E+02 0.32227943782E+02
 0.47394554201E+02 0.50872492649E+02 0.50866778732E+02 0.47384627287E+02 0.41463272317E+02
 0.34264885638E+02 0.26521198792E+02 0.18906409999E+02 0.12450680181E+02 0.80959102195E+01
 0.58594827253E+01 0.49342526681E+01 0.49339200524E+01 0.58605789076E+01 0.81002916199E+01
 0.12453998436E+02 0.18901530976E+02 0.26508367707E+02 0.34254384424E+02 0.41464570507E+02
 0.57207586464E+02 0.59602736253E+02 0.57145232507E+02 0.50866778732E+02 0.42788568098E+02
 0.34260471921E+02 0.25711354904E+02 0.17683845591E+02 0.11305992422E+02 0.74272525907E+01
 0.56769606624E+01 0.51662593188E+01 0.56743341612E+01 0.74278225005E+01 0.11307481890E+02
 0.17674563773E+02 0.25691008137E+02 0.34254384424E+02 0.42826119155E+02 0.50941596164E+02
 0.65211646642E+02 0.65173552058E+02 0.59602736253E+02 0.50872492649E+02 0.41443191868E+02
 0.32239459963E+02 0.23339755141E+02 0.15418444136E+02 0.97128706947E+01 0.67035415674E+01
 0.55450841260E+01 0.55418095334E+01 0.66992673270E+01 0.97135756748E+01 0.15417224665E+02
 0.23327335518E+02 0.32227943782E+02 0.41464570507E+02 0.50941596164E+02 0.59686535055E+02
 0.65211646642E+02 0.59686535055E+02 0.50941596164E+02 0.41464570507E+02 0.32227943782E+02
 0.23327335518E+02 0.15417224665E+02 0.97135756748E+01 0.66992673270E+01 0.55418095334E+01
 0.55450841260E+01 0.67035415674E+01 0.97128706947E+01 0.15418444136E+02 0.23339755141E+02
 0.32239459963E+02 0.41443191868E+02 0.50872492649E+02 0.59602736253E+02 0.65173552058E+02
 0.59686535055E+02 0.52854031517E+02 0.44174699793E+02 0.35246387821E+02 0.26483605066E+02
 0.18279745900E+02 0.11693211697E+02 0.76335712281E+01 0.58041292103E+01 0.52788451659E+01
 0.58074842882E+01 0.76326804037E+01 0.11692214912E+02 0.18295100010E+02 0.26513237154E+02
 0.35250364771E+02 0.44109458258E+02 0.52732239385E+02 0.59586840736E+02 0.62310700767E+02
 0.50941596164E+02 0.44174699793E+02 0.36299765362E+02 0.28135804334E+02 0.20176169878E+02
 0.13319059620E+02 0.85800443797E+01 0.61239997334E+01 0.51308272323E+01 0.51317335069E+01
 0.61228534623E+01 0.85750731927E+01 0.13321741808E+02 0.20198321569E+02 0.28164466934E+02
 0.36299103579E+02 0.44124815730E+02 0.50871123303E+02 0.54988092431E+02 0.55021454749E+02
 0.41464570507E+02 0.35246387821E+02 0.28135804334E+02 0.20835662068E+02 0.14229663127E+02
 0.92960159317E+01 0.64308714799E+01 0.50767915209E+01 0.46771061787E+01 0.50795787761E+01
 0.64290770421E+01 0.92873295973E+01 0.14223670926E+02 0.20844194180E+02 0.28158536060E+02
 0.35270450228E+02 0.41478556629E+02 0.45906511821E+02 0.47542136391E+02 0.45902455735E+02
 0.32227943782E+02 0.26483605066E+02 0.20176169878E+02 0.14229663127E+02 0.95659265937E+01
 0.66322981676E+01 0.50789540895E+01 0.44057451599E+01 0.44081369934E+01 0.50828985142E+01
 0.66307834783E+01 0.95547249669E+01 0.14213293349E+02 0.20167427985E+02 0.26494500988E+02
 0.32257998139E+02 0.36675411569E+02 0.39089412221E+02 0.39075137528E+02 0.36642484902E+02
 0.23327335518E+02 0.18279745900E+02 0.13319059620E+02 0.92960159317E+01 0.66322981676E+01
 0.50900527274E+01 0.42851100073E+01 0.40462405792E+01 0.42855043906E+01 0.50950172928E+01
 0.66403529507E+01 0.92966558544E+01 0.13304024913E+02 0.18255278486E+02 0.23309660537E+02
 0.27580993733E+02 0.30398009164E+02 0.31374555904E+02 0.30392932597E+02 0.27583347995E+02
 0.15417224665E+02 0.11693211697E+02 0.85800443797E+01 0.64308714799E+01 0.50789540895E+01
 0.42851100073E+01 0.39349648529E+01 0.39326204255E+01 0.42839378715E+01 0.50886214344E+01
 0.64508630366E+01 0.85967588750E+01 0.11691833410E+02 0.15395097300E+02 0.19013333652E+02
 0.21833049165E+02 0.23360722785E+02 0.23370662798E+02 0.21859355399E+02 0.19045230959E+02
 0.97135756748E+01 0.76335712281E+01 0.61239997334E+01 0.50767915209E+01 0.44057451599E+01
 0.40462405792E+01 0.39326204255E+01 0.40411268097E+01 0.43995407047E+01 0.50779981219E+01
 0.61403727568E+01 0.76620923035E+01 0.97377518037E+01 0.12130296756E+02 0.14355736098E+02
 0.15920006255E+02 0.16488511706E+02 0.15939435665E+02 0.14374044373E+02 0.12127523838E+02
 0.66992673270E+01 0.58041292103E+01 0.51308272323E+01 0.46771061787E+01 0.44081369934E+01
 0.42855043906E+01 0.42839378715E+01 0.43995407047E+01 0.46586850528E+01 0.51132556082E+01
 0.58055772380E+01 0.67248950424E+01 0.78716066912E+01 0.91325077138E+01 0.10233483177E+02
 0.10879294290E+02 0.10881150729E+02 0.10230603681E+02 0.91122743826E+01 0.78381098746E+01
 0.55418095334E+01 0.52788451659E+01 0.51317335069E+01 0.50795787761E+01 0.50828985142E+01
 0.50950172928E+01 0.50886214344E+01 0.50779981219E+01 0.51132556082E+01 0.52503564626E+01
 0.55212124474E+01 0.59181482100E+01 0.63926469772E+01 0.68812385145E+01 0.72660201825E+01
 0.74095423065E+01 0.72530558598E+01 0.68607748670E+01 0.63763151237E+01 0.59187405780E+01
 0.55450841260E+01 0.58074842882E+01 0.61228534623E+01 0.64290770421E+01 0.66307834783E+01
 0.66403529507E+01 0.64508630366E+01 0.61403727568E+01 0.58055772380E+01 0.55212124474E+01
 0.53387091944E+01 0.52746472557E+01 0.53101576755E+01 0.53922011293E+01 0.54524221651E+01
 0.54459763277E+01 0.53814240378E+01 0.53119083746E+01 0.52967249076E+01 0.53713667491E+01
 0.67035415674E+01 0.76326804037E+01 0.85750731927E+01 0.92873295973E+01 0.95547249669E+01
 0.92966558544E+01 0.85967588750E+01 0.76620923035E+01 0.67248950424E+01 0.59181482100E+01
 0.52746472557E+01 0.48312165054E+01 0.45696390127E+01 0.44402002894E+01 0.44008685574E+01
 0.44406378689E+01 0.45792829518E+01 0.48523320956E+01 0.52941204210E+01 0.59187405780E+01
 0.97128706947E+01 0.11692214912E+02 0.13321741808E+02 0.14223670926E+02 0.14213293349E+02
 0.13304024913E+02 0.11691833410E+02 0.97377518037E+01 0.78716066912E+01 0.63926469772E+01
 0.53101576755E+01 0.45696390127E+01 0.41340984906E+01 0.39375817809E+01 0.39404459097E+01
 0.41426913216E+01 0.45798353484E+01 0.53102813646E+01 0.63727295092E+01 0.78381098746E+01
 0.15418444136E+02 0.18295100010E+02 0.20198321569E+02 0.20844194180E+02 0.20167427985E+02
 0.18255278486E+02 0.15395097300E+02 0.12130296756E+02 0.91325077138E+01 0.68812385145E+01
 0.53922011293E+01 0.44402002894E+01 0.39375817809E+01 0.37860910444E+01 0.39405143613E+01
 0.44404229595E+01 0.53829242452E+01 0.68617905955E+01 0.91130761388E+01 0.12127523838E+02
 0.23339755141E+02 0.26513237154E+02 0.28164466934E+02 0.28158536060E+02 0.26494500988E+02
 0.23309660537E+02 0.19013333652E+02 0.14355736098E+02 0.10233483177E+02 0.72660201825E+01
 0.54524221651E+01 0.44008685574E+01 0.39404459097E+01 0.39405143613E+01 0.43980132035E+01
 0.54433411842E+01 0.72561215809E+01 0.10235024683E+02 0.14375627025E+02 0.19045230959E+02
 0.32239459963E+02 0.35250364771E+02 0.36299103579E+02 0.35270450228E+02 0.32257998139E+02
 0.27580993733E+02 0.21833049165E+02 0.15920006255E+02 0.10879294290E+02 0.74095423065E+01
 0.54459763277E+01 0.44406378689E+01 0.41426913216E+01 0.44404229595E+01 0.54433411842E+01
 0.74077157354E+01 0.10887400167E+02 0.15940833309E+02 0.21853780872E+02 0.27583347995E+02
 0.41443191868E+02 0.44109458258E+02 0.44124815730E+02 0.41478556629E+02 0.36675411569E+02
 0.30398009164E+02 0.23360722785E+02 0.16488511706E+02 0.10881150729E+02 0.72530558598E+01
 0.53814240378E+01 0.45792829518E+01 0.45798353484E+01 0.53829242452E+01 0.72561215809E+01
 0.10887400167E+02 0.16496587968E+02 0.23362464396E+02 0.30382886662E+02 0.36642484902E+02
 0.50872492649E+02 0.52732239385E+02 0.50871123303E+02 0.45906511821E+02 0.39089412221E+02
 0.31374555904E+02 0.23370662798E+02 0.15939435665E+02 0.10230603681E+02 0.68607748670E+01
 0.53119083746E+01 0.48523320956E+01 0.53102813646E+01 0.68617905955E+01 0.10235024683E+02
 0.15940833309E+02 0.23362464396E+02 0.31359109863E+02 0.39076499589E+02 0.45902455735E+02
 0.59602736253E+02 0.59586840736E+02 0.54988092431E+02 0.47542136391E+02 0.39075137528E+02
 0.30392932597E+02 0.21859355399E+02 0.14374044373E+02 0.91122743826E+01 0.63763151237E+01
 0.52967249076E+01 0.52941204210E+01 0.63727295092E+01 0.91130761388E+01 0.14375627025E+02
 0.21853780872E+02 0.30382886662E+02 0.39076499589E+02 0.47565636893E+02 0.55021454749E+02
 0.65173552058E+02 0.62310700767E+02 0.55021454749E+02 0.45902455735E+02 0.36642484902E+02
 0.27583347995E+02 0.19045230959E+02 0.12127523838E+02 0.78381098746E+01 0.59187405780E+01
 0.53713667491E+01 0.59187405780E+01 0.78381098746E+01 0.12127523838E+02 0.19045230959E+02
 0.27583347995E+02 0.36642484902E+02 0.45902455735E+02 0.55021454749E+02 0.62310700767E+02
 0.57207586464E+02 0.50941596164E+02 0.42826119155E+02 0.34254384424E+02 0.25691008137E+02
 0.17674563773E+02 0.11307481890E+02 0.74278225005E+01 0.56743341612E+01 0.51662593188E+01
 0.56769606624E+01 0.74272525907E+01 0.11305992422E+02 0.17683845591E+02 0.25711354904E+02
 0.34260471921E+02 0.42788568098E+02 0.50866778732E+02 0.57145232507E+02 0.59602736253E+02
 0.50941596164E+02 0.44174699793E+02 0.36299765362E+02 0.28135804334E+02 0.20176169878E+02
 0.13319059620E+02 0.85800443797E+01 0.61239997334E+01 0.51308272323E+01 0.51317335069E+01
 0.61228534623E+01 0.85750731927E+01 0.13321741808E+02 0.20198321569E+02 0.28164466934E+02
 0.36299103579E+02 0.44124815730E+02 0.50871123303E+02 0.54988092431E+02 0.55021454749E+02
 0.42826119155E+02 0.36299765362E+02 0.28967686465E+02 0.21496766044E+02 0.14705490240E+02
 0.95787225545E+01 0.65767632752E+01 0.51700988571E+01 0.47553980263E+01 0.51727180249E+01
 0.65739101786E+01 0.95703230932E+01 0.14705887176E+02 0.21518095381E+02 0.29001047540E+02
 0.36321708306E+02 0.42825185462E+02 0.47555230817E+02 0.49328395964E+02 0.47565636893E+02
 0.34254384424E+02 0.28135804334E+02 0.21496766044E+02 0.15196050404E+02 0.10160263765E+02
 0.69361122064E+01 0.52487303992E+01 0.45226358916E+01 0.45252776529E+01 0.52518951986E+01
 0.69313080503E+01 0.10146537351E+02 0.15184853435E+02 0.21504773919E+02 0.28171282793E+02
 0.34308252715E+02 0.39125393530E+02 0.41818054852E+02 0.41798356368E+02 0.39076499589E+02
 0.25691008137E+02 0.20176169878E+02 0.14705490240E+02 0.10160263765E+02 0.70759469644E+01
 0.53143437347E+01 0.44062005949E+01 0.41390700109E+01 0.44076093909E+01 0.53166417072E+01
 0.70739837199E+01 0.10147203600E+02 0.14684742018E+02 0.20166368885E+02 0.25710637216E+02
 0.30426948196E+02 0.33583506183E+02 0.34680485078E+02 0.33546200468E+02 0.30382886662E+02
 0.17674563773E+02 0.13319059620E+02 0.95787225545E+01 0.69361122064E+01 0.53143437347E+01
 0.43736044154E+01 0.39642117762E+01 0.39624847369E+01 0.43734055893E+01 0.53219992892E+01
 0.69463250256E+01 0.95775558155E+01 0.13301104277E+02 0.17651501040E+02 0.21841660751E+02
 0.25092085306E+02 0.26848793847E+02 0.26845954322E+02 0.25091006295E+02 0.21853780872E+02
 0.11307481890E+02 0.85800443797E+01 0.65767632752E+01 0.52487303992E+01 0.44062005949E+01
 0.39642117762E+01 0.38274508218E+01 0.39600670477E+01 0.44064253025E+01 0.52605141241E+01
 0.65967945945E+01 0.85956037774E+01 0.11306690412E+02 0.14357146542E+02 0.17132865897E+02
 0.19052041878E+02 0.19740104952E+02 0.19070153832E+02 0.17158668421E+02 0.14375627025E+02
 0.74278225005E+01 0.61239997334E+01 0.51700988571E+01 0.45226358916E+01 0.41390700109E+01
 0.39624847369E+01 0.39600670477E+01 0.41320210787E+01 0.45145857058E+01 0.51703964028E+01
 0.61403940128E+01 0.74552845264E+01 0.91345190257E+01 0.10939233253E+02 0.12469215052E+02
 0.13348463849E+02 0.13355474583E+02 0.12480458335E+02 0.10936807151E+02 0.91130761388E+01
 0.56743341612E+01 0.51308272323E+01 0.47553980263E+01 0.45252776529E+01 0.44076093909E+01
 0.43734055893E+01 0.44064253025E+01 0.45145857058E+01 0.47340498988E+01 0.51129579879E+01
 0.56764676356E+01 0.63951653258E+01 0.72284752151E+01 0.80708966282E+01 0.87129087127E+01
 0.89539977035E+01 0.87087106074E+01 0.80554185692E+01 0.72020698176E+01 0.63727295092E+01
 0.51662593188E+01 0.51317335069E+01 0.51727180249E+01 0.52518951986E+01 0.53166417072E+01
 0.53219992892E+01 0.52605141241E+01 0.51703964028E+01 0.51129579879E+01 0.51403354299E+01
 0.52765120753E+01 0.55122216818E+01 0.58030132525E+01 0.60752745526E+01 0.62433430118E+01
 0.62375462024E+01 0.60615675571E+01 0.57911693583E+01 0.55131649840E+01 0.52941204210E+01
 0.56769606624E+01 0.61228534623E+01 0.65739101786E+01 0.69313080503E+01 0.70739837199E+01
 0.69463250256E+01 0.65967945945E+01 0.61403940128E+01 0.56764676356E+01 0.52765120753E+01
 0.49924083979E+01 0.48365477753E+01 0.47831983364E+01 0.47813542313E+01 0.47832505392E+01
 0.47749202464E+01 0.47831264357E+01 0.48528515786E+01 0.50193343051E+01 0.52967249076E+01
 0.74272525907E+01 0.85750731927E+01 0.95703230932E+01 0.10146537351E+02 0.10147203600E+02
 0.95775558155E+01 0.85956037774E+01 0.74552845264E+01 0.63951653258E+01 0.55122216818E+01
 0.48365477753E+01 0.43881883776E+01 0.41303342209E+01 0.40145704888E+01 0.40147757832E+01
 0.41348442105E+01 0.44010945434E+01 0.48508749264E+01 0.55131649840E+01 0.63763151237E+01
 0.11305992422E+02 0.13321741808E+02 0.14705887176E+02 0.15184853435E+02 0.14684742018E+02
 0.13301104277E+02 0.11306690412E+02 0.91345190257E+01 0.72284752151E+01 0.58030132525E+01
 0.47831983364E+01 0.41303342209E+01 0.37826503232E+01 0.36763273108E+01 0.37872291722E+01
 0.41363434004E+01 0.47829229740E+01 0.57885552978E+01 0.72020698176E+01 0.91122743826E+01
 0.17683845591E+02 0.20198321569E+02 0.21518095381E+02 0.21504773919E+02 0.20166368885E+02
 0.17651501040E+02 0.14357146542E+02 0.10939233253E+02 0.80708966282E+01 0.60752745526E+01
 0.47813542313E+01 0.40145704888E+01 0.36763273108E+01 0.36776545943E+01 0.40155021688E+01
 0.47761150417E+01 0.60623816172E+01 0.80572366754E+01 0.10936807151E+02 0.14374044373E+02
 0.25711354904E+02 0.28164466934E+02 0.29001047540E+02 0.28171282793E+02 0.25710637216E+02
 0.21841660751E+02 0.17132865897E+02 0.12469215052E+02 0.87129087127E+01 0.62433430118E+01
 0.47832505392E+01 0.40147757832E+01 0.37872291722E+01 0.40155021688E+01 0.47794317025E+01
 0.62358091943E+01 0.87127732167E+01 0.12485464503E+02 0.17158668421E+02 0.21859355399E+02
 0.34260471921E+02 0.36299103579E+02 0.36321708306E+02 0.34308252715E+02 0.30426948196E+02
 0.25092085306E+02 0.19052041878E+02 0.13348463849E+02 0.89539977035E+01 0.62375462024E+01
 0.47749202464E+01 0.41348442105E+01 0.41363434004E+01 0.47761150417E+01 0.62358091943E+01
 0.89561709610E+01 0.13362735072E+02 0.19070467750E+02 0.25091006295E+02 0.30392932597E+02
 0.42788568098E+02 0.44124815730E+02 0.42825185462E+02 0.39125393530E+02 0.33583506183E+02
 0.26848793847E+02 0.19740104952E+02 0.13355474583E+02 0.87087106074E+01 0.60615675571E+01
 0.47831264357E+01 0.44010945434E+01 0.47829229740E+01 0.60623816172E+01 0.87127732167E+01
 0.13362735072E+02 0.19743424236E+02 0.26835338175E+02 0.33546200468E+02 0.39075137528E+02
 0.50866778732E+02 0.50871123303E+02 0.47555230817E+02 0.41818054852E+02 0.34680485078E+02
 0.26845954322E+02 0.19070153832E+02 0.12480458335E+02 0.80554185692E+01 0.57911693583E+01
 0.48528515786E+01 0.48508749264E+01 0.57885552978E+01 0.80572366754E+01 0.12485464503E+02
 0.19070467750E+02 0.26835338175E+02 0.34661157036E+02 0.41798356368E+02 0.47542136391E+02
 0.57145232507E+02 0.54988092431E+02 0.49328395964E+02 0.41798356368E+02 0.33546200468E+02
 0.25091006295E+02 0.17158668421E+02 0.10936807151E+02 0.72020698176E+01 0.55131649840E+01
 0.50193343051E+01 0.55131649840E+01 0.72020698176E+01 0.10936807151E+02 0.17158668421E+02
 0.25091006295E+02 0.33546200468E+02 0.41798356368E+02 0.49328395964E+02 0.54988092431E+02
 0.59602736253E+02 0.55021454749E+02 0.47565636893E+02 0.39076499589E+02 0.30382886662E+02
 0.21853780872E+02 0.14375627025E+02 0.91130761388E+01 0.63727295092E+01 0.52941204210E+01
 0.52967249076E+01 0.63763151237E+01 0.91122743826E+01 0.14374044373E+02 0.21859355399E+02
 0.30392932597E+02 0.39075137528E+02 0.47542136391E+02 0.54988092431E+02 0.59586840736E+02
 0.47394554201E+02 0.41464570507E+02 0.34254384424E+02 0.26508367707E+02 0.18901530976E+02
 0.12453998436E+02 0.81002916199E+01 0.58605789076E+01 0.49339200524E+01 0.49342526681E+01
 0.58594827253E+01 0.80959102195E+01 0.12450680181E+02 0.18906409999E+02 0.26521198792E+02
 0.34264885638E+02 0.41463272317E+02 0.47384627287E+02 0.50866778732E+02 0.50872492649E+02
 0.41464570507E+02 0.35246387821E+02 0.28135804334E+02 0.20835662068E+02 0.14229663127E+02
 0.92960159317E+01 0.64308714799E+01 0.50767915209E+01 0.46771061787E+01 0.50795787761E+01
 0.64290770421E+01 0.92873295973E+01 0.14223670926E+02 0.20844194180E+02 0.28158536060E+02
 0.35270450228E+02 0.41478556629E+02 0.45906511821E+02 0.47542136391E+02 0.45902455735E+02
 0.34254384424E+02 0.28135804334E+02 0.21496766044E+02 0.15196050404E+02 0.10160263765E+02
 0.69361122064E+01 0.52487303992E+01 0.45226358916E+01 0.45252776529E+01 0.52518951986E+01
 0.69313080503E+01 0.10146537351E+02 0.15184853435E+02 0.21504773919E+02 0.28171282793E+02
 0.34308252715E+02 0.39125393530E+02 0.41818054852E+02 0.41798356368E+02 0.39076499589E+02
 0.26508367707E+02 0.20835662068E+02 0.15196050404E+02 0.10472222102E+02 0.72375469252E+01
 0.53951460789E+01 0.44510359867E+01 0.41735256762E+01 0.44520359435E+01 0.53964792118E+01
 0.72333356013E+01 0.10455533407E+02 0.15173377410E+02 0.20831723022E+02 0.26545317172E+02
 0.31426982020E+02 0.34715969488E+02 0.35859109081E+02 0.34661157036E+02 0.31359109863E+02
 0.18901530976E+02 0.14229663127E+02 0.10160263765E+02 0.72375469252E+01 0.54520497463E+01
 0.44282012014E+01 0.39858971790E+01 0.39845992933E+01 0.44285010632E+01 0.54571477899E+01
 0.72377848685E+01 0.10142344582E+02 0.14199084210E+02 0.18885231511E+02 0.23380333496E+02
 0.26872839448E+02 0.28760588822E+02 0.28741334026E+02 0.26835338175E+02 0.23362464396E+02
 0.12453998436E+02 0.92960159317E+01 0.69361122064E+01 0.53951460789E+01 0.44282012014E+01
 0.39270211159E+01 0.37751335547E+01 0.39242110487E+01 0.44306349021E+01 0.54056627415E+01
 0.69448087397E+01 0.92901289113E+01 0.12433116365E+02 0.15917751686E+02 0.19056930607E+02
 0.21213179200E+02 0.21977326625E+02 0.21217046070E+02 0.19070467750E+02 0.15940833309E+02
 0.81002916199E+01 0.64308714799E+01 0.52487303992E+01 0.44510359867E+01 0.39858971790E+01
 0.37751335547E+01 0.37721779263E+01 0.39809312099E+01 0.44521432984E+01 0.52603659366E+01
 0.64485360977E+01 0.81126117452E+01 0.10232276965E+02 0.12468010750E+02 0.14328492478E+02
 0.15383199771E+02 0.15392282276E+02 0.14349107626E+02 0.12485464503E+02 0.10235024683E+02
 0.58605789076E+01 0.50767915209E+01 0.45226358916E+01 0.41735256762E+01 0.39845992933E+01
 0.39242110487E+01 0.39809312099E+01 0.41652282506E+01 0.45136852055E+01 0.50766865492E+01
 0.58748426066E+01 0.68834152461E+01 0.80719557760E+01 0.92475467449E+01 0.10120741950E+02
 0.10446477121E+02 0.10125659373E+02 0.92463761629E+01 0.80572366754E+01 0.68617905955E+01
 0.49339200524E+01 0.46771061787E+01 0.45252776529E+01 0.44520359435E+01 0.44285010632E+01
 0.44306349021E+01 0.44521432984E+01 0.45136852055E+01 0.46560344088E+01 0.49182220388E+01
 0.53120727207E+01 0.58048632604E+01 0.63285618205E+01 0.67979905111E+01 0.70824273677E+01
 0.70796202226E+01 0.67877123859E+01 0.63107664410E+01 0.57885552978E+01 0.53102813646E+01
 0.49342526681E+01 0.50795787761E+01 0.52518951986E+01 0.53964792118E+01 0.54571477899E+01
 0.54056627415E+01 0.52603659366E+01 0.50766865492E+01 0.49182220388E+01 0.48317161380E+01
 0.48372500242E+01 0.49262384991E+01 0.50602021646E+01 0.51781403454E+01 0.52221378517E+01
 0.51706453117E+01 0.50524163591E+01 0.49272852895E+01 0.48508749264E+01 0.48523320956E+01
 0.58594827253E+01 0.64290770421E+01 0.69313080503E+01 0.72333356013E+01 0.72377848685E+01
 0.69448087397E+01 0.64485360977E+01 0.58748426066E+01 0.53120727207E+01 0.48372500242E+01
 0.44963110153E+01 0.42902531382E+01 0.41871912358E+01 0.41462843744E+01 0.41437661048E+01
 0.41856634152E+01 0.42994282652E+01 0.45153093459E+01 0.48528515786E+01 0.53119083746E+01
 0.80959102195E+01 0.92873295973E+01 0.10146537351E+02 0.10455533407E+02 0.10142344582E+02
 0.92901289113E+01 0.81126117452E+01 0.68834152461E+01 0.58048632604E+01 0.49262384991E+01
 0.42902531382E+01 0.38881731113E+01 0.36724827054E+01 0.36046592920E+01 0.36737477569E+01
 0.38939440954E+01 0.42985708148E+01 0.49272852895E+01 0.57911693583E+01 0.68607748670E+01
 0.12450680181E+02 0.14223670926E+02 0.15184853435E+02 0.15173377410E+02 0.14199084210E+02
 0.12433116365E+02 0.10232276965E+02 0.80719557760E+01 0.63285618205E+01 0.50602021646E+01
 0.41871912358E+01 0.36724827054E+01 0.34411477919E+01 0.34427589982E+01 0.36755463140E+01
 0.41867576735E+01 0.50509316181E+01 0.63107664410E+01 0.80554185692E+01 0.10230603681E+02
 0.18906409999E+02 0.20844194180E+02 0.21504773919E+02 0.20831723022E+02 0.18885231511E+02
 0.15917751686E+02 0.12468010750E+02 0.92475467449E+01 0.67979905111E+01 0.51781403454E+01
 0.41462843744E+01 0.36046592920E+01 0.34427589982E+01 0.36068679812E+01 0.41449306176E+01
 0.51699656313E+01 0.67883211844E+01 0.92463761629E+01 0.12480458335E+02 0.15939435665E+02
 0.26521198792E+02 0.28158536060E+02 0.28171282793E+02 0.26545317172E+02 0.23380333496E+02
 0.19056930607E+02 0.14328492478E+02 0.10120741950E+02 0.70824273677E+01 0.52221378517E+01
 0.41437661048E+01 0.36737477569E+01 0.36755463140E+01 0.41449306176E+01 0.52181241894E+01
 0.70795209749E+01 0.10130308048E+02 0.14349107626E+02 0.19070153832E+02 0.23370662798E+02
 0.34264885638E+02 0.35270450228E+02 0.34308252715E+02 0.31426982020E+02 0.26872839448E+02
 0.21213179200E+02 0.15383199771E+02 0.10446477121E+02 0.70796202226E+01 0.51706453117E+01
 0.41856634152E+01 0.38939440954E+01 0.41867576735E+01 0.51699656313E+01 0.70795209749E+01
 0.10454418296E+02 0.15398108921E+02 0.21217046070E+02 0.26845954322E+02 0.31374555904E+02
 0.41463272317E+02 0.41478556629E+02 0.39125393530E+02 0.34715969488E+02 0.28760588822E+02
 0.21977326625E+02 0.15392282276E+02 0.10125659373E+02 0.67877123859E+01 0.50524163591E+01
 0.42994282652E+01 0.42985708148E+01 0.50509316181E+01 0.67883211844E+01 0.10130308048E+02
 0.15398108921E+02 0.21975273302E+02 0.28741334026E+02 0.34680485078E+02 0.39089412221E+02
 0.47384627287E+02 0.45906511821E+02 0.41818054852E+02 0.35859109081E+02 0.28741334026E+02
 0.21217046070E+02 0.14349107626E+02 0.92463761629E+01 0.63107664410E+01 0.49272852895E+01
 0.45153093459E+01 0.49272852895E+01 0.63107664410E+01 0.92463761629E+01 0.14349107626E+02
 0.21217046070E+02 0.28741334026E+02 0.35859109081E+02 0.41818054852E+02 0.45906511821E+02
 0.50866778732E+02 0.47542136391E+02 0.41798356368E+02 0.34661157036E+02 0.26835338175E+02
 0.19070467750E+02 0.12485464503E+02 0.80572366754E+01 0.57885552978E+01 0.48508749264E+01
 0.48528515786E+01 0.57911693583E+01 0.80554185692E+01 0.12480458335E+02 0.19070153832E+02
 0.26845954322E+02 0.34680485078E+02 0.41818054852E+02 0.47555230817E+02 0.50871123303E+02
 0.50872492649E+02 0.45902455735E+02 0.39076499589E+02 0.31359109863E+02 0.23362464396E+02
 0.15940833309E+02 0.10235024683E+02 0.68617905955E+01 0.53102813646E+01 0.48523320956E+01
 0.53119083746E+01 0.68607748670E+01 0.10230603681E+02 0.15939435665E+02 0.23370662798E+02
 0.31374555904E+02 0.39089412221E+02 0.45906511821E+02 0.50871123303E+02 0.52732239385E+02
 0.37711761376E+02 0.32227943782E+02 0.25691008137E+02 0.18901530976E+02 0.12871124683E+02
 0.85108699177E+01 0.60271963489E+01 0.48167893731E+01 0.44581480839E+01 0.48184617575E+01
 0.60270553773E+01 0.85048962608E+01 0.12859369793E+02 0.18890788474E+02 0.25691554561E+02
 0.32244927444E+02 0.37738351902E+02 0.41463272317E+02 0.42788568098E+02 0.41443191868E+02
 0.32227943782E+02 0.26483605066E+02 0.20176169878E+02 0.14229663127E+02 0.95659265937E+01
 0.66322981676E+01 0.50789540895E+01 0.44057451599E+01 0.44081369934E+01 0.50828985142E+01