   1   1   0   0
  0.1426666E+02  0.2722361E-09  0.2722361E-09  0.2722361E-09  0.5000000E-15
  1.000000000000000E-004
  CAR 
 FCC Au                                  
     41.99651662     -5.90082605  301      8.27595642      1.00000000
     -5.901  0.0000E+00  0.0000E+00
     -5.741  0.0000E+00  0.0000E+00
     -5.582  0.0000E+00  0.0000E+00
     -5.422 -0.2935E-32 -0.4686E-33
     -5.262 -0.1085E-26 -0.1732E-27
     -5.103 -0.1109E-21 -0.1771E-22
     -4.943 -0.3128E-17 -0.4994E-18
     -4.783 -0.2338E-13 -0.3734E-14
     -4.624 -0.4880E-10 -0.7795E-11
     -4.464 -0.2728E-07 -0.4363E-08
     -4.304 -0.3960E-05 -0.6366E-06
     -4.145 -0.1372E-03 -0.2255E-04
     -3.985 -0.7636E-03 -0.1445E-03
     -3.825  0.3158E-02  0.3597E-03
     -3.666  0.1366E-01  0.2541E-02
     -3.506  0.2894E-01  0.7161E-02
     -3.346  0.4723E-01  0.1470E-01
     -3.187  0.4539E-01  0.2195E-01
     -3.027  0.4865E-01  0.2972E-01
     -2.867  0.6288E-01  0.3976E-01
     -2.708  0.8670E-01  0.5360E-01
     -2.548  0.9535E-01  0.6882E-01
     -2.388  0.5565E-01  0.7771E-01
     -2.229  0.7187E-01  0.8918E-01
     -2.069  0.1404E+00  0.1116E+00
     -1.909  0.1531E+00  0.1360E+00
     -1.750  0.9393E-01  0.1510E+00
     -1.590  0.1164E+00  0.1696E+00
     -1.430  0.1980E+00  0.2012E+00
     -1.271  0.1606E+00  0.2269E+00
     -1.111  0.2350E+00  0.2644E+00
     -0.951  0.4333E+00  0.3336E+00
     -0.792  0.6207E+00  0.4327E+00
     -0.632  0.6474E+00  0.5360E+00
     -0.472  0.8924E+00  0.6785E+00
     -0.313  0.1141E+01  0.8607E+00
     -0.153  0.1440E+01  0.1091E+01
      0.007  0.1483E+01  0.1327E+01
      0.166  0.1445E+01  0.1558E+01
      0.326  0.1546E+01  0.1805E+01
      0.485  0.1165E+01  0.1991E+01
      0.645  0.1279E+01  0.2195E+01
      0.805  0.1269E+01  0.2398E+01
      0.964  0.8152E+00  0.2528E+01
      1.124  0.9725E+00  0.2683E+01
      1.284  0.1365E+01  0.2901E+01
      1.443  0.1379E+01  0.3121E+01
      1.603  0.1460E+01  0.3354E+01
      1.763  0.1300E+01  0.3562E+01
      1.922  0.1361E+01  0.3779E+01
      2.082  0.1698E+01  0.4050E+01
      2.242  0.1635E+01  0.4311E+01
      2.401  0.1631E+01  0.4572E+01
      2.561  0.1819E+01  0.4862E+01
      2.721  0.2441E+01  0.5252E+01
      2.880  0.2476E+01  0.5647E+01
      3.040  0.1618E+01  0.5906E+01
      3.200  0.1290E+01  0.6112E+01
      3.359  0.1127E+01  0.6292E+01
      3.519  0.1187E+01  0.6481E+01
      3.679  0.1203E+01  0.6673E+01
      3.838  0.1237E+01  0.6871E+01
      3.998  0.1539E+01  0.7116E+01
      4.158  0.1576E+01  0.7368E+01
      4.317  0.1516E+01  0.7610E+01
      4.477  0.1138E+01  0.7792E+01
      4.637  0.1468E+01  0.8026E+01
      4.796  0.1537E+01  0.8272E+01
      4.956  0.8033E+00  0.8400E+01
      5.116  0.9484E+00  0.8551E+01
      5.275  0.1509E+01  0.8792E+01
      5.435  0.1160E+01  0.8977E+01
      5.595  0.1017E+01  0.9140E+01
      5.754  0.1676E+01  0.9407E+01
      5.914  0.1898E+01  0.9710E+01
      6.074  0.1823E+01  0.1000E+02
      6.233  0.1677E+01  0.1027E+02
      6.393  0.1215E+01  0.1046E+02
      6.552  0.8855E+00  0.1060E+02
      6.712  0.2110E+00  0.1064E+02
      6.872 -0.1538E-01  0.1064E+02
      7.031  0.1236E+00  0.1066E+02
      7.191  0.3494E+00  0.1071E+02
      7.351  0.4760E+00  0.1079E+02
      7.510  0.3423E+00  0.1084E+02
      7.670  0.1491E+00  0.1087E+02
      7.830  0.1378E+00  0.1089E+02
      7.989  0.2125E+00  0.1092E+02
      8.149  0.2600E+00  0.1096E+02
      8.309  0.2901E+00  0.1101E+02
      8.468  0.2567E+00  0.1105E+02
      8.628  0.1663E+00  0.1108E+02
      8.788  0.2449E+00  0.1112E+02
      8.947  0.3978E+00  0.1118E+02
      9.107  0.3211E+00  0.1123E+02
      9.267  0.2425E+00  0.1127E+02
      9.426  0.1615E+00  0.1130E+02
      9.586  0.1628E+00  0.1132E+02
      9.746  0.9966E-01  0.1134E+02
      9.905  0.2890E+00  0.1138E+02
     10.065  0.4375E+00  0.1145E+02
     10.225  0.2252E+00  0.1149E+02
     10.384  0.1798E+00  0.1152E+02
     10.544  0.2181E+00  0.1155E+02
     10.704  0.1758E+00  0.1158E+02
     10.863  0.1883E+00  0.1161E+02
     11.023  0.2527E+00  0.1165E+02
     11.183  0.2175E+00  0.1169E+02
     11.342  0.2035E+00  0.1172E+02
     11.502  0.2570E+00  0.1176E+02
     11.662  0.8576E-01  0.1177E+02
     11.821  0.1214E+00  0.1179E+02
     11.981  0.2153E+00  0.1183E+02
     12.141  0.2334E+00  0.1186E+02
     12.300  0.5471E+00  0.1195E+02
     12.460  0.5080E+00  0.1203E+02
     12.619  0.2149E+00  0.1207E+02
     12.779  0.1165E+00  0.1209E+02
     12.939  0.2388E+00  0.1212E+02
     13.098  0.4797E+00  0.1220E+02
     13.258  0.4394E+00  0.1227E+02
     13.418  0.2385E+00  0.1231E+02
     13.577  0.1261E+00  0.1233E+02
     13.737  0.1646E+00  0.1235E+02
     13.897  0.3597E+00  0.1241E+02
     14.056  0.2733E+00  0.1246E+02
     14.216  0.3083E+00  0.1251E+02
     14.376  0.2836E+00  0.1255E+02
     14.535  0.2360E+00  0.1259E+02
     14.695  0.4798E+00  0.1266E+02
     14.855  0.4116E+00  0.1273E+02
     15.014  0.1064E+00  0.1275E+02
     15.174  0.2549E+00  0.1279E+02
     15.334  0.3153E+00  0.1284E+02
     15.493  0.2809E+00  0.1288E+02
     15.653  0.2253E+00  0.1292E+02
     15.813  0.4927E+00  0.1300E+02
     15.972  0.4033E+00  0.1306E+02
     16.132  0.1123E+00  0.1308E+02
     16.292  0.8860E-01  0.1309E+02
     16.451  0.1331E+00  0.1312E+02
     16.611  0.2657E+00  0.1316E+02
     16.771  0.2955E+00  0.1321E+02
     16.930  0.2789E+00  0.1325E+02
     17.090  0.5251E+00  0.1333E+02
     17.250  0.5587E+00  0.1342E+02
     17.409  0.4954E+00  0.1350E+02
     17.569  0.3759E+00  0.1356E+02
     17.729  0.6702E-01  0.1357E+02
     17.888  0.1449E+00  0.1360E+02
     18.048  0.2822E+00  0.1364E+02
     18.208  0.3391E+00  0.1370E+02
     18.367  0.3722E+00  0.1375E+02
     18.527  0.4114E+00  0.1382E+02
     18.686  0.3446E+00  0.1388E+02
     18.846  0.2911E+00  0.1392E+02
     19.006  0.3343E+00  0.1398E+02
     19.165  0.5232E+00  0.1406E+02
     19.325  0.6778E+00  0.1417E+02
     19.485  0.4689E+00  0.1424E+02
     19.644  0.3126E+00  0.1429E+02
     19.804  0.3879E+00  0.1435E+02
     19.964  0.4496E+00  0.1443E+02
     20.123  0.4532E+00  0.1450E+02
     20.283  0.4634E+00  0.1457E+02
     20.443  0.4556E+00  0.1464E+02
     20.602  0.2370E+00  0.1468E+02
     20.762  0.3602E+00  0.1474E+02
     20.922  0.5943E+00  0.1483E+02
     21.081  0.5592E+00  0.1492E+02
     21.241  0.6401E+00  0.1503E+02
     21.401  0.4828E+00  0.1510E+02
     21.560  0.4377E+00  0.1517E+02
     21.720  0.3141E+00  0.1522E+02
     21.880  0.2410E+00  0.1526E+02
     22.039  0.5531E+00  0.1535E+02
     22.199  0.7306E+00  0.1547E+02
     22.359  0.3858E+00  0.1553E+02
     22.518  0.1644E+00  0.1555E+02
     22.678  0.4237E+00  0.1562E+02
     22.838  0.6136E+00  0.1572E+02
     22.997  0.6588E+00  0.1583E+02
     23.157  0.9054E+00  0.1597E+02
     23.317  0.9788E+00  0.1613E+02
     23.476  0.6818E+00  0.1623E+02
     23.636  0.4344E+00  0.1630E+02
     23.796  0.4491E+00  0.1638E+02
     23.955  0.6791E+00  0.1648E+02
     24.115  0.5623E+00  0.1657E+02
     24.274  0.3665E+00  0.1663E+02
     24.434  0.3145E+00  0.1668E+02
     24.594  0.4329E+00  0.1675E+02
     24.753  0.6010E+00  0.1685E+02
     24.913  0.9104E+00  0.1699E+02
     25.073  0.9857E+00  0.1715E+02
     25.232  0.5734E+00  0.1724E+02
     25.392  0.3279E+00  0.1729E+02
     25.552  0.4707E+00  0.1737E+02
     25.711  0.3939E+00  0.1743E+02
     25.871  0.1944E+00  0.1746E+02
     26.031  0.2442E+00  0.1750E+02
     26.190  0.3268E+00  0.1755E+02
     26.350  0.2188E+00  0.1759E+02
     26.510  0.3264E+00  0.1764E+02
     26.669  0.5816E+00  0.1773E+02
     26.829  0.5662E+00  0.1783E+02
     26.989  0.4679E+00  0.1790E+02
     27.148  0.6076E+00  0.1800E+02
     27.308  0.6062E+00  0.1809E+02
     27.468  0.7809E+00  0.1822E+02
     27.627  0.6889E+00  0.1833E+02
     27.787  0.6775E+00  0.1844E+02
     27.947  0.7122E+00  0.1855E+02
     28.106  0.8755E+00  0.1869E+02
     28.266  0.8691E+00  0.1883E+02
     28.426  0.6366E+00  0.1893E+02
     28.585  0.5832E+00  0.1902E+02
     28.745  0.5740E+00  0.1912E+02
     28.905  0.5909E+00  0.1921E+02
     29.064  0.7451E+00  0.1933E+02
     29.224  0.5888E+00  0.1942E+02
     29.384  0.3442E+00  0.1948E+02
     29.543  0.3293E+00  0.1953E+02
     29.703  0.5218E+00  0.1961E+02
     29.863  0.6504E+00  0.1972E+02
     30.022  0.5670E+00  0.1981E+02
     30.182  0.4822E+00  0.1988E+02
     30.341  0.3356E+00  0.1994E+02
     30.501  0.2025E+00  0.1997E+02
     30.661  0.3383E+00  0.2002E+02
     30.820  0.4218E+00  0.2009E+02
     30.980  0.2509E+00  0.2013E+02
     31.140  0.2524E+00  0.2017E+02
     31.299  0.3759E+00  0.2023E+02
     31.459  0.5350E+00  0.2032E+02
     31.619  0.5454E+00  0.2040E+02
     31.778  0.3820E+00  0.2047E+02
     31.938  0.2112E+00  0.2050E+02
     32.098  0.2790E+00  0.2054E+02
     32.257  0.3366E+00  0.2060E+02
     32.417  0.2815E+00  0.2064E+02
     32.577  0.2993E+00  0.2069E+02
     32.736  0.2855E+00  0.2074E+02
     32.896  0.5331E+00  0.2082E+02
     33.056  0.9528E+00  0.2097E+02
     33.215  0.7931E+00  0.2110E+02
     33.375  0.2432E+00  0.2114E+02
     33.535  0.2046E+00  0.2117E+02
     33.694  0.3999E+00  0.2124E+02
     33.854  0.4641E+00  0.2131E+02
     34.014  0.5869E+00  0.2140E+02
     34.173  0.4532E+00  0.2148E+02
     34.333  0.3134E+00  0.2153E+02
     34.493  0.4902E+00  0.2160E+02
     34.652  0.3952E+00  0.2167E+02
     34.812  0.4343E+00  0.2174E+02
     34.972  0.6419E+00  0.2184E+02
     35.131  0.6164E+00  0.2194E+02
     35.291  0.6469E+00  0.2204E+02
     35.451  0.5519E+00  0.2213E+02
     35.610  0.6349E+00  0.2223E+02
     35.770  0.8320E+00  0.2236E+02
     35.930  0.5583E+00  0.2245E+02
     36.089  0.4990E+00  0.2253E+02
     36.249  0.6692E+00  0.2264E+02
     36.408  0.7070E+00  0.2275E+02
     36.568  0.6709E+00  0.2286E+02
     36.728  0.5697E+00  0.2295E+02
     36.887  0.5348E+00  0.2303E+02
     37.047  0.7318E+00  0.2315E+02
     37.207  0.1050E+01  0.2332E+02
     37.366  0.1113E+01  0.2350E+02
     37.526  0.7110E+00  0.2361E+02
     37.686  0.2646E+00  0.2365E+02
     37.845  0.1274E+00  0.2367E+02
     38.005  0.1911E+00  0.2370E+02
     38.165  0.2330E+00  0.2374E+02
     38.324  0.1265E+00  0.2376E+02
     38.484  0.2115E+00  0.2379E+02
     38.644  0.3759E+00  0.2385E+02
     38.803  0.4094E+00  0.2392E+02
     38.963  0.2474E+00  0.2396E+02
     39.123  0.3894E-01  0.2397E+02
     39.282 -0.1445E-02  0.2397E+02
     39.442  0.4055E-01  0.2397E+02
     39.602  0.4455E-01  0.2398E+02
     39.761  0.6709E-01  0.2399E+02
     39.921  0.5750E-01  0.2400E+02
     40.081  0.9814E-02  0.2400E+02
     40.240 -0.2605E-02  0.2400E+02
     40.400 -0.4233E-03  0.2400E+02
     40.560 -0.1197E-04  0.2400E+02
     40.719 -0.8200E-07  0.2400E+02
     40.879 -0.1465E-09  0.2400E+02
     41.039 -0.7016E-13  0.2400E+02
     41.198 -0.1669E-16  0.2400E+02
     41.358  0.0000E+00  0.2400E+02
     41.518  0.0000E+00  0.2400E+02
     41.677  0.0000E+00  0.2400E+02
     41.837  0.0000E+00  0.2400E+02
     41.997  0.0000E+00  0.2400E+02
