    1    1    1    1
  0.1426666E+02  0.2722361E-09  0.2722361E-09  0.2722361E-09  0.5000000E-15
  1.000000000000000E-004
  CAR 
 FCC Au                                  
     11    110     12
 
  0.5000000E-01  0.5000000E-01  0.5000000E-01  0.2000000E-02
    1       -3.723674   1.000000
    2        2.294768   1.000000
    3        2.376705   1.000000
    4        2.376705   1.000000
    5        4.411531   1.000000
    6        4.411531   1.000000
    7       23.508215   0.000000
    8       27.600139   0.000000
    9       28.445797   0.000000
   10       28.445797   0.000000
   11       33.678537   0.000000
   12       38.418909   0.000000
 
  0.1500000E+00  0.5000000E-01  0.5000000E-01  0.6000000E-02
    1       -3.188940   1.000000
    2        2.079174   1.000000
    3        2.559107   1.000000
    4        2.600598   1.000000
    5        4.198133   1.000000
    6        4.473535   1.000000
    7       24.171822   0.000000
    8       25.545486   0.000000
    9       28.338896   0.000000
   10       29.571223   0.000000
   11       34.013770   0.000000
   12       36.911163   0.000000
 
  0.2500000E+00  0.5000000E-01  0.5000000E-01  0.6000000E-02
    1       -2.058737   1.000000
    2        1.908315   1.000000
    3        2.752937   1.000000
    4        2.786721   1.000000
    5        4.202126   1.000000
    6        4.755606   1.000000
    7       22.021853   0.000000
    8       24.969061   0.000000
    9       29.061569   0.000000
   10       31.293751   0.000000
   11       31.489125   0.000000
   12       34.614557   0.000000
 
  0.3500000E+00  0.5000000E-01  0.5000000E-01  0.6000000E-02
    1       -1.130569   1.000000
    2        2.504813   1.000000
    3        2.625345   1.000000
    4        2.729455   1.000000
    5        4.861896   1.000000
    6        5.514926   1.000000
    7       17.999733   0.000000
    8       24.110287   0.000000
    9       28.259564   0.000000
   10       30.774468   0.000000
   11       32.464416   0.000000
   12       34.026048   0.000000
 
  0.4500000E+00  0.5000000E-01  0.5000000E-01  0.6000000E-02
    1       -0.956152   1.000000
    2        2.304342   1.000000
    3        2.401541   1.000000
    4        4.539265   1.000000
    5        5.689365   1.000000
    6        6.489874   1.000000
    7       14.026748   0.000000
    8       23.075665   0.000000
    9       27.008699   0.000000
   10       28.209859   0.000000
   11       34.965648   0.000000
   12       35.622113   0.000000
 
 -0.4500000E+00  0.5000000E-01  0.5000000E-01  0.6000000E-02
    1       -0.967913   1.000000
    2        2.214746   1.000000
    3        2.347154   1.000000
    4        5.181495   1.000000
    5        6.087395   1.000000
    6        7.144641   1.000000
    7       12.365551  -0.000000
    8       22.795865   0.000000
    9       26.995756   0.000000
   10       27.088283   0.000000
   11       35.831348   0.000000
   12       35.962137   0.000000
 
 -0.3500000E+00  0.5000000E-01  0.5000000E-01  0.6000000E-02
    1       -0.968573   1.000000
    2        2.345016   1.000000
    3        2.495308   1.000000
    4        3.848650   1.000000
    5        5.804953   1.000000
    6        5.841590   1.000000
    7       15.257362   0.000000
    8       23.360554   0.000000
    9       27.599910   0.000000
   10       28.543138   0.000000
   11       34.944945   0.000000
   12       35.738981   0.000000
 
 -0.2500000E+00  0.5000000E-01  0.5000000E-01  0.6000000E-02
    1       -1.350681   1.000000
    2        2.218757   1.000000
    3        2.638055   1.000000
    4        2.729733   1.000000
    5        4.730372   1.000000
    6        5.111563   1.000000
    7       19.389061   0.000000
    8       24.550893   0.000000
    9       28.889526   0.000000
   10       30.795303   0.000000
   11       32.347382   0.000000
   12       34.285933   0.000000
 
 -0.1500000E+00  0.5000000E-01  0.5000000E-01  0.6000000E-02
    1       -2.468268   1.000000
    2        1.898637   1.000000
    3        2.745339   1.000000
    4        2.764234   1.000000
    5        4.143700   1.000000
    6        4.590144   1.000000
    7       23.255286   0.000000
    8       24.915797   0.000000
    9       28.971314   0.000000
   10       30.226531   0.000000
   11       32.539849   0.000000
   12       35.089868   0.000000
 
 -0.5000000E-01  0.5000000E-01  0.5000000E-01  0.6000000E-02
    1       -3.450960   1.000000
    2        2.145835   1.000000
    3        2.502018   1.000000
    4        2.510260   1.000000
    5        4.234521   1.000000
    6        4.489065   1.000000
    7       23.878145   0.000000
    8       26.649522   0.000000
    9       28.355053   0.000000
   10       28.671202   0.000000
   11       34.834868   0.000000
   12       37.392468   0.000000
 
  0.1500000E+00  0.1500000E+00  0.5000000E-01  0.6000000E-02
    1       -2.924185   1.000000
    2        1.850232   1.000000
    3        2.764536   1.000000
    4        2.771079   1.000000
    5        3.925082   1.000000
    6        4.637208   1.000000
    7       24.558670   0.000000
    8       25.754926   0.000000
    9       27.976102   0.000000
   10       28.447697   0.000000
   11       34.792347   0.000000
   12       36.057103   0.000000
 
  0.2500000E+00  0.1500000E+00  0.5000000E-01  0.1200000E-01
    1       -1.978466   1.000000
    2        1.514332   1.000000
    3        2.883048   1.000000
    4        3.138285   1.000000
    5        3.846223   1.000000
    6        4.931604   1.000000
    7       23.547508   0.000000
    8       25.236859   0.000000
    9       27.404408   0.000000
   10       28.765058   0.000000
   11       32.685887   0.000000
   12       35.226227   0.000000
 
  0.3500000E+00  0.1500000E+00  0.5000000E-01  0.1200000E-01
    1       -0.871495   1.000000
    2        1.621307   1.000000
    3        2.467854   1.000000
    4        3.145565   1.000000
    5        4.718231   1.000000
    6        5.693463   1.000000
    7       19.647125   0.000000
    8       24.718647   0.000000
    9       26.450870   0.000000
   10       29.033071   0.000000
   11       33.132894   0.000000
   12       34.521576   0.000000
 
  0.4500000E+00  0.1500000E+00  0.5000000E-01  0.1200000E-01
    1       -0.516351   1.000000
    2        2.056902   1.000000
    3        2.746097   1.000000
    4        2.967795   1.000000
    5        5.758613   1.000000
    6        7.058254   1.000000
    7       15.402466   0.000000
    8       23.748692   0.000000
    9       25.360465   0.000000
   10       27.772170   0.000000
   11       34.616214   0.000000
   12       36.248768   0.000000
 
 -0.4500000E+00  0.1500000E+00  0.5000000E-01  0.1200000E-01
    1       -0.517896   1.000000
    2        1.887139   1.000000
    3        2.740591   1.000000
    4        3.842373   1.000000
    5        6.018366   1.000000
    6        8.940401  -0.000014
    7       12.273270  -0.000000
    8       23.207780   0.000000
    9       25.040695   0.000000
   10       26.614071   0.000000
   11       35.618090   0.000000
   12       36.578445   0.000000
 
 -0.3500000E+00  0.1500000E+00  0.5000000E-01  0.1200000E-01
    1       -0.481775   1.000000
    2        1.997542   1.000000
    3        2.772749   1.000000
    4        3.411492   1.000000
    5        5.566733   1.000000
    6        7.875312   1.007912
    7       14.199946   0.000000
    8       23.277011   0.000000
    9       24.992281   0.000000
   10       27.893183   0.000000
   11       34.318901   0.000000
   12       36.369398   0.000000
 
 -0.2500000E+00  0.1500000E+00  0.5000000E-01  0.1200000E-01
    1       -0.618796   1.000000
    2        1.990815   1.000000
    3        2.381678   1.000000
    4        3.026953   1.000000
    5        4.613650   1.000000
    6        6.382384   1.000000
    7       18.249276   0.000000
    8       23.879821   0.000000
    9       26.033176   0.000000
   10       30.049828   0.000000
   11       32.193061   0.000000
   12       35.331418   0.000000
 
 -0.1500000E+00  0.1500000E+00  0.5000000E-01  0.1200000E-01
    1       -1.573170   1.000000
    2        1.570260   1.000000
    3        2.735404   1.000000
    4        3.168023   1.000000
    5        3.839511   1.000000
    6        5.277584   1.000000
    7       22.163618   0.000000
    8       24.646436   0.000000
    9       27.815562   0.000000
   10       28.939928   0.000000
   11       33.031348   0.000000
   12       34.829177   0.000000
 
 -0.5000000E-01  0.1500000E+00  0.5000000E-01  0.1200000E-01
    1       -2.682920   1.000000
    2        1.852701   1.000000
    3        2.766197   1.000000
    4        2.782280   1.000000
    5        3.980429   1.000000
    6        4.644886   1.000000
    7       24.377483   0.000000
    8       24.821566   0.000000
    9       28.012193   0.000000
   10       29.866692   0.000000
   11       32.944816   0.000000
   12       36.162005   0.000000
 
  0.2500000E+00  0.2500000E+00  0.5000000E-01  0.6000000E-02
    1       -1.366042   1.000000
    2        1.040769   1.000000
    3        3.073846   1.000000
    4        3.644813   1.000000
    5        3.893691   1.000000
    6        5.099282   1.000000
    7       24.213393   0.000000
    8       25.608969   0.000000
    9       26.088100   0.000000
   10       27.039360   0.000000
   11       30.105940   0.000000
   12       36.072809   0.000000
 
  0.3500000E+00  0.2500000E+00  0.5000000E-01  0.1200000E-01
    1       -0.503267   1.000000
    2        0.746331   1.000000
    3        2.722034   1.000000
    4        4.106909   1.000000
    5        4.757219   1.000000
    6        5.727253   1.000000
    7       21.466960   0.000000
    8       23.573883   0.000000
    9       25.076924   0.000000
   10       28.051507   0.000000
   11       29.808089   0.000000
   12       36.234907   0.000000
 
  0.4500000E+00  0.2500000E+00  0.5000000E-01  0.1200000E-01
    1       -0.041214   1.000000
    2        1.071325   1.000000
    3        2.400883   1.000000
    4        3.923589   1.000000
    5        5.886850   1.000000
    6        7.401652   1.000000
    7       17.046518   0.000000
    8       22.877847   0.000000
    9       23.264864   0.000000
   10       27.580792   0.000000
   11       33.065944   0.000000
   12       36.528175   0.000000
 
 -0.4500000E+00  0.2500000E+00  0.5000000E-01  0.1200000E-01
    1        0.090264   1.000000
    2        1.391599   1.000000
    3        2.640958   1.000000
    4        3.650701   1.000000
    5        6.065538   1.000000
    6       10.210608  -0.000000
    7       13.117733  -0.000000
    8       21.521460   0.000000
    9       23.381222   0.000000
   10       26.812699   0.000000
   11       35.621477   0.000000
   12       37.735063   0.000000
 
 -0.3500000E+00  0.2500000E+00  0.5000000E-01  0.1200000E-01
    1        0.324235   1.000000
    2        1.481802   1.000000
    3        2.644112   1.000000
    4        3.508940   1.000000
    5        5.507160   1.000000
    6       10.040961  -0.000000
    7       13.819004   0.000000
    8       20.337539   0.000000
    9       24.591539   0.000000
   10       27.035531   0.000000
   11       34.475524   0.000000
   12       37.141633   0.000000
 
 -0.2500000E+00  0.2500000E+00  0.5000000E-01  0.1200000E-01
    1        0.477517   1.000000
    2        1.618896   1.000000
    3        1.909320   1.000000
    4        3.613974   1.000000
    5        4.564193   1.000000
    6        8.108301   0.999202
    7       17.459992   0.000000
    8       20.357110   0.000000
    9       25.497191   0.000000
   10       29.186897   0.000000
   11       31.725038   0.000000
   12       37.149626   0.000000
 
 -0.1500000E+00  0.2500000E+00  0.5000000E-01  0.1200000E-01
    1       -0.391597   1.000000
    2        1.466163   1.000000
    3        2.348730   1.000000
    4        3.462940   1.000000
    5        4.023229   1.000000
    6        6.508963   1.000000
    7       19.716473   0.000000
    8       22.769982   0.000000
    9       26.401864   0.000000
   10       29.643899   0.000000
   11       31.946033   0.000000
   12       36.033820   0.000000
 
 -0.5000000E-01  0.2500000E+00  0.5000000E-01  0.1200000E-01
    1       -1.498834   1.000000
    2        1.805151   1.000000
    3        2.702755   1.000000
    4        2.911887   1.000000
    5        4.279197   1.000000
    6        5.178052   1.000000
    7       20.845285   0.000000
    8       24.935074   0.000000
    9       28.047018   0.000000
   10       30.136950   0.000000
   11       32.840198   0.000000
   12       33.825900   0.000000
 
  0.3500000E+00  0.3500000E+00  0.5000000E-01  0.6000000E-02
    1       -0.433528   1.000000
    2        0.249919   1.000000
    3        3.822852   1.000000
    4        4.828775   1.000000
    5        5.330868   1.000000
    6        5.665948   1.000000
    7       21.418419   0.000000
    8       22.275265   0.000000
    9       22.962105   0.000000
   10       26.992840   0.000000
   11       28.940913   0.000000
   12       38.679326   0.000000
 
  0.4500000E+00  0.3500000E+00  0.5000000E-01  0.1200000E-01
    1       -0.317594   1.000000
    2        0.111165   1.000000
    3        3.905505   1.000000
    4        5.223658   1.000000
    5        5.904368   1.000000
    6        7.392734   1.000000
    7       18.393315   0.000000
    8       20.539142   0.000000
    9       21.217127   0.000000
   10       28.117715   0.000000
   11       30.166108   0.000000
   12       38.405156   0.000000
 
 -0.4500000E+00  0.3500000E+00  0.5000000E-01  0.1200000E-01
    1       -0.125369   1.000000
    2        0.509371   1.000000
    3        3.443239   1.000000
    4        4.811772   1.000000
    5        6.202282   1.000000
    6       10.469811  -0.000000
    7       14.692301   0.000000
    8       18.964788   0.000000
    9       21.199370   0.000000
   10       28.250265   0.000000
   11       33.168325   0.000000
   12       37.393920   0.000000
 
 -0.3500000E+00  0.3500000E+00  0.5000000E-01  0.1200000E-01
    1        0.256088   1.000000
    2        1.156667   1.000000
    3        2.734706   1.000000
    4        4.359648   1.000000
    5        5.749637   1.000000
    6       11.825069  -0.000000
    7       14.177362   0.000000
    8       17.141627   0.000000
    9       22.826215   0.000000
   10       27.737655   0.000000
   11       35.829131   0.000000
   12       37.013530   0.000000
 
 -0.2500000E+00  0.3500000E+00  0.5000000E-01  0.1200000E-01
    1        0.662432   1.000000
    2        1.531535   1.000000
    3        2.085093   1.000000
    4        3.871061   1.000000
    5        5.179280   1.000000
    6        9.898226  -0.000000
    7       15.838387   0.000000
    8       18.141434   0.000000
    9       24.733412   0.000000
   10       27.500944   0.000000
   11       33.834545   0.000000
   12       37.311171   0.000000
 
 -0.1500000E+00  0.3500000E+00  0.5000000E-01  0.1200000E-01
    1       -0.025082   1.000000
    2        1.859230   1.000000
    3        2.469477   1.000000
    4        3.207828   1.000000
    5        5.054888   1.000000
    6        8.042981   1.034859
    7       15.792286   0.000000
    8       22.073695   0.000000
    9       25.049889   0.000000
   10       28.564943   0.000000
   11       32.887514   0.000000
   12       36.738694   0.000000
 
 -0.5000000E-01  0.3500000E+00  0.5000000E-01  0.1200000E-01
    1       -0.845966   1.000000
    2        2.346933   1.000000
    3        2.678915   1.000000
    4        2.906953   1.000000
    5        5.225010   1.000000
    6        6.138003   1.000000
    7       16.679279   0.000000
    8       23.855551   0.000000
    9       26.803550   0.000000
   10       29.406196   0.000000
   11       33.487806   0.000000
   12       35.068299   0.000000
 
  0.4500000E+00  0.4500000E+00  0.5000000E-01  0.6000000E-02
    1       -0.675016   1.000000
    2       -0.264887   1.000000
    3        5.670710   1.000000
    4        5.779838   1.000000
    5        6.243082   1.000000
    6        7.679521   1.000103
    7       17.308402   0.000000
    8       19.453037   0.000000
    9       19.725285   0.000000
   10       27.450878   0.000000
   11       30.278977   0.000000
   12       39.662561   0.000000
 
 -0.4500000E+00  0.4500000E+00  0.5000000E-01  0.1200000E-01
    1       -0.595816   1.000000
    2       -0.196478   1.000000
    3        5.139044   1.000000
    4        5.702435   1.000000
    5        6.449577   1.000000
    6        9.970993  -0.000000
    7       15.245705   0.000000
    8       18.382557   0.000000
    9       19.338803   0.000000
   10       28.537724   0.000000
   11       30.834038   0.000000
   12       38.715453   0.000000
 
 -0.3500000E+00  0.4500000E+00  0.5000000E-01  0.1200000E-01
    1       -0.205833   1.000000
    2        0.395067   1.000000
    3        3.817654   1.000000
    4        5.047031   1.000000
    5        6.195454   1.000000
    6       11.974396  -0.000000
    7       13.856358   0.000000
    8       17.444450   0.000000
    9       20.792972   0.000000
   10       28.564103   0.000000
   11       33.231097   0.000000
   12       37.430788   0.000000
 
 -0.2500000E+00  0.4500000E+00  0.5000000E-01  0.1200000E-01
    1        0.230000   1.000000
    2        1.211839   1.000000
    3        2.678865   1.000000
    4        4.060467   1.000000
    5        5.922411   1.000000
    6       12.164982  -0.000000
    7       12.303874  -0.000000
    8       19.296107   0.000000
    9       23.008596   0.000000
   10       27.319729   0.000000
   11       35.728248   0.000000
   12       37.420220   0.000000
 
 -0.1500000E+00  0.4500000E+00  0.5000000E-01  0.1200000E-01
    1       -0.123134   1.000000
    2        1.643737   1.000000
    3        3.091204   1.000000
    4        3.256367   1.000000
    5        5.840068   1.000000
    6        9.978948  -0.000000
    7       12.360399  -0.000000
    8       22.339180   0.000000
    9       24.427242   0.000000
   10       26.597995   0.000000
   11       35.240425   0.000000
   12       36.886549   0.000000
 
 -0.5000000E-01  0.4500000E+00  0.5000000E-01  0.1200000E-01
    1       -0.803312   1.000000
    2        2.127321   1.000000
    3        2.501345   1.000000
    4        4.356130   1.000000
    5        5.952378   1.000000
    6        7.546258   1.000002
    7       12.999827  -0.000000
    8       23.089173   0.000000
    9       26.143087   0.000000
   10       27.343321   0.000000
   11       35.436854   0.000000
   12       36.139665   0.000000
 
 -0.4500000E+00 -0.4500000E+00  0.5000000E-01  0.6000000E-02
    1       -0.782768   1.000000
    2       -0.373641   1.000000
    3        5.945993   1.000000
    4        6.103696   1.000000
    5        6.466342   1.000000
    6        8.865289  -0.000125
    7       15.664903   0.000000
    8       18.783260   0.000000
    9       19.128802   0.000000
   10       27.661990   0.000000
   11       30.563706   0.000000
   12       39.392419   0.000000
 
 -0.3500000E+00 -0.4500000E+00  0.5000000E-01  0.1200000E-01
    1       -0.485396   1.000000
    2       -0.092024   1.000000
    3        4.648883   1.000000
    4        5.599215   1.000000
    5        6.231137   1.000000
    6        8.753544  -0.001883
    7       16.677557   0.000000
    8       19.170388   0.000000
    9       19.944768   0.000000
   10       28.349500   0.000000
   11       30.600315   0.000000
   12       38.727332   0.000000
 
 -0.2500000E+00 -0.4500000E+00  0.5000000E-01  0.1200000E-01
    1       -0.028206   1.000000
    2        0.743407   1.000000
    3        2.890240   1.000000
    4        4.396232   1.000000
    5        6.132609   1.000000
    6        8.833653  -0.000290
    7       15.776968   0.000000
    8       21.013606   0.000000
    9       21.997200   0.000000
   10       27.811146   0.000000
   11       33.095111   0.000000
   12       37.132541   0.000000
 
 -0.1500000E+00 -0.4500000E+00  0.5000000E-01  0.1200000E-01
    1       -0.181772   1.000000
    2        1.702145   1.000000
    3        2.672663   1.000000
    4        3.258623   1.000000
    5        6.041168   1.000000
    6        8.460585  -0.015203
    7       14.191598   0.000000
    8       23.301367   0.000000
    9       24.015899   0.000000
   10       26.778664   0.000000
   11       35.324652   0.000000
   12       37.295467   0.000000
 
 -0.3500000E+00 -0.3500000E+00  0.5000000E-01  0.6000000E-02
    1       -0.511767   1.000000
    2       -0.052782   1.000000
    3        4.835132   1.000000
    4        5.392424   1.000000
    5        5.950473   1.000000
    6        6.354866   1.000000
    7       19.498695   0.000000
    8       20.806074   0.000000
    9       20.821445   0.000000
   10       27.141409   0.000000
   11       29.732526   0.000000
   12       39.819365   0.000000
 
 -0.2500000E+00 -0.3500000E+00  0.5000000E-01  0.1200000E-01
    1       -0.236638   1.000000
    2        0.398535   1.000000
    3        3.142691   1.000000
    4        4.679954   1.000000
    5        5.425905   1.000000
    6        6.354079   1.000000
    7       20.014467   0.000000
    8       22.039953   0.000000
    9       23.136362   0.000000
   10       28.078219   0.000000
   11       29.664768   0.000000
   12       37.468151   0.000000
 
 -0.1500000E+00 -0.3500000E+00  0.5000000E-01  0.1200000E-01
    1       -0.324275   1.000000
    2        1.390005   1.000000
    3        2.251765   1.000000
    4        3.489510   1.000000
    5        5.379209   1.000000
    6        6.357247   1.000000
    7       18.372902   0.000000
    8       24.090682   0.000000
    9       24.868145   0.000000
   10       27.980354   0.000000
   11       33.087257   0.000000
   12       35.625249   0.000000
 
 -0.2500000E+00 -0.2500000E+00  0.5000000E-01  0.6000000E-02
    1       -0.690293   1.000000
    2        0.623865   1.000000
    3        3.161139   1.000000
    4        4.217802   1.000000
    5        4.531214   1.000000
    6        5.383145   1.000000
    7       23.015768   0.000000
    8       23.931503   0.000000
    9       25.082637   0.000000
   10       27.507615   0.000000
   11       28.156777   0.000000
   12       37.173618   0.000000
 
 -0.1500000E+00 -0.2500000E+00  0.5000000E-01  0.1200000E-01
    1       -1.177644   1.000000
    2        1.129585   1.000000
    3        2.761568   1.000000
    4        3.585157   1.000000
    5        4.143115   1.000000
    6        5.292453   1.000000
    7       22.634968   0.000000
    8       24.880661   0.000000
    9       26.646529   0.000000
   10       27.754230   0.000000
   11       31.354905   0.000000
   12       35.180854   0.000000
 
 -0.1500000E+00 -0.1500000E+00  0.5000000E-01  0.6000000E-02
    1       -2.191569   1.000000
    2        1.465040   1.000000
    3        3.079489   1.000000
    4        3.155060   1.000000
    5        3.643433   1.000000
    6        4.846112   1.000000
    7       24.946420   0.000000
    8       25.539398   0.000000
    9       27.055473   0.000000
   10       27.693317   0.000000
   11       32.903891   0.000000
   12       35.592551   0.000000
 
  0.1500000E+00  0.1500000E+00  0.1500000E+00  0.2000000E-02
    1       -2.942471   1.000000
    2        2.053670   1.000000
    3        2.625407   1.000000
    4        2.625407   1.000000
    5        4.336611   1.000000
    6        4.336611   1.000000
    7       24.174011   0.000000
    8       24.714908   0.000000
    9       29.459197   0.000000
   10       29.459198   0.000000
   11       33.389619   0.000000
   12       36.381473   0.000000
 
  0.2500000E+00  0.1500000E+00  0.1500000E+00  0.6000000E-02
    1       -2.218494   1.000000
    2        1.774492   1.000000
    3        2.784811   1.000000
    4        2.897820   1.000000
    5        3.902998   1.000000
    6        4.856669   1.000000
    7       23.240492   0.000000
    8       24.862196   0.000000
    9       27.933099   0.000000
   10       30.696688   0.000000
   11       31.618304   0.000000
   12       36.638685   0.000000
 
  0.3500000E+00  0.1500000E+00  0.1500000E+00  0.6000000E-02
    1       -1.020369   1.000000
    2        1.564014   1.000000
    3        2.617857   1.000000
    4        3.271258   1.000000
    5        3.776000   1.000000
    6        5.838529   1.000000
    7       20.904135   0.000000
    8       23.824241   0.000000
    9       27.434747   0.000000
   10       29.067884   0.000000
   11       32.949401   0.000000
   12       35.151693   0.000000
 
  0.4500000E+00  0.1500000E+00  0.1500000E+00  0.6000000E-02
    1       -0.333824   1.000000
    2        2.073428   1.000000
    3        2.489730   1.000000
    4        2.989026   1.000000
    5        4.687744   1.000000
    6        7.154781   1.000000
    7       16.967700   0.000000
    8       22.999160   0.000000
    9       25.553107   0.000000
   10       29.868574   0.000000
   11       31.919427   0.000000
   12       36.154538   0.000000
 
 -0.4500000E+00  0.1500000E+00  0.1500000E+00  0.6000000E-02
    1       -0.351464   1.000000
    2        1.865921   1.000000
    3        2.841313   1.000000
    4        3.546965   1.000000
    5        5.641433   1.000000
    6        8.818890  -0.000421
    7       13.178274  -0.000000
    8       22.773795   0.000000
    9       24.965389   0.000000
   10       27.084762   0.000000
   11       34.882681   0.000000
   12       36.368903   0.000000
 
 -0.3500000E+00  0.1500000E+00  0.1500000E+00  0.6000000E-02
    1       -0.405455   1.000000
    2        1.823418   1.000000
    3        2.906878   1.000000
    4        3.348999   1.000000
    5        6.130431   1.000000
    6        8.715185  -0.004034
    7       12.963769  -0.000000
    8       23.209679   0.000000
    9       25.584391   0.000000
   10       25.726051   0.000000
   11       36.051966   0.000000
   12       36.585122   0.000000
 
 -0.2500000E+00  0.1500000E+00  0.1500000E+00  0.6000000E-02
    1       -0.459336   1.000000
    2        1.934642   1.000000
    3        2.285114   1.000000
    4        3.128026   1.000000
    5        5.927017   1.000000
    6        6.371960   1.000000
    7       16.802838   0.000000
    8       24.189181   0.000000
    9       25.500047   0.000000
   10       27.349439   0.000000
   11       35.003613   0.000000
   12       36.725312   0.000000
 
 -0.1500000E+00  0.1500000E+00  0.1500000E+00  0.6000000E-02
    1       -1.068179   1.000000
    2        1.300904   1.000000
    3        2.634509   1.000000
    4        3.312760   1.000000
    5        4.606042   1.000000
    6        5.302556   1.000000
    7       21.165365   0.000000
    8       25.491122   0.000000
    9       26.237452   0.000000
   10       28.311917   0.000000
   11       32.113066   0.000000
   12       35.301925   0.000000
 
  0.2500000E+00  0.2500000E+00  0.1500000E+00  0.6000000E-02
    1       -1.811425   1.000000
    2        1.625173   1.000000
    3        2.804319   1.000000
    4        2.992718   1.000000
    5        4.143841   1.000000
    6        4.927132   1.000000
    7       22.233434   0.000000
    8       25.318785   0.000000
    9       27.833036   0.000000
   10       29.531775   0.000000
   11       32.494757   0.000000
   12       34.789048   0.000000
 
  0.3500000E+00  0.2500000E+00  0.1500000E+00  0.1200000E-01
    1       -0.831802   1.000000
    2        1.287486   1.000000
    3        2.496364   1.000000
    4        3.543084   1.000000
    5        4.111816   1.000000
    6        5.809254   1.000000
    7       21.096057   0.000000
    8       23.872139   0.000000
    9       26.678234   0.000000
   10       28.612284   0.000000
   11       32.957808   0.000000
   12       34.343681   0.000000
 
  0.4500000E+00  0.2500000E+00  0.1500000E+00  0.1200000E-01
    1        0.203032   1.000000
    2        1.319439   1.000000
    3        1.957772   1.000000
    4        3.832341   1.000000
    5        4.533665   1.000000
    6        7.283146   1.000000
    7       18.560147   0.000000
    8       21.553703   0.000000
    9       25.175335   0.000000
   10       29.870141   0.000000
   11       31.399789   0.000000
   12       36.742723   0.000000
 
 -0.4500000E+00  0.2500000E+00  0.1500000E+00  0.1200000E-01
    1        0.302053   1.000000
    2        1.513771   1.000000
    3        2.349096   1.000000
    4        3.563264   1.000000
    5        5.488402   1.000000
    6        9.170504  -0.000000
    7       14.723876   0.000000
    8       21.178273   0.000000
    9       23.890819   0.000000
   10       28.130322   0.000000
   11       33.594700   0.000000
   12       37.619869   0.000000
 
 -0.3500000E+00  0.2500000E+00  0.1500000E+00  0.1200000E-01
    1        0.202026   1.000000
    2        1.391101   1.000000
    3        2.777097   1.000000
    4        3.477273   1.000000
    5        5.901054   1.000000
    6       10.875868  -0.000000
    7       12.272305  -0.000000
    8       21.900062   0.000000
    9       22.816442   0.000000
   10       27.409050   0.000000
   11       34.812716   0.000000
   12       37.996951   0.000000
 
 -0.2500000E+00  0.2500000E+00  0.1500000E+00  0.1200000E-01
    1        0.147688   1.000000
    2        1.506914   1.000000
    3        2.077502   1.000000
    4        3.738387   1.000000
    5        5.655783   1.000000
    6        8.304277   0.381486
    7       15.778128   0.000000
    8       22.115804   0.000000
    9       23.454888   0.000000
   10       28.179948   0.000000
   11       33.605321   0.000000
   12       37.198297   0.000000
 
 -0.1500000E+00  0.2500000E+00  0.1500000E+00  0.1200000E-01
    1       -0.171626   1.000000
    2        0.985376   1.000000
    3        2.264395   1.000000
    4        4.008598   1.000000
    5        4.657666   1.000000
    6        6.458314   1.000000
    7       19.907839   0.000000
    8       22.665938   0.000000
    9       25.068649   0.000000
   10       28.952551   0.000000
   11       31.487207   0.000000