 running on    4 total cores
 distrk:  each k-point on    4 cores,    1 groups
 distr:  one band on    1 cores,    4 groups
 using from now: INCAR     
 vasp.5.4.4.18Apr17-6-g9f103f2a35 (build Jul 01 2019 03:25:34) complex          
  
 POSCAR found type information on POSCAR  Au
 POSCAR found :  1 types and       1 ions
 scaLAPACK will be used
 LDA part: xc-table for Ceperly-Alder, standard interpolation
 found WAVECAR, reading the header
 WAVECAR: different cutoff or change in lattice found
 POSCAR, INCAR and KPOINTS ok, starting setup
 FFT: planning ...
 reading WAVECAR
 the WAVECAR file was read successfully
 initial charge from wavefunction
 entering main loop
       N       E                     dE             d eps       ncg     rms          rms(c)
DAV:   1    -0.887755565097E+01   -0.88776E+01   -0.73019E+01  3064   0.990E+01    0.126E+01
DAV:   2    -0.435453427076E+01    0.45230E+01   -0.97442E+00  2952   0.345E+01    0.316E+00
DAV:   3    -0.407353495319E+01    0.28100E+00   -0.11520E+00  3144   0.112E+01    0.273E-01
DAV:   4    -0.407703417742E+01   -0.34992E-02   -0.90562E-03  2828   0.886E-01    0.107E-01
DAV:   5    -0.407699581624E+01    0.38361E-04   -0.74253E-04  3180   0.290E-01
   1 F= -.40769958E+01 E0= -.40768569E+01  d E =-.416743E-03
 writing wavefunctions
