 vasp.5.4.4.18Apr17-6-g9f103f2a35 (build Jul 01 2019 03:25:34) complex          
  
 executed on             LinuxIFC date 2020.07.08  00:55:15
 running on    4 total cores
 distrk:  each k-point on    4 cores,    1 groups
 distr:  one band on NCORES_PER_BAND=   1 cores,    4 groups


--------------------------------------------------------------------------------------------------------


 INCAR:
 POTCAR:   PAW Au 04Feb1998                       
 POTCAR:   PAW Au 04Feb1998                       
   VRHFIN =Au: s1d10                                                            
   LEXCH  = CA                                                                  
   EATOM  =   929.4667 eV,   68.3139 Ry                                         
                                                                                
   TITEL  = PAW Au 04Feb1998                                                    
   LULTRA =        F    use ultrasoft PP ?                                      
   IUNSCR =        1    unscreen: 0-lin 1-nonlin 2-no                           
   RPACOR =    2.330    partial core radius                                     
   POMASS =  196.966; ZVAL   =   11.000    mass and valenz                      
   RCORE  =    2.500    outmost cutoff radius                                   
   RWIGS  =    2.840; RWIGS  =    1.503    wigner-seitz radius (au A)           
   ENMAX  =  229.869; ENMIN  =  172.402 eV                                      
   RCLOC  =    1.964    cutoff for local pot                                    
   LCOR   =        T    correct aug charges                                     
   LPAW   =        T    paw PP                                                  
   EAUG   =  356.670                                                            
   DEXC   =    -.020                                                            
   RMAX   =    3.041    core radius for proj-oper                               
   RDEP   =    2.598    core radius for depl-charge                             
   QCUT   =   -4.110; QGAM   =    8.221    optimization parameters              
                                                                                
   Description                                                                  
     l     E      TYP  RCUT    TYP  RCUT                                        
     2   .000     23  2.500                                                     
     2   .000     23  2.500                                                     
     0   .000     23  2.500                                                     
     0   .000     23  2.500                                                     
     1  -.200     23  2.500                                                     
     1   .000     23  2.500                                                     
     3   .000      7   .000                                                     
  local pseudopotential read in
  partial core-charges read in
  atomic valenz-charges read in
  non local Contribution for L=           2  read in
    real space projection operators read in
  non local Contribution for L=           2  read in
    real space projection operators read in
  non local Contribution for L=           0  read in
    real space projection operators read in
  non local Contribution for L=           0  read in
    real space projection operators read in
  non local Contribution for L=           1  read in
    real space projection operators read in
  non local Contribution for L=           1  read in
    real space projection operators read in
    PAW grid and wavefunctions read in
 
   number of l-projection  operators is LMAX  =           6
   number of lm-projection operators is LMMAX =          18
 
 PAW Au 04Feb1998                       :
 energy of atom  1       EATOM= -929.4667
 kinetic energy error for atom=    0.0704 (will be added to EATOM!!)
 
 
 POSCAR: FCC Au Bulk                             
  positions in direct lattice
  No initial velocities read in
 exchange correlation table for  LEXCH =        2
   RHO(1)=    0.500       N(1)  =     2000
   RHO(2)=  100.500       N(2)  =     4000
 


--------------------------------------------------------------------------------------------------------


 ion  position               nearest neighbor table
   1  0.000  0.000  0.000-
 
  LATTYP: Found a face centered cubic cell.
 ALAT       =     3.8500000000
  
  Lattice vectors:
  
 A1 = (   0.0000000000,   1.9250000000,   1.9250000000)
 A2 = (   1.9250000000,   0.0000000000,   1.9250000000)
 A3 = (   1.9250000000,   1.9250000000,   0.0000000000)


Analysis of symmetry for initial positions (statically):
=====================================================================
 Subroutine PRICEL returns:
 Original cell was already a primitive cell.
 

 Routine SETGRP: Setting up the symmetry group for a 
 face centered cubic supercell.


 Subroutine GETGRP returns: Found 48 space group operations
 (whereof 48 operations were pure point group operations)
 out of a pool of 48 trial point group operations.


The static configuration has the point symmetry O_h .


Analysis of symmetry for dynamics (positions and initial velocities):
=====================================================================
 Subroutine PRICEL returns:
 Original cell was already a primitive cell.
 

 Routine SETGRP: Setting up the symmetry group for a 
 face centered cubic supercell.


 Subroutine GETGRP returns: Found 48 space group operations
 (whereof 48 operations were pure point group operations)
 out of a pool of 48 trial point group operations.


The dynamic configuration has the point symmetry O_h .


 Subroutine INISYM returns: Found 48 space group operations
 (whereof 48 operations are pure point group operations),
 and found     1 'primitive' translations

 
 
 KPOINTS: 10x10x10                                

Automatic generation of k-mesh.
Space group operators:
 irot       det(A)        alpha          n_x          n_y          n_z        tau_x        tau_y        tau_z
    1     1.000000     0.000001     1.000000     0.000000     0.000000     0.000000     0.000000     0.000000
    2    -1.000000     0.000001     1.000000     0.000000     0.000000     0.000000     0.000000     0.000000
    3     1.000000   120.000000    -0.577350    -0.577350    -0.577350     0.000000     0.000000     0.000000
    4    -1.000000   120.000000    -0.577350    -0.577350    -0.577350     0.000000     0.000000     0.000000
    5     1.000000   120.000000     0.577350     0.577350     0.577350     0.000000     0.000000     0.000000
    6    -1.000000   120.000000     0.577350     0.577350     0.577350     0.000000     0.000000     0.000000
    7     1.000000    90.000000     0.000000     0.000000    -1.000000     0.000000     0.000000     0.000000
    8    -1.000000    90.000000     0.000000     0.000000    -1.000000     0.000000     0.000000     0.000000
    9     1.000000   180.000000     0.000000     0.707107     0.707107     0.000000     0.000000     0.000000
   10    -1.000000   180.000000     0.000000     0.707107     0.707107     0.000000     0.000000     0.000000
   11     1.000000    90.000000     0.000000     1.000000     0.000000     0.000000     0.000000     0.000000
   12    -1.000000    90.000000     0.000000     1.000000     0.000000     0.000000     0.000000     0.000000
   13     1.000000   180.000000     0.000000     0.000000     1.000000     0.000000     0.000000     0.000000
   14    -1.000000   180.000000     0.000000     0.000000     1.000000     0.000000     0.000000     0.000000
   15     1.000000   120.000000    -0.577350     0.577350     0.577350     0.000000     0.000000     0.000000
   16    -1.000000   120.000000    -0.577350     0.577350     0.577350     0.000000     0.000000     0.000000
   17     1.000000   120.000000    -0.577350     0.577350    -0.577350     0.000000     0.000000     0.000000
   18    -1.000000   120.000000    -0.577350     0.577350    -0.577350     0.000000     0.000000     0.000000
   19     1.000000    90.000000     0.000000     0.000000     1.000000     0.000000     0.000000     0.000000
   20    -1.000000    90.000000     0.000000     0.000000     1.000000     0.000000     0.000000     0.000000
   21     1.000000    90.000000    -1.000000     0.000000     0.000000     0.000000     0.000000     0.000000
   22    -1.000000    90.000000    -1.000000     0.000000     0.000000     0.000000     0.000000     0.000000
   23     1.000000   180.000000     0.707107     0.000000     0.707107     0.000000     0.000000     0.000000
   24    -1.000000   180.000000     0.707107     0.000000     0.707107     0.000000     0.000000     0.000000
   25     1.000000   120.000000     0.577350    -0.577350     0.577350     0.000000     0.000000     0.000000
   26    -1.000000   120.000000     0.577350    -0.577350     0.577350     0.000000     0.000000     0.000000
   27     1.000000   120.000000    -0.577350    -0.577350     0.577350     0.000000     0.000000     0.000000
   28    -1.000000   120.000000    -0.577350    -0.577350     0.577350     0.000000     0.000000     0.000000
   29     1.000000   180.000000     1.000000     0.000000     0.000000     0.000000     0.000000     0.000000
   30    -1.000000   180.000000     1.000000     0.000000     0.000000     0.000000     0.000000     0.000000
   31     1.000000    90.000000     0.000000    -1.000000     0.000000     0.000000     0.000000     0.000000
   32    -1.000000    90.000000     0.000000    -1.000000     0.000000     0.000000     0.000000     0.000000
   33     1.000000   180.000000     0.707107     0.707107     0.000000     0.000000     0.000000     0.000000
   34    -1.000000   180.000000     0.707107     0.707107     0.000000     0.000000     0.000000     0.000000
   35     1.000000    90.000000     1.000000     0.000000     0.000000     0.000000     0.000000     0.000000
   36    -1.000000    90.000000     1.000000     0.000000     0.000000     0.000000     0.000000     0.000000
   37     1.000000   120.000000     0.577350    -0.577350    -0.577350     0.000000     0.000000     0.000000
   38    -1.000000   120.000000     0.577350    -0.577350    -0.577350     0.000000     0.000000     0.000000
   39     1.000000   180.000000     0.000000     1.000000     0.000000     0.000000     0.000000     0.000000
   40    -1.000000   180.000000     0.000000     1.000000     0.000000     0.000000     0.000000     0.000000
   41     1.000000   120.000000     0.577350     0.577350    -0.577350     0.000000     0.000000     0.000000
   42    -1.000000   120.000000     0.577350     0.577350    -0.577350     0.000000     0.000000     0.000000
   43     1.000000   180.000000     0.000000    -0.707107     0.707107     0.000000     0.000000     0.000000
   44    -1.000000   180.000000     0.000000    -0.707107     0.707107     0.000000     0.000000     0.000000
   45     1.000000   180.000000     0.707107    -0.707107     0.000000     0.000000     0.000000     0.000000
   46    -1.000000   180.000000     0.707107    -0.707107     0.000000     0.000000     0.000000     0.000000
   47     1.000000   180.000000     0.707107     0.000000    -0.707107     0.000000     0.000000     0.000000
   48    -1.000000   180.000000     0.707107     0.000000    -0.707107     0.000000     0.000000     0.000000
 
 Subroutine IBZKPT returns following result:
 ===========================================
 
 Found    110 irreducible k-points:
 
 Following reciprocal coordinates:
            Coordinates               Weight
  0.050000  0.050000  0.050000     96.000000
  0.150000  0.050000  0.050000    288.000000
  0.250000  0.050000  0.050000    288.000000
  0.350000  0.050000  0.050000    288.000000
  0.450000  0.050000  0.050000    288.000000
 -0.450000  0.050000  0.050000    288.000000
 -0.350000  0.050000  0.050000    288.000000
 -0.250000  0.050000  0.050000    288.000000
 -0.150000  0.050000  0.050000    288.000000
 -0.050000  0.050000  0.050000    288.000000
  0.150000  0.150000  0.050000    288.000000
  0.250000  0.150000  0.050000    576.000000
  0.350000  0.150000  0.050000    576.000000
  0.450000  0.150000  0.050000    576.000000
 -0.450000  0.150000  0.050000    576.000000
 -0.350000  0.150000  0.050000    576.000000
 -0.250000  0.150000  0.050000    576.000000
 -0.150000  0.150000  0.050000    576.000000
 -0.050000  0.150000  0.050000    576.000000
  0.250000  0.250000  0.050000    288.000000
  0.350000  0.250000  0.050000    576.000000
  0.450000  0.250000  0.050000    576.000000
 -0.450000  0.250000  0.050000    576.000000
 -0.350000  0.250000  0.050000    576.000000
 -0.250000  0.250000  0.050000    576.000000
 -0.150000  0.250000  0.050000    576.000000
 -0.050000  0.250000  0.050000    576.000000
  0.350000  0.350000  0.050000    288.000000
  0.450000  0.350000  0.050000    576.000000
 -0.450000  0.350000  0.050000    576.000000
 -0.350000  0.350000  0.050000    576.000000
 -0.250000  0.350000  0.050000    576.000000
 -0.150000  0.350000  0.050000    576.000000
 -0.050000  0.350000  0.050000    576.000000
  0.450000  0.450000  0.050000    288.000000
 -0.450000  0.450000  0.050000    576.000000
 -0.350000  0.450000  0.050000    576.000000
 -0.250000  0.450000  0.050000    576.000000
 -0.150000  0.450000  0.050000    576.000000
 -0.050000  0.450000  0.050000    576.000000
 -0.450000 -0.450000  0.050000    288.000000
 -0.350000 -0.450000  0.050000    576.000000
 -0.250000 -0.450000  0.050000    576.000000
 -0.150000 -0.450000  0.050000    576.000000
 -0.350000 -0.350000  0.050000    288.000000
 -0.250000 -0.350000  0.050000    576.000000
 -0.150000 -0.350000  0.050000    576.000000
 -0.250000 -0.250000  0.050000    288.000000
 -0.150000 -0.250000  0.050000    576.000000
 -0.150000 -0.150000  0.050000    288.000000
  0.150000  0.150000  0.150000     96.000000
  0.250000  0.150000  0.150000    288.000000
  0.350000  0.150000  0.150000    288.000000
  0.450000  0.150000  0.150000    288.000000
 -0.450000  0.150000  0.150000    288.000000
 -0.350000  0.150000  0.150000    288.000000
 -0.250000  0.150000  0.150000    288.000000
 -0.150000  0.150000  0.150000    288.000000
  0.250000  0.250000  0.150000    288.000000
  0.350000  0.250000  0.150000    576.000000
  0.450000  0.250000  0.150000    576.000000
 -0.450000  0.250000  0.150000    576.000000
 -0.350000  0.250000  0.150000    576.000000
 -0.250000  0.250000  0.150000    576.000000
 -0.150000  0.250000  0.150000    576.000000
  0.350000  0.350000  0.150000    288.000000
  0.450000  0.350000  0.150000    576.000000
 -0.450000  0.350000  0.150000    576.000000
 -0.350000  0.350000  0.150000    576.000000
 -0.250000  0.350000  0.150000    576.000000
 -0.150000  0.350000  0.150000    576.000000
  0.450000  0.450000  0.150000    288.000000
 -0.450000  0.450000  0.150000    576.000000
 -0.350000  0.450000  0.150000    576.000000
 -0.250000  0.450000  0.150000    576.000000
 -0.150000  0.450000  0.150000    576.000000
 -0.450000 -0.450000  0.150000    288.000000
 -0.350000 -0.450000  0.150000    576.000000
 -0.250000 -0.450000  0.150000    576.000000
 -0.350000 -0.350000  0.150000    288.000000
 -0.250000 -0.350000  0.150000    576.000000
 -0.250000 -0.250000  0.150000    288.000000
  0.250000  0.250000  0.250000     96.000000
  0.350000  0.250000  0.250000    288.000000
  0.450000  0.250000  0.250000    288.000000
 -0.450000  0.250000  0.250000    288.000000
 -0.350000  0.250000  0.250000    288.000000
 -0.250000  0.250000  0.250000    288.000000
  0.350000  0.350000  0.250000    288.000000
  0.450000  0.350000  0.250000    576.000000
 -0.450000  0.350000  0.250000    576.000000
 -0.350000  0.350000  0.250000    576.000000
 -0.250000  0.350000  0.250000    576.000000
  0.450000  0.450000  0.250000    288.000000
 -0.450000  0.450000  0.250000    576.000000
 -0.350000  0.450000  0.250000    576.000000
 -0.250000  0.450000  0.250000    576.000000
 -0.450000 -0.450000  0.250000    288.000000
 -0.350000 -0.450000  0.250000    576.000000
 -0.350000 -0.350000  0.250000    288.000000
  0.350000  0.350000  0.350000     96.000000
  0.450000  0.350000  0.350000    288.000000
 -0.450000  0.350000  0.350000    288.000000
 -0.350000  0.350000  0.350000    288.000000
  0.450000  0.450000  0.350000    288.000000
 -0.450000  0.450000  0.350000    576.000000
 -0.350000  0.450000  0.350000    576.000000
 -0.450000 -0.450000  0.350000    288.000000
  0.450000  0.450000  0.450000     96.000000
 -0.450000  0.450000  0.450000    288.000000
 
 Following cartesian coordinates:
            Coordinates               Weight
  0.050000  0.050000  0.050000     96.000000
 -0.050000  0.150000  0.150000    288.000000
 -0.150000  0.250000  0.250000    288.000000
 -0.250000  0.350000  0.350000    288.000000
 -0.350000  0.450000  0.450000    288.000000
  0.550000 -0.450000 -0.450000    288.000000
  0.450000 -0.350000 -0.350000    288.000000
  0.350000 -0.250000 -0.250000    288.000000
  0.250000 -0.150000 -0.150000    288.000000
  0.150000 -0.050000 -0.050000    288.000000
  0.050000  0.050000  0.250000    288.000000
 -0.050000  0.150000  0.350000    576.000000
 -0.150000  0.250000  0.450000    576.000000
 -0.250000  0.350000  0.550000    576.000000
  0.650000 -0.550000 -0.350000    576.000000
  0.550000 -0.450000 -0.250000    576.000000
  0.450000 -0.350000 -0.150000    576.000000
  0.350000 -0.250000 -0.050000    576.000000
  0.250000 -0.150000  0.050000    576.000000
  0.050000  0.050000  0.450000    288.000000
 -0.050000  0.150000  0.550000    576.000000
 -0.150000  0.250000  0.650000    576.000000
  0.750000 -0.650000 -0.250000    576.000000
  0.650000 -0.550000 -0.150000    576.000000
  0.550000 -0.450000 -0.050000    576.000000
  0.450000 -0.350000  0.050000    576.000000
  0.350000 -0.250000  0.150000    576.000000
  0.050000  0.050000  0.650000    288.000000
 -0.050000  0.150000  0.750000    576.000000
  0.850000 -0.750000 -0.150000    576.000000
  0.750000 -0.650000 -0.050000    576.000000
  0.650000 -0.550000  0.050000    576.000000
  0.550000 -0.450000  0.150000    576.000000
  0.450000 -0.350000  0.250000    576.000000
  0.050000  0.050000  0.850000    288.000000
  0.950000 -0.850000 -0.050000    576.000000
  0.850000 -0.750000  0.050000    576.000000
  0.750000 -0.650000  0.150000    576.000000
  0.650000 -0.550000  0.250000    576.000000
  0.550000 -0.450000  0.350000    576.000000
  0.050000  0.050000 -0.950000    288.000000
 -0.050000  0.150000 -0.850000    576.000000
 -0.150000  0.250000 -0.750000    576.000000
 -0.250000  0.350000 -0.650000    576.000000
  0.050000  0.050000 -0.750000    288.000000
 -0.050000  0.150000 -0.650000    576.000000
 -0.150000  0.250000 -0.550000    576.000000
  0.050000  0.050000 -0.550000    288.000000
 -0.050000  0.150000 -0.450000    576.000000
  0.050000  0.050000 -0.350000    288.000000
  0.150000  0.150000  0.150000     96.000000
  0.050000  0.250000  0.250000    288.000000
 -0.050000  0.350000  0.350000    288.000000
 -0.150000  0.450000  0.450000    288.000000
  0.750000 -0.450000 -0.450000    288.000000
  0.650000 -0.350000 -0.350000    288.000000
  0.550000 -0.250000 -0.250000    288.000000
  0.450000 -0.150000 -0.150000    288.000000
  0.150000  0.150000  0.350000    288.000000
  0.050000  0.250000  0.450000    576.000000
 -0.050000  0.350000  0.550000    576.000000
  0.850000 -0.550000 -0.350000    576.000000
  0.750000 -0.450000 -0.250000    576.000000
  0.650000 -0.350000 -0.150000    576.000000
  0.550000 -0.250000 -0.050000    576.000000
  0.150000  0.150000  0.550000    288.000000
  0.050000  0.250000  0.650000    576.000000
  0.950000 -0.650000 -0.250000    576.000000
  0.850000 -0.550000 -0.150000    576.000000
  0.750000 -0.450000 -0.050000    576.000000
  0.650000 -0.350000  0.050000    576.000000
  0.150000  0.150000  0.750000    288.000000
  1.050000 -0.750000 -0.150000    576.000000
  0.950000 -0.650000 -0.050000    576.000000
  0.850000 -0.550000  0.050000    576.000000
  0.750000 -0.450000  0.150000    576.000000
  0.150000  0.150000 -1.050000    288.000000
  0.050000  0.250000 -0.950000    576.000000
 -0.050000  0.350000 -0.850000    576.000000
  0.150000  0.150000 -0.850000    288.000000
  0.050000  0.250000 -0.750000    576.000000
  0.150000  0.150000 -0.650000    288.000000
  0.250000  0.250000  0.250000     96.000000
  0.150000  0.350000  0.350000    288.000000
  0.050000  0.450000  0.450000    288.000000
  0.950000 -0.450000 -0.450000    288.000000
  0.850000 -0.350000 -0.350000    288.000000
  0.750000 -0.250000 -0.250000    288.000000
  0.250000  0.250000  0.450000    288.000000
  0.150000  0.350000  0.550000    576.000000
  1.050000 -0.550000 -0.350000    576.000000
  0.950000 -0.450000 -0.250000    576.000000
  0.850000 -0.350000 -0.150000    576.000000
  0.250000  0.250000  0.650000    288.000000
  1.150000 -0.650000 -0.250000    576.000000
  1.050000 -0.550000 -0.150000    576.000000
  0.950000 -0.450000 -0.050000    576.000000
  0.250000  0.250000 -1.150000    288.000000
  0.150000  0.350000 -1.050000    576.000000
  0.250000  0.250000 -0.950000    288.000000
  0.350000  0.350000  0.350000     96.000000
  0.250000  0.450000  0.450000    288.000000
  1.150000 -0.450000 -0.450000    288.000000
  1.050000 -0.350000 -0.350000    288.000000
  0.350000  0.350000  0.550000    288.000000
  1.250000 -0.550000 -0.350000    576.000000
  1.150000 -0.450000 -0.250000    576.000000
  0.350000  0.350000 -1.250000    288.000000
  0.450000  0.450000  0.450000     96.000000
  1.350000 -0.450000 -0.450000    288.000000
 


--------------------------------------------------------------------------------------------------------




 Dimension of arrays:
   k-points           NKPTS =    110   k-points in BZ     NKDIM =    110   number of bands    NBANDS=     12
   number of dos      NEDOS =    301   number of ions     NIONS =      1
   non local maximal  LDIM  =      6   non local SUM 2l+1 LMDIM =     18
   total plane-waves  NPLWV =   1000
   max r-space proj   IRMAX =      1   max aug-charges    IRDMAX=   4485
   dimension x,y,z NGX =    10 NGY =   10 NGZ =   10
   dimension x,y,z NGXF=    20 NGYF=   20 NGZF=   20
   support grid    NGXF=    20 NGYF=   20 NGZF=   20
   ions per type =               1
   NGX,Y,Z   is equivalent  to a cutoff of   6.11,  6.11,  6.11 a.u.
   NGXF,Y,Z  is equivalent  to a cutoff of  12.21, 12.21, 12.21 a.u.

 SYSTEM =  FCC Au                                  
 POSCAR =  FCC Au Bulk                             

 Startparameter for this run:
   NWRITE =      2    write-flag & timer
   PREC   = normal    normal or accurate (medium, high low for compatibility)
   ISTART =      1    job   : 0-new  1-cont  2-samecut
   ICHARG =      0    charge: 1-file 2-atom 10-const
   ISPIN  =      1    spin polarized calculation?
   LNONCOLLINEAR =      F non collinear calculations
   LSORBIT =      F    spin-orbit coupling
   INIWAV =      1    electr: 0-lowe 1-rand  2-diag
   LASPH  =      F    aspherical Exc in radial PAW
   METAGGA=      F    non-selfconsistent MetaGGA calc.

 Electronic Relaxation 1
   ENCUT  =  230.0 eV  16.90 Ry    4.11 a.u.   3.37  3.37  3.37*2*pi/ulx,y,z
   ENINI  =  230.0     initial cutoff
   ENAUG  =  356.7 eV  augmentation charge cutoff
   NELM   =     60;   NELMIN=  2; NELMDL=  0     # of ELM steps 
   EDIFF  = 0.1E-03   stopping-criterion for ELM
   LREAL  =      F    real-space projection
   NLSPLINE    = F    spline interpolate recip. space projectors
   LCOMPAT=      F    compatible to vasp.4.4
   GGA_COMPAT  = T    GGA compatible to vasp.4.4-vasp.4.6
   LMAXPAW     = -100 max onsite density
   LMAXMIX     =    2 max onsite mixed and CHGCAR
   VOSKOWN=      0    Vosko Wilk Nusair interpolation
   ROPT   =    0.00000
 Ionic relaxation
   EDIFFG = 0.1E-02   stopping-criterion for IOM
   NSW    =      0    number of steps for IOM
   NBLOCK =      1;   KBLOCK =      1    inner block; outer block 
   IBRION =     -1    ionic relax: 0-MD 1-quasi-New 2-CG
   NFREE  =      0    steps in history (QN), initial steepest desc. (CG)
   ISIF   =      2    stress and relaxation
   IWAVPR =     10    prediction:  0-non 1-charg 2-wave 3-comb
   ISYM   =      2    0-nonsym 1-usesym 2-fastsym
   LCORR  =      T    Harris-Foulkes like correction to forces

   POTIM  = 0.5000    time-step for ionic-motion
   TEIN   =    0.0    initial temperature
   TEBEG  =    0.0;   TEEND  =   0.0 temperature during run
   SMASS  =  -3.00    Nose mass-parameter (am)
   estimated Nose-frequenzy (Omega)   =  0.10E-29 period in steps =****** mass=  -0.169E-27a.u.
   SCALEE = 1.0000    scale energy and forces
   NPACO  =    256;   APACO  = 16.0  distance and # of slots for P.C.
   PSTRESS=    0.0 pullay stress

  Mass of Ions in am
   POMASS = 196.97
  Ionic Valenz
   ZVAL   =  11.00
  Atomic Wigner-Seitz radii
   RWIGS  =  -1.00
  virtual crystal weights 
   VCA    =   1.00
   NELECT =      11.0000    total number of electrons
   NUPDOWN=      -1.0000    fix difference up-down

 DOS related values:
   EMIN   =  10.00;   EMAX   =-10.00  energy-range for DOS
   EFERMI =   0.00
   ISMEAR =     1;   SIGMA  =   0.20  broadening in eV -4-tet -1-fermi 0-gaus

 Electronic relaxation 2 (details)
   IALGO  =     38    algorithm
   LDIAG  =      T    sub-space diagonalisation (order eigenvalues)
   LSUBROT=      F    optimize rotation matrix (better conditioning)
   TURBO    =      0    0=normal 1=particle mesh
   IRESTART =      0    0=no restart 2=restart with 2 vectors
   NREBOOT  =      0    no. of reboots
   NMIN     =      0    reboot dimension
   EREF     =   0.00    reference energy to select bands
   IMIX   =      4    mixing-type and parameters
     AMIX     =   0.40;   BMIX     =  1.00
     AMIX_MAG =   1.60;   BMIX_MAG =  1.00
     AMIN     =   0.10
     WC   =   100.;   INIMIX=   1;  MIXPRE=   1;  MAXMIX= -45

 Intra band minimization:
   WEIMIN = 0.0000     energy-eigenvalue tresh-hold
   EBREAK =  0.21E-05  absolut break condition
   DEPER  =   0.30     relativ break condition  

   TIME   =   0.40     timestep for ELM

  volume/ion in A,a.u.               =      14.27        96.28
  Fermi-wavevector in a.u.,A,eV,Ry     =   1.501176  2.836812 30.661135  2.253530
  Thomas-Fermi vector in A             =   2.612581
 
 Write flags
   LWAVE        =      T    write WAVECAR
   LDOWNSAMPLE  =      F    k-point downsampling of WAVECAR
   LCHARG       =      T    write CHGCAR
   LVTOT        =      F    write LOCPOT, total local potential
   LVHAR        =      F    write LOCPOT, Hartree potential only
   LELF         =      F    write electronic localiz. function (ELF)
   LORBIT       =      0    0 simple, 1 ext, 2 COOP (PROOUT), +10 PAW based schemes


 Dipole corrections
   LMONO  =      F    monopole corrections only (constant potential shift)
   LDIPOL =      F    correct potential (dipole corrections)
   IDIPOL =      0    1-x, 2-y, 3-z, 4-all directions 
   EPSILON=  1.0000000 bulk dielectric constant

 Exchange correlation treatment:
   GGA     =    --    GGA type
   LEXCH   =     2    internal setting for exchange type
   VOSKOWN=      0    Vosko Wilk Nusair interpolation
   LHFCALC =     F    Hartree Fock is set to
   LHFONE  =     F    Hartree Fock one center treatment
   AEXX    =    0.0000 exact exchange contribution

 Linear response parameters
   LEPSILON=     F    determine dielectric tensor
   LRPA    =     F    only Hartree local field effects (RPA)
   LNABLA  =     F    use nabla operator in PAW spheres
   LVEL    =     F    velocity operator in full k-point grid
   LINTERFAST=   F  fast interpolation
   KINTER  =     0    interpolate to denser k-point grid
   CSHIFT  =0.1000    complex shift for real part using Kramers Kronig
   OMEGAMAX=  -1.0    maximum frequency
   DEG_THRESHOLD= 0.2000000E-02 threshold for treating states as degnerate
   RTIME   =   -0.100 relaxation time in fs
  (WPLASMAI=    0.000 imaginary part of plasma frequency in eV, 0.658/RTIME)
   DFIELD  = 0.0000000 0.0000000 0.0000000 field for delta impulse in time
 
 Orbital magnetization related:
   ORBITALMAG=     F  switch on orbital magnetization
   LCHIMAG   =     F  perturbation theory with respect to B field
   DQ        =  0.001000  dq finite difference perturbation B field
   LLRAUG    =     F  two centre corrections for induced B field



--------------------------------------------------------------------------------------------------------


 Static calculation
 charge density and potential will be updated during run
 non-spin polarized calculation
 Variant of blocked Davidson
 Davidson routine will perform the subspace rotation
 perform sub-space diagonalisation
    after iterative eigenvector-optimisation
 modified Broyden-mixing scheme, WC =      100.0
 initial mixing is a Kerker type mixing with AMIX =  0.4000 and BMIX =      1.0000
 Hartree-type preconditioning will be used
 using additional bands            6
 reciprocal scheme for non local part
 use partial core corrections
 calculate Harris-corrections to forces 
   (improved forces if not selfconsistent)
 use of overlap-Matrix (Vanderbilt PP)
 Methfessel and Paxton  Order N= 1 SIGMA  =   0.20


--------------------------------------------------------------------------------------------------------


  energy-cutoff  :      230.00
  volume of cell :       14.27
      direct lattice vectors                 reciprocal lattice vectors
     0.000000000  1.925000000  1.925000000    -0.259740260  0.259740260  0.259740260
     1.925000000  0.000000000  1.925000000     0.259740260 -0.259740260  0.259740260
     1.925000000  1.925000000  0.000000000     0.259740260  0.259740260 -0.259740260

  length of vectors
     2.722361108  2.722361108  2.722361108     0.449883327  0.449883327  0.449883327


 
 old parameters found on file WAVECAR:
  energy-cutoff  :      287.34
  volume of cell :       14.27
      direct lattice vectors                 reciprocal lattice vectors
     0.000000000  1.925000000  1.925000000    -0.259740260  0.259740260  0.259740260
     1.925000000  0.000000000  1.925000000     0.259740260 -0.259740260  0.259740260
     1.925000000  1.925000000  0.000000000     0.259740260  0.259740260 -0.259740260

  length of vectors

 
 k-points in units of 2pi/SCALE and weight: 10x10x10                                
   0.05000000  0.05000000  0.05000000       0.002
  -0.05000000  0.15000000  0.15000000       0.006
  -0.15000000  0.25000000  0.25000000       0.006
  -0.25000000  0.35000000  0.35000000       0.006
  -0.35000000  0.45000000  0.45000000       0.006
   0.55000000 -0.45000000 -0.45000000       0.006
   0.45000000 -0.35000000 -0.35000000       0.006
   0.35000000 -0.25000000 -0.25000000       0.006
   0.25000000 -0.15000000 -0.15000000       0.006
   0.15000000 -0.05000000 -0.05000000       0.006
   0.05000000  0.05000000  0.25000000       0.006
  -0.05000000  0.15000000  0.35000000       0.012
  -0.15000000  0.25000000  0.45000000       0.012
  -0.25000000  0.35000000  0.55000000       0.012
   0.65000000 -0.55000000 -0.35000000       0.012
   0.55000000 -0.45000000 -0.25000000       0.012
   0.45000000 -0.35000000 -0.15000000       0.012
   0.35000000 -0.25000000 -0.05000000       0.012
   0.25000000 -0.15000000  0.05000000       0.012
   0.05000000  0.05000000  0.45000000       0.006
  -0.05000000  0.15000000  0.55000000       0.012
  -0.15000000  0.25000000  0.65000000       0.012
   0.75000000 -0.65000000 -0.25000000       0.012
   0.65000000 -0.55000000 -0.15000000       0.012
   0.55000000 -0.45000000 -0.05000000       0.012
   0.45000000 -0.35000000  0.05000000       0.012
   0.35000000 -0.25000000  0.15000000       0.012
   0.05000000  0.05000000  0.65000000       0.006
  -0.05000000  0.15000000  0.75000000       0.012
   0.85000000 -0.75000000 -0.15000000       0.012
   0.75000000 -0.65000000 -0.05000000       0.012
   0.65000000 -0.55000000  0.05000000       0.012
   0.55000000 -0.45000000  0.15000000       0.012
   0.45000000 -0.35000000  0.25000000       0.012
   0.05000000  0.05000000  0.85000000       0.006
   0.95000000 -0.85000000 -0.05000000       0.012
   0.85000000 -0.75000000  0.05000000       0.012
   0.75000000 -0.65000000  0.15000000       0.012
   0.65000000 -0.55000000  0.25000000       0.012
   0.55000000 -0.45000000  0.35000000       0.012
   0.05000000  0.05000000 -0.95000000       0.006
  -0.05000000  0.15000000 -0.85000000       0.012
  -0.15000000  0.25000000 -0.75000000       0.012
  -0.25000000  0.35000000 -0.65000000       0.012
   0.05000000  0.05000000 -0.75000000       0.006
  -0.05000000  0.15000000 -0.65000000       0.012
  -0.15000000  0.25000000 -0.55000000       0.012
   0.05000000  0.05000000 -0.55000000       0.006
  -0.05000000  0.15000000 -0.45000000       0.012
   0.05000000  0.05000000 -0.35000000       0.006
   0.15000000  0.15000000  0.15000000       0.002
   0.05000000  0.25000000  0.25000000       0.006
  -0.05000000  0.35000000  0.35000000       0.006
  -0.15000000  0.45000000  0.45000000       0.006
   0.75000000 -0.45000000 -0.45000000       0.006
   0.65000000 -0.35000000 -0.35000000       0.006
   0.55000000 -0.25000000 -0.25000000       0.006
   0.45000000 -0.15000000 -0.15000000       0.006
   0.15000000  0.15000000  0.35000000       0.006
   0.05000000  0.25000000  0.45000000       0.012
  -0.05000000  0.35000000  0.55000000       0.012
   0.85000000 -0.55000000 -0.35000000       0.012
   0.75000000 -0.45000000 -0.25000000       0.012
   0.65000000 -0.35000000 -0.15000000       0.012
   0.55000000 -0.25000000 -0.05000000       0.012
   0.15000000  0.15000000  0.55000000       0.006
   0.05000000  0.25000000  0.65000000       0.012
   0.95000000 -0.65000000 -0.25000000       0.012
   0.85000000 -0.55000000 -0.15000000       0.012
   0.75000000 -0.45000000 -0.05000000       0.012
   0.65000000 -0.35000000  0.05000000       0.012
   0.15000000  0.15000000  0.75000000       0.006
   1.05000000 -0.75000000 -0.15000000       0.012
   0.95000000 -0.65000000 -0.05000000       0.012
   0.85000000 -0.55000000  0.05000000       0.012
   0.75000000 -0.45000000  0.15000000       0.012
   0.15000000  0.15000000 -1.05000000       0.006
   0.05000000  0.25000000 -0.95000000       0.012
  -0.05000000  0.35000000 -0.85000000       0.012
   0.15000000  0.15000000 -0.85000000       0.006
   0.05000000  0.25000000 -0.75000000       0.012
   0.15000000  0.15000000 -0.65000000       0.006
   0.25000000  0.25000000  0.25000000       0.002
   0.15000000  0.35000000  0.35000000       0.006
   0.05000000  0.45000000  0.45000000       0.006
   0.95000000 -0.45000000 -0.45000000       0.006
   0.85000000 -0.35000000 -0.35000000       0.006
   0.75000000 -0.25000000 -0.25000000       0.006
   0.25000000  0.25000000  0.45000000       0.006
   0.15000000  0.35000000  0.55000000       0.012
   1.05000000 -0.55000000 -0.35000000       0.012
   0.95000000 -0.45000000 -0.25000000       0.012
   0.85000000 -0.35000000 -0.15000000       0.012
   0.25000000  0.25000000  0.65000000       0.006
   1.15000000 -0.65000000 -0.25000000       0.012
   1.05000000 -0.55000000 -0.15000000       0.012
   0.95000000 -0.45000000 -0.05000000       0.012
   0.25000000  0.25000000 -1.15000000       0.006
   0.15000000  0.35000000 -1.05000000       0.012
   0.25000000  0.25000000 -0.95000000       0.006
   0.35000000  0.35000000  0.35000000       0.002
   0.25000000  0.45000000  0.45000000       0.006
   1.15000000 -0.45000000 -0.45000000       0.006
   1.05000000 -0.35000000 -0.35000000       0.006
   0.35000000  0.35000000  0.55000000       0.006
   1.25000000 -0.55000000 -0.35000000       0.012
   1.15000000 -0.45000000 -0.25000000       0.012
   0.35000000  0.35000000 -1.25000000       0.006
   0.45000000  0.45000000  0.45000000       0.002
   1.35000000 -0.45000000 -0.45000000       0.006
 
 k-points in reciprocal lattice and weights: 10x10x10                                
   0.05000000  0.05000000  0.05000000       0.002
   0.15000000  0.05000000  0.05000000       0.006
   0.25000000  0.05000000  0.05000000       0.006
   0.35000000  0.05000000  0.05000000       0.006
   0.45000000  0.05000000  0.05000000       0.006
  -0.45000000  0.05000000  0.05000000       0.006
  -0.35000000  0.05000000  0.05000000       0.006
  -0.25000000  0.05000000  0.05000000       0.006
  -0.15000000  0.05000000  0.05000000       0.006
  -0.05000000  0.05000000  0.05000000       0.006
   0.15000000  0.15000000  0.05000000       0.006
   0.25000000  0.15000000  0.05000000       0.012
   0.35000000  0.15000000  0.05000000       0.012
   0.45000000  0.15000000  0.05000000       0.012
  -0.45000000  0.15000000  0.05000000       0.012
  -0.35000000  0.15000000  0.05000000       0.012
  -0.25000000  0.15000000  0.05000000       0.012
  -0.15000000  0.15000000  0.05000000       0.012
  -0.05000000  0.15000000  0.05000000       0.012
   0.25000000  0.25000000  0.05000000       0.006
   0.35000000  0.25000000  0.05000000       0.012
   0.45000000  0.25000000  0.05000000       0.012
  -0.45000000  0.25000000  0.05000000       0.012
  -0.35000000  0.25000000  0.05000000       0.012
  -0.25000000  0.25000000  0.05000000       0.012
  -0.15000000  0.25000000  0.05000000       0.012
  -0.05000000  0.25000000  0.05000000       0.012
   0.35000000  0.35000000  0.05000000       0.006
   0.45000000  0.35000000  0.05000000       0.012
  -0.45000000  0.35000000  0.05000000       0.012
  -0.35000000  0.35000000  0.05000000       0.012
  -0.25000000  0.35000000  0.05000000       0.012
  -0.15000000  0.35000000  0.05000000       0.012
  -0.05000000  0.35000000  0.05000000       0.012
   0.45000000  0.45000000  0.05000000       0.006
  -0.45000000  0.45000000  0.05000000       0.012
  -0.35000000  0.45000000  0.05000000       0.012
  -0.25000000  0.45000000  0.05000000       0.012
  -0.15000000  0.45000000  0.05000000       0.012
  -0.05000000  0.45000000  0.05000000       0.012
  -0.45000000 -0.45000000  0.05000000       0.006
  -0.35000000 -0.45000000  0.05000000       0.012
  -0.25000000 -0.45000000  0.05000000       0.012
  -0.15000000 -0.45000000  0.05000000       0.012
  -0.35000000 -0.35000000  0.05000000       0.006
  -0.25000000 -0.35000000  0.05000000       0.012
  -0.15000000 -0.35000000  0.05000000       0.012
  -0.25000000 -0.25000000  0.05000000       0.006
  -0.15000000 -0.25000000  0.05000000       0.012
  -0.15000000 -0.15000000  0.05000000       0.006
   0.15000000  0.15000000  0.15000000       0.002
   0.25000000  0.15000000  0.15000000       0.006
   0.35000000  0.15000000  0.15000000       0.006
   0.45000000  0.15000000  0.15000000       0.006
  -0.45000000  0.15000000  0.15000000       0.006
  -0.35000000  0.15000000  0.15000000       0.006
  -0.25000000  0.15000000  0.15000000       0.006
  -0.15000000  0.15000000  0.15000000       0.006
   0.25000000  0.25000000  0.15000000       0.006
   0.35000000  0.25000000  0.15000000       0.012
   0.45000000  0.25000000  0.15000000       0.012
  -0.45000000  0.25000000  0.15000000       0.012
  -0.35000000  0.25000000  0.15000000       0.012
  -0.25000000  0.25000000  0.15000000       0.012
  -0.15000000  0.25000000  0.15000000       0.012
   0.35000000  0.35000000  0.15000000       0.006
   0.45000000  0.35000000  0.15000000       0.012
  -0.45000000  0.35000000  0.15000000       0.012
  -0.35000000  0.35000000  0.15000000       0.012
  -0.25000000  0.35000000  0.15000000       0.012
  -0.15000000  0.35000000  0.15000000       0.012
   0.45000000  0.45000000  0.15000000       0.006
  -0.45000000  0.45000000  0.15000000       0.012
  -0.35000000  0.45000000  0.15000000       0.012
  -0.25000000  0.45000000  0.15000000       0.012
  -0.15000000  0.45000000  0.15000000       0.012
  -0.45000000 -0.45000000  0.15000000       0.006
  -0.35000000 -0.45000000  0.15000000       0.012
  -0.25000000 -0.45000000  0.15000000       0.012
  -0.35000000 -0.35000000  0.15000000       0.006
  -0.25000000 -0.35000000  0.15000000       0.012
  -0.25000000 -0.25000000  0.15000000       0.006
   0.25000000  0.25000000  0.25000000       0.002
   0.35000000  0.25000000  0.25000000       0.006
   0.45000000  0.25000000  0.25000000       0.006
  -0.45000000  0.25000000  0.25000000       0.006
  -0.35000000  0.25000000  0.25000000       0.006
  -0.25000000  0.25000000  0.25000000       0.006
   0.35000000  0.35000000  0.25000000       0.006
   0.45000000  0.35000000  0.25000000       0.012
  -0.45000000  0.35000000  0.25000000       0.012
  -0.35000000  0.35000000  0.25000000       0.012
  -0.25000000  0.35000000  0.25000000       0.012
   0.45000000  0.45000000  0.25000000       0.006
  -0.45000000  0.45000000  0.25000000       0.012
  -0.35000000  0.45000000  0.25000000       0.012
  -0.25000000  0.45000000  0.25000000       0.012
  -0.45000000 -0.45000000  0.25000000       0.006
  -0.35000000 -0.45000000  0.25000000       0.012
  -0.35000000 -0.35000000  0.25000000       0.006
   0.35000000  0.35000000  0.35000000       0.002
   0.45000000  0.35000000  0.35000000       0.006
  -0.45000000  0.35000000  0.35000000       0.006
  -0.35000000  0.35000000  0.35000000       0.006
   0.45000000  0.45000000  0.35000000       0.006
  -0.45000000  0.45000000  0.35000000       0.012
  -0.35000000  0.45000000  0.35000000       0.012
  -0.45000000 -0.45000000  0.35000000       0.006
   0.45000000  0.45000000  0.45000000       0.002
  -0.45000000  0.45000000  0.45000000       0.006
 
 position of ions in fractional coordinates (direct lattice) 
   0.00000000  0.00000000  0.00000000
 
 position of ions in cartesian coordinates  (Angst):
   0.00000000  0.00000000  0.00000000
 


--------------------------------------------------------------------------------------------------------


 k-point  1 :   0.0500 0.0500 0.0500  plane waves:     113
 k-point  2 :   0.1500 0.0500 0.0500  plane waves:     118
 k-point  3 :   0.2500 0.0500 0.0500  plane waves:     116
 k-point  4 :   0.3500 0.0500 0.0500  plane waves:     115
 k-point  5 :   0.4500 0.0500 0.0500  plane waves:     112
 k-point  6 :  -0.4500 0.0500 0.0500  plane waves:     114
 k-point  7 :  -0.3500 0.0500 0.0500  plane waves:     114
 k-point  8 :  -0.2500 0.0500 0.0500  plane waves:     114
 k-point  9 :  -0.1500 0.0500 0.0500  plane waves:     118
 k-point 10 :  -0.0500 0.0500 0.0500  plane waves:     114
 k-point 11 :   0.1500 0.1500 0.0500  plane waves:     119
 k-point 12 :   0.2500 0.1500 0.0500  plane waves:     117
 k-point 13 :   0.3500 0.1500 0.0500  plane waves:     114
 k-point 14 :   0.4500 0.1500 0.0500  plane waves:     113
 k-point 15 :  -0.4500 0.1500 0.0500  plane waves:     113
 k-point 16 :  -0.3500 0.1500 0.0500  plane waves:     113
 k-point 17 :  -0.2500 0.1500 0.0500  plane waves:     113
 k-point 18 :  -0.1500 0.1500 0.0500  plane waves:     115
 k-point 19 :  -0.0500 0.1500 0.0500  plane waves:     118
 k-point 20 :   0.2500 0.2500 0.0500  plane waves:     120
 k-point 21 :   0.3500 0.2500 0.0500  plane waves:     117
 k-point 22 :   0.4500 0.2500 0.0500  plane waves:     113
 k-point 23 :  -0.4500 0.2500 0.0500  plane waves:     114
 k-point 24 :  -0.3500 0.2500 0.0500  plane waves:     114
 k-point 25 :  -0.2500 0.2500 0.0500  plane waves:     112
 k-point 26 :  -0.1500 0.2500 0.0500  plane waves:     115
 k-point 27 :  -0.0500 0.2500 0.0500  plane waves:     113
 k-point 28 :   0.3500 0.3500 0.0500  plane waves:     115
 k-point 29 :   0.4500 0.3500 0.0500  plane waves:     115
 k-point 30 :  -0.4500 0.3500 0.0500  plane waves:     109
 k-point 31 :  -0.3500 0.3500 0.0500  plane waves:     109
 k-point 32 :  -0.2500 0.3500 0.0500  plane waves:     112
 k-point 33 :  -0.1500 0.3500 0.0500  plane waves:     114
 k-point 34 :  -0.0500 0.3500 0.0500  plane waves:     112
 k-point 35 :   0.4500 0.4500 0.0500  plane waves:     115
 k-point 36 :  -0.4500 0.4500 0.0500  plane waves:     113
 k-point 37 :  -0.3500 0.4500 0.0500  plane waves:     109
 k-point 38 :  -0.2500 0.4500 0.0500  plane waves:     111
 k-point 39 :  -0.1500 0.4500 0.0500  plane waves:     112
 k-point 40 :  -0.0500 0.4500 0.0500  plane waves:     113
 k-point 41 :  -0.4500-0.4500 0.0500  plane waves:     115
 k-point 42 :  -0.3500-0.4500 0.0500  plane waves:     113
 k-point 43 :  -0.2500-0.4500 0.0500  plane waves:     112
 k-point 44 :  -0.1500-0.4500 0.0500  plane waves:     114
 k-point 45 :  -0.3500-0.3500 0.0500  plane waves:     114
 k-point 46 :  -0.2500-0.3500 0.0500  plane waves:     115
 k-point 47 :  -0.1500-0.3500 0.0500  plane waves:     114
 k-point 48 :  -0.2500-0.2500 0.0500  plane waves:     117
 k-point 49 :  -0.1500-0.2500 0.0500  plane waves:     117
 k-point 50 :  -0.1500-0.1500 0.0500  plane waves:     117
 k-point 51 :   0.1500 0.1500 0.1500  plane waves:     116
 k-point 52 :   0.2500 0.1500 0.1500  plane waves:     117
 k-point 53 :   0.3500 0.1500 0.1500  plane waves:     113
 k-point 54 :   0.4500 0.1500 0.1500  plane waves:     114
 k-point 55 :  -0.4500 0.1500 0.1500  plane waves:     111
 k-point 56 :  -0.3500 0.1500 0.1500  plane waves:     115
 k-point 57 :  -0.2500 0.1500 0.1500  plane waves:     112
 k-point 58 :  -0.1500 0.1500 0.1500  plane waves:     114
 k-point 59 :   0.2500 0.2500 0.1500  plane waves:     117
 k-point 60 :   0.3500 0.2500 0.1500  plane waves:     115
 k-point 61 :   0.4500 0.2500 0.1500  plane waves:     113
 k-point 62 :  -0.4500 0.2500 0.1500  plane waves:     114
 k-point 63 :  -0.3500 0.2500 0.1500  plane waves:     114
 k-point 64 :  -0.2500 0.2500 0.1500  plane waves:     114
 k-point 65 :  -0.1500 0.2500 0.1500  plane waves:     116
 k-point 66 :   0.3500 0.3500 0.1500  plane waves:     116
 k-point 67 :   0.4500 0.3500 0.1500  plane waves:     115
 k-point 68 :  -0.4500 0.3500 0.1500  plane waves:     110
 k-point 69 :  -0.3500 0.3500 0.1500  plane waves:     112
 k-point 70 :  -0.2500 0.3500 0.1500  plane waves:     110
 k-point 71 :  -0.1500 0.3500 0.1500  plane waves:     113
 k-point 72 :   0.4500 0.4500 0.1500  plane waves:     113
 k-point 73 :  -0.4500 0.4500 0.1500  plane waves:     109
 k-point 74 :  -0.3500 0.4500 0.1500  plane waves:     109
 k-point 75 :  -0.2500 0.4500 0.1500  plane waves:     110
 k-point 76 :  -0.1500 0.4500 0.1500  plane waves:     113
 k-point 77 :  -0.4500-0.4500 0.1500  plane waves:     110
 k-point 78 :  -0.3500-0.4500 0.1500  plane waves:     108
 k-point 79 :  -0.2500-0.4500 0.1500  plane waves:     109
 k-point 80 :  -0.3500-0.3500 0.1500  plane waves:     110
 k-point 81 :  -0.2500-0.3500 0.1500  plane waves:     112
 k-point 82 :  -0.2500-0.2500 0.1500  plane waves:     116
 k-point 83 :   0.2500 0.2500 0.2500  plane waves:     113
 k-point 84 :   0.3500 0.2500 0.2500  plane waves:     111
 k-point 85 :   0.4500 0.2500 0.2500  plane waves:     115
 k-point 86 :  -0.4500 0.2500 0.2500  plane waves:     113
 k-point 87 :  -0.3500 0.2500 0.2500  plane waves:     112
 k-point 88 :  -0.2500 0.2500 0.2500  plane waves:     110
 k-point 89 :   0.3500 0.3500 0.2500  plane waves:     109
 k-point 90 :   0.4500 0.3500 0.2500  plane waves:     114
 k-point 91 :  -0.4500 0.3500 0.2500  plane waves:     112
 k-point 92 :  -0.3500 0.3500 0.2500  plane waves:     110
 k-point 93 :  -0.2500 0.3500 0.2500  plane waves:     109
 k-point 94 :   0.4500 0.4500 0.2500  plane waves:     113
 k-point 95 :  -0.4500 0.4500 0.2500  plane waves:     113
 k-point 96 :  -0.3500 0.4500 0.2500  plane waves:     111
 k-point 97 :  -0.2500 0.4500 0.2500  plane waves:     109
 k-point 98 :  -0.4500-0.4500 0.2500  plane waves:     110
 k-point 99 :  -0.3500-0.4500 0.2500  plane waves:     109
 k-point ** :  -0.3500-0.3500 0.2500  plane waves:     110
 k-point ** :   0.3500 0.3500 0.3500  plane waves:     114
 k-point ** :   0.4500 0.3500 0.3500  plane waves:     113
 k-point ** :  -0.4500 0.3500 0.3500  plane waves:     109
 k-point ** :  -0.3500 0.3500 0.3500  plane waves:     112
 k-point ** :   0.4500 0.4500 0.3500  plane waves:     115
 k-point ** :  -0.4500 0.4500 0.3500  plane waves:     115
 k-point ** :  -0.3500 0.4500 0.3500  plane waves:     112
 k-point ** :  -0.4500-0.4500 0.3500  plane waves:     112
 k-point ** :   0.4500 0.4500 0.4500  plane waves:     114
 k-point ** :  -0.4500 0.4500 0.4500  plane waves:     114

 maximum and minimum number of plane-waves per node :       120      108

 maximum number of plane-waves:       120
 maximum index in each direction: 
   IXMAX=    3   IYMAX=    3   IZMAX=    3
   IXMIN=   -3   IYMIN=   -3   IZMIN=   -3


 serial   3D FFT for wavefunctions
 parallel 3D FFT for charge:
    minimum data exchange during FFTs selected (reduces bandwidth)


 total amount of memory used by VASP MPI-rank0    32990. kBytes
=======================================================================

   base      :      30000. kBytes
   nonl-proj :       1902. kBytes
   fftplans  :        142. kBytes
   grid      :        192. kBytes
   one-center:         15. kBytes
   wavefun   :        739. kBytes
 
     INWAV:  cpu time    0.0201: real time    0.0387
 Broyden mixing: mesh for mixing (old mesh)
   NGX =  7   NGY =  7   NGZ =  7
  (NGX  = 20   NGY  = 20   NGZ  = 20)
  gives a total of    343 points

 charge density for first step will be calculated from the start-wavefunctions


--------------------------------------------------------------------------------------------------------


 Maximum index for augmentation-charges         1033 (set IRDMAX)


--------------------------------------------------------------------------------------------------------


 initial charge from wavefunction
 First call to EWALD:  gamma=   0.731
 Maximum number of real-space cells 3x 3x 3
 Maximum number of reciprocal cells 3x 3x 3

    FEWALD:  cpu time    0.0014: real time    0.0076


--------------------------------------- Iteration      1(   1)  ---------------------------------------


    POTLOK:  cpu time    0.0015: real time    0.1927
    SETDIJ:  cpu time    0.0014: real time    0.0013
     EDDAV:  cpu time    0.2807: real time    0.8300
       DOS:  cpu time    0.0014: real time    0.0014
    CHARGE:  cpu time    0.0028: real time    0.0072
    MIXING:  cpu time    0.0005: real time    0.0004
    --------------------------------------------
      LOOP:  cpu time    0.2882: real time    1.0330

 eigenvalue-minimisations  :  3064
 total energy-change (2. order) :-0.8877556E+01  (-0.7301859E+01)
 number of electron      10.9999928 magnetization 
 augmentation part        3.3147389 magnetization 

 Broyden mixing:
  rms(total) = 0.12599E+01    rms(broyden)= 0.12597E+01
  rms(prec ) = 0.46830E+01
  weight for this iteration     100.00

 Free energy of the ion-electron system (eV)
  ---------------------------------------------------
  alpha Z        PSCENC =       128.82341228
  Ewald energy   TEWEN  =     -1037.47345503
  -Hartree energ DENC   =      -122.77884415
  -exchange      EXHF   =         0.00000000
  -V(xc)+E(xc)   XCENC  =        17.99448299
  PAW double counting   =       826.16114012     -810.25937099
  entropy T*S    EENTRO =        -0.00195249
  eigenvalues    EBANDS =        59.26069953
  atomic energy  EATOM  =       929.39633208
  Solvation  Ediel_sol  =         0.00000000
  ---------------------------------------------------
  free energy    TOTEN  =        -8.87755565 eV

  energy without entropy =       -8.87560316  energy(sigma->0) =       -8.87690482


--------------------------------------------------------------------------------------------------------




--------------------------------------- Iteration      1(   2)  ---------------------------------------


    POTLOK:  cpu time    0.0023: real time    0.0120
    SETDIJ:  cpu time    0.0007: real time    0.0012
     EDDAV:  cpu time    0.2909: real time    0.8763
       DOS:  cpu time    0.0015: real time    0.0037
    CHARGE:  cpu time    0.0028: real time    0.0119
    MIXING:  cpu time    0.0003: real time    0.0003
    --------------------------------------------
      LOOP:  cpu time    0.2984: real time    0.9054

 eigenvalue-minimisations  :  2952
 total energy-change (2. order) : 0.4523021E+01  (-0.9744229E+00)
 number of electron      10.9999917 magnetization 
 augmentation part        3.8025343 magnetization 

 Broyden mixing:
  rms(total) = 0.31600E+00    rms(broyden)= 0.31597E+00
  rms(prec ) = 0.11073E+01
  weight for this iteration     100.00

 eigenvalues of (default mixing * dielectric matrix)
  average eigenvalue GAMMA=   1.3318
  1.3318

 Free energy of the ion-electron system (eV)
  ---------------------------------------------------
  alpha Z        PSCENC =       128.82341228
  Ewald energy   TEWEN  =     -1037.47345503
  -Hartree energ DENC   =       -96.82279937
  -exchange      EXHF   =         0.00000000
  -V(xc)+E(xc)   XCENC  =        16.68023542
  PAW double counting   =       788.91636630     -773.14631855
  entropy T*S    EENTRO =        -0.00075455
  eigenvalues    EBANDS =        39.27244715
  atomic energy  EATOM  =       929.39633208
  Solvation  Ediel_sol  =         0.00000000
  ---------------------------------------------------
  free energy    TOTEN  =        -4.35453427 eV

  energy without entropy =       -4.35377972  energy(sigma->0) =       -4.35428275


--------------------------------------------------------------------------------------------------------




--------------------------------------- Iteration      1(   3)  ---------------------------------------


    POTLOK:  cpu time    0.0010: real time    0.0011
    SETDIJ:  cpu time    0.0007: real time    0.0035
     EDDAV:  cpu time    0.3199: real time    0.9724
       DOS:  cpu time    0.0016: real time    0.0029
    CHARGE:  cpu time    0.0028: real time    0.0058
    MIXING:  cpu time    0.0004: real time    0.0057
    --------------------------------------------
      LOOP:  cpu time    0.3264: real time    0.9914

 eigenvalue-minimisations  :  3144
 total energy-change (2. order) : 0.2809993E+00  (-0.1152012E+00)
 number of electron      10.9999914 magnetization 
 augmentation part        3.9666245 magnetization 

 Broyden mixing:
  rms(total) = 0.27334E-01    rms(broyden)= 0.27123E-01
  rms(prec ) = 0.78190E-01
  weight for this iteration     100.00

 eigenvalues of (default mixing * dielectric matrix)
  average eigenvalue GAMMA=   1.7402
  1.3573  2.1231

 Free energy of the ion-electron system (eV)
  ---------------------------------------------------
  alpha Z        PSCENC =       128.82341228
  Ewald energy   TEWEN  =     -1037.47345503
  -Hartree energ DENC   =       -89.54974108
  -exchange      EXHF   =         0.00000000
  -V(xc)+E(xc)   XCENC  =        16.32811488
  PAW double counting   =       781.89002576     -765.74437232
  entropy T*S    EENTRO =        -0.00042236
  eigenvalues    EBANDS =        32.25657083
  atomic energy  EATOM  =       929.39633208
  Solvation  Ediel_sol  =         0.00000000
  ---------------------------------------------------
  free energy    TOTEN  =        -4.07353495 eV

  energy without entropy =       -4.07311259  energy(sigma->0) =       -4.07339417


--------------------------------------------------------------------------------------------------------




--------------------------------------- Iteration      1(   4)  ---------------------------------------


    POTLOK:  cpu time    0.0021: real time    0.0056
    SETDIJ:  cpu time    0.0005: real time    0.0029
     EDDAV:  cpu time    0.3130: real time    0.9458
       DOS:  cpu time    0.0028: real time    0.0066
    CHARGE:  cpu time    0.0028: real time    0.0071
    MIXING:  cpu time    0.0004: real time    0.0004
    --------------------------------------------
      LOOP:  cpu time    0.3215: real time    0.9685

 eigenvalue-minimisations  :  2828
 total energy-change (2. order) :-0.3499224E-02  (-0.9056249E-03)
 number of electron      10.9999914 magnetization 
 augmentation part        3.9620852 magnetization 

 Broyden mixing:
  rms(total) = 0.10707E-01    rms(broyden)= 0.10689E-01
  rms(prec ) = 0.23075E-01
  weight for this iteration     100.00

 eigenvalues of (default mixing * dielectric matrix)
  average eigenvalue GAMMA=   1.7174
  1.1290  1.2633  2.7598

 Free energy of the ion-electron system (eV)
  ---------------------------------------------------
  alpha Z        PSCENC =       128.82341228
  Ewald energy   TEWEN  =     -1037.47345503
  -Hartree energ DENC   =       -90.29685296
  -exchange      EXHF   =         0.00000000
  -V(xc)+E(xc)   XCENC  =        16.36901169
  PAW double counting   =       788.10604149     -771.53200314
  entropy T*S    EENTRO =        -0.00043023
  eigenvalues    EBANDS =        32.53090964
  atomic energy  EATOM  =       929.39633208
  Solvation  Ediel_sol  =         0.00000000
  ---------------------------------------------------
  free energy    TOTEN  =        -4.07703418 eV

  energy without entropy =       -4.07660395  energy(sigma->0) =       -4.07689077


--------------------------------------------------------------------------------------------------------




--------------------------------------- Iteration      1(   5)  ---------------------------------------


    POTLOK:  cpu time    0.0013: real time    0.0054
    SETDIJ:  cpu time    0.0004: real time    0.0025
     EDDAV:  cpu time    0.3441: real time    1.0192
       DOS:  cpu time    0.0013: real time    0.0013
    --------------------------------------------
      LOOP:  cpu time    0.3471: real time    1.0284

 eigenvalue-minimisations  :  3180
 total energy-change (2. order) : 0.3836118E-04  (-0.7425290E-04)
 number of electron      10.9999914 magnetization 
 augmentation part        3.9620852 magnetization 

 Free energy of the ion-electron system (eV)
  ---------------------------------------------------
  alpha Z        PSCENC =       128.82341228
  Ewald energy   TEWEN  =     -1037.47345503
  -Hartree energ DENC   =       -90.28416653
  -exchange      EXHF   =         0.00000000
  -V(xc)+E(xc)   XCENC  =        16.37014389
  PAW double counting   =       789.95715660     -773.23088004
  entropy T*S    EENTRO =        -0.00041674
  eigenvalues    EBANDS =        32.36487767
  atomic energy  EATOM  =       929.39633208
  Solvation  Ediel_sol  =         0.00000000
  ---------------------------------------------------
  free energy    TOTEN  =        -4.07699582 eV

  energy without entropy =       -4.07657907  energy(sigma->0) =       -4.07685690


--------------------------------------------------------------------------------------------------------




 average (electrostatic) potential at core
  the test charge radii are     1.2098
  (the norm of the test charge is              1.0000)
       1 -43.9051
 
 
 
 E-fermi :   8.2760     XC(G=0): -14.0319     alpha+bet :-12.2930


 k-point     1 :       0.0500    0.0500    0.0500
  band No.  band energies     occupation 
      1      -3.7237      2.00000
      2       2.2948      2.00000
      3       2.3767      2.00000
      4       2.3767      2.00000
      5       4.4115      2.00000
      6       4.4115      2.00000
      7      23.5082      0.00000
      8      27.6001      0.00000
      9      28.4458      0.00000
     10      28.4458      0.00000
     11      33.6785      0.00000
     12      38.4189      0.00000

 k-point     2 :       0.1500    0.0500    0.0500
  band No.  band energies     occupation 
      1      -3.1889      2.00000
      2       2.0792      2.00000
      3       2.5591      2.00000
      4       2.6006      2.00000
      5       4.1981      2.00000
      6       4.4735      2.00000
      7      24.1718      0.00000
      8      25.5455      0.00000
      9      28.3389      0.00000
     10      29.5712      0.00000
     11      34.0138      0.00000
     12      36.9112      0.00000

 k-point     3 :       0.2500    0.0500    0.0500
  band No.  band energies     occupation 
      1      -2.0587      2.00000
      2       1.9083      2.00000
      3       2.7529      2.00000
      4       2.7867      2.00000
      5       4.2021      2.00000
      6       4.7556      2.00000
      7      22.0219      0.00000
      8      24.9691      0.00000
      9      29.0616      0.00000
     10      31.2938      0.00000
     11      31.4891      0.00000
     12      34.6146      0.00000

 k-point     4 :       0.3500    0.0500    0.0500
  band No.  band energies     occupation 
      1      -1.1306      2.00000
      2       2.5048      2.00000
      3       2.6253      2.00000
      4       2.7295      2.00000
      5       4.8619      2.00000
      6       5.5149      2.00000
      7      17.9997      0.00000
      8      24.1103      0.00000
      9      28.2596      0.00000
     10      30.7745      0.00000
     11      32.4644      0.00000
     12      34.0260      0.00000

 k-point     5 :       0.4500    0.0500    0.0500
  band No.  band energies     occupation 
      1      -0.9562      2.00000
      2       2.3043      2.00000
      3       2.4015      2.00000
      4       4.5393      2.00000
      5       5.6894      2.00000
      6       6.4899      2.00000
      7      14.0267      0.00000
      8      23.0757      0.00000
      9      27.0087      0.00000
     10      28.2099      0.00000
     11      34.9656      0.00000
     12      35.6221      0.00000

 k-point     6 :      -0.4500    0.0500    0.0500
  band No.  band energies     occupation 
      1      -0.9679      2.00000
      2       2.2147      2.00000
      3       2.3472      2.00000
      4       5.1815      2.00000
      5       6.0874      2.00000
      6       7.1446      2.00000
      7      12.3656     -0.00000
      8      22.7959      0.00000
      9      26.9958      0.00000
     10      27.0883      0.00000
     11      35.8313      0.00000
     12      35.9621      0.00000

 k-point     7 :      -0.3500    0.0500    0.0500
  band No.  band energies     occupation 
      1      -0.9686      2.00000
      2       2.3450      2.00000
      3       2.4953      2.00000
      4       3.8486      2.00000
      5       5.8050      2.00000
      6       5.8416      2.00000
      7      15.2574      0.00000
      8      23.3606      0.00000
      9      27.5999      0.00000
     10      28.5431      0.00000
     11      34.9449      0.00000
     12      35.7390      0.00000

 k-point     8 :      -0.2500    0.0500    0.0500
  band No.  band energies     occupation 
      1      -1.3507      2.00000
      2       2.2188      2.00000
      3       2.6381      2.00000
      4       2.7297      2.00000
      5       4.7304      2.00000
      6       5.1116      2.00000
      7      19.3891      0.00000
      8      24.5509      0.00000
      9      28.8895      0.00000
     10      30.7953      0.00000
     11      32.3474      0.00000
     12      34.2859      0.00000

 k-point     9 :      -0.1500    0.0500    0.0500
  band No.  band energies     occupation 
      1      -2.4683      2.00000
      2       1.8986      2.00000
      3       2.7453      2.00000
      4       2.7642      2.00000
      5       4.1437      2.00000
      6       4.5901      2.00000
      7      23.2553      0.00000
      8      24.9158      0.00000
      9      28.9713      0.00000
     10      30.2265      0.00000
     11      32.5398      0.00000
     12      35.0899      0.00000

 k-point    10 :      -0.0500    0.0500    0.0500
  band No.  band energies     occupation 
      1      -3.4510      2.00000
      2       2.1458      2.00000
      3       2.5020      2.00000
      4       2.5103      2.00000
      5       4.2345      2.00000
      6       4.4891      2.00000
      7      23.8781      0.00000
      8      26.6495      0.00000
      9      28.3551      0.00000
     10      28.6712      0.00000
     11      34.8349      0.00000
     12      37.3925      0.00000

 k-point    11 :       0.1500    0.1500    0.0500
  band No.  band energies     occupation 
      1      -2.9242      2.00000
      2       1.8502      2.00000
      3       2.7645      2.00000
      4       2.7711      2.00000
      5       3.9251      2.00000
      6       4.6372      2.00000
      7      24.5587      0.00000
      8      25.7549      0.00000
      9      27.9761      0.00000
     10      28.4477      0.00000
     11      34.7923      0.00000
     12      36.0571      0.00000

 k-point    12 :       0.2500    0.1500    0.0500
  band No.  band energies     occupation 
      1      -1.9785      2.00000
      2       1.5143      2.00000
      3       2.8830      2.00000
      4       3.1383      2.00000
      5       3.8462      2.00000
      6       4.9316      2.00000
      7      23.5475      0.00000
      8      25.2369      0.00000
      9      27.4044      0.00000
     10      28.7651      0.00000
     11      32.6859      0.00000
     12      35.2262      0.00000

 k-point    13 :       0.3500    0.1500    0.0500
  band No.  band energies     occupation 
      1      -0.8715      2.00000
      2       1.6213      2.00000
      3       2.4679      2.00000
      4       3.1456      2.00000
      5       4.7182      2.00000
      6       5.6935      2.00000
      7      19.6471      0.00000
      8      24.7186      0.00000
      9      26.4509      0.00000
     10      29.0331      0.00000
     11      33.1329      0.00000
     12      34.5216      0.00000

 k-point    14 :       0.4500    0.1500    0.0500
  band No.  band energies     occupation 
      1      -0.5164      2.00000
      2       2.0569      2.00000
      3       2.7461      2.00000
      4       2.9678      2.00000
      5       5.7586      2.00000
      6       7.0583      2.00000
      7      15.4025      0.00000
      8      23.7487      0.00000
      9      25.3605      0.00000
     10      27.7722      0.00000
     11      34.6162      0.00000
     12      36.2488      0.00000

 k-point    15 :      -0.4500    0.1500    0.0500
  band No.  band energies     occupation 
      1      -0.5179      2.00000
      2       1.8871      2.00000
      3       2.7406      2.00000
      4       3.8424      2.00000
      5       6.0184      2.00000
      6       8.9404     -0.00003
      7      12.2733     -0.00000
      8      23.2078      0.00000
      9      25.0407      0.00000
     10      26.6141      0.00000
     11      35.6181      0.00000
     12      36.5784      0.00000

 k-point    16 :      -0.3500    0.1500    0.0500
  band No.  band energies     occupation 
      1      -0.4818      2.00000
      2       1.9975      2.00000
      3       2.7727      2.00000
      4       3.4115      2.00000
      5       5.5667      2.00000
      6       7.8753      2.01582
      7      14.1999      0.00000
      8      23.2770      0.00000
      9      24.9923      0.00000
     10      27.8932      0.00000
     11      34.3189      0.00000
     12      36.3694      0.00000

 k-point    17 :      -0.2500    0.1500    0.0500
  band No.  band energies     occupation 
      1      -0.6188      2.00000
      2       1.9908      2.00000
      3       2.3817      2.00000
      4       3.0270      2.00000
      5       4.6137      2.00000
      6       6.3824      2.00000
      7      18.2493      0.00000
      8      23.8798      0.00000
      9      26.0332      0.00000
     10      30.0498      0.00000
     11      32.1931      0.00000
     12      35.3314      0.00000

 k-point    18 :      -0.1500    0.1500    0.0500
  band No.  band energies     occupation 
      1      -1.5732      2.00000
      2       1.5703      2.00000
      3       2.7354      2.00000
      4       3.1680      2.00000
      5       3.8395      2.00000
      6       5.2776      2.00000
      7      22.1636      0.00000
      8      24.6464      0.00000
      9      27.8156      0.00000
     10      28.9399      0.00000
     11      33.0313      0.00000
     12      34.8292      0.00000

 k-point    19 :      -0.0500    0.1500    0.0500
  band No.  band energies     occupation 
      1      -2.6829      2.00000
      2       1.8527      2.00000
      3       2.7662      2.00000
      4       2.7823      2.00000
      5       3.9804      2.00000
      6       4.6449      2.00000
      7      24.3775      0.00000
      8      24.8216      0.00000
      9      28.0122      0.00000
     10      29.8667      0.00000
     11      32.9448      0.00000
     12      36.1620      0.00000

 k-point    20 :       0.2500    0.2500    0.0500
  band No.  band energies     occupation 
      1      -1.3660      2.00000
      2       1.0408      2.00000
      3       3.0738      2.00000
      4       3.6448      2.00000
      5       3.8937      2.00000
      6       5.0993      2.00000
      7      24.2134      0.00000
      8      25.6090      0.00000
      9      26.0881      0.00000
     10      27.0394      0.00000
     11      30.1059      0.00000
     12      36.0728      0.00000

 k-point    21 :       0.3500    0.2500    0.0500
  band No.  band energies     occupation 
      1      -0.5033      2.00000
      2       0.7463      2.00000
      3       2.7220      2.00000
      4       4.1069      2.00000
      5       4.7572      2.00000
      6       5.7273      2.00000
      7      21.4670      0.00000
      8      23.5739      0.00000
      9      25.0769      0.00000
     10      28.0515      0.00000
     11      29.8081      0.00000
     12      36.2349      0.00000

 k-point    22 :       0.4500    0.2500    0.0500
  band No.  band energies     occupation 
      1      -0.0412      2.00000
      2       1.0713      2.00000
      3       2.4009      2.00000
      4       3.9236      2.00000
      5       5.8869      2.00000
      6       7.4017      2.00000
      7      17.0465      0.00000
      8      22.8778      0.00000
      9      23.2649      0.00000
     10      27.5808      0.00000
     11      33.0659      0.00000
     12      36.5282      0.00000

 k-point    23 :      -0.4500    0.2500    0.0500
  band No.  band energies     occupation 
      1       0.0903      2.00000
      2       1.3916      2.00000
      3       2.6410      2.00000
      4       3.6507      2.00000
      5       6.0655      2.00000
      6      10.2106     -0.00000
      7      13.1177     -0.00000
      8      21.5215      0.00000
      9      23.3812      0.00000
     10      26.8127      0.00000
     11      35.6215      0.00000
     12      37.7351      0.00000

 k-point    24 :      -0.3500    0.2500    0.0500
  band No.  band energies     occupation 
      1       0.3242      2.00000
      2       1.4818      2.00000
      3       2.6441      2.00000
      4       3.5089      2.00000
      5       5.5072      2.00000
      6      10.0410     -0.00000
      7      13.8190      0.00000
      8      20.3375      0.00000
      9      24.5915      0.00000
     10      27.0355      0.00000
     11      34.4755      0.00000
     12      37.1416      0.00000

 k-point    25 :      -0.2500    0.2500    0.0500
  band No.  band energies     occupation 
      1       0.4775      2.00000
      2       1.6189      2.00000
      3       1.9093      2.00000
      4       3.6140      2.00000
      5       4.5642      2.00000
      6       8.1083      1.99840
      7      17.4600      0.00000
      8      20.3571      0.00000
      9      25.4972      0.00000
     10      29.1869      0.00000
     11      31.7250      0.00000
     12      37.1496      0.00000

 k-point    26 :      -0.1500    0.2500    0.0500
  band No.  band energies     occupation 
      1      -0.3916      2.00000
      2       1.4662      2.00000
      3       2.3487      2.00000
      4       3.4629      2.00000
      5       4.0232      2.00000
      6       6.5090      2.00000
      7      19.7165      0.00000
      8      22.7700      0.00000
      9      26.4019      0.00000
     10      29.6439      0.00000
     11      31.9460      0.00000
     12      36.0338      0.00000

 k-point    27 :      -0.0500    0.2500    0.0500
  band No.  band energies     occupation 
      1      -1.4988      2.00000
      2       1.8052      2.00000
      3       2.7028      2.00000
      4       2.9119      2.00000
      5       4.2792      2.00000
      6       5.1781      2.00000
      7      20.8453      0.00000
      8      24.9351      0.00000
      9      28.0470      0.00000
     10      30.1370      0.00000
     11      32.8402      0.00000
     12      33.8259      0.00000

 k-point    28 :       0.3500    0.3500    0.0500
  band No.  band energies     occupation 
      1      -0.4335      2.00000
      2       0.2499      2.00000
      3       3.8229      2.00000
      4       4.8288      2.00000
      5       5.3309      2.00000
      6       5.6659      2.00000
      7      21.4184      0.00000
      8      22.2753      0.00000
      9      22.9621      0.00000
     10      26.9928      0.00000
     11      28.9409      0.00000
     12      38.6793      0.00000

 k-point    29 :       0.4500    0.3500    0.0500
  band No.  band energies     occupation 
      1      -0.3176      2.00000
      2       0.1112      2.00000
      3       3.9055      2.00000
      4       5.2237      2.00000
      5       5.9044      2.00000
      6       7.3927      2.00000
      7      18.3933      0.00000
      8      20.5391      0.00000
      9      21.2171      0.00000
     10      28.1177      0.00000
     11      30.1661      0.00000
     12      38.4052      0.00000

 k-point    30 :      -0.4500    0.3500    0.0500
  band No.  band energies     occupation 
      1      -0.1254      2.00000
      2       0.5094      2.00000
      3       3.4432      2.00000
      4       4.8118      2.00000
      5       6.2023      2.00000
      6      10.4698     -0.00000
      7      14.6923      0.00000
      8      18.9648      0.00000
      9      21.1994      0.00000
     10      28.2503      0.00000
     11      33.1683      0.00000
     12      37.3939      0.00000

 k-point    31 :      -0.3500    0.3500    0.0500
  band No.  band energies     occupation 
      1       0.2561      2.00000
      2       1.1567      2.00000
      3       2.7347      2.00000
      4       4.3596      2.00000
      5       5.7496      2.00000
      6      11.8251     -0.00000
      7      14.1774      0.00000
      8      17.1416      0.00000
      9      22.8262      0.00000
     10      27.7377      0.00000
     11      35.8291      0.00000
     12      37.0135      0.00000

 k-point    32 :      -0.2500    0.3500    0.0500
  band No.  band energies     occupation 
      1       0.6624      2.00000
      2       1.5315      2.00000
      3       2.0851      2.00000
      4       3.8711      2.00000
      5       5.1793      2.00000
      6       9.8982     -0.00000
      7      15.8384      0.00000
      8      18.1414      0.00000
      9      24.7334      0.00000
     10      27.5009      0.00000
     11      33.8345      0.00000
     12      37.3112      0.00000

 k-point    33 :      -0.1500    0.3500    0.0500
  band No.  band energies     occupation 
      1      -0.0251      2.00000
      2       1.8592      2.00000
      3       2.4695      2.00000
      4       3.2078      2.00000
      5       5.0549      2.00000
      6       8.0430      2.06972
      7      15.7923      0.00000
      8      22.0737      0.00000
      9      25.0499      0.00000
     10      28.5649      0.00000
     11      32.8875      0.00000
     12      36.7387      0.00000

 k-point    34 :      -0.0500    0.3500    0.0500
  band No.  band energies     occupation 
      1      -0.8460      2.00000
      2       2.3469      2.00000
      3       2.6789      2.00000
      4       2.9070      2.00000
      5       5.2250      2.00000
      6       6.1380      2.00000
      7      16.6793      0.00000
      8      23.8556      0.00000
      9      26.8036      0.00000
     10      29.4062      0.00000
     11      33.4878      0.00000
     12      35.0683      0.00000

 k-point    35 :       0.4500    0.4500    0.0500
  band No.  band energies     occupation 
      1      -0.6750      2.00000
      2      -0.2649      2.00000
      3       5.6707      2.00000
      4       5.7798      2.00000
      5       6.2431      2.00000
      6       7.6795      2.00021
      7      17.3084      0.00000
      8      19.4530      0.00000
      9      19.7253      0.00000
     10      27.4509      0.00000
     11      30.2790      0.00000
     12      39.6626      0.00000

 k-point    36 :      -0.4500    0.4500    0.0500
  band No.  band energies     occupation 
      1      -0.5958      2.00000
      2      -0.1965      2.00000
      3       5.1390      2.00000
      4       5.7024      2.00000
      5       6.4496      2.00000
      6       9.9710     -0.00000
      7      15.2457      0.00000
      8      18.3826      0.00000
      9      19.3388      0.00000
     10      28.5377      0.00000
     11      30.8340      0.00000
     12      38.7155      0.00000

 k-point    37 :      -0.3500    0.4500    0.0500
  band No.  band energies     occupation 
      1      -0.2058      2.00000
      2       0.3951      2.00000
      3       3.8177      2.00000
      4       5.0470      2.00000
      5       6.1955      2.00000
      6      11.9744     -0.00000
      7      13.8564      0.00000
      8      17.4444      0.00000
      9      20.7930      0.00000
     10      28.5641      0.00000
     11      33.2311      0.00000
     12      37.4308      0.00000

 k-point    38 :      -0.2500    0.4500    0.0500
  band No.  band energies     occupation 
      1       0.2300      2.00000
      2       1.2118      2.00000
      3       2.6789      2.00000
      4       4.0605      2.00000
      5       5.9224      2.00000
      6      12.1650     -0.00000
      7      12.3039     -0.00000
      8      19.2961      0.00000
      9      23.0086      0.00000
     10      27.3197      0.00000
     11      35.7282      0.00000
     12      37.4202      0.00000

 k-point    39 :      -0.1500    0.4500    0.0500
  band No.  band energies     occupation 
      1      -0.1231      2.00000
      2       1.6437      2.00000
      3       3.0912      2.00000
      4       3.2564      2.00000
      5       5.8401      2.00000
      6       9.9789     -0.00000
      7      12.3604     -0.00000
      8      22.3392      0.00000
      9      24.4272      0.00000
     10      26.5980      0.00000
     11      35.2404      0.00000
     12      36.8865      0.00000

 k-point    40 :      -0.0500    0.4500    0.0500
  band No.  band energies     occupation 
      1      -0.8033      2.00000
      2       2.1273      2.00000
      3       2.5013      2.00000
      4       4.3561      2.00000
      5       5.9524      2.00000
      6       7.5463      2.00000
      7      12.9998     -0.00000
      8      23.0892      0.00000
      9      26.1431      0.00000
     10      27.3433      0.00000
     11      35.4369      0.00000
     12      36.1397      0.00000

 k-point    41 :      -0.4500   -0.4500    0.0500
  band No.  band energies     occupation 
      1      -0.7828      2.00000
      2      -0.3736      2.00000
      3       5.9460      2.00000
      4       6.1037      2.00000
      5       6.4663      2.00000
      6       8.8653     -0.00025
      7      15.6649      0.00000
      8      18.7833      0.00000
      9      19.1288      0.00000
     10      27.6620      0.00000
     11      30.5637      0.00000
     12      39.3924      0.00000

 k-point    42 :      -0.3500   -0.4500    0.0500
  band No.  band energies     occupation 
      1      -0.4854      2.00000
      2      -0.0920      2.00000
      3       4.6489      2.00000
      4       5.5992      2.00000
      5       6.2311      2.00000
      6       8.7535     -0.00377
      7      16.6776      0.00000
      8      19.1704      0.00000
      9      19.9448      0.00000
     10      28.3495      0.00000
     11      30.6003      0.00000
     12      38.7273      0.00000

 k-point    43 :      -0.2500   -0.4500    0.0500
  band No.  band energies     occupation 
      1      -0.0282      2.00000
      2       0.7434      2.00000
      3       2.8902      2.00000
      4       4.3962      2.00000
      5       6.1326      2.00000
      6       8.8337     -0.00058
[...]
      6       9.0950     -0.00000
      7      16.5498      0.00000
      8      19.1784      0.00000
      9      24.0489      0.00000
     10      29.1297      0.00000
     11      32.4073      0.00000
     12      37.9651      0.00000

 k-point    92 :      -0.3500    0.3500    0.2500
  band No.  band energies     occupation 
      1       0.6884      2.00000
      2       1.3118      2.00000
      3       2.1055      2.00000
      4       4.1216      2.00000
      5       5.6610      2.00000
      6      11.0795     -0.00000
      7      15.1123      0.00000
      8      17.4046      0.00000
      9      22.5859      0.00000
     10      28.7969      0.00000
     11      34.0954      0.00000
     12      38.8478      0.00000

 k-point    93 :      -0.2500    0.3500    0.2500
  band No.  band energies     occupation 
      1       0.2544      2.00000
      2       0.9337      2.00000
      3       2.6506      2.00000
      4       4.4602      2.00000
      5       6.0735      2.00000
      6      11.4553     -0.00000
      7      13.8449      0.00000
      8      18.8845      0.00000
      9      21.1600      0.00000
     10      28.9284      0.00000
     11      34.4142      0.00000
     12      36.6157      0.00000

 k-point    94 :       0.4500    0.4500    0.2500
  band No.  band energies     occupation 
      1      -0.1465      2.00000
      2       1.4996      2.00000
      3       2.4270      2.00000
      4       3.4900      2.00000
      5       6.1523      2.00000
      6       7.7875      2.00298
      7      15.5043      0.00000
      8      23.2168      0.00000
      9      24.1735      0.00000
     10      26.5320      0.00000
     11      35.3025      0.00000
     12      36.3846      0.00000

 k-point    95 :      -0.4500    0.4500    0.2500
  band No.  band energies     occupation 
      1       0.2834      2.00000
      2       1.1475      2.00000
      3       2.3137      2.00000
      4       4.1570      2.00000
      5       5.9380      2.00000
      6       9.7640     -0.00000
      7      14.6872      0.00000
      8      20.8046      0.00000
      9      21.9672      0.00000
     10      28.3908      0.00000
     11      34.0204      0.00000
     12      37.1255      0.00000

 k-point    96 :      -0.3500    0.4500    0.2500
  band No.  band energies     occupation 
      1       0.7046      2.00000
      2       1.2674      2.00000
      3       1.8631      2.00000
      4       4.2997      2.00000
      5       6.1325      2.00000
      6      11.8516     -0.00000
      7      15.1053      0.00000
      8      17.1994      0.00000
      9      20.2958      0.00000
     10      31.2040      0.00000
     11      33.0198      0.00000
     12      37.2911      0.00000

 k-point    97 :      -0.2500    0.4500    0.2500
  band No.  band energies     occupation 
      1       0.5437      2.00000
      2       1.2745      2.00000
      3       2.0637      2.00000
      4       4.2383      2.00000
      5       6.4413      2.00000
      6      13.3660     -0.00000
      7      14.6535      0.00000
      8      16.1851      0.00000
      9      19.2446      0.00000
     10      32.1481      0.00000
     11      33.6639      0.00000
     12      35.6682      0.00000

 k-point    98 :      -0.4500   -0.4500    0.2500
  band No.  band energies     occupation 
      1      -0.0085      2.00000
      2       0.8850      2.00000
      3       3.1084      2.00000
      4       4.3778      2.00000
      5       6.1007      2.00000
      6      11.2857     -0.00000
      7      13.3824     -0.00000
      8      19.0887      0.00000
      9      22.5199      0.00000
     10      27.2852      0.00000
     11      35.0295      0.00000
     12      37.4168      0.00000

 k-point    99 :      -0.3500   -0.4500    0.2500
  band No.  band energies     occupation 
      1       0.1898      2.00000
      2       0.8468      2.00000
      3       2.9116      2.00000
      4       4.5707      2.00000
      5       6.1472      2.00000
      6      12.8613     -0.00000
      7      13.5552     -0.00000
      8      17.0801      0.00000
      9      20.8210      0.00000
     10      29.3426      0.00000
     11      34.9284      0.00000
     12      35.9054      0.00000

 k-point   100 :      -0.3500   -0.3500    0.2500
  band No.  band energies     occupation 
      1      -0.0444      2.00000
      2       0.7719      2.00000
      3       3.3601      2.00000
      4       4.7269      2.00000
      5       5.9283      2.00000
      6      12.6268     -0.00000
      7      13.1667     -0.00000
      8      17.2138      0.00000
      9      22.1999      0.00000
     10      27.6515      0.00000
     11      35.0064      0.00000
     12      37.5616      0.00000

 k-point   101 :       0.3500    0.3500    0.3500
  band No.  band energies     occupation 
      1      -1.1017      2.00000
      2       2.4915      2.00000
      3       2.4915      2.00000
      4       3.4598      2.00000
      5       5.3837      2.00000
      6       5.3837      2.00000
      7      16.5721      0.00000
      8      23.6175      0.00000
      9      29.0823      0.00000
     10      29.0823      0.00000
     11      34.1979      0.00000
     12      34.4000      0.00000

 k-point   102 :       0.4500    0.3500    0.3500
  band No.  band energies     occupation 
      1      -0.7107      2.00000
      2       2.2372      2.00000
      3       2.6355      2.00000
      4       3.3917      2.00000
      5       5.2303      2.00000
      6       6.8996      2.00000
      7      15.3817      0.00000
      8      23.5009      0.00000
      9      25.9013      0.00000
     10      29.0704      0.00000
     11      33.5164      0.00000
     12      35.7175      0.00000

 k-point   103 :      -0.4500    0.3500    0.3500
  band No.  band energies     occupation 
      1       0.1368      2.00000
      2       1.7108      2.00000
      3       2.7311      2.00000
      4       3.2381      2.00000
      5       5.2003      2.00000
      6       8.9487     -0.00002
      7      14.7514      0.00000
      8      21.1260      0.00000
      9      25.3980      0.00000
     10      27.3000      0.00000
     11      33.7520      0.00000
     12      36.6601      0.00000

 k-point   104 :      -0.3500    0.3500    0.3500
  band No.  band energies     occupation 
      1       0.4148      2.00000
      2       1.4579      2.00000
      3       2.4402      2.00000
      4       4.0678      2.00000
      5       5.4022      2.00000
      6      10.7630     -0.00000
      7      15.0792      0.00000
      8      17.4350      0.00000
      9      24.6760      0.00000
     10      26.6207      0.00000
     11      35.4107      0.00000
     12      36.9926      0.00000

 k-point   105 :       0.4500    0.4500    0.3500
  band No.  band energies     occupation 
      1      -0.7300      2.00000
      2       2.1111      2.00000
      3       2.6378      2.00000
      4       3.6736      2.00000
      5       6.0663      2.00000
      6       7.0859      2.00000
      7      14.0460      0.00000
      8      23.3629      0.00000
      9      26.4232      0.00000
     10      27.0974      0.00000
     11      35.4948      0.00000
     12      36.1831      0.00000

 k-point   106 :      -0.4500    0.4500    0.3500
  band No.  band energies     occupation 
      1      -0.1683      2.00000
      2       1.6865      2.00000
      3       2.9909      2.00000
      4       3.2244      2.00000
      5       5.8504      2.00000
      6       9.2157     -0.00000
      7      13.1387     -0.00000
      8      23.0361      0.00000
      9      23.7885      0.00000
     10      27.1536      0.00000
     11      34.8313      0.00000
     12      37.1616      0.00000

 k-point   107 :      -0.3500    0.4500    0.3500
  band No.  band energies     occupation 
      1       0.5463      2.00000
      2       1.2241      2.00000
      3       2.4247      2.00000
      4       3.8538      2.00000
      5       5.7908      2.00000
      6      11.4256     -0.00000
      7      12.9989     -0.00000
      8      19.6984      0.00000
      9      22.6533      0.00000
     10      28.1537      0.00000
     11      34.4752      0.00000
     12      38.5637      0.00000

 k-point   108 :      -0.4500   -0.4500    0.3500
  band No.  band energies     occupation 
      1      -0.0424      2.00000
      2       1.5628      2.00000
      3       3.0099      2.00000
      4       3.2812      2.00000
      5       5.9921      2.00000
      6      10.4731     -0.00000
      7      12.1637     -0.00000
      8      21.8457      0.00000
      9      25.0606      0.00000
     10      25.5926      0.00000
     11      36.3251      0.00000
     12      36.5276      0.00000

 k-point   109 :       0.4500    0.4500    0.4500
  band No.  band energies     occupation 
      1      -1.0440      2.00000
      2       2.3026      2.00000
      3       2.3026      2.00000
      4       5.7390      2.00000
      5       5.9914      2.00000
      6       5.9914      2.00000
      7      12.9945     -0.00000
      8      22.7722      0.00000
      9      27.5085      0.00000
     10      27.5085      0.00000
     11      35.6596      0.00000
     12      35.6596      0.00000

 k-point   110 :      -0.4500    0.4500    0.4500
  band No.  band energies     occupation 
      1      -0.7321      2.00000
      2       2.0549      2.00000
      3       2.5320      2.00000
      4       4.3823      2.00000
      5       5.9582      2.00000
      6       8.2462      1.24880
      7      12.3336     -0.00000
      8      23.0566      0.00000
      9      25.7935      0.00000
     10      26.9698      0.00000
     11      35.7577      0.00000
     12      36.0711      0.00000


--------------------------------------------------------------------------------------------------------


 soft charge-density along one line, spin component           1
         0         1         2         3         4         5         6         7         8         9
 total charge-density along one line
 
 pseudopotential strength for first ion, spin component:           1
 -8.967   0.000   0.000   0.000   0.000   0.000   0.000   0.000  -0.000   0.000  -0.217   0.000  -0.000   0.000  -0.000   0.000
  0.000   0.000  -8.967   0.000  -0.000   0.000   0.000   0.000   0.000   0.000  -0.000   0.000  -0.217   0.000   0.000   0.000
  0.000   0.000  -0.000   0.000  -8.944   0.000  -0.000   0.000  -0.000   0.000  -0.000   0.000   0.000   0.000  -0.219   0.000
  0.000   0.000   0.000   0.000  -0.000   0.000  -8.967   0.000  -0.000   0.000  -0.000   0.000  -0.000   0.000   0.000   0.000
 -0.000   0.000   0.000   0.000  -0.000   0.000  -0.000   0.000  -8.944   0.000   0.000   0.000  -0.000   0.000   0.000   0.000
 -0.217   0.000  -0.000   0.000  -0.000   0.000  -0.000   0.000   0.000   0.000   0.301   0.000   0.000   0.000   0.000   0.000
 -0.000   0.000  -0.217   0.000   0.000   0.000  -0.000   0.000  -0.000   0.000   0.000   0.000   0.301   0.000  -0.000   0.000
 -0.000   0.000   0.000   0.000  -0.219   0.000   0.000   0.000   0.000   0.000   0.000   0.000  -0.000   0.000   0.301   0.000
 -0.000   0.000  -0.000   0.000   0.000   0.000  -0.217   0.000   0.000   0.000   0.000   0.000   0.000   0.000  -0.000   0.000
  0.000   0.000  -0.000   0.000   0.000   0.000   0.000   0.000  -0.219   0.000  -0.000   0.000   0.000   0.000  -0.000   0.000
  0.000   0.000   0.000   0.000   0.000   0.000   0.000   0.000  -0.000   0.000   0.000   0.000   0.000   0.000  -0.000   0.000
 -0.000   0.000  -0.000   0.000  -0.000   0.000  -0.000   0.000   0.000   0.000   0.000   0.000   0.000   0.000   0.000   0.000
 -0.000   0.000  -0.000   0.000   0.000   0.000   0.000   0.000   0.000   0.000   0.000   0.000   0.000   0.000  -0.000   0.000
  0.000   0.000  -0.000   0.000  -0.000   0.000  -0.000   0.000  -0.000   0.000  -0.000   0.000   0.000   0.000   0.000   0.000
 -0.000   0.000   0.000   0.000   0.000   0.000  -0.000   0.000  -0.000   0.000   0.000   0.000  -0.000   0.000  -0.000   0.000
  0.000   0.000   0.000   0.000  -0.000   0.000  -0.000   0.000  -0.000   0.000  -0.000   0.000  -0.000   0.000   0.000   0.000
 -0.000   0.000   0.000   0.000   0.000   0.000   0.000   0.000   0.000   0.000   0.000   0.000  -0.000   0.000  -0.000   0.000
  0.000   0.000  -0.000   0.000  -0.000   0.000   0.000   0.000   0.000   0.000  -0.000   0.000   0.000   0.000   0.000   0.000
 total augmentation occupancy for first ion, spin component:           1
  1.910   0.000   0.000   0.000   0.000   0.037  -0.000  -0.000   0.000   0.000   0.000  -0.000   0.000   0.000   0.000   0.000
  0.000   1.910  -0.000   0.000   0.000  -0.000   0.037  -0.000  -0.000  -0.000  -0.000   0.000   0.000   0.000   0.000   0.000
 -0.000  -0.000   1.961   0.000   0.000  -0.000  -0.000  -0.023  -0.000   0.000   0.000   0.000   0.000   0.000   0.000   0.000
  0.000   0.000   0.000   1.910  -0.000  -0.000   0.000   0.000   0.037   0.000   0.000  -0.000   0.000   0.000   0.000   0.000
  0.000   0.000   0.000   0.000   1.961  -0.000   0.000  -0.000   0.000  -0.023   0.000   0.000   0.000   0.000   0.000   0.000
  0.037  -0.000  -0.000  -0.000   0.000   0.384  -0.000   0.000  -0.000  -0.000   0.000  -0.000   0.000   0.000   0.000   0.000
  0.000   0.037  -0.000   0.000  -0.000  -0.000   0.384   0.000  -0.000   0.000  -0.000   0.000   0.000   0.000   0.000   0.000
 -0.000  -0.000  -0.023  -0.000  -0.000   0.000   0.000   0.303   0.000   0.000   0.000   0.000   0.000   0.000   0.000   0.000
  0.000  -0.000   0.000   0.037   0.000  -0.000  -0.000  -0.000   0.384  -0.000  -0.000  -0.000   0.000   0.000   0.000   0.000
 -0.000   0.000   0.000   0.000  -0.023   0.000  -0.000   0.000  -0.000   0.303  -0.000  -0.000   0.000   0.000   0.000   0.000
  0.000  -0.000   0.000   0.000   0.000   0.000  -0.000   0.000   0.000  -0.000   1.190  -0.537   0.000   0.000   0.000   0.000
 -0.000   0.000   0.000   0.000   0.000  -0.000   0.000   0.000  -0.000  -0.000  -0.537   0.422   0.000   0.000   0.000   0.000
  0.000   0.000   0.000   0.000   0.000   0.000   0.000   0.000   0.000   0.000   0.000   0.000   0.245   0.000  -0.000  -0.018
  0.000   0.000   0.000   0.000   0.000   0.000   0.000   0.000   0.000   0.000   0.000   0.000  -0.000   0.245   0.000   0.000
  0.000   0.000   0.000   0.000   0.000   0.000   0.000   0.000   0.000   0.000   0.000   0.000   0.000  -0.000   0.245  -0.000
  0.000   0.000   0.000   0.000   0.000   0.000   0.000   0.000   0.000   0.000   0.000   0.000  -0.018   0.000  -0.000   0.002
  0.000   0.000   0.000   0.000   0.000   0.000   0.000   0.000   0.000   0.000   0.000   0.000   0.000  -0.018   0.000   0.000
  0.000   0.000   0.000   0.000   0.000   0.000   0.000   0.000   0.000   0.000   0.000   0.000   0.000   0.000  -0.018   0.000


------------------------ aborting loop because EDIFF is reached ----------------------------------------


    CHARGE:  cpu time    0.0027: real time    0.0054
    FORLOC:  cpu time    0.0001: real time    0.0003
    FORNL :  cpu time    0.0068: real time    0.0068
    STRESS:  cpu time    0.0417: real time    0.0794
    FORCOR:  cpu time    0.0007: real time    0.0050
    FORHAR:  cpu time    0.0005: real time    0.0014
    MIXING:  cpu time    0.0003: real time    0.0003
    OFIELD:  cpu time    0.0000: real time    0.0000

  FORCE on cell =-STRESS in cart. coord.  units (eV):
  Direction    XX          YY          ZZ          XY          YZ          ZX
  --------------------------------------------------------------------------------------
  Alpha Z   128.82341   128.82341   128.82341
  Ewald    -345.82450  -345.82450  -345.82450    -0.00000    -0.00000     0.00000
  Hartree    30.10092    30.10092    30.10092     0.00001     0.00001     0.00001
  E(xc)     -49.98657   -49.98657   -49.98657     0.00001     0.00001     0.00001
  Local      87.77187    87.77187    87.77187     0.00011     0.00011     0.00011
  n-local   -45.15307   -41.75798   -45.75518     0.67344    -0.62908     0.03312
  augment    42.03927    42.03927    42.03927    -0.00030    -0.00030    -0.00030
  Kinetic   155.24657   154.35610   156.43481    -0.14056     0.05439     0.03721
  Fock        0.00000     0.00000     0.00000     0.00000     0.00000     0.00000
  -------------------------------------------------------------------------------------
  Total       4.04815     4.04815     4.04815     0.00000     0.00000     0.00000
  in kB     454.61654   454.61654   454.61654     0.00000     0.00000     0.00000
  external pressure =      454.62 kB  Pullay stress =        0.00 kB


 VOLUME and BASIS-vectors are now :
 -----------------------------------------------------------------------------
  energy-cutoff  :      230.00
  volume of cell :       14.27
      direct lattice vectors                 reciprocal lattice vectors
     0.000000000  1.925000000  1.925000000    -0.259740260  0.259740260  0.259740260
     1.925000000  0.000000000  1.925000000     0.259740260 -0.259740260  0.259740260
     1.925000000  1.925000000  0.000000000     0.259740260  0.259740260 -0.259740260

  length of vectors
     2.722361108  2.722361108  2.722361108     0.449883327  0.449883327  0.449883327


 FORCES acting on ions
    electron-ion (+dipol)            ewald-force                    non-local-force                 convergence-correction
 -----------------------------------------------------------------------------------------------
   0.125E-13 0.308E-14 0.916E-14   0.282E-14 -.303E-14 0.634E-15   0.000E+00 0.000E+00 0.000E+00   0.103E-13 0.124E-13 0.107E-13
 -----------------------------------------------------------------------------------------------
   0.125E-13 0.308E-14 0.916E-14   0.282E-14 -.303E-14 0.634E-15   0.000E+00 0.000E+00 0.000E+00   0.103E-13 0.124E-13 0.107E-13
 
 
 POSITION                                       TOTAL-FORCE (eV/Angst)
 -----------------------------------------------------------------------------------
      0.00000      0.00000      0.00000        -0.000000     -0.000000      0.000000
 -----------------------------------------------------------------------------------
    total drift:                                0.000000      0.000000      0.000000


--------------------------------------------------------------------------------------------------------



  FREE ENERGIE OF THE ION-ELECTRON SYSTEM (eV)
  ---------------------------------------------------
  free  energy   TOTEN  =        -4.07699582 eV

  energy  without entropy=       -4.07657907  energy(sigma->0) =       -4.07685690
 


--------------------------------------------------------------------------------------------------------


    POTLOK:  cpu time    0.0024: real time    0.0052


--------------------------------------------------------------------------------------------------------


 writing wavefunctions
     LOOP+:  cpu time    1.7224: real time    5.2656
    4ORBIT:  cpu time    0.0000: real time    0.0000

 total amount of memory used by VASP MPI-rank0    32990. kBytes
=======================================================================

   base      :      30000. kBytes
   nonl-proj :       1902. kBytes
   fftplans  :        142. kBytes
   grid      :        192. kBytes
   one-center:         15. kBytes
   wavefun   :        739. kBytes
 
  
  
 General timing and accounting informations for this job:
 ========================================================
  
                  Total CPU time used (sec):        2.129
                            User time (sec):        1.892
                          System time (sec):        0.237
                         Elapsed time (sec):        6.993
  
                   Maximum memory used (kb):       56536.
                   Average memory used (kb):           0.
  
                          Minor page faults:        15328
                          Major page faults:            0
                 Voluntary context switches:         1827
