<?xml version="1.0" encoding="ISO-8859-1"?>
<modeling>
 <generator>
  <i name="program" type="string">vasp </i>
  <i name="version" type="string">5.4.4.18Apr17-6-g9f103f2a35  </i>
  <i name="subversion" type="string">(build Jul 01 2019 03:25:34) complex            parallel </i>
  <i name="platform" type="string">LinuxIFC </i>
  <i name="date" type="string">2020 07 08 </i>
  <i name="time" type="string">00:55:15 </i>
 </generator>
 <incar>
  <i type="string" name="SYSTEM"> FCC Au</i>
  <i type="string" name="PREC">normal</i>
  <i name="EDIFF">      0.00010000</i>
  <i name="ENCUT">    230.00000000</i>
  <v type="int" name="KPOINT_BSE">    -1     0     0     0</v>
 </incar>
 <structure name="primitive_cell" >
  <crystal>
   <varray name="basis" >
    <v>       0.00000000       1.92500000       1.92500000 </v>
    <v>       1.92500000       0.00000000       1.92500000 </v>
    <v>       1.92500000       1.92500000       0.00000000 </v>
   </varray>
   <i name="volume">     14.26665625 </i>
   <varray name="rec_basis" >
    <v>      -0.25974026       0.25974026       0.25974026 </v>
    <v>       0.25974026      -0.25974026       0.25974026 </v>
    <v>       0.25974026       0.25974026      -0.25974026 </v>
   </varray>
  </crystal>
  <varray name="positions" >
   <v>       0.00000000       0.00000000       0.00000000 </v>
  </varray>
 </structure>
 <varray name="primitive_index" >
  <v type="int" >        1 </v>
 </varray>
 <kpoints>
  <generation param="Monkhorst-Pack">
   <v type="int" name="divisions">      10       10       10 </v>
   <v name="usershift">      0.00000000       0.00000000       0.00000000 </v>
   <v name="genvec1">      0.10000000       0.00000000       0.00000000 </v>
   <v name="genvec2">      0.00000000       0.10000000       0.00000000 </v>
   <v name="genvec3">      0.00000000       0.00000000       0.10000000 </v>
   <v name="shift">      0.50000000       0.50000000       0.50000000 </v>
  </generation>
  <varray name="kpointlist" >
   <v>       0.05000000       0.05000000       0.05000000 </v>
   <v>       0.15000000       0.05000000       0.05000000 </v>
   <v>       0.25000000       0.05000000       0.05000000 </v>
   <v>       0.35000000       0.05000000       0.05000000 </v>
   <v>       0.45000000       0.05000000       0.05000000 </v>
   <v>      -0.45000000       0.05000000       0.05000000 </v>
   <v>      -0.35000000       0.05000000       0.05000000 </v>
   <v>      -0.25000000       0.05000000       0.05000000 </v>
   <v>      -0.15000000       0.05000000       0.05000000 </v>
   <v>      -0.05000000       0.05000000       0.05000000 </v>
   <v>       0.15000000       0.15000000       0.05000000 </v>
   <v>       0.25000000       0.15000000       0.05000000 </v>
   <v>       0.35000000       0.15000000       0.05000000 </v>
   <v>       0.45000000       0.15000000       0.05000000 </v>
   <v>      -0.45000000       0.15000000       0.05000000 </v>
   <v>      -0.35000000       0.15000000       0.05000000 </v>
   <v>      -0.25000000       0.15000000       0.05000000 </v>
   <v>      -0.15000000       0.15000000       0.05000000 </v>
   <v>      -0.05000000       0.15000000       0.05000000 </v>
   <v>       0.25000000       0.25000000       0.05000000 </v>
   <v>       0.35000000       0.25000000       0.05000000 </v>
   <v>       0.45000000       0.25000000       0.05000000 </v>
   <v>      -0.45000000       0.25000000       0.05000000 </v>
   <v>      -0.35000000       0.25000000       0.05000000 </v>
   <v>      -0.25000000       0.25000000       0.05000000 </v>
   <v>      -0.15000000       0.25000000       0.05000000 </v>
   <v>      -0.05000000       0.25000000       0.05000000 </v>
   <v>       0.35000000       0.35000000       0.05000000 </v>
   <v>       0.45000000       0.35000000       0.05000000 </v>
   <v>      -0.45000000       0.35000000       0.05000000 </v>
   <v>      -0.35000000       0.35000000       0.05000000 </v>
   <v>      -0.25000000       0.35000000       0.05000000 </v>
   <v>      -0.15000000       0.35000000       0.05000000 </v>
   <v>      -0.05000000       0.35000000       0.05000000 </v>
   <v>       0.45000000       0.45000000       0.05000000 </v>
   <v>      -0.45000000       0.45000000       0.05000000 </v>
   <v>      -0.35000000       0.45000000       0.05000000 </v>
   <v>      -0.25000000       0.45000000       0.05000000 </v>
   <v>      -0.15000000       0.45000000       0.05000000 </v>
   <v>      -0.05000000       0.45000000       0.05000000 </v>
   <v>      -0.45000000      -0.45000000       0.05000000 </v>
   <v>      -0.35000000      -0.45000000       0.05000000 </v>
   <v>      -0.25000000      -0.45000000       0.05000000 </v>
   <v>      -0.15000000      -0.45000000       0.05000000 </v>
   <v>      -0.35000000      -0.35000000       0.05000000 </v>
   <v>      -0.25000000      -0.35000000       0.05000000 </v>
   <v>      -0.15000000      -0.35000000       0.05000000 </v>
   <v>      -0.25000000      -0.25000000       0.05000000 </v>
   <v>      -0.15000000      -0.25000000       0.05000000 </v>
   <v>      -0.15000000      -0.15000000       0.05000000 </v>
   <v>       0.15000000       0.15000000       0.15000000 </v>
   <v>       0.25000000       0.15000000       0.15000000 </v>
   <v>       0.35000000       0.15000000       0.15000000 </v>
   <v>       0.45000000       0.15000000       0.15000000 </v>
   <v>      -0.45000000       0.15000000       0.15000000 </v>
   <v>      -0.35000000       0.15000000       0.15000000 </v>
   <v>      -0.25000000       0.15000000       0.15000000 </v>
   <v>      -0.15000000       0.15000000       0.15000000 </v>
   <v>       0.25000000       0.25000000       0.15000000 </v>
   <v>       0.35000000       0.25000000       0.15000000 </v>
   <v>       0.45000000       0.25000000       0.15000000 </v>
   <v>      -0.45000000       0.25000000       0.15000000 </v>
   <v>      -0.35000000       0.25000000       0.15000000 </v>
   <v>      -0.25000000       0.25000000       0.15000000 </v>
   <v>      -0.15000000       0.25000000       0.15000000 </v>
   <v>       0.35000000       0.35000000       0.15000000 </v>
   <v>       0.45000000       0.35000000       0.15000000 </v>
   <v>      -0.45000000       0.35000000       0.15000000 </v>
   <v>      -0.35000000       0.35000000       0.15000000 </v>
   <v>      -0.25000000       0.35000000       0.15000000 </v>
   <v>      -0.15000000       0.35000000       0.15000000 </v>
   <v>       0.45000000       0.45000000       0.15000000 </v>
   <v>      -0.45000000       0.45000000       0.15000000 </v>
   <v>      -0.35000000       0.45000000       0.15000000 </v>
   <v>      -0.25000000       0.45000000       0.15000000 </v>
   <v>      -0.15000000       0.45000000       0.15000000 </v>
   <v>      -0.45000000      -0.45000000       0.15000000 </v>
   <v>      -0.35000000      -0.45000000       0.15000000 </v>
   <v>      -0.25000000      -0.45000000       0.15000000 </v>
   <v>      -0.35000000      -0.35000000       0.15000000 </v>
   <v>      -0.25000000      -0.35000000       0.15000000 </v>
   <v>      -0.25000000      -0.25000000       0.15000000 </v>
   <v>       0.25000000       0.25000000       0.25000000 </v>
   <v>       0.35000000       0.25000000       0.25000000 </v>
   <v>       0.45000000       0.25000000       0.25000000 </v>
   <v>      -0.45000000       0.25000000       0.25000000 </v>
   <v>      -0.35000000       0.25000000       0.25000000 </v>
   <v>      -0.25000000       0.25000000       0.25000000 </v>
   <v>       0.35000000       0.35000000       0.25000000 </v>
   <v>       0.45000000       0.35000000       0.25000000 </v>
   <v>      -0.45000000       0.35000000       0.25000000 </v>
   <v>      -0.35000000       0.35000000       0.25000000 </v>
   <v>      -0.25000000       0.35000000       0.25000000 </v>
   <v>       0.45000000       0.45000000       0.25000000 </v>
   <v>      -0.45000000       0.45000000       0.25000000 </v>
   <v>      -0.35000000       0.45000000       0.25000000 </v>
   <v>      -0.25000000       0.45000000       0.25000000 </v>
   <v>      -0.45000000      -0.45000000       0.25000000 </v>
   <v>      -0.35000000      -0.45000000       0.25000000 </v>
   <v>      -0.35000000      -0.35000000       0.25000000 </v>
   <v>       0.35000000       0.35000000       0.35000000 </v>
   <v>       0.45000000       0.35000000       0.35000000 </v>
   <v>      -0.45000000       0.35000000       0.35000000 </v>
   <v>      -0.35000000       0.35000000       0.35000000 </v>
   <v>       0.45000000       0.45000000       0.35000000 </v>
   <v>      -0.45000000       0.45000000       0.35000000 </v>
   <v>      -0.35000000       0.45000000       0.35000000 </v>
   <v>      -0.45000000      -0.45000000       0.35000000 </v>
   <v>       0.45000000       0.45000000       0.45000000 </v>
   <v>      -0.45000000       0.45000000       0.45000000 </v>
  </varray>
  <varray name="weights" >
   <v>       0.00200000 </v>
   <v>       0.00600000 </v>
   <v>       0.00600000 </v>
   <v>       0.00600000 </v>
   <v>       0.00600000 </v>
   <v>       0.00600000 </v>
   <v>       0.00600000 </v>
   <v>       0.00600000 </v>
   <v>       0.00600000 </v>
   <v>       0.00600000 </v>
   <v>       0.00600000 </v>
   <v>       0.01200000 </v>
   <v>       0.01200000 </v>
   <v>       0.01200000 </v>
   <v>       0.01200000 </v>
   <v>       0.01200000 </v>
   <v>       0.01200000 </v>
   <v>       0.01200000 </v>
   <v>       0.01200000 </v>
   <v>       0.00600000 </v>
   <v>       0.01200000 </v>
   <v>       0.01200000 </v>
   <v>       0.01200000 </v>
   <v>       0.01200000 </v>
   <v>       0.01200000 </v>
   <v>       0.01200000 </v>
   <v>       0.01200000 </v>
   <v>       0.00600000 </v>
   <v>       0.01200000 </v>
   <v>       0.01200000 </v>
   <v>       0.01200000 </v>
   <v>       0.01200000 </v>
   <v>       0.01200000 </v>
   <v>       0.01200000 </v>
   <v>       0.00600000 </v>
   <v>       0.01200000 </v>
   <v>       0.01200000 </v>
   <v>       0.01200000 </v>
   <v>       0.01200000 </v>
   <v>       0.01200000 </v>
   <v>       0.00600000 </v>
   <v>       0.01200000 </v>
   <v>       0.01200000 </v>
   <v>       0.01200000 </v>
   <v>       0.00600000 </v>
   <v>       0.01200000 </v>
   <v>       0.01200000 </v>
   <v>       0.00600000 </v>
   <v>       0.01200000 </v>
   <v>       0.00600000 </v>
   <v>       0.00200000 </v>
   <v>       0.00600000 </v>
   <v>       0.00600000 </v>
   <v>       0.00600000 </v>
   <v>       0.00600000 </v>
   <v>       0.00600000 </v>
   <v>       0.00600000 </v>
   <v>       0.00600000 </v>
   <v>       0.00600000 </v>
   <v>       0.01200000 </v>
   <v>       0.01200000 </v>
   <v>       0.01200000 </v>
   <v>       0.01200000 </v>
   <v>       0.01200000 </v>
   <v>       0.01200000 </v>
   <v>       0.00600000 </v>
   <v>       0.01200000 </v>
   <v>       0.01200000 </v>
   <v>       0.01200000 </v>
   <v>       0.01200000 </v>
   <v>       0.01200000 </v>
   <v>       0.00600000 </v>
   <v>       0.01200000 </v>
   <v>       0.01200000 </v>
   <v>       0.01200000 </v>
   <v>       0.01200000 </v>
   <v>       0.00600000 </v>
   <v>       0.01200000 </v>
   <v>       0.01200000 </v>
   <v>       0.00600000 </v>
   <v>       0.01200000 </v>
   <v>       0.00600000 </v>
   <v>       0.00200000 </v>
   <v>       0.00600000 </v>
   <v>       0.00600000 </v>
   <v>       0.00600000 </v>
   <v>       0.00600000 </v>
   <v>       0.00600000 </v>
   <v>       0.00600000 </v>
   <v>       0.01200000 </v>
   <v>       0.01200000 </v>
   <v>       0.01200000 </v>
   <v>       0.01200000 </v>
   <v>       0.00600000 </v>
   <v>       0.01200000 </v>
   <v>       0.01200000 </v>
   <v>       0.01200000 </v>
   <v>       0.00600000 </v>
   <v>       0.01200000 </v>
   <v>       0.00600000 </v>
   <v>       0.00200000 </v>
   <v>       0.00600000 </v>
   <v>       0.00600000 </v>
   <v>       0.00600000 </v>
   <v>       0.00600000 </v>
   <v>       0.01200000 </v>
   <v>       0.01200000 </v>
   <v>       0.00600000 </v>
   <v>       0.00200000 </v>
   <v>       0.00600000 </v>
  </varray>
 </kpoints>
 <parameters>
  <separator name="general" >
   <i type="string" name="SYSTEM">FCC Au</i>
   <i type="logical" name="LCOMPAT"> F  </i>
  </separator>
  <separator name="electronic" >
   <i type="string" name="PREC">normal</i>
   <i name="ENMAX">    230.00000000</i>
   <i name="ENAUG">    356.67000000</i>
   <i name="EDIFF">      0.00010000</i>
   <i type="int" name="IALGO">    38</i>
   <i type="int" name="IWAVPR">    10</i>
   <i type="int" name="NBANDS">    12</i>
   <i name="NELECT">     11.00000000</i>
   <i type="int" name="TURBO">     0</i>
   <i type="int" name="IRESTART">     0</i>
   <i type="int" name="NREBOOT">     0</i>
   <i type="int" name="NMIN">     0</i>
   <i name="EREF">      0.00000000</i>
   <separator name="electronic smearing" >
    <i type="int" name="ISMEAR">     1</i>
    <i name="SIGMA">      0.20000000</i>
    <i name="KSPACING">      0.50000000</i>
    <i type="logical" name="KGAMMA"> T  </i>
   </separator>
   <separator name="electronic projectors" >
    <i type="logical" name="LREAL"> F  </i>
    <v name="ROPT">      0.00000000</v>
    <i type="int" name="LMAXPAW">  -100</i>
    <i type="int" name="LMAXMIX">     2</i>
    <i type="logical" name="NLSPLINE"> F  </i>
   </separator>
   <separator name="electronic startup" >
    <i type="int" name="ISTART">     1</i>
    <i type="int" name="ICHARG">     0</i>
    <i type="int" name="INIWAV">     1</i>
   </separator>
   <separator name="electronic spin" >
    <i type="int" name="ISPIN">     1</i>
    <i type="logical" name="LNONCOLLINEAR"> F  </i>
    <v name="MAGMOM">      1.00000000</v>
    <i name="NUPDOWN">     -1.00000000</i>
    <i type="logical" name="LSORBIT"> F  </i>
    <v name="SAXIS">      0.00000000      0.00000000      1.00000000</v>
    <i type="logical" name="LSPIRAL"> F  </i>
    <v name="QSPIRAL">      0.00000000      0.00000000      0.00000000</v>
    <i type="logical" name="LZEROZ"> F  </i>
   </separator>
   <separator name="electronic exchange-correlation" >
    <i type="logical" name="LASPH"> F  </i>
    <i type="logical" name="LMETAGGA"> F  </i>
   </separator>
   <separator name="electronic convergence" >
    <i type="int" name="NELM">    60</i>
    <i type="int" name="NELMDL">     0</i>
    <i type="int" name="NELMIN">     2</i>
    <i name="ENINI">    230.00000000</i>
    <separator name="electronic convergence detail" >
     <i type="logical" name="LDIAG"> T  </i>
     <i type="logical" name="LSUBROT"> F  </i>
     <i name="WEIMIN">      0.00000000</i>
     <i name="EBREAK">      0.00000208</i>
     <i name="DEPER">      0.30000000</i>
     <i type="int" name="NRMM">     4</i>
     <i name="TIME">      0.40000000</i>
    </separator>
   </separator>
   <separator name="electronic mixer" >
    <i name="AMIX">      0.40000000</i>
    <i name="BMIX">      1.00000000</i>
    <i name="AMIN">      0.10000000</i>
    <i name="AMIX_MAG">      1.60000000</i>
    <i name="BMIX_MAG">      1.00000000</i>
    <separator name="electronic mixer details" >
     <i type="int" name="IMIX">     4</i>
     <i type="logical" name="MIXFIRST"> F  </i>
     <i type="int" name="MAXMIX">   -45</i>
     <i name="WC">    100.00000000</i>
     <i type="int" name="INIMIX">     1</i>
     <i type="int" name="MIXPRE">     1</i>
     <i type="int" name="MREMOVE">     5</i>
    </separator>
   </separator>
   <separator name="electronic dipolcorrection" >
    <i type="logical" name="LDIPOL"> F  </i>
    <i type="logical" name="LMONO"> F  </i>
    <i type="int" name="IDIPOL">     0</i>
    <i name="EPSILON">      1.00000000</i>
    <v name="DIPOL">   -100.00000000   -100.00000000   -100.00000000</v>
    <i name="EFIELD">      0.00000000</i>
   </separator>
  </separator>
  <separator name="grids" >
   <i type="int" name="NGX">    10</i>
   <i type="int" name="NGY">    10</i>
   <i type="int" name="NGZ">    10</i>
   <i type="int" name="NGXF">    20</i>
   <i type="int" name="NGYF">    20</i>
   <i type="int" name="NGZF">    20</i>
   <i type="logical" name="ADDGRID"> F  </i>
  </separator>
  <separator name="ionic" >
   <i type="int" name="NSW">     0</i>
   <i type="int" name="IBRION">    -1</i>
   <i type="int" name="MDALGO">     0</i>
   <i type="int" name="ISIF">     2</i>
   <i name="PSTRESS">      0.00000000</i>
   <i name="EDIFFG">      0.00100000</i>
   <i type="int" name="NFREE">     0</i>
   <i name="POTIM">      0.50000000</i>
   <i name="SMASS">     -3.00000000</i>
   <i name="SCALEE">      1.00000000</i>
  </separator>
  <separator name="ionic md" >
   <i name="TEBEG">      0.00010000</i>
   <i name="TEEND">      0.00010000</i>
   <i type="int" name="NBLOCK">     1</i>
   <i type="int" name="KBLOCK">     1</i>
   <i type="int" name="NPACO">   256</i>
   <i name="APACO">     16.00000000</i>
  </separator>
  <separator name="symmetry" >
   <i type="int" name="ISYM">     2</i>
   <i name="SYMPREC">      0.00001000</i>
  </separator>
  <separator name="dos" >
   <i type="int" name="LORBIT">     0</i>
   <v name="RWIGS">     -1.00000000</v>
   <i type="int" name="NEDOS">   301</i>
   <i name="EMIN">     10.00000000</i>
   <i name="EMAX">    -10.00000000</i>
   <i name="EFERMI">      0.00000000</i>
  </separator>
  <separator name="writing" >
   <i type="int" name="NWRITE">     2</i>
   <i type="logical" name="LWAVE"> T  </i>
   <i type="logical" name="LDOWNSAMPLE"> F  </i>
   <i type="logical" name="LCHARG"> T  </i>
   <i type="logical" name="LPARD"> F  </i>
   <i type="logical" name="LVTOT"> F  </i>
   <i type="logical" name="LVHAR"> F  </i>
   <i type="logical" name="LELF"> F  </i>
   <i type="logical" name="LOPTICS"> F  </i>
   <v name="STM">      0.00000000      0.00000000      0.00000000      0.00000000      0.00000000      0.00000000      0.00000000</v>
  </separator>
  <separator name="performance" >
   <i type="int" name="NPAR">     4</i>
   <i type="int" name="NSIM">     4</i>
   <i type="int" name="NBLK">    -1</i>
   <i type="logical" name="LPLANE"> T  </i>
   <i type="logical" name="LSCALAPACK"> T  </i>
   <i type="logical" name="LSCAAWARE"> F  </i>
   <i type="logical" name="LSCALU"> F  </i>
   <i type="logical" name="LASYNC"> F  </i>
   <i type="logical" name="LORBITALREAL"> F  </i>
  </separator>
  <separator name="miscellaneous" >
   <i type="int" name="IDIOT">     3</i>
   <i type="int" name="ISPECIAL">     0</i>
   <i type="logical" name="LMUSIC"> F  </i>
   <v name="POMASS">    196.96600000</v>
   <v name="DARWINR">      0.00000000</v>
   <v name="DARWINV">      1.00000000</v>
   <i type="logical" name="LCORR"> T  </i>
  </separator>
  <i type="logical" name="GGA_COMPAT"> T  </i>
  <i type="logical" name="LBERRY"> F  </i>
  <i type="int" name="ICORELEVEL">     0</i>
  <i type="logical" name="LDAU"> F  </i>
  <i type="int" name="I_CONSTRAINED_M">     0</i>
  <separator name="electronic exchange-correlation" >
   <i type="string" name="GGA">--</i>
   <i type="int" name="VOSKOWN">     0</i>
   <i type="logical" name="LHFCALC"> F  </i>
   <i type="string" name="PRECFOCK"></i>
   <i type="logical" name="LSYMGRAD"> F  </i>
   <i type="logical" name="LHFONE"> F  </i>
   <i type="logical" name="LRHFCALC"> F  </i>
   <i type="logical" name="LTHOMAS"> F  </i>
   <i type="logical" name="LMODELHF"> F  </i>
   <i name="ENCUT4O">     -1.00000000</i>
   <i type="int" name="EXXOEP">     0</i>
   <i type="int" name="FOURORBIT">     0</i>
   <i name="AEXX">      0.00000000</i>
   <i name="HFALPHA">      0.00000000</i>
   <i name="MCALPHA">      0.00000000</i>
   <i name="ALDAX">      1.00000000</i>
   <i name="AGGAX">      1.00000000</i>
   <i name="ALDAC">      1.00000000</i>
   <i name="AGGAC">      1.00000000</i>
   <i type="int" name="NKREDX">     1</i>
   <i type="int" name="NKREDY">     1</i>
   <i type="int" name="NKREDZ">     1</i>
   <i type="logical" name="SHIFTRED"> F  </i>
   <i type="logical" name="ODDONLY"> F  </i>
   <i type="logical" name="EVENONLY"> F  </i>
   <i type="int" name="LMAXFOCK">     0</i>
   <i type="int" name="NMAXFOCKAE">     0</i>
   <i type="logical" name="LFOCKAEDFT"> F  </i>
   <i name="HFSCREEN">      0.00000000</i>
   <i name="HFSCREENC">      0.00000000</i>
   <i type="int" name="NBANDSGWLOW">     0</i>
  </separator>
  <separator name="vdW DFT" >
   <i type="logical" name="LUSE_VDW"> F  </i>
   <i name="Zab_VDW">     -0.84910000</i>
   <i name="PARAM1">      0.12340000</i>
   <i name="PARAM2">      1.00000000</i>
   <i name="PARAM3">      0.00000000</i>
  </separator>
  <separator name="model GW" >
   <i type="int" name="MODEL_GW">     0</i>
   <i name="MODEL_EPS0">      8.55999375</i>
   <i name="MODEL_ALPHA">      1.00000000</i>
  </separator>
  <separator name="linear response parameters" >
   <i type="logical" name="LEPSILON"> F  </i>
   <i type="logical" name="LRPA"> F  </i>
   <i type="logical" name="LNABLA"> F  </i>
   <i type="logical" name="LVEL"> F  </i>
   <i type="int" name="KINTER">     0</i>
   <i name="CSHIFT">      0.10000000</i>
   <i name="OMEGAMAX">     -1.00000000</i>
   <i name="DEG_THRESHOLD">      0.00200000</i>
   <i name="RTIME">     -0.10000000</i>
   <i name="WPLASMAI">      0.00000000</i>
   <v name="DFIELD">      0.00000000      0.00000000      0.00000000</v>
   <v name="WPLASMA">      0.00000000      0.00000000      0.00000000      0.00000000      0.00000000      0.00000000      0.00000000      0.00000000      0.00000000</v>
  </separator>
  <separator name="orbital magnetization" >
   <i type="logical" name="NUCIND"> F  </i>
   <v name="MAGPOS">      0.00000000      0.00000000      0.00000000</v>
   <i type="logical" name="LNICSALL"> T  </i>
   <i type="logical" name="ORBITALMAG"> F  </i>
   <i type="logical" name="LMAGBLOCH"> F  </i>
   <i type="logical" name="LCHIMAG"> F  </i>
   <i type="logical" name="LGAUGE"> T  </i>
   <i type="int" name="MAGATOM">     0</i>
   <v name="MAGDIPOL">      0.00000000      0.00000000      0.00000000</v>
   <v name="AVECCONST">      0.00000000      0.00000000      0.00000000</v>
  </separator>
  <separator name="response functions" >
   <i type="logical" name="LADDER"> F  </i>
   <i type="logical" name="LRPAFORCE"> F  </i>
   <i type="logical" name="LFXC"> F  </i>
   <i type="logical" name="LHARTREE"> T  </i>
   <i type="int" name="IBSE">     0</i>
   <v type="int" name="KPOINT">    -1     0     0     0</v>
   <i type="logical" name="LTCTE"> F  </i>
   <i type="logical" name="LTETE"> F  </i>
   <i type="logical" name="LTRIPLET"> F  </i>
   <i type="logical" name="LFXCEPS"> F  </i>
   <i type="logical" name="LFXHEG"> F  </i>
   <i type="int" name="NATURALO">     2</i>
   <i type="logical" name="L2ORDER"> F  </i>
   <i type="logical" name="LMP2LT"> F  </i>
   <i type="logical" name="LUSEW"> F  </i>
   <i name="ENCUTGW">     -2.00000000</i>
   <i name="ENCUTGWSOFT">     -2.00000000</i>
   <i name="ENCUTLF">     -1.00000000</i>
   <i type="int" name="LMAXMP2">    -1</i>
   <i name="SCISSOR">      0.00000000</i>
   <i type="int" name="NOMEGA">     0</i>
   <i type="int" name="NOMEGAR">     0</i>
   <i type="int" name="NBANDSGW">    -1</i>
   <i type="int" name="NBANDSO">    -1</i>
   <i type="int" name="NBANDSV">    -1</i>
   <i type="int" name="NELM">     1</i>
   <i type="int" name="NELMHF">     1</i>
   <i type="int" name="DIM">     3</i>
   <i type="int" name="ANTIRES">     0</i>
   <i name="OMEGAMAX">    -30.00000000</i>
   <i name="OMEGAMIN">    -30.00000000</i>
   <i name="OMEGATL">   -200.00000000</i>
   <i type="int" name="OMEGAGRID">   140</i>
   <i name="CSHIFT">     -0.10000000</i>
   <i type="logical" name="SELFENERGY"> F  </i>
   <i type="logical" name="LSPECTRAL"> F  </i>
   <i type="logical" name="LSPECTRALGW"> F  </i>
   <i type="logical" name="LSINGLES"> F  </i>
   <i type="logical" name="LFERMIGW"> F  </i>
   <i type="logical" name="ODDONLYGW"> F  </i>
   <i type="logical" name="EVENONLYGW"> F  </i>
   <i type="int" name="NKREDLFX">     1</i>
   <i type="int" name="NKREDLFY">     1</i>
   <i type="int" name="NKREDLFZ">     1</i>
   <i type="int" name="MAXMEM">  2800</i>
   <i type="int" name="TELESCOPE">     0</i>
   <i type="int" name="TAUPAR">     1</i>
   <i type="int" name="OMEGAPAR">    -1</i>
   <i name="LAMBDA">      1.00000000</i>
  </separator>
  <separator name="External order field" >
   <i name="OFIELD_KAPPA">      0.00000000</i>
   <v name="OFIELD_K">      0.00000000      0.00000000      0.00000000</v>
   <i name="OFIELD_Q6_NEAR">      0.00000000</i>
   <i name="OFIELD_Q6_FAR">      0.00000000</i>
   <i name="OFIELD_A">      0.00000000</i>
  </separator>
 </parameters>
 <atominfo>
  <atoms>       1 </atoms>
  <types>       1 </types>
  <array name="atoms" >
   <dimension dim="1">ion</dimension>
   <field type="string">element</field>
   <field type="int">atomtype</field>
   <set>
    <rc><c>Au</c><c>   1</c></rc>
   </set>
  </array>
  <array name="atomtypes" >
   <dimension dim="1">type</dimension>
   <field type="int">atomspertype</field>
   <field type="string">element</field>
   <field>mass</field>
   <field>valence</field>
   <field type="string">pseudopotential</field>
   <set>
    <rc><c>   1</c><c>Au</c><c>    196.96600000</c><c>     11.00000000</c><c> PAW Au 04Feb1998                       </c></rc>
   </set>
  </array>
 </atominfo>
 <structure name="initialpos" >
  <crystal>
   <varray name="basis" >
    <v>       0.00000000       1.92500000       1.92500000 </v>
    <v>       1.92500000       0.00000000       1.92500000 </v>
    <v>       1.92500000       1.92500000       0.00000000 </v>
   </varray>
   <i name="volume">     14.26665625 </i>
   <varray name="rec_basis" >
    <v>      -0.25974026       0.25974026       0.25974026 </v>
    <v>       0.25974026      -0.25974026       0.25974026 </v>
    <v>       0.25974026       0.25974026      -0.25974026 </v>
   </varray>
  </crystal>
  <varray name="positions" >
   <v>       0.00000000       0.00000000       0.00000000 </v>
  </varray>
 </structure>
 <calculation>
  <scstep>
   <time name="dav">    0.28    0.83</time>
   <time name="total">    0.29    1.03</time>
   <energy>
    <i name="alphaZ">    128.82341228 </i>
    <i name="ewald">  -1037.47345503 </i>
    <i name="hartreedc">   -122.77884415 </i>
    <i name="XCdc">     17.99448299 </i>
    <i name="pawpsdc">    826.16114012 </i>
    <i name="pawaedc">   -810.25937099 </i>
    <i name="eentropy">     -0.00195249 </i>
    <i name="bandstr">     59.26069953 </i>
    <i name="atom">    929.39633208 </i>
    <i name="e_fr_energy">     -8.87755565 </i>
    <i name="e_wo_entrp">     -8.87560316 </i>
    <i name="e_0_energy">     -8.87690482 </i>
   </energy>
  </scstep>
  <scstep>
   <time name="dav">    0.29    0.88</time>
   <time name="total">    0.30    0.91</time>
   <energy>
    <i name="e_fr_energy">     -4.35453427 </i>
    <i name="e_wo_entrp">     -4.35377972 </i>
    <i name="e_0_energy">     -4.35428275 </i>
   </energy>
  </scstep>
  <scstep>
   <time name="dav">    0.32    0.97</time>
   <time name="total">    0.33    0.99</time>
   <energy>
    <i name="e_fr_energy">     -4.07353495 </i>
    <i name="e_wo_entrp">     -4.07311259 </i>
    <i name="e_0_energy">     -4.07339417 </i>
   </energy>
  </scstep>
  <scstep>
   <time name="dav">    0.31    0.95</time>
   <time name="total">    0.32    0.97</time>
   <energy>
    <i name="e_fr_energy">     -4.07703418 </i>
    <i name="e_wo_entrp">     -4.07660395 </i>
    <i name="e_0_energy">     -4.07689077 </i>
   </energy>
  </scstep>
  <scstep>
   <time name="dav">    0.34    1.02</time>
   <time name="total">    0.35    1.03</time>
   <energy>
    <i name="alphaZ">    128.82341228 </i>
    <i name="ewald">  -1037.47345503 </i>
    <i name="hartreedc">    -90.28416653 </i>
    <i name="XCdc">     16.37014389 </i>
    <i name="pawpsdc">    789.95715660 </i>
    <i name="pawaedc">   -773.23088004 </i>
    <i name="eentropy">     -0.00041674 </i>
    <i name="bandstr">     32.36487767 </i>
    <i name="atom">    929.39633208 </i>
    <i name="e_fr_energy">     -4.07699582 </i>
    <i name="e_wo_entrp">     -4.07657907 </i>
    <i name="e_0_energy">     -4.07685690 </i>
   </energy>
  </scstep>
  <structure>
   <crystal>
    <varray name="basis" >
     <v>       0.00000000       1.92500000       1.92500000 </v>
     <v>       1.92500000       0.00000000       1.92500000 </v>
     <v>       1.92500000       1.92500000       0.00000000 </v>
    </varray>
    <i name="volume">     14.26665625 </i>
    <varray name="rec_basis" >
     <v>      -0.25974026       0.25974026       0.25974026 </v>
     <v>       0.25974026      -0.25974026       0.25974026 </v>
     <v>       0.25974026       0.25974026      -0.25974026 </v>
    </varray>
   </crystal>
   <varray name="positions" >
    <v>       0.00000000       0.00000000       0.00000000 </v>
   </varray>
  </structure>
  <varray name="forces" >
   <v>      -0.00000000      -0.00000000       0.00000000 </v>
  </varray>
  <varray name="stress" >
   <v>     454.61653961       0.00000000       0.00000000 </v>
   <v>       0.00000000     454.61653961       0.00000000 </v>
   <v>       0.00000000       0.00000000     454.61653961 </v>
  </varray>
  <energy>
   <i name="e_fr_energy">     -4.07699582 </i>
   <i name="e_wo_entrp">     -4.07685690 </i>
   <i name="e_0_energy">     -0.00041674 </i>
  </energy>
  <time name="totalsc">    1.72    5.27</time>
  <eigenvalues>
   <array>
    <dimension dim="1">band</dimension>
    <dimension dim="2">kpoint</dimension>
    <dimension dim="3">spin</dimension>
    <field>eigene</field>
    <field>occ</field>
    <set>
     <set comment="spin 1">
      <set comment="kpoint 1">
       <r>   -3.7237    1.0000 </r>
       <r>    2.2948    1.0000 </r>
       <r>    2.3767    1.0000 </r>
       <r>    2.3767    1.0000 </r>
       <r>    4.4115    1.0000 </r>
       <r>    4.4115    1.0000 </r>
       <r>   23.5082    0.0000 </r>
       <r>   27.6001    0.0000 </r>
       <r>   28.4458    0.0000 </r>
       <r>   28.4458    0.0000 </r>
       <r>   33.6785    0.0000 </r>
       <r>   38.4189    0.0000 </r>
      </set>
      <set comment="kpoint 2">
       <r>   -3.1889    1.0000 </r>
       <r>    2.0792    1.0000 </r>
       <r>    2.5591    1.0000 </r>
       <r>    2.6006    1.0000 </r>
       <r>    4.1981    1.0000 </r>
       <r>    4.4735    1.0000 </r>
       <r>   24.1718    0.0000 </r>
       <r>   25.5455    0.0000 </r>
       <r>   28.3389    0.0000 </r>
       <r>   29.5712    0.0000 </r>
       <r>   34.0138    0.0000 </r>
       <r>   36.9112    0.0000 </r>
      </set>
      <set comment="kpoint 3">
       <r>   -2.0587    1.0000 </r>
       <r>    1.9083    1.0000 </r>
       <r>    2.7529    1.0000 </r>
       <r>    2.7867    1.0000 </r>
       <r>    4.2021    1.0000 </r>
       <r>    4.7556    1.0000 </r>
       <r>   22.0219    0.0000 </r>
       <r>   24.9691    0.0000 </r>
       <r>   29.0616    0.0000 </r>
       <r>   31.2938    0.0000 </r>
       <r>   31.4891    0.0000 </r>
       <r>   34.6146    0.0000 </r>
      </set>
      <set comment="kpoint 4">
       <r>   -1.1306    1.0000 </r>
       <r>    2.5048    1.0000 </r>
       <r>    2.6253    1.0000 </r>
       <r>    2.7295    1.0000 </r>
       <r>    4.8619    1.0000 </r>
       <r>    5.5149    1.0000 </r>
       <r>   17.9997    0.0000 </r>
       <r>   24.1103    0.0000 </r>
       <r>   28.2596    0.0000 </r>
       <r>   30.7745    0.0000 </r>
       <r>   32.4644    0.0000 </r>
       <r>   34.0260    0.0000 </r>
      </set>
      <set comment="kpoint 5">
       <r>   -0.9562    1.0000 </r>
       <r>    2.3043    1.0000 </r>
       <r>    2.4015    1.0000 </r>
       <r>    4.5393    1.0000 </r>
       <r>    5.6894    1.0000 </r>
       <r>    6.4899    1.0000 </r>
       <r>   14.0267    0.0000 </r>
       <r>   23.0757    0.0000 </r>
       <r>   27.0087    0.0000 </r>
       <r>   28.2099    0.0000 </r>
       <r>   34.9656    0.0000 </r>
       <r>   35.6221    0.0000 </r>
      </set>
      <set comment="kpoint 6">
       <r>   -0.9679    1.0000 </r>
       <r>    2.2147    1.0000 </r>
       <r>    2.3472    1.0000 </r>
       <r>    5.1815    1.0000 </r>
       <r>    6.0874    1.0000 </r>
       <r>    7.1446    1.0000 </r>
       <r>   12.3656   -0.0000 </r>
       <r>   22.7959    0.0000 </r>
       <r>   26.9958    0.0000 </r>
       <r>   27.0883    0.0000 </r>
       <r>   35.8313    0.0000 </r>
       <r>   35.9621    0.0000 </r>
      </set>
      <set comment="kpoint 7">
       <r>   -0.9686    1.0000 </r>
       <r>    2.3450    1.0000 </r>
       <r>    2.4953    1.0000 </r>
       <r>    3.8486    1.0000 </r>
       <r>    5.8050    1.0000 </r>
       <r>    5.8416    1.0000 </r>
       <r>   15.2574    0.0000 </r>
       <r>   23.3606    0.0000 </r>
       <r>   27.5999    0.0000 </r>
       <r>   28.5431    0.0000 </r>
       <r>   34.9449    0.0000 </r>
       <r>   35.7390    0.0000 </r>
      </set>
      <set comment="kpoint 8">
       <r>   -1.3507    1.0000 </r>
       <r>    2.2188    1.0000 </r>
       <r>    2.6381    1.0000 </r>
       <r>    2.7297    1.0000 </r>
       <r>    4.7304    1.0000 </r>
       <r>    5.1116    1.0000 </r>
       <r>   19.3891    0.0000 </r>
       <r>   24.5509    0.0000 </r>
       <r>   28.8895    0.0000 </r>
       <r>   30.7953    0.0000 </r>
       <r>   32.3474    0.0000 </r>
       <r>   34.2859    0.0000 </r>
      </set>
      <set comment="kpoint 9">
       <r>   -2.4683    1.0000 </r>
       <r>    1.8986    1.0000 </r>
       <r>    2.7453    1.0000 </r>
       <r>    2.7642    1.0000 </r>
       <r>    4.1437    1.0000 </r>
       <r>    4.5901    1.0000 </r>
       <r>   23.2553    0.0000 </r>
       <r>   24.9158    0.0000 </r>
       <r>   28.9713    0.0000 </r>
       <r>   30.2265    0.0000 </r>
       <r>   32.5398    0.0000 </r>
       <r>   35.0899    0.0000 </r>
      </set>
      <set comment="kpoint 10">
       <r>   -3.4510    1.0000 </r>
       <r>    2.1458    1.0000 </r>
       <r>    2.5020    1.0000 </r>
       <r>    2.5103    1.0000 </r>
       <r>    4.2345    1.0000 </r>
       <r>    4.4891    1.0000 </r>
       <r>   23.8781    0.0000 </r>
       <r>   26.6495    0.0000 </r>
       <r>   28.3551    0.0000 </r>
       <r>   28.6712    0.0000 </r>
       <r>   34.8349    0.0000 </r>
       <r>   37.3925    0.0000 </r>
      </set>
      <set comment="kpoint 11">
       <r>   -2.9242    1.0000 </r>
       <r>    1.8502    1.0000 </r>
       <r>    2.7645    1.0000 </r>
       <r>    2.7711    1.0000 </r>
       <r>    3.9251    1.0000 </r>
       <r>    4.6372    1.0000 </r>
       <r>   24.5587    0.0000 </r>
       <r>   25.7549    0.0000 </r>
       <r>   27.9761    0.0000 </r>
       <r>   28.4477    0.0000 </r>
       <r>   34.7923    0.0000 </r>
       <r>   36.0571    0.0000 </r>
      </set>
      <set comment="kpoint 12">
       <r>   -1.9785    1.0000 </r>
       <r>    1.5143    1.0000 </r>
       <r>    2.8830    1.0000 </r>
       <r>    3.1383    1.0000 </r>
       <r>    3.8462    1.0000 </r>
       <r>    4.9316    1.0000 </r>
       <r>   23.5475    0.0000 </r>
       <r>   25.2369    0.0000 </r>
       <r>   27.4044    0.0000 </r>
       <r>   28.7651    0.0000 </r>
       <r>   32.6859    0.0000 </r>
       <r>   35.2262    0.0000 </r>
      </set>
      <set comment="kpoint 13">
       <r>   -0.8715    1.0000 </r>
       <r>    1.6213    1.0000 </r>
       <r>    2.4679    1.0000 </r>
       <r>    3.1456    1.0000 </r>
       <r>    4.7182    1.0000 </r>
       <r>    5.6935    1.0000 </r>
       <r>   19.6471    0.0000 </r>
       <r>   24.7186    0.0000 </r>
       <r>   26.4509    0.0000 </r>
       <r>   29.0331    0.0000 </r>
       <r>   33.1329    0.0000 </r>
       <r>   34.5216    0.0000 </r>
      </set>
      <set comment="kpoint 14">
       <r>   -0.5164    1.0000 </r>
       <r>    2.0569    1.0000 </r>
       <r>    2.7461    1.0000 </r>
       <r>    2.9678    1.0000 </r>
       <r>    5.7586    1.0000 </r>
       <r>    7.0583    1.0000 </r>
       <r>   15.4025    0.0000 </r>
       <r>   23.7487    0.0000 </r>
       <r>   25.3605    0.0000 </r>
       <r>   27.7722    0.0000 </r>
       <r>   34.6162    0.0000 </r>
       <r>   36.2488    0.0000 </r>
      </set>
      <set comment="kpoint 15">
       <r>   -0.5179    1.0000 </r>
       <r>    1.8871    1.0000 </r>
       <r>    2.7406    1.0000 </r>
       <r>    3.8424    1.0000 </r>
       <r>    6.0184    1.0000 </r>
       <r>    8.9404   -0.0000 </r>
       <r>   12.2733   -0.0000 </r>
       <r>   23.2078    0.0000 </r>
       <r>   25.0407    0.0000 </r>
       <r>   26.6141    0.0000 </r>
       <r>   35.6181    0.0000 </r>
       <r>   36.5784    0.0000 </r>
      </set>
      <set comment="kpoint 16">
       <r>   -0.4818    1.0000 </r>
       <r>    1.9975    1.0000 </r>
       <r>    2.7727    1.0000 </r>
       <r>    3.4115    1.0000 </r>
       <r>    5.5667    1.0000 </r>
       <r>    7.8753    1.0079 </r>
       <r>   14.1999    0.0000 </r>
       <r>   23.2770    0.0000 </r>
       <r>   24.9923    0.0000 </r>
       <r>   27.8932    0.0000 </r>
       <r>   34.3189    0.0000 </r>
       <r>   36.3694    0.0000 </r>
      </set>
      <set comment="kpoint 17">
       <r>   -0.6188    1.0000 </r>
       <r>    1.9908    1.0000 </r>
       <r>    2.3817    1.0000 </r>
       <r>    3.0270    1.0000 </r>
       <r>    4.6137    1.0000 </r>
       <r>    6.3824    1.0000 </r>
       <r>   18.2493    0.0000 </r>
       <r>   23.8798    0.0000 </r>
       <r>   26.0332    0.0000 </r>
       <r>   30.0498    0.0000 </r>
       <r>   32.1931    0.0000 </r>
       <r>   35.3314    0.0000 </r>
      </set>
      <set comment="kpoint 18">
       <r>   -1.5732    1.0000 </r>
       <r>    1.5703    1.0000 </r>
       <r>    2.7354    1.0000 </r>
       <r>    3.1680    1.0000 </r>
       <r>    3.8395    1.0000 </r>
       <r>    5.2776    1.0000 </r>
       <r>   22.1636    0.0000 </r>
       <r>   24.6464    0.0000 </r>
       <r>   27.8156    0.0000 </r>
       <r>   28.9399    0.0000 </r>
       <r>   33.0313    0.0000 </r>
       <r>   34.8292    0.0000 </r>
      </set>
      <set comment="kpoint 19">
       <r>   -2.6829    1.0000 </r>
       <r>    1.8527    1.0000 </r>
       <r>    2.7662    1.0000 </r>
       <r>    2.7823    1.0000 </r>
       <r>    3.9804    1.0000 </r>
       <r>    4.6449    1.0000 </r>
       <r>   24.3775    0.0000 </r>
       <r>   24.8216    0.0000 </r>
       <r>   28.0122    0.0000 </r>
       <r>   29.8667    0.0000 </r>
       <r>   32.9448    0.0000 </r>
       <r>   36.1620    0.0000 </r>
      </set>
      <set comment="kpoint 20">
       <r>   -1.3660    1.0000 </r>
       <r>    1.0408    1.0000 </r>
       <r>    3.0738    1.0000 </r>
       <r>    3.6448    1.0000 </r>
       <r>    3.8937    1.0000 </r>
       <r>    5.0993    1.0000 </r>
       <r>   24.2134    0.0000 </r>
       <r>   25.6090    0.0000 </r>
       <r>   26.0881    0.0000 </r>
       <r>   27.0394    0.0000 </r>
       <r>   30.1059    0.0000 </r>
       <r>   36.0728    0.0000 </r>
      </set>
      <set comment="kpoint 21">
       <r>   -0.5033    1.0000 </r>
       <r>    0.7463    1.0000 </r>
       <r>    2.7220    1.0000 </r>
       <r>    4.1069    1.0000 </r>
       <r>    4.7572    1.0000 </r>
       <r>    5.7273    1.0000 </r>
       <r>   21.4670    0.0000 </r>
       <r>   23.5739    0.0000 </r>
       <r>   25.0769    0.0000 </r>
       <r>   28.0515    0.0000 </r>
       <r>   29.8081    0.0000 </r>
       <r>   36.2349    0.0000 </r>
      </set>
      <set comment="kpoint 22">
       <r>   -0.0412    1.0000 </r>
       <r>    1.0713    1.0000 </r>
       <r>    2.4009    1.0000 </r>
       <r>    3.9236    1.0000 </r>
       <r>    5.8869    1.0000 </r>
       <r>    7.4017    1.0000 </r>
       <r>   17.0465    0.0000 </r>
       <r>   22.8778    0.0000 </r>
       <r>   23.2649    0.0000 </r>
       <r>   27.5808    0.0000 </r>
       <r>   33.0659    0.0000 </r>
       <r>   36.5282    0.0000 </r>
      </set>
      <set comment="kpoint 23">
       <r>    0.0903    1.0000 </r>
       <r>    1.3916    1.0000 </r>
       <r>    2.6410    1.0000 </r>
       <r>    3.6507    1.0000 </r>
       <r>    6.0655    1.0000 </r>
       <r>   10.2106   -0.0000 </r>
       <r>   13.1177   -0.0000 </r>
       <r>   21.5215    0.0000 </r>
       <r>   23.3812    0.0000 </r>
       <r>   26.8127    0.0000 </r>
       <r>   35.6215    0.0000 </r>
       <r>   37.7351    0.0000 </r>
      </set>
      <set comment="kpoint 24">
       <r>    0.3242    1.0000 </r>
       <r>    1.4818    1.0000 </r>
       <r>    2.6441    1.0000 </r>
       <r>    3.5089    1.0000 </r>
       <r>    5.5072    1.0000 </r>
       <r>   10.0410   -0.0000 </r>
       <r>   13.8190    0.0000 </r>
       <r>   20.3375    0.0000 </r>
       <r>   24.5915    0.0000 </r>
       <r>   27.0355    0.0000 </r>
       <r>   34.4755    0.0000 </r>
       <r>   37.1416    0.0000 </r>
      </set>
      <set comment="kpoint 25">
       <r>    0.4775    1.0000 </r>
       <r>    1.6189    1.0000 </r>
       <r>    1.9093    1.0000 </r>
       <r>    3.6140    1.0000 </r>
       <r>    4.5642    1.0000 </r>
       <r>    8.1083    0.9992 </r>
       <r>   17.4600    0.0000 </r>
       <r>   20.3571    0.0000 </r>
       <r>   25.4972    0.0000 </r>
       <r>   29.1869    0.0000 </r>
       <r>   31.7250    0.0000 </r>
       <r>   37.1496    0.0000 </r>
      </set>
      <set comment="kpoint 26">
       <r>   -0.3916    1.0000 </r>
       <r>    1.4662    1.0000 </r>
       <r>    2.3487    1.0000 </r>
       <r>    3.4629    1.0000 </r>
       <r>    4.0232    1.0000 </r>
       <r>    6.5090    1.0000 </r>
       <r>   19.7165    0.0000 </r>
       <r>   22.7700    0.0000 </r>
       <r>   26.4019    0.0000 </r>
       <r>   29.6439    0.0000 </r>
       <r>   31.9460    0.0000 </r>
       <r>   36.0338    0.0000 </r>
      </set>
      <set comment="kpoint 27">
       <r>   -1.4988    1.0000 </r>
       <r>    1.8052    1.0000 </r>
       <r>    2.7028    1.0000 </r>
       <r>    2.9119    1.0000 </r>
       <r>    4.2792    1.0000 </r>
       <r>    5.1781    1.0000 </r>
       <r>   20.8453    0.0000 </r>
       <r>   24.9351    0.0000 </r>
       <r>   28.0470    0.0000 </r>
       <r>   30.1370    0.0000 </r>
       <r>   32.8402    0.0000 </r>
       <r>   33.8259    0.0000 </r>
      </set>
      <set comment="kpoint 28">
       <r>   -0.4335    1.0000 </r>
       <r>    0.2499    1.0000 </r>
       <r>    3.8229    1.0000 </r>
       <r>    4.8288    1.0000 </r>
       <r>    5.3309    1.0000 </r>
       <r>    5.6659    1.0000 </r>
       <r>   21.4184    0.0000 </r>
       <r>   22.2753    0.0000 </r>
       <r>   22.9621    0.0000 </r>
       <r>   26.9928    0.0000 </r>
       <r>   28.9409    0.0000 </r>
       <r>   38.6793    0.0000 </r>
      </set>
      <set comment="kpoint 29">
       <r>   -0.3176    1.0000 </r>
       <r>    0.1112    1.0000 </r>
       <r>    3.9055    1.0000 </r>
       <r>    5.2237    1.0000 </r>
       <r>    5.9044    1.0000 </r>
       <r>    7.3927    1.0000 </r>
       <r>   18.3933    0.0000 </r>
       <r>   20.5391    0.0000 </r>
       <r>   21.2171    0.0000 </r>
       <r>   28.1177    0.0000 </r>
       <r>   30.1661    0.0000 </r>
       <r>   38.4052    0.0000 </r>
      </set>
      <set comment="kpoint 30">
       <r>   -0.1254    1.0000 </r>
       <r>    0.5094    1.0000 </r>
       <r>    3.4432    1.0000 </r>
       <r>    4.8118    1.0000 </r>
       <r>    6.2023    1.0000 </r>
       <r>   10.4698   -0.0000 </r>
       <r>   14.6923    0.0000 </r>
       <r>   18.9648    0.0000 </r>
       <r>   21.1994    0.0000 </r>
       <r>   28.2503    0.0000 </r>
       <r>   33.1683    0.0000 </r>
       <r>   37.3939    0.0000 </r>
      </set>
      <set comment="kpoint 31">
       <r>    0.2561    1.0000 </r>
       <r>    1.1567    1.0000 </r>
       <r>    2.7347    1.0000 </r>
       <r>    4.3596    1.0000 </r>
       <r>    5.7496    1.0000 </r>
       <r>   11.8251   -0.0000 </r>
       <r>   14.1774    0.0000 </r>
       <r>   17.1416    0.0000 </r>
       <r>   22.8262    0.0000 </r>
       <r>   27.7377    0.0000 </r>
       <r>   35.8291    0.0000 </r>
       <r>   37.0135    0.0000 </r>
      </set>
      <set comment="kpoint 32">
       <r>    0.6624    1.0000 </r>
       <r>    1.5315    1.0000 </r>
       <r>    2.0851    1.0000 </r>
       <r>    3.8711    1.0000 </r>
       <r>    5.1793    1.0000 </r>
       <r>    9.8982   -0.0000 </r>
       <r>   15.8384    0.0000 </r>
       <r>   18.1414    0.0000 </r>
       <r>   24.7334    0.0000 </r>
       <r>   27.5009    0.0000 </r>
       <r>   33.8345    0.0000 </r>
       <r>   37.3112    0.0000 </r>
      </set>
      <set comment="kpoint 33">
       <r>   -0.0251    1.0000 </r>
       <r>    1.8592    1.0000 </r>
       <r>    2.4695    1.0000 </r>
       <r>    3.2078    1.0000 </r>
       <r>    5.0549    1.0000 </r>
       <r>    8.0430    1.0349 </r>
       <r>   15.7923    0.0000 </r>
       <r>   22.0737    0.0000 </r>
       <r>   25.0499    0.0000 </r>
       <r>   28.5649    0.0000 </r>
       <r>   32.8875    0.0000 </r>
       <r>   36.7387    0.0000 </r>
      </set>
      <set comment="kpoint 34">
       <r>   -0.8460    1.0000 </r>
       <r>    2.3469    1.0000 </r>
       <r>    2.6789    1.0000 </r>
       <r>    2.9070    1.0000 </r>
       <r>    5.2250    1.0000 </r>
       <r>    6.1380    1.0000 </r>
       <r>   16.6793    0.0000 </r>
       <r>   23.8556    0.0000 </r>
       <r>   26.8036    0.0000 </r>
       <r>   29.4062    0.0000 </r>
       <r>   33.4878    0.0000 </r>
       <r>   35.0683    0.0000 </r>
      </set>
      <set comment="kpoint 35">
       <r>   -0.6750    1.0000 </r>
       <r>   -0.2649    1.0000 </r>
       <r>    5.6707    1.0000 </r>
       <r>    5.7798    1.0000 </r>
       <r>    6.2431    1.0000 </r>
       <r>    7.6795    1.0001 </r>
       <r>   17.3084    0.0000 </r>
       <r>   19.4530    0.0000 </r>
       <r>   19.7253    0.0000 </r>
       <r>   27.4509    0.0000 </r>
       <r>   30.2790    0.0000 </r>
       <r>   39.6626    0.0000 </r>
      </set>
      <set comment="kpoint 36">
       <r>   -0.5958    1.0000 </r>
       <r>   -0.1965    1.0000 </r>
       <r>    5.1390    1.0000 </r>
       <r>    5.7024    1.0000 </r>
       <r>    6.4496    1.0000 </r>
       <r>    9.9710   -0.0000 </r>
       <r>   15.2457    0.0000 </r>
       <r>   18.3826    0.0000 </r>
       <r>   19.3388    0.0000 </r>
       <r>   28.5377    0.0000 </r>
       <r>   30.8340    0.0000 </r>
       <r>   38.7155    0.0000 </r>
      </set>
      <set comment="kpoint 37">
       <r>   -0.2058    1.0000 </r>
       <r>    0.3951    1.0000 </r>
       <r>    3.8177    1.0000 </r>
       <r>    5.0470    1.0000 </r>
       <r>    6.1955    1.0000 </r>
       <r>   11.9744   -0.0000 </r>
       <r>   13.8564    0.0000 </r>
       <r>   17.4444    0.0000 </r>
       <r>   20.7930    0.0000 </r>
       <r>   28.5641    0.0000 </r>
       <r>   33.2311    0.0000 </r>
       <r>   37.4308    0.0000 </r>
      </set>
      <set comment="kpoint 38">
       <r>    0.2300    1.0000 </r>
       <r>    1.2118    1.0000 </r>
       <r>    2.6789    1.0000 </r>
       <r>    4.0605    1.0000 </r>
       <r>    5.9224    1.0000 </r>
       <r>   12.1650   -0.0000 </r>
       <r>   12.3039   -0.0000 </r>
       <r>   19.2961    0.0000 </r>
       <r>   23.0086    0.0000 </r>
       <r>   27.3197    0.0000 </r>
       <r>   35.7282    0.0000 </r>
       <r>   37.4202    0.0000 </r>
      </set>
      <set comment="kpoint 39">
       <r>   -0.1231    1.0000 </r>
       <r>    1.6437    1.0000 </r>
       <r>    3.0912    1.0000 </r>
       <r>    3.2564    1.0000 </r>
       <r>    5.8401    1.0000 </r>
       <r>    9.9789   -0.0000 </r>
       <r>   12.3604   -0.0000 </r>
       <r>   22.3392    0.0000 </r>
       <r>   24.4272    0.0000 </r>
       <r>   26.5980    0.0000 </r>
       <r>   35.2404    0.0000 </r>
       <r>   36.8865    0.0000 </r>
      </set>
      <set comment="kpoint 40">
       <r>   -0.8033    1.0000 </r>
       <r>    2.1273    1.0000 </r>
       <r>    2.5013    1.0000 </r>
       <r>    4.3561    1.0000 </r>
       <r>    5.9524    1.0000 </r>
       <r>    7.5463    1.0000 </r>
       <r>   12.9998   -0.0000 </r>
       <r>   23.0892    0.0000 </r>
       <r>   26.1431    0.0000 </r>
       <r>   27.3433    0.0000 </r>
       <r>   35.4369    0.0000 </r>
       <r>   36.1397    0.0000 </r>
      </set>
      <set comment="kpoint 41">
       <r>   -0.7828    1.0000 </r>
       <r>   -0.3736    1.0000 </r>
       <r>    5.9460    1.0000 </r>
       <r>    6.1037    1.0000 </r>
       <r>    6.4663    1.0000 </r>
       <r>    8.8653   -0.0001 </r>
       <r>   15.6649    0.0000 </r>
       <r>   18.7833    0.0000 </r>
       <r>   19.1288    0.0000 </r>
       <r>   27.6620    0.0000 </r>
       <r>   30.5637    0.0000 </r>
       <r>   39.3924    0.0000 </r>
      </set>
      <set comment="kpoint 42">
       <r>   -0.4854    1.0000 </r>
       <r>   -0.0920    1.0000 </r>
       <r>    4.6489    1.0000 </r>
       <r>    5.5992    1.0000 </r>
       <r>    6.2311    1.0000 </r>
       <r>    8.7535   -0.0019 </r>
       <r>   16.6776    0.0000 </r>
       <r>   19.1704    0.0000 </r>
       <r>   19.9448    0.0000 </r>
       <r>   28.3495    0.0000 </r>
       <r>   30.6003    0.0000 </r>
       <r>   38.7273    0.0000 </r>
      </set>
      <set comment="kpoint 43">
       <r>   -0.0282    1.0000 </r>
       <r>    0.7434    1.0000 </r>
       <r>    2.8902    1.0000 </r>
       <r>    4.3962    1.0000 </r>
       <r>    6.1326    1.0000 </r>
       <r>    8.8337   -0.0003 </r>
       <r>   15.7770    0.0000 </r>
       <r>   21.0136    0.0000 </r>
       <r>   21.9972    0.0000 </r>
       <r>   27.8111    0.0000 </r>
       <r>   33.0951    0.0000 </r>
       <r>   37.1325    0.0000 </r>
      </set>
      <set comment="kpoint 44">
       <r>   -0.1818    1.0000 </r>
       <r>    1.7021    1.0000 </r>
       <r>    2.6727    1.0000 </r>
       <r>    3.2586    1.0000 </r>
       <r>    6.0412    1.0000 </r>
       <r>    8.4606   -0.0152 </r>
       <r>   14.1916    0.0000 </r>
       <r>   23.3014    0.0000 </r>
       <r>   24.0159    0.0000 </r>
       <r>   26.7787    0.0000 </r>
       <r>   35.3247    0.0000 </r>
       <r>   37.2955    0.0000 </r>
      </set>
      <set comment="kpoint 45">
       <r>   -0.5118    1.0000 </r>
       <r>   -0.0528    1.0000 </r>
       <r>    4.8351    1.0000 </r>
       <r>    5.3924    1.0000 </r>
       <r>    5.9505    1.0000 </r>
       <r>    6.3549    1.0000 </r>
       <r>   19.4987    0.0000 </r>
       <r>   20.8061    0.0000 </r>
       <r>   20.8214    0.0000 </r>
       <r>   27.1414    0.0000 </r>
       <r>   29.7325    0.0000 </r>
       <r>   39.8194    0.0000 </r>
      </set>
      <set comment="kpoint 46">
       <r>   -0.2366    1.0000 </r>
       <r>    0.3985    1.0000 </r>
       <r>    3.1427    1.0000 </r>
       <r>    4.6800    1.0000 </r>
       <r>    5.4259    1.0000 </r>
       <r>    6.3541    1.0000 </r>
       <r>   20.0145    0.0000 </r>
       <r>   22.0400    0.0000 </r>
       <r>   23.1364    0.0000 </r>
       <r>   28.0782    0.0000 </r>
       <r>   29.6648    0.0000 </r>
       <r>   37.4682    0.0000 </r>
      </set>
      <set comment="kpoint 47">
       <r>   -0.3243    1.0000 </r>
       <r>    1.3900    1.0000 </r>
       <r>    2.2518    1.0000 </r>
       <r>    3.4895    1.0000 </r>
       <r>    5.3792    1.0000 </r>
       <r>    6.3572    1.0000 </r>
       <r>   18.3729    0.0000 </r>
       <r>   24.0907    0.0000 </r>
       <r>   24.8681    0.0000 </r>
       <r>   27.9804    0.0000 </r>
       <r>   33.0873    0.0000 </r>
       <r>   35.6252    0.0000 </r>
      </set>
      <set comment="kpoint 48">
       <r>   -0.6903    1.0000 </r>
       <r>    0.6239    1.0000 </r>
       <r>    3.1611    1.0000 </r>
       <r>    4.2178    1.0000 </r>
       <r>    4.5312    1.0000 </r>
       <r>    5.3831    1.0000 </r>
       <r>   23.0158    0.0000 </r>
       <r>   23.9315    0.0000 </r>
       <r>   25.0826    0.0000 </r>
       <r>   27.5076    0.0000 </r>
       <r>   28.1568    0.0000 </r>
       <r>   37.1736    0.0000 </r>
      </set>
      <set comment="kpoint 49">
       <r>   -1.1776    1.0000 </r>
       <r>    1.1296    1.0000 </r>
       <r>    2.7616    1.0000 </r>
       <r>    3.5852    1.0000 </r>
       <r>    4.1431    1.0000 </r>
       <r>    5.2925    1.0000 </r>
       <r>   22.6350    0.0000 </r>
       <r>   24.8807    0.0000 </r>
       <r>   26.6465    0.0000 </r>
       <r>   27.7542    0.0000 </r>
       <r>   31.3549    0.0000 </r>
       <r>   35.1809    0.0000 </r>
      </set>
      <set comment="kpoint 50">
       <r>   -2.1916    1.0000 </r>
       <r>    1.4650    1.0000 </r>
       <r>    3.0795    1.0000 </r>
       <r>    3.1551    1.0000 </r>
       <r>    3.6434    1.0000 </r>
       <r>    4.8461    1.0000 </r>
       <r>   24.9464    0.0000 </r>
       <r>   25.5394    0.0000 </r>
       <r>   27.0555    0.0000 </r>
       <r>   27.6933    0.0000 </r>
       <r>   32.9039    0.0000 </r>
       <r>   35.5926    0.0000 </r>
      </set>
      <set comment="kpoint 51">
       <r>   -2.9425    1.0000 </r>
       <r>    2.0537    1.0000 </r>
       <r>    2.6254    1.0000 </r>
       <r>    2.6254    1.0000 </r>
       <r>    4.3366    1.0000 </r>
       <r>    4.3366    1.0000 </r>
       <r>   24.1740    0.0000 </r>
       <r>   24.7149    0.0000 </r>
       <r>   29.4592    0.0000 </r>
       <r>   29.4592    0.0000 </r>
       <r>   33.3896    0.0000 </r>
       <r>   36.3815    0.0000 </r>
      </set>
      <set comment="kpoint 52">
       <r>   -2.2185    1.0000 </r>
       <r>    1.7745    1.0000 </r>
       <r>    2.7848    1.0000 </r>
       <r>    2.8978    1.0000 </r>
       <r>    3.9030    1.0000 </r>
       <r>    4.8567    1.0000 </r>
       <r>   23.2405    0.0000 </r>
       <r>   24.8622    0.0000 </r>
       <r>   27.9331    0.0000 </r>
       <r>   30.6967    0.0000 </r>
       <r>   31.6183    0.0000 </r>
       <r>   36.6387    0.0000 </r>
      </set>
      <set comment="kpoint 53">
       <r>   -1.0204    1.0000 </r>
       <r>    1.5640    1.0000 </r>
       <r>    2.6179    1.0000 </r>
       <r>    3.2713    1.0000 </r>
       <r>    3.7760    1.0000 </r>
       <r>    5.8385    1.0000 </r>
       <r>   20.9041    0.0000 </r>
       <r>   23.8242    0.0000 </r>
       <r>   27.4347    0.0000 </r>
       <r>   29.0679    0.0000 </r>
       <r>   32.9494    0.0000 </r>
       <r>   35.1517    0.0000 </r>
      </set>
      <set comment="kpoint 54">
       <r>   -0.3338    1.0000 </r>
       <r>    2.0734    1.0000 </r>
       <r>    2.4897    1.0000 </r>
       <r>    2.9890    1.0000 </r>
       <r>    4.6877    1.0000 </r>
       <r>    7.1548    1.0000 </r>
       <r>   16.9677    0.0000 </r>
       <r>   22.9992    0.0000 </r>
       <r>   25.5531    0.0000 </r>
       <r>   29.8686    0.0000 </r>
       <r>   31.9194    0.0000 </r>
       <r>   36.1545    0.0000 </r>
      </set>
      <set comment="kpoint 55">
       <r>   -0.3515    1.0000 </r>
       <r>    1.8659    1.0000 </r>
       <r>    2.8413    1.0000 </r>
       <r>    3.5470    1.0000 </r>
       <r>    5.6414    1.0000 </r>
       <r>    8.8189   -0.0004 </r>
       <r>   13.1783   -0.0000 </r>
       <r>   22.7738    0.0000 </r>
       <r>   24.9654    0.0000 </r>
       <r>   27.0848    0.0000 </r>
       <r>   34.8827    0.0000 </r>
       <r>   36.3689    0.0000 </r>
      </set>
      <set comment="kpoint 56">
       <r>   -0.4055    1.0000 </r>
       <r>    1.8234    1.0000 </r>
       <r>    2.9069    1.0000 </r>
       <r>    3.3490    1.0000 </r>
       <r>    6.1304    1.0000 </r>
       <r>    8.7152   -0.0040 </r>
       <r>   12.9638   -0.0000 </r>
       <r>   23.2097    0.0000 </r>
       <r>   25.5844    0.0000 </r>
       <r>   25.7261    0.0000 </r>
       <r>   36.0520    0.0000 </r>
       <r>   36.5851    0.0000 </r>
      </set>
      <set comment="kpoint 57">
       <r>   -0.4593    1.0000 </r>
       <r>    1.9346    1.0000 </r>
       <r>    2.2851    1.0000 </r>
       <r>    3.1280    1.0000 </r>
       <r>    5.9270    1.0000 </r>
       <r>    6.3720    1.0000 </r>
       <r>   16.8028    0.0000 </r>
       <r>   24.1892    0.0000 </r>
       <r>   25.5000    0.0000 </r>
       <r>   27.3494    0.0000 </r>
       <r>   35.0036    0.0000 </r>
       <r>   36.7253    0.0000 </r>
      </set>
      <set comment="kpoint 58">
       <r>   -1.0682    1.0000 </r>
       <r>    1.3009    1.0000 </r>
       <r>    2.6345    1.0000 </r>
       <r>    3.3128    1.0000 </r>
       <r>    4.6060    1.0000 </r>
       <r>    5.3026    1.0000 </r>
       <r>   21.1654    0.0000 </r>
       <r>   25.4911    0.0000 </r>
       <r>   26.2375    0.0000 </r>
       <r>   28.3119    0.0000 </r>
       <r>   32.1131    0.0000 </r>
       <r>   35.3019    0.0000 </r>
      </set>
      <set comment="kpoint 59">
       <r>   -1.8114    1.0000 </r>
       <r>    1.6252    1.0000 </r>
       <r>    2.8043    1.0000 </r>
       <r>    2.9927    1.0000 </r>
       <r>    4.1438    1.0000 </r>
       <r>    4.9271    1.0000 </r>
       <r>   22.2334    0.0000 </r>
       <r>   25.3188    0.0000 </r>
       <r>   27.8330    0.0000 </r>
       <r>   29.5318    0.0000 </r>
       <r>   32.4948    0.0000 </r>
       <r>   34.7890    0.0000 </r>
      </set>
      <set comment="kpoint 60">
       <r>   -0.8318    1.0000 </r>
       <r>    1.2875    1.0000 </r>
       <r>    2.4964    1.0000 </r>
       <r>    3.5431    1.0000 </r>
       <r>    4.1118    1.0000 </r>
       <r>    5.8093    1.0000 </r>
       <r>   21.0961    0.0000 </r>
       <r>   23.8721    0.0000 </r>
       <r>   26.6782    0.0000 </r>
       <r>   28.6123    0.0000 </r>
       <r>   32.9578    0.0000 </r>
       <r>   34.3437    0.0000 </r>
      </set>
      <set comment="kpoint 61">
       <r>    0.2030    1.0000 </r>
       <r>    1.3194    1.0000 </r>
       <r>    1.9578    1.0000 </r>
       <r>    3.8323    1.0000 </r>
       <r>    4.5337    1.0000 </r>
       <r>    7.2831    1.0000 </r>
       <r>   18.5601    0.0000 </r>
       <r>   21.5537    0.0000 </r>
       <r>   25.1753    0.0000 </r>
       <r>   29.8701    0.0000 </r>
       <r>   31.3998    0.0000 </r>
       <r>   36.7427    0.0000 </r>
      </set>
      <set comment="kpoint 62">
       <r>    0.3021    1.0000 </r>
       <r>    1.5138    1.0000 </r>
       <r>    2.3491    1.0000 </r>
       <r>    3.5633    1.0000 </r>
       <r>    5.4884    1.0000 </r>
       <r>    9.1705   -0.0000 </r>
       <r>   14.7239    0.0000 </r>
       <r>   21.1783    0.0000 </r>
       <r>   23.8908    0.0000 </r>
       <r>   28.1303    0.0000 </r>
       <r>   33.5947    0.0000 </r>
       <r>   37.6199    0.0000 </r>
      </set>
      <set comment="kpoint 63">
       <r>    0.2020    1.0000 </r>
       <r>    1.3911    1.0000 </r>
       <r>    2.7771    1.0000 </r>
       <r>    3.4773    1.0000 </r>
       <r>    5.9011    1.0000 </r>
       <r>   10.8759   -0.0000 </r>
       <r>   12.2723   -0.0000 </r>
       <r>   21.9001    0.0000 </r>
       <r>   22.8164    0.0000 </r>
       <r>   27.4090    0.0000 </r>
       <r>   34.8127    0.0000 </r>
       <r>   37.9970    0.0000 </r>
      </set>
      <set comment="kpoint 64">
       <r>    0.1477    1.0000 </r>
       <r>    1.5069    1.0000 </r>
       <r>    2.0775    1.0000 </r>
       <r>    3.7384    1.0000 </r>
       <r>    5.6558    1.0000 </r>
       <r>    8.3043    0.3815 </r>
       <r>   15.7781    0.0000 </r>
       <r>   22.1158    0.0000 </r>
       <r>   23.4549    0.0000 </r>
       <r>   28.1799    0.0000 </r>
       <r>   33.6053    0.0000 </r>
       <r>   37.1983    0.0000 </r>
      </set>
      <set comment="kpoint 65">
       <r>   -0.1716    1.0000 </r>
       <r>    0.9854    1.0000 </r>
       <r>    2.2644    1.0000 </r>
       <r>    4.0086    1.0000 </r>
       <r>    4.6577    1.0000 </r>
       <r>    6.4583    1.0000 </r>
       <r>   19.9078    0.0000 </r>
       <r>   22.6659    0.0000 </r>
       <r>   25.0686    0.0000 </r>
       <r>   28.9526    0.0000 </r>
       <r>   31.4872    0.0000 </r>
       <r>   35.4949    0.0000 </r>
      </set>
      <set comment="kpoint 66">
       <r>   -0.4395    1.0000 </r>
       <r>    0.9697    1.0000 </r>
       <r>    2.5312    1.0000 </r>
       <r>    3.7178    1.0000 </r>
       <r>    5.4425    1.0000 </r>
       <r>    5.6723    1.0000 </r>
       <r>   19.9147    0.0000 </r>
       <r>   24.5400    0.0000 </r>
       <r>   24.8611    0.0000 </r>
       <r>   27.4613    0.0000 </r>
       <r>   31.4832    0.0000 </r>
       <r>   36.2634    0.0000 </r>
      </set>
      <set comment="kpoint 67">
       <r>    0.1204    1.0000 </r>
       <r>    0.6967    1.0000 </r>
       <r>    2.4100    1.0000 </r>
       <r>    4.5371    1.0000 </r>
       <r>    5.2575    1.0000 </r>
       <r>    7.3119    1.0000 </r>
       <r>   18.6088    0.0000 </r>
       <r>   21.2964    0.0000 </r>
       <r>   23.2932    0.0000 </r>
       <r>   29.1401    0.0000 </r>
       <r>   30.9995    0.0000 </r>
       <r>   36.4371    0.0000 </r>
      </set>
      <set comment="kpoint 68">
       <r>    0.5113    1.0000 </r>
       <r>    0.8889    1.0000 </r>
       <r>    2.1257    1.0000 </r>
       <r>    4.6348    1.0000 </r>
       <r>    5.6743    1.0000 </r>
       <r>    9.4900   -0.0000 </r>
       <r>   16.4042    0.0000 </r>
       <r>   19.0920    0.0000 </r>
       <r>   21.7237    0.0000 </r>
       <r>   30.1574    0.0000 </r>
       <r>   32.1072    0.0000 </r>
       <r>   36.9029    0.0000 </r>
      </set>
      <set comment="kpoint 69">
       <r>    0.7198    1.0000 </r>
       <r>    1.1031    1.0000 </r>
       <r>    2.1417    1.0000 </r>
       <r>    4.1452    1.0000 </r>
       <r>    5.9990    1.0000 </r>
       <r>   12.2294   -0.0000 </r>
       <r>   13.2183   -0.0000 </r>
       <r>   18.8419    0.0000 </r>
       <r>   20.9681    0.0000 </r>
       <r>   29.6412    0.0000 </r>
       <r>   33.9820    0.0000 </r>
       <r>   38.1395    0.0000 </r>
      </set>
      <set comment="kpoint 70">
       <r>    0.9935    1.0000 </r>
       <r>    1.1714    1.0000 </r>
       <r>    1.6747    1.0000 </r>
       <r>    4.2502    1.0000 </r>
       <r>    5.6410    1.0000 </r>
       <r>   10.3448   -0.0000 </r>
       <r>   15.7638    0.0000 </r>
       <r>   18.1390    0.0000 </r>
       <r>   22.1092    0.0000 </r>
       <r>   29.9675    0.0000 </r>
       <r>   32.7665    0.0000 </r>
       <r>   38.6223    0.0000 </r>
      </set>
      <set comment="kpoint 71">
       <r>    0.5529    1.0000 </r>
       <r>    1.1368    1.0000 </r>
       <r>    1.7875    1.0000 </r>
       <r>    4.2862    1.0000 </r>
       <r>    5.1211    1.0000 </r>
       <r>    8.2431    0.6371 </r>
       <r>   17.4402    0.0000 </r>
       <r>   20.2898    0.0000 </r>
       <r>   23.5649    0.0000 </r>
       <r>   29.8130    0.0000 </r>
       <r>   31.6756    0.0000 </r>
       <r>   37.0370    0.0000 </r>
      </set>
      <set comment="kpoint 72">
       <r>   -0.2306    1.0000 </r>
       <r>    0.3470    1.0000 </r>
       <r>    3.5397    1.0000 </r>
       <r>    4.6781    1.0000 </r>
       <r>    6.2097    1.0000 </r>
       <r>    7.9414    1.0197 </r>
       <r>   17.0803    0.0000 </r>
       <r>   21.0019    0.0000 </r>
       <r>   21.6710    0.0000 </r>
       <r>   27.6858    0.0000 </r>
       <r>   31.4627    0.0000 </r>
       <r>   38.1405    0.0000 </r>
      </set>
      <set comment="kpoint 73">
       <r>   -0.1335    1.0000 </r>
       <r>    0.2474    1.0000 </r>
       <r>    3.5827    1.0000 </r>
       <r>    5.2367    1.0000 </r>
       <r>    6.1781    1.0000 </r>
       <r>    9.9435   -0.0000 </r>
       <r>   15.9560    0.0000 </r>
       <r>   18.6952    0.0000 </r>
       <r>   20.0455    0.0000 </r>
       <r>   29.6516    0.0000 </r>
       <r>   31.4373    0.0000 </r>
       <r>   37.2857    0.0000 </r>
      </set>
      <set comment="kpoint 74">
       <r>    0.1868    1.0000 </r>
       <r>    0.6487    1.0000 </r>
       <r>    2.9863    1.0000 </r>
       <r>    4.6670    1.0000 </r>
       <r>    6.4415    1.0000 </r>
       <r>   12.6185   -0.0000 </r>
       <r>   14.4062    0.0000 </r>
       <r>   17.0797    0.0000 </r>
       <r>   19.2983    0.0000 </r>
       <r>   31.0963    0.0000 </r>
       <r>   33.1574    0.0000 </r>
       <r>   35.7217    0.0000 </r>
      </set>
      <set comment="kpoint 75">
       <r>    0.6264    1.0000 </r>
       <r>    1.2402    1.0000 </r>
       <r>    2.0898    1.0000 </r>
       <r>    4.2270    1.0000 </r>
       <r>    6.1310    1.0000 </r>
       <r>   12.4605   -0.0000 </r>
       <r>   14.4892    0.0000 </r>
       <r>   16.8773    0.0000 </r>
       <r>   20.5665    0.0000 </r>
       <r>   30.4226    0.0000 </r>
       <r>   34.0259    0.0000 </r>
       <r>   37.2420    0.0000 </r>
      </set>
      <set comment="kpoint 76">
       <r>    0.6138    1.0000 </r>
       <r>    1.1823    1.0000 </r>
       <r>    2.2329    1.0000 </r>
       <r>    3.9137    1.0000 </r>
       <r>    5.7954    1.0000 </r>
       <r>   10.6223   -0.0000 </r>
       <r>   13.7992    0.0000 </r>
       <r>   20.2712    0.0000 </r>
       <r>   22.1811    0.0000 </r>
       <r>   28.6903    0.0000 </r>
       <r>   33.8893    0.0000 </r>
       <r>   38.8895    0.0000 </r>
      </set>
      <set comment="kpoint 77">
       <r>   -0.4701    1.0000 </r>
       <r>    0.0176    1.0000 </r>
       <r>    4.6557    1.0000 </r>
       <r>    5.4394    1.0000 </r>
       <r>    6.2970    1.0000 </r>
       <r>   10.7989   -0.0000 </r>
       <r>   14.6271    0.0000 </r>
       <r>   17.8502    0.0000 </r>
       <r>   20.2457    0.0000 </r>
       <r>   28.3512    0.0000 </r>
       <r>   31.7705    0.0000 </r>
       <r>   38.4999    0.0000 </r>
      </set>
      <set comment="kpoint 78">
       <r>   -0.2497    1.0000 </r>
       <r>    0.1512    1.0000 </r>
       <r>    4.0327    1.0000 </r>
       <r>    5.2357    1.0000 </r>
       <r>    6.4438    1.0000 </r>
       <r>   11.3282   -0.0000 </r>
       <r>   14.7266    0.0000 </r>
       <r>   17.8444    0.0000 </r>
       <r>   19.3665    0.0000 </r>
       <r>   29.9035    0.0000 </r>
       <r>   31.5985    0.0000 </r>
       <r>   37.2999    0.0000 </r>
      </set>
      <set comment="kpoint 79">
       <r>    0.3188    1.0000 </r>
       <r>    0.7239    1.0000 </r>
       <r>    2.6206    1.0000 </r>
       <r>    4.7352    1.0000 </r>
       <r>    6.1470    1.0000 </r>
       <r>   11.0170   -0.0000 </r>
       <r>   15.4430    0.0000 </r>
       <r>   17.9681    0.0000 </r>
       <r>   20.1311    0.0000 </r>
       <r>   30.7196    0.0000 </r>
       <r>   32.5994    0.0000 </r>
       <r>   36.3762    0.0000 </r>
      </set>
      <set comment="kpoint 80">
       <r>   -0.3719    1.0000 </r>
       <r>    0.1286    1.0000 </r>
       <r>    4.2297    1.0000 </r>
       <r>    5.1331    1.0000 </r>
       <r>    6.3061    1.0000 </r>
       <r>    9.4701   -0.0000 </r>
       <r>   15.7336    0.0000 </r>
       <r>   19.0526    0.0000 </r>
       <r>   20.7363    0.0000 </r>
       <r>   28.0873    0.0000 </r>
       <r>   31.6544    0.0000 </r>
       <r>   38.4616    0.0000 </r>
      </set>
      <set comment="kpoint 81">
       <r>    0.0417    1.0000 </r>
       <r>    0.4366    1.0000 </r>
       <r>    2.9561    1.0000 </r>
       <r>    5.0045    1.0000 </r>
       <r>    5.7658    1.0000 </r>
       <r>    8.4884   -0.0304 </r>
       <r>   17.2808    0.0000 </r>
       <r>   19.9504    0.0000 </r>
       <r>   21.4571    0.0000 </r>
       <r>   29.3294    0.0000 </r>
       <r>   31.1686    0.0000 </r>
       <r>   37.0476    0.0000 </r>
      </set>
      <set comment="kpoint 82">
       <r>   -0.1774    1.0000 </r>
       <r>    0.6446    1.0000 </r>
       <r>    2.8569    1.0000 </r>
       <r>    4.1850    1.0000 </r>
       <r>    5.9902    1.0000 </r>
       <r>    6.5675    1.0000 </r>
       <r>   18.5114    0.0000 </r>
       <r>   22.9742    0.0000 </r>
       <r>   23.1333    0.0000 </r>
       <r>   27.3721    0.0000 </r>
       <r>   31.3208    0.0000 </r>
       <r>   37.3349    0.0000 </r>
      </set>
      <set comment="kpoint 83">
       <r>   -1.7575    1.0000 </r>
       <r>    2.1084    1.0000 </r>
       <r>    2.7085    1.0000 </r>
       <r>    2.7085    1.0000 </r>
       <r>    4.6368    1.0000 </r>
       <r>    4.6368    1.0000 </r>
       <r>   20.6893    0.0000 </r>
       <r>   24.7921    0.0000 </r>
       <r>   30.5879    0.0000 </r>
       <r>   30.5879    0.0000 </r>
       <r>   32.0597    0.0000 </r>
       <r>   33.7581    0.0000 </r>
      </set>
      <set comment="kpoint 84">
       <r>   -1.0824    1.0000 </r>
       <r>    1.9522    1.0000 </r>
       <r>    2.6212    1.0000 </r>
       <r>    2.8935    1.0000 </r>
       <r>    4.3087    1.0000 </r>
       <r>    5.7196    1.0000 </r>
       <r>   19.5250    0.0000 </r>
       <r>   24.4401    0.0000 </r>
       <r>   27.2414    0.0000 </r>
       <r>   30.6414    0.0000 </r>
       <r>   32.3645    0.0000 </r>
       <r>   34.0656    0.0000 </r>
      </set>
      <set comment="kpoint 85">
       <r>    0.0622    1.0000 </r>
       <r>    1.5928    1.0000 </r>
       <r>    2.2176    1.0000 </r>
       <r>    3.3995    1.0000 </r>
       <r>    4.1713    1.0000 </r>
       <r>    7.2737    1.0000 </r>
       <r>   18.5087    0.0000 </r>
       <r>   21.5883    0.0000 </r>
       <r>   26.0943    0.0000 </r>
       <r>   30.3519    0.0000 </r>
       <r>   30.7456    0.0000 </r>
       <r>   36.9286    0.0000 </r>
      </set>
      <set comment="kpoint 86">
       <r>    0.6028    1.0000 </r>
       <r>    1.6834    1.0000 </r>
       <r>    2.0328    1.0000 </r>
       <r>    3.6117    1.0000 </r>
       <r>    4.7859    1.0000 </r>
       <r>    8.9448   -0.0000 </r>
       <r>   16.5826    0.0000 </r>
       <r>   19.1694    0.0000 </r>
       <r>   25.9478    0.0000 </r>
       <r>   27.4566    0.0000 </r>
       <r>   32.9273    0.0000 </r>
       <r>   36.8534    0.0000 </r>
      </set>
      <set comment="kpoint 87">
       <r>    0.2662    1.0000 </r>
       <r>    1.4280    1.0000 </r>
       <r>    2.6859    1.0000 </r>
       <r>    3.7082    1.0000 </r>
       <r>    5.7023    1.0000 </r>
       <r>   11.0400   -0.0000 </r>
       <r>   12.9791   -0.0000 </r>
       <r>   19.7108    0.0000 </r>
       <r>   24.7841    0.0000 </r>
       <r>   26.1561    0.0000 </r>
       <r>   35.8159    0.0000 </r>
       <r>   36.8440    0.0000 </r>
      </set>
      <set comment="kpoint 88">
       <r>   -0.0096    1.0000 </r>
       <r>    1.1291    1.0000 </r>
       <r>    2.7387    1.0000 </r>
       <r>    3.9258    1.0000 </r>
       <r>    6.2091    1.0000 </r>
       <r>    9.4652   -0.0000 </r>
       <r>   14.3144    0.0000 </r>
       <r>   21.2799    0.0000 </r>
       <r>   23.1762    0.0000 </r>
       <r>   26.7662    0.0000 </r>
       <r>   35.1434    0.0000 </r>
       <r>   37.0426    0.0000 </r>
      </set>
      <set comment="kpoint 89">
       <r>   -0.8923    1.0000 </r>
       <r>    2.1998    1.0000 </r>
       <r>    2.4163    1.0000 </r>
       <r>    2.8715    1.0000 </r>
       <r>    5.3128    1.0000 </r>
       <r>    5.5631    1.0000 </r>
       <r>   18.1102    0.0000 </r>
       <r>   24.3895    0.0000 </r>
       <r>   27.1100    0.0000 </r>
       <r>   29.0414    0.0000 </r>
       <r>   33.8281    0.0000 </r>
       <r>   35.1414    0.0000 </r>
      </set>
      <set comment="kpoint 90">
       <r>   -0.1790    1.0000 </r>
       <r>    1.9315    1.0000 </r>
       <r>    2.0216    1.0000 </r>
       <r>    3.3313    1.0000 </r>
       <r>    5.1604    1.0000 </r>
       <r>    7.1961    1.0000 </r>
       <r>   16.9923    0.0000 </r>
       <r>   23.1121    0.0000 </r>
       <r>   24.8636    0.0000 </r>
       <r>   28.7644    0.0000 </r>
       <r>   32.9702    0.0000 </r>
       <r>   36.4445    0.0000 </r>
      </set>
      <set comment="kpoint 91">
       <r>    0.8468    1.0000 </r>
       <r>    1.4175    1.0000 </r>
       <r>    1.6607    1.0000 </r>
       <r>    3.9849    1.0000 </r>
       <r>    5.0900    1.0000 </r>
       <r>    9.0950   -0.0000 </r>
       <r>   16.5498    0.0000 </r>
       <r>   19.1784    0.0000 </r>
       <r>   24.0489    0.0000 </r>
       <r>   29.1297    0.0000 </r>
       <r>   32.4073    0.0000 </r>
       <r>   37.9651    0.0000 </r>
      </set>
      <set comment="kpoint 92">
       <r>    0.6884    1.0000 </r>
       <r>    1.3118    1.0000 </r>
       <r>    2.1055    1.0000 </r>
       <r>    4.1216    1.0000 </r>
       <r>    5.6610    1.0000 </r>
       <r>   11.0795   -0.0000 </r>
       <r>   15.1123    0.0000 </r>
       <r>   17.4046    0.0000 </r>
       <r>   22.5859    0.0000 </r>
       <r>   28.7969    0.0000 </r>
       <r>   34.0954    0.0000 </r>
       <r>   38.8478    0.0000 </r>
      </set>
      <set comment="kpoint 93">
       <r>    0.2544    1.0000 </r>
       <r>    0.9337    1.0000 </r>
       <r>    2.6506    1.0000 </r>
       <r>    4.4602    1.0000 </r>
       <r>    6.0735    1.0000 </r>
       <r>   11.4553   -0.0000 </r>
       <r>   13.8449    0.0000 </r>
       <r>   18.8845    0.0000 </r>
       <r>   21.1600    0.0000 </r>
       <r>   28.9284    0.0000 </r>
       <r>   34.4142    0.0000 </r>
       <r>   36.6157    0.0000 </r>
      </set>
      <set comment="kpoint 94">
       <r>   -0.1465    1.0000 </r>
       <r>    1.4996    1.0000 </r>
       <r>    2.4270    1.0000 </r>
       <r>    3.4900    1.0000 </r>
       <r>    6.1523    1.0000 </r>
       <r>    7.7875    1.0015 </r>
       <r>   15.5043    0.0000 </r>
       <r>   23.2168    0.0000 </r>
       <r>   24.1735    0.0000 </r>
       <r>   26.5320    0.0000 </r>
       <r>   35.3025    0.0000 </r>
       <r>   36.3846    0.0000 </r>
      </set>
      <set comment="kpoint 95">
       <r>    0.2834    1.0000 </r>
       <r>    1.1475    1.0000 </r>
       <r>    2.3137    1.0000 </r>
       <r>    4.1570    1.0000 </r>
       <r>    5.9380    1.0000 </r>
       <r>    9.7640   -0.0000 </r>
       <r>   14.6872    0.0000 </r>
       <r>   20.8046    0.0000 </r>
       <r>   21.9672    0.0000 </r>
       <r>   28.3908    0.0000 </r>
       <r>   34.0204    0.0000 </r>
       <r>   37.1255    0.0000 </r>
      </set>
      <set comment="kpoint 96">
       <r>    0.7046    1.0000 </r>
       <r>    1.2674    1.0000 </r>
       <r>    1.8631    1.0000 </r>
       <r>    4.2997    1.0000 </r>
       <r>    6.1325    1.0000 </r>
       <r>   11.8516   -0.0000 </r>
       <r>   15.1053    0.0000 </r>
       <r>   17.1994    0.0000 </r>
       <r>   20.2958    0.0000 </r>
       <r>   31.2040    0.0000 </r>
       <r>   33.0198    0.0000 </r>
       <r>   37.2911    0.0000 </r>
      </set>
      <set comment="kpoint 97">
       <r>    0.5437    1.0000 </r>
       <r>    1.2745    1.0000 </r>
       <r>    2.0637    1.0000 </r>
       <r>    4.2383    1.0000 </r>
       <r>    6.4413    1.0000 </r>
       <r>   13.3660   -0.0000 </r>
       <r>   14.6535    0.0000 </r>
       <r>   16.1851    0.0000 </r>
       <r>   19.2446    0.0000 </r>
       <r>   32.1481    0.0000 </r>
       <r>   33.6639    0.0000 </r>
       <r>   35.6682    0.0000 </r>
      </set>
      <set comment="kpoint 98">
       <r>   -0.0085    1.0000 </r>
       <r>    0.8850    1.0000 </r>
       <r>    3.1084    1.0000 </r>
       <r>    4.3778    1.0000 </r>
       <r>    6.1007    1.0000 </r>
       <r>   11.2857   -0.0000 </r>
       <r>   13.3824   -0.0000 </r>
       <r>   19.0887    0.0000 </r>
       <r>   22.5199    0.0000 </r>
       <r>   27.2852    0.0000 </r>
       <r>   35.0295    0.0000 </r>
       <r>   37.4168    0.0000 </r>
      </set>
      <set comment="kpoint 99">
       <r>    0.1898    1.0000 </r>
       <r>    0.8468    1.0000 </r>
       <r>    2.9116    1.0000 </r>
       <r>    4.5707    1.0000 </r>
       <r>    6.1472    1.0000 </r>
       <r>   12.8613   -0.0000 </r>
       <r>   13.5552   -0.0000 </r>
       <r>   17.0801    0.0000 </r>
       <r>   20.8210    0.0000 </r>
       <r>   29.3426    0.0000 </r>
       <r>   34.9284    0.0000 </r>
       <r>   35.9054    0.0000 </r>
      </set>
      <set comment="kpoint 100">
       <r>   -0.0444    1.0000 </r>
       <r>    0.7719    1.0000 </r>
       <r>    3.3601    1.0000 </r>
       <r>    4.7269    1.0000 </r>
       <r>    5.9283    1.0000 </r>
       <r>   12.6268   -0.0000 </r>
       <r>   13.1667   -0.0000 </r>
       <r>   17.2138    0.0000 </r>
       <r>   22.1999    0.0000 </r>
       <r>   27.6515    0.0000 </r>
       <r>   35.0064    0.0000 </r>
       <r>   37.5616    0.0000 </r>
      </set>
      <set comment="kpoint 101">
       <r>   -1.1017    1.0000 </r>
       <r>    2.4915    1.0000 </r>
       <r>    2.4915    1.0000 </r>
       <r>    3.4598    1.0000 </r>
       <r>    5.3837    1.0000 </r>
       <r>    5.3837    1.0000 </r>
       <r>   16.5721    0.0000 </r>
       <r>   23.6175    0.0000 </r>
       <r>   29.0823    0.0000 </r>
       <r>   29.0823    0.0000 </r>
       <r>   34.1979    0.0000 </r>
       <r>   34.4000    0.0000 </r>
      </set>
      <set comment="kpoint 102">
       <r>   -0.7107    1.0000 </r>
       <r>    2.2372    1.0000 </r>
       <r>    2.6355    1.0000 </r>
       <r>    3.3917    1.0000 </r>
       <r>    5.2303    1.0000 </r>
       <r>    6.8996    1.0000 </r>
       <r>   15.3817    0.0000 </r>
       <r>   23.5009    0.0000 </r>
       <r>   25.9013    0.0000 </r>
       <r>   29.0704    0.0000 </r>
       <r>   33.5164    0.0000 </r>
       <r>   35.7175    0.0000 </r>
      </set>
      <set comment="kpoint 103">
       <r>    0.1368    1.0000 </r>
       <r>    1.7108    1.0000 </r>
       <r>    2.7311    1.0000 </r>
       <r>    3.2381    1.0000 </r>
       <r>    5.2003    1.0000 </r>
       <r>    8.9487   -0.0000 </r>
       <r>   14.7514    0.0000 </r>
       <r>   21.1260    0.0000 </r>
       <r>   25.3980    0.0000 </r>
       <r>   27.3000    0.0000 </r>
       <r>   33.7520    0.0000 </r>
       <r>   36.6601    0.0000 </r>
      </set>
      <set comment="kpoint 104">
       <r>    0.4148    1.0000 </r>
       <r>    1.4579    1.0000 </r>
       <r>    2.4402    1.0000 </r>
       <r>    4.0678    1.0000 </r>
       <r>    5.4022    1.0000 </r>
       <r>   10.7630   -0.0000 </r>
       <r>   15.0792    0.0000 </r>
       <r>   17.4350    0.0000 </r>
       <r>   24.6760    0.0000 </r>
       <r>   26.6207    0.0000 </r>
       <r>   35.4107    0.0000 </r>
       <r>   36.9926    0.0000 </r>
      </set>
      <set comment="kpoint 105">
       <r>   -0.7300    1.0000 </r>
       <r>    2.1111    1.0000 </r>
       <r>    2.6378    1.0000 </r>
       <r>    3.6736    1.0000 </r>
       <r>    6.0663    1.0000 </r>
       <r>    7.0859    1.0000 </r>
       <r>   14.0460    0.0000 </r>
       <r>   23.3629    0.0000 </r>
       <r>   26.4232    0.0000 </r>
       <r>   27.0974    0.0000 </r>
       <r>   35.4948    0.0000 </r>
       <r>   36.1831    0.0000 </r>
      </set>
      <set comment="kpoint 106">
       <r>   -0.1683    1.0000 </r>
       <r>    1.6865    1.0000 </r>
       <r>    2.9909    1.0000 </r>
       <r>    3.2244    1.0000 </r>
       <r>    5.8504    1.0000 </r>
       <r>    9.2157   -0.0000 </r>
       <r>   13.1387   -0.0000 </r>
       <r>   23.0361    0.0000 </r>
       <r>   23.7885    0.0000 </r>
       <r>   27.1536    0.0000 </r>
       <r>   34.8313    0.0000 </r>
       <r>   37.1616    0.0000 </r>
      </set>
      <set comment="kpoint 107">
       <r>    0.5463    1.0000 </r>
       <r>    1.2241    1.0000 </r>
       <r>    2.4247    1.0000 </r>
       <r>    3.8538    1.0000 </r>
       <r>    5.7908    1.0000 </r>
       <r>   11.4256   -0.0000 </r>
       <r>   12.9989   -0.0000 </r>
       <r>   19.6984    0.0000 </r>
       <r>   22.6533    0.0000 </r>
       <r>   28.1537    0.0000 </r>
       <r>   34.4752    0.0000 </r>
       <r>   38.5637    0.0000 </r>
      </set>
      <set comment="kpoint 108">
       <r>   -0.0424    1.0000 </r>
       <r>    1.5628    1.0000 </r>
       <r>    3.0099    1.0000 </r>
       <r>    3.2812    1.0000 </r>
       <r>    5.9921    1.0000 </r>
       <r>   10.4731   -0.0000 </r>
       <r>   12.1637   -0.0000 </r>
       <r>   21.8457    0.0000 </r>
       <r>   25.0606    0.0000 </r>
       <r>   25.5926    0.0000 </r>
       <r>   36.3251    0.0000 </r>
       <r>   36.5276    0.0000 </r>
      </set>
      <set comment="kpoint 109">
       <r>   -1.0440    1.0000 </r>
       <r>    2.3026    1.0000 </r>
       <r>    2.3026    1.0000 </r>
       <r>    5.7390    1.0000 </r>
       <r>    5.9914    1.0000 </r>
       <r>    5.9914    1.0000 </r>
       <r>   12.9945   -0.0000 </r>
       <r>   22.7722    0.0000 </r>
       <r>   27.5085    0.0000 </r>
       <r>   27.5085    0.0000 </r>
       <r>   35.6596    0.0000 </r>
       <r>   35.6596    0.0000 </r>
      </set>
      <set comment="kpoint 110">
       <r>   -0.7321    1.0000 </r>
       <r>    2.0549    1.0000 </r>
       <r>    2.5320    1.0000 </r>
       <r>    4.3823    1.0000 </r>
       <r>    5.9582    1.0000 </r>
       <r>    8.2462    0.6244 </r>
       <r>   12.3336   -0.0000 </r>
       <r>   23.0566    0.0000 </r>
       <r>   25.7935    0.0000 </r>
       <r>   26.9698    0.0000 </r>
       <r>   35.7577    0.0000 </r>
       <r>   36.0711    0.0000 </r>
      </set>
     </set>
    </set>
   </array>
  </eigenvalues>
  <separator name="orbital magnetization" >
   <v name="MAGDIPOLOUT">      0.00000000      0.00000000      0.00000000</v>
  </separator>
  <dos>
   <i name="efermi">      8.27595642 </i>
   <total>
    <array>
     <dimension dim="1">gridpoints</dimension>
     <dimension dim="2">spin</dimension>
     <field>energy</field>
     <field>total</field>
     <field>integrated</field>
     <set>
      <set comment="spin 1">
       <r>    -5.9008     0.0000     0.0000 </r>
       <r>    -5.7412     0.0000     0.0000 </r>
       <r>    -5.5815     0.0000     0.0000 </r>
       <r>    -5.4219    -0.0000    -0.0000 </r>
       <r>    -5.2622    -0.0000    -0.0000 </r>
       <r>    -5.1025    -0.0000    -0.0000 </r>
       <r>    -4.9429    -0.0000    -0.0000 </r>
       <r>    -4.7832    -0.0000    -0.0000 </r>
       <r>    -4.6236    -0.0000    -0.0000 </r>
       <r>    -4.4639    -0.0000    -0.0000 </r>
       <r>    -4.3042    -0.0000    -0.0000 </r>
       <r>    -4.1446    -0.0001    -0.0000 </r>
       <r>    -3.9849    -0.0008    -0.0001 </r>
       <r>    -3.8253     0.0032     0.0004 </r>
       <r>    -3.6656     0.0137     0.0025 </r>
       <r>    -3.5060     0.0289     0.0072 </r>
       <r>    -3.3463     0.0472     0.0147 </r>
       <r>    -3.1866     0.0454     0.0219 </r>
       <r>    -3.0270     0.0486     0.0297 </r>
       <r>    -2.8673     0.0629     0.0398 </r>
       <r>    -2.7077     0.0867     0.0536 </r>
       <r>    -2.5480     0.0953     0.0688 </r>
       <r>    -2.3884     0.0556     0.0777 </r>
       <r>    -2.2287     0.0719     0.0892 </r>
       <r>    -2.0690     0.1404     0.1116 </r>
       <r>    -1.9094     0.1531     0.1360 </r>
       <r>    -1.7497     0.0939     0.1510 </r>
       <r>    -1.5901     0.1164     0.1696 </r>
       <r>    -1.4304     0.1980     0.2012 </r>
       <r>    -1.2707     0.1606     0.2269 </r>
       <r>    -1.1111     0.2350     0.2644 </r>
       <r>    -0.9514     0.4333     0.3336 </r>
       <r>    -0.7918     0.6207     0.4327 </r>
       <r>    -0.6321     0.6474     0.5360 </r>
       <r>    -0.4725     0.8924     0.6785 </r>
       <r>    -0.3128     1.1411     0.8607 </r>
       <r>    -0.1531     1.4400     1.0906 </r>
       <r>     0.0065     1.4827     1.3273 </r>
       <r>     0.1662     1.4454     1.5581 </r>
       <r>     0.3258     1.5465     1.8050 </r>
       <r>     0.4855     1.1646     1.9909 </r>
       <r>     0.6451     1.2788     2.1951 </r>
       <r>     0.8048     1.2690     2.3977 </r>
       <r>     0.9645     0.8152     2.5279 </r>
       <r>     1.1241     0.9725     2.6831 </r>
       <r>     1.2838     1.3650     2.9010 </r>
       <r>     1.4434     1.3790     3.1212 </r>
       <r>     1.6031     1.4602     3.3544 </r>
       <r>     1.7627     1.3003     3.5620 </r>
       <r>     1.9224     1.3607     3.7792 </r>
       <r>     2.0821     1.6981     4.0503 </r>
       <r>     2.2417     1.6351     4.3114 </r>
       <r>     2.4014     1.6310     4.5718 </r>
       <r>     2.5610     1.8192     4.8622 </r>
       <r>     2.7207     2.4411     5.2520 </r>
       <r>     2.8804     2.4759     5.6473 </r>
       <r>     3.0400     1.6180     5.9056 </r>
       <r>     3.1997     1.2903     6.1116 </r>
       <r>     3.3593     1.1268     6.2915 </r>
       <r>     3.5190     1.1870     6.4810 </r>
       <r>     3.6786     1.2032     6.6731 </r>
       <r>     3.8383     1.2372     6.8707 </r>
       <r>     3.9980     1.5393     7.1164 </r>
       <r>     4.1576     1.5757     7.3680 </r>
       <r>     4.3173     1.5158     7.6100 </r>
       <r>     4.4769     1.1379     7.7917 </r>
       <r>     4.6366     1.4682     8.0261 </r>
       <r>     4.7962     1.5374     8.2716 </r>
       <r>     4.9559     0.8033     8.3998 </r>
       <r>     5.1156     0.9484     8.5512 </r>
       <r>     5.2752     1.5093     8.7922 </r>
       <r>     5.4349     1.1596     8.9773 </r>
       <r>     5.5945     1.0168     9.1397 </r>
       <r>     5.7542     1.6759     9.4072 </r>
       <r>     5.9139     1.8978     9.7102 </r>
       <r>     6.0735     1.8234    10.0014 </r>
       <r>     6.2332     1.6774    10.2692 </r>
       <r>     6.3928     1.2150    10.4631 </r>
       <r>     6.5525     0.8855    10.6045 </r>
       <r>     6.7121     0.2110    10.6382 </r>
       <r>     6.8718    -0.0154    10.6358 </r>
       <r>     7.0315     0.1236    10.6555 </r>
       <r>     7.1911     0.3494    10.7113 </r>
       <r>     7.3508     0.4760    10.7873 </r>
       <r>     7.5104     0.3423    10.8419 </r>
       <r>     7.6701     0.1491    10.8657 </r>
       <r>     7.8297     0.1378    10.8877 </r>
       <r>     7.9894     0.2125    10.9217 </r>
       <r>     8.1491     0.2600    10.9632 </r>
       <r>     8.3087     0.2901    11.0095 </r>
       <r>     8.4684     0.2567    11.0505 </r>
       <r>     8.6280     0.1663    11.0770 </r>
       <r>     8.7877     0.2449    11.1161 </r>
       <r>     8.9474     0.3978    11.1796 </r>
       <r>     9.1070     0.3211    11.2309 </r>
       <r>     9.2667     0.2425    11.2696 </r>
       <r>     9.4263     0.1615    11.2954 </r>
       <r>     9.5860     0.1628    11.3214 </r>
       <r>     9.7456     0.0997    11.3373 </r>
       <r>     9.9053     0.2890    11.3834 </r>
       <r>    10.0650     0.4375    11.4533 </r>
       <r>    10.2246     0.2252    11.4892 </r>
       <r>    10.3843     0.1798    11.5179 </r>
       <r>    10.5439     0.2181    11.5528 </r>
       <r>    10.7036     0.1758    11.5808 </r>
       <r>    10.8632     0.1883    11.6109 </r>
       <r>    11.0229     0.2527    11.6512 </r>
       <r>    11.1826     0.2175    11.6860 </r>
       <r>    11.3422     0.2035    11.7184 </r>
       <r>    11.5019     0.2570    11.7595 </r>
       <r>    11.6615     0.0858    11.7732 </r>
       <r>    11.8212     0.1214    11.7925 </r>
       <r>    11.9808     0.2153    11.8269 </r>
       <r>    12.1405     0.2334    11.8642 </r>
       <r>    12.3002     0.5471    11.9515 </r>
       <r>    12.4598     0.5080    12.0326 </r>
       <r>    12.6195     0.2149    12.0670 </r>
       <r>    12.7791     0.1165    12.0856 </r>
       <r>    12.9388     0.2388    12.1237 </r>
       <r>    13.0985     0.4797    12.2003 </r>
       <r>    13.2581     0.4394    12.2704 </r>
       <r>    13.4178     0.2385    12.3085 </r>
       <r>    13.5774     0.1261    12.3286 </r>
       <r>    13.7371     0.1646    12.3549 </r>
       <r>    13.8967     0.3597    12.4123 </r>
       <r>    14.0564     0.2733    12.4560 </r>
       <r>    14.2161     0.3083    12.5052 </r>
       <r>    14.3757     0.2836    12.5505 </r>
       <r>    14.5354     0.2360    12.5882 </r>
       <r>    14.6950     0.4798    12.6648 </r>
       <r>    14.8547     0.4116    12.7305 </r>
       <r>    15.0143     0.1064    12.7475 </r>
       <r>    15.1740     0.2549    12.7882 </r>
       <r>    15.3337     0.3153    12.8385 </r>
       <r>    15.4933     0.2809    12.8834 </r>
       <r>    15.6530     0.2253    12.9193 </r>
       <r>    15.8126     0.4927    12.9980 </r>
       <r>    15.9723     0.4033    13.0624 </r>
       <r>    16.1320     0.1123    13.0803 </r>
       <r>    16.2916     0.0886    13.0945 </r>
       <r>    16.4513     0.1331    13.1157 </r>
       <r>    16.6109     0.2657    13.1581 </r>
       <r>    16.7706     0.2955    13.2053 </r>
       <r>    16.9302     0.2789    13.2498 </r>
       <r>    17.0899     0.5251    13.3337 </r>
       <r>    17.2496     0.5587    13.4229 </r>
       <r>    17.4092     0.4954    13.5020 </r>
       <r>    17.5689     0.3759    13.5620 </r>
       <r>    17.7285     0.0670    13.5727 </r>
       <r>    17.8882     0.1449    13.5958 </r>
       <r>    18.0478     0.2822    13.6409 </r>
       <r>    18.2075     0.3391    13.6950 </r>
       <r>    18.3672     0.3722    13.7545 </r>
       <r>    18.5268     0.4114    13.8201 </r>
       <r>    18.6865     0.3446    13.8752 </r>
       <r>    18.8461     0.2911    13.9216 </r>
       <r>    19.0058     0.3343    13.9750 </r>
       <r>    19.1654     0.5232    14.0586 </r>
       <r>    19.3251     0.6778    14.1668 </r>
       <r>    19.4848     0.4689    14.2416 </r>
       <r>    19.6444     0.3126    14.2915 </r>
       <r>    19.8041     0.3879    14.3535 </r>
       <r>    19.9637     0.4496    14.4253 </r>
       <r>    20.1234     0.4532    14.4976 </r>
       <r>    20.2831     0.4634    14.5716 </r>
       <r>    20.4427     0.4556    14.6443 </r>
       <r>    20.6024     0.2370    14.6822 </r>
       <r>    20.7620     0.3602    14.7397 </r>
       <r>    20.9217     0.5943    14.8346 </r>
       <r>    21.0813     0.5592    14.9239 </r>
       <r>    21.2410     0.6401    15.0261 </r>
       <r>    21.4007     0.4828    15.1031 </r>
       <r>    21.5603     0.4377    15.1730 </r>
       <r>    21.7200     0.3141    15.2232 </r>
       <r>    21.8796     0.2410    15.2616 </r>
       <r>    22.0393     0.5531    15.3500 </r>
       <r>    22.1989     0.7306    15.4666 </r>
       <r>    22.3586     0.3858    15.5282 </r>
       <r>    22.5183     0.1644    15.5545 </r>
       <r>    22.6779     0.4237    15.6221 </r>
       <r>    22.8376     0.6136    15.7201 </r>
       <r>    22.9972     0.6588    15.8253 </r>
       <r>    23.1569     0.9054    15.9698 </r>
       <r>    23.3166     0.9788    16.1261 </r>
       <r>    23.4762     0.6818    16.2349 </r>
       <r>    23.6359     0.4344    16.3043 </r>
       <r>    23.7955     0.4491    16.3760 </r>
       <r>    23.9552     0.6791    16.4844 </r>
       <r>    24.1148     0.5623    16.5742 </r>
       <r>    24.2745     0.3665    16.6327 </r>
       <r>    24.4342     0.3145    16.6829 </r>
       <r>    24.5938     0.4329    16.7520 </r>
       <r>    24.7535     0.6010    16.8480 </r>
       <r>    24.9131     0.9104    16.9933 </r>
       <r>    25.0728     0.9857    17.1507 </r>
       <r>    25.2324     0.5734    17.2423 </r>
       <r>    25.3921     0.3279    17.2946 </r>
       <r>    25.5518     0.4707    17.3698 </r>
       <r>    25.7114     0.3939    17.4327 </r>
       <r>    25.8711     0.1944    17.4637 </r>
       <r>    26.0307     0.2442    17.5027 </r>
       <r>    26.1904     0.3268    17.5548 </r>
       <r>    26.3501     0.2188    17.5898 </r>
       <r>    26.5097     0.3264    17.6419 </r>
       <r>    26.6694     0.5816    17.7348 </r>
       <r>    26.8290     0.5662    17.8251 </r>
       <r>    26.9887     0.4679    17.8999 </r>
       <r>    27.1483     0.6076    17.9969 </r>
       <r>    27.3080     0.6062    18.0936 </r>
       <r>    27.4677     0.7809    18.2183 </r>
       <r>    27.6273     0.6889    18.3283 </r>
       <r>    27.7870     0.6775    18.4365 </r>
       <r>    27.9466     0.7122    18.5502 </r>
       <r>    28.1063     0.8755    18.6900 </r>
       <r>    28.2659     0.8691    18.8287 </r>
       <r>    28.4256     0.6366    18.9304 </r>
       <r>    28.5853     0.5832    19.0235 </r>
       <r>    28.7449     0.5740    19.1151 </r>
       <r>    28.9046     0.5909    19.2095 </r>
       <r>    29.0642     0.7451    19.3284 </r>
       <r>    29.2239     0.5888    19.4224 </r>
       <r>    29.3835     0.3442    19.4774 </r>
       <r>    29.5432     0.3293    19.5299 </r>
       <r>    29.7029     0.5218    19.6133 </r>
       <r>    29.8625     0.6504    19.7171 </r>
       <r>    30.0222     0.5670    19.8076 </r>
       <r>    30.1818     0.4822    19.8846 </r>
       <r>    30.3415     0.3356    19.9382 </r>
       <r>    30.5012     0.2025    19.9705 </r>
       <r>    30.6608     0.3383    20.0245 </r>
       <r>    30.8205     0.4218    20.0919 </r>
       <r>    30.9801     0.2509    20.1319 </r>
       <r>    31.1398     0.2524    20.1722 </r>
       <r>    31.2994     0.3759    20.2322 </r>
       <r>    31.4591     0.5350    20.3177 </r>
       <r>    31.6188     0.5454    20.4047 </r>
       <r>    31.7784     0.3820    20.4657 </r>
       <r>    31.9381     0.2112    20.4994 </r>
       <r>    32.0977     0.2790    20.5440 </r>
       <r>    32.2574     0.3366    20.5977 </r>
       <r>    32.4170     0.2815    20.6427 </r>
       <r>    32.5767     0.2993    20.6905 </r>
       <r>    32.7364     0.2855    20.7360 </r>
       <r>    32.8960     0.5331    20.8212 </r>
       <r>    33.0557     0.9528    20.9733 </r>
       <r>    33.2153     0.7931    21.0999 </r>
       <r>    33.3750     0.2432    21.1387 </r>
       <r>    33.5347     0.2046    21.1714 </r>
       <r>    33.6943     0.3999    21.2352 </r>
       <r>    33.8540     0.4641    21.3093 </r>
       <r>    34.0136     0.5869    21.4030 </r>
       <r>    34.1733     0.4532    21.4754 </r>
       <r>    34.3329     0.3134    21.5254 </r>
       <r>    34.4926     0.4902    21.6037 </r>
       <r>    34.6523     0.3952    21.6668 </r>
       <r>    34.8119     0.4343    21.7361 </r>
       <r>    34.9716     0.6419    21.8386 </r>
       <r>    35.1312     0.6164    21.9370 </r>
       <r>    35.2909     0.6469    22.0403 </r>
       <r>    35.4505     0.5519    22.1284 </r>
       <r>    35.6102     0.6349    22.2298 </r>
       <r>    35.7699     0.8320    22.3626 </r>
       <r>    35.9295     0.5583    22.4517 </r>
       <r>    36.0892     0.4990    22.5314 </r>
       <r>    36.2488     0.6692    22.6383 </r>
       <r>    36.4085     0.7070    22.7511 </r>
       <r>    36.5682     0.6709    22.8582 </r>
       <r>    36.7278     0.5697    22.9492 </r>
       <r>    36.8875     0.5348    23.0346 </r>
       <r>    37.0471     0.7318    23.1514 </r>
       <r>    37.2068     1.0500    23.3191 </r>
       <r>    37.3664     1.1131    23.4968 </r>
       <r>    37.5261     0.7110    23.6103 </r>
       <r>    37.6858     0.2646    23.6526 </r>
       <r>    37.8454     0.1274    23.6729 </r>
       <r>    38.0051     0.1911    23.7034 </r>
       <r>    38.1647     0.2330    23.7406 </r>
       <r>    38.3244     0.1265    23.7608 </r>
       <r>    38.4840     0.2115    23.7946 </r>
       <r>    38.6437     0.3759    23.8546 </r>
       <r>    38.8034     0.4094    23.9200 </r>
       <r>    38.9630     0.2474    23.9595 </r>
       <r>    39.1227     0.0389    23.9657 </r>
       <r>    39.2823    -0.0014    23.9654 </r>
       <r>    39.4420     0.0406    23.9719 </r>
       <r>    39.6016     0.0445    23.9790 </r>
       <r>    39.7613     0.0671    23.9897 </r>
       <r>    39.9210     0.0575    23.9989 </r>
       <r>    40.0806     0.0098    24.0005 </r>
       <r>    40.2403    -0.0026    24.0001 </r>
       <r>    40.3999    -0.0004    24.0000 </r>
       <r>    40.5596    -0.0000    24.0000 </r>
       <r>    40.7193    -0.0000    24.0000 </r>
       <r>    40.8789    -0.0000    24.0000 </r>
       <r>    41.0386    -0.0000    24.0000 </r>
       <r>    41.1982    -0.0000    24.0000 </r>
       <r>    41.3579     0.0000    24.0000 </r>
       <r>    41.5175     0.0000    24.0000 </r>
       <r>    41.6772     0.0000    24.0000 </r>
       <r>    41.8369     0.0000    24.0000 </r>
       <r>    41.9965     0.0000    24.0000 </r>
      </set>
     </set>
    </array>
   </total>
  </dos>
 </calculation>
 <structure name="finalpos" >
  <crystal>
   <varray name="basis" >
    <v>       0.00000000       1.92500000       1.92500000 </v>
    <v>       1.92500000       0.00000000       1.92500000 </v>
    <v>       1.92500000       1.92500000       0.00000000 </v>
   </varray>
   <i name="volume">     14.26665625 </i>
   <varray name="rec_basis" >
    <v>      -0.25974026       0.25974026       0.25974026 </v>
    <v>       0.25974026      -0.25974026       0.25974026 </v>
    <v>       0.25974026       0.25974026      -0.25974026 </v>
   </varray>
  </crystal>
  <varray name="positions" >
   <v>       0.00000000       0.00000000       0.00000000 </v>
  </varray>
 </structure>
</modeling>
