fcc Ni                                  
   3.60000000000000     
     0.000000    0.500000    0.500000
     0.500000    0.000000    0.500000
     0.500000    0.500000    0.000000
   Ni
     1
Direct
  0.000000  0.000000  0.000000
 
   20   20   20
  161.65      150.93      122.51      85.745      50.979      25.385      11.059      5.5947      4.1577      3.4816    
  3.2845      3.4816      4.1577      5.5947      11.059      25.385      50.979      85.745      122.51      150.93    
  150.93      131.41      99.060      63.884      34.677      15.918      7.1941      4.6228      3.7036      3.2928    
  3.2956      3.7075      4.6220      7.1928      15.924      34.686      63.875      99.021      131.36      150.90    
  122.51      99.060      68.811      40.468      20.015      9.0185      5.1004      3.9428      3.3297      3.1523    
  3.3312      3.9426      5.0994      9.0231      20.026      40.472      68.791      99.020      122.48      131.36    
  85.745      63.884      40.468      21.623      10.251      5.5397      4.1439      3.3901      3.0622      3.0616    
  3.3884      4.1418      5.5391      10.253      21.628      40.473      63.886      85.743      99.020      99.021    
  50.979      34.677      20.015      10.251      5.7267      4.2608      3.4474      3.0148      2.8917      3.0152    
  3.4470      4.2580      5.7212      10.245      20.016      34.686      50.993      63.886      68.791      63.875    
  25.385      15.918      9.0185      5.5397      4.2608      3.4728      2.9985      2.7986      2.7988      2.9999    
  3.4755      4.2614      5.5337      9.0062      15.906      25.379      34.686      40.473      40.472      34.686    
  11.059      7.1941      5.1004      4.1439      3.4474      2.9985      2.7701      2.7020      2.7691      3.0009    
  3.4551      4.1515      5.0993      7.1812      11.039      15.906      20.016      21.628      20.026      15.924    
  5.5947      4.6228      3.9428      3.3901      3.0148      2.7986      2.7020      2.7008      2.7962      3.0149    
  3.3964      3.9553      4.6348      5.5965      7.1812      9.0062      10.245      10.253      9.0231      7.1928    
  4.1577      3.7036      3.3297      3.0622      2.8917      2.7988      2.7691      2.7962      2.8851      3.0545    
  3.3297      3.7167      4.1772      4.6348      5.0993      5.5337      5.7212      5.5391      5.0994      4.6220    
  3.4816      3.2928      3.1523      3.0616      3.0152      2.9999      3.0009      3.0149      3.0545      3.1395    
  3.2823      3.4808      3.7167      3.9553      4.1515      4.2614      4.2580      4.1418      3.9426      3.7075    
  3.2845      3.2956      3.3312      3.3884      3.4470      3.4755      3.4551      3.3964      3.3297      3.2823    
  3.2657      3.2823      3.3297      3.3964      3.4551      3.4755      3.4470      3.3884      3.3312      3.2956    
  3.4816      3.7075      3.9426      4.1418      4.2580      4.2614      4.1515      3.9553      3.7167      3.4808    
  3.2823      3.1395      3.0545      3.0149      3.0009      2.9999      3.0152      3.0616      3.1523      3.2928    
  4.1577      4.6220      5.0994      5.5391      5.7212      5.5337      5.0993      4.6348      4.1772      3.7167    
  3.3297      3.0545      2.8851      2.7962      2.7691      2.7988      2.8917      3.0622      3.3297      3.7036    
  5.5947      7.1928      9.0231      10.253      10.245      9.0062      7.1812      5.5965      4.6348      3.9553    
  3.3964      3.0149      2.7962      2.7008      2.7020      2.7986      3.0148      3.3901      3.9428      4.6228    
  11.059      15.924      20.026      21.628      20.016      15.906      11.039      7.1812      5.0993      4.1515    
  3.4551      3.0009      2.7691      2.7020      2.7701      2.9985      3.4474      4.1439      5.1004      7.1941    
  25.385      34.686      40.472      40.473      34.686      25.379      15.906      9.0062      5.5337      4.2614    
  3.4755      2.9999      2.7988      2.7986      2.9985      3.4728      4.2608      5.5397      9.0185      15.918    
  50.979      63.875      68.791      63.886      50.993      34.686      20.016      10.245      5.7212      4.2580    
  3.4470      3.0152      2.8917      3.0148      3.4474      4.2608      5.7267      10.251      20.015      34.677    
  85.745      99.021      99.020      85.743      63.886      40.473      21.628      10.253      5.5391      4.1418    
  3.3884      3.0616      3.0622      3.3901      4.1439      5.5397      10.251      21.623      40.468      63.884    
  122.51      131.36      122.48      99.020      68.791      40.472      20.026      9.0231      5.0994      3.9426    
  3.3312      3.1523      3.3297      3.9428      5.1004      9.0185      20.015      40.468      68.811      99.060    
  150.93      150.90      131.36      99.021      63.875      34.686      15.924      7.1928      4.6220      3.7075    
  3.2956      3.2928      3.7036      4.6228      7.1941      15.918      34.677      63.884      99.060      131.41    
  150.93      131.41      99.060      63.884      34.677      15.918      7.1941      4.6228      3.7036      3.2928    
  3.2956      3.7075      4.6220      7.1928      15.924      34.686      63.875      99.021      131.36      150.90    
  131.41      106.21      73.785      43.449      21.507      9.5842      5.2429      4.0164      3.3838      3.2009    
  3.3861      4.0157      5.2412      9.5921      21.525      43.453      73.749      106.14      131.35      140.93    
  99.060      73.785      46.792      25.018      11.677      5.9439      4.2951      3.4962      3.1450      3.1450    
  3.4945      4.2920      5.9457      11.689      25.033      46.790      73.757      99.021      114.44      114.46    
  63.884      43.449      25.018      12.512      6.4393      4.4880      3.6021      3.1207      2.9849      3.1225    
  3.6014      4.4830      6.4351      12.515      25.030      43.462      63.894      80.103      86.295      80.099    
  34.677      21.507      11.677      6.4393      4.5615      3.6735      3.1198      2.8878      2.8896      3.1226    
  3.6724      4.5543      6.4296      11.673      21.514      34.693      47.561      55.566      55.559      47.544    
  15.918      9.5842      5.9439      4.4880      3.6735      3.1255      2.8465      2.7656      2.8461      3.1274    
  3.6776      4.4888      5.9365      9.5712      15.907      23.616      30.034      32.535      30.032      23.619    
  7.1941      5.2429      4.2951      3.6021      3.1198      2.8465      2.7289      2.7273      2.8453      3.1249    
  3.6131      4.3039      5.2414      7.1816      10.343      13.809      16.097      16.102      13.822      10.359    
  4.6228      4.0164      3.4962      3.1207      2.8878      2.7656      2.7273      2.7636      2.8851      3.1211    
  3.5037      4.0305      4.6354      5.4146      6.5217      7.5830      8.0294      7.5923      6.5299      5.4122    
  3.7036      3.3838      3.1450      2.9849      2.8896      2.8461      2.8453      2.8851      2.9751      3.1357    
  3.3847      3.7174      4.0945      4.4518      4.7450      4.9387      4.9401      4.7443      4.4417      4.0769    
  3.2928      3.2009      3.1450      3.1225      3.1226      3.1274      3.1249      3.1211      3.1357      3.1872    
  3.2828      3.4190      3.5817      3.7434      3.8645      3.9079      3.8586      3.7342      3.5747      3.4198    
  3.2956      3.3861      3.4945      3.6014      3.6724      3.6776      3.6131      3.5037      3.3847      3.2828    
  3.2114      3.1767      3.1780      3.2013      3.2208      3.2174      3.1956      3.1788      3.1881      3.2285    
  3.7075      4.0157      4.2920      4.4830      4.5543      4.4888      4.3039      4.0305      3.7174      3.4190    
  3.1767      3.0081      2.9082      2.8591      2.8440      2.8586      2.9118      3.0174      3.1859      3.4198    
  4.6220      5.2412      5.9457      6.4351      6.4296      5.9365      5.2414      4.6354      4.0945      3.5817    
  3.1780      2.9082      2.7525      2.6827      2.6839      2.7563      2.9130      3.1780      3.5714      4.0769    
  7.1928      9.5921      11.689      12.515      11.673      9.5712      7.1816      5.4146      4.4518      3.7434    
  3.2013      2.8591      2.6827      2.6300      2.6840      2.8596      3.1978      3.7347      4.4420      5.4122    
  15.924      21.525      25.033      25.030      21.514      15.907      10.343      6.5217      4.7450      3.8645    
  3.2208      2.8440      2.6839      2.6840      2.8429      3.2168      3.8600      4.7462      6.5320      10.359    
  34.686      43.453      46.790      43.462      34.693      23.616      13.809      7.5830      4.9387      3.9079    
  3.2174      2.8586      2.7563      2.8596      3.2168      3.9061      4.9411      7.5925      13.820      23.619    
  63.875      73.749      73.757      63.894      47.561      30.034      16.097      8.0294      4.9401      3.8586    
  3.1956      2.9118      2.9130      3.1978      3.8600      4.9411      8.0311      16.097      30.026      47.544    
  99.021      106.14      99.021      80.103      55.566      32.535      16.102      7.5923      4.7443      3.7342    
  3.1788      3.0174      3.1780      3.7347      4.7462      7.5925      16.097      32.526      55.558      80.099    
  131.36      131.35      114.44      86.295      55.559      30.032      13.822      6.5299      4.4417      3.5747    
  3.1881      3.1859      3.5714      4.4420      6.5320      13.820      30.026      55.558      86.307      114.46    
  150.90      140.93      114.46      80.099      47.544      23.619      10.359      5.4122      4.0769      3.4198    
  3.2285      3.4198      4.0769      5.4122      10.359      23.619      47.544      80.099      114.46      140.93    
  122.51      99.060      68.811      40.468      20.015      9.0185      5.1004      3.9428      3.3297      3.1523    
  3.3312      3.9426      5.0994      9.0231      20.026      40.472      68.791      99.020      122.48      131.36    
  99.060      73.785      46.792      25.018      11.677      5.9439      4.2951      3.4962      3.1450      3.1450    
  3.4945      4.2920      5.9457      11.689      25.033      46.790      73.757      99.021      114.44      114.46    
  68.811      46.792      26.932      13.393      6.7267      4.5662      3.6571      3.1588      3.0180      3.1606    
  3.6559      4.5614      6.7261      13.404      26.949      46.803      68.810      86.301      92.996      86.307    
  40.468      25.018      13.393      7.0489      4.7272      3.7810      3.1868      2.9374      2.9397      3.1901    
  3.7790      4.7187      7.0410      13.396      25.037      40.498      55.585      64.984      64.973      55.558    
  20.015      11.677      6.7267      4.7272      3.8293      3.2137      2.8989      2.8099      2.9001      3.2152    
  3.8282      4.7199      6.7152      11.672      20.025      30.050      38.362      41.595      38.342      30.026    
  9.0185      5.9439      4.5662      3.7810      3.2137      2.8897      2.7536      2.7523      2.8889      3.2174    
  3.7870      4.5668      5.9353      9.0062      13.813      18.959      22.318      22.317      18.959      13.820    
  5.1004      4.2951      3.6571      3.1868      2.8989      2.7536      2.7091      2.7515      2.8992      3.1933    
  3.6680      4.3036      5.1001      6.5222      8.5707      10.472      11.254      10.481      8.5844      6.5320    
  3.9428      3.4962      3.1588      2.9374      2.8099      2.7523      2.7515      2.8071      2.9337      3.1585    
  3.5039      3.9566      4.4533      4.9666      5.5456      5.9679      5.9713      5.5508      4.9647      4.4420    
  3.3297      3.1450      3.0180      2.9397      2.9001      2.8889      2.8992      2.9337      3.0063      3.1356    
  3.3311      3.5833      3.8601      4.1130      4.2914      4.3561      4.2901      4.1060      3.8467      3.5714    
  3.1523      3.1450      3.1606      3.1901      3.2152      3.2174      3.1933      3.1585      3.1356      3.1400    
  3.1777      3.2473      3.3393      3.4301      3.4868      3.4846      3.4247      3.3346      3.2481      3.1859    
  3.3312      3.4945      3.6559      3.7790      3.8282      3.7870      3.6680      3.5039      3.3311      3.1777    
  3.0613      2.9900      2.9596      2.9533      2.9519      2.9496      2.9590      2.9980      3.0751      3.1881    
  3.9426      4.2920      4.5614      4.7187      4.7199      4.5668      4.3036      3.9566      3.5833      3.2473    
  2.9900      2.8200      2.7230      2.6796      2.6791      2.7237      2.8247      2.9962      3.2481      3.5747    
  5.0994      5.9457      6.7261      7.0410      6.7152      5.9353      5.1001      4.4533      3.8601      3.3393    
  2.9596      2.7230      2.5989      2.5611      2.6007      2.7255      2.9592      3.3321      3.8467      4.4417    
  9.0231      11.689      13.404      13.396      11.672      9.0062      6.5222      4.9666      4.1130      3.4301    
  2.9533      2.6796      2.5611      2.5616      2.6802      2.9518      3.4253      4.1068      4.9647      6.5299    
  20.026      25.033      26.949      25.037      20.025      13.813      8.5707      5.5456      4.2914      3.4868    
  2.9519      2.6791      2.6007      2.6802      2.9508      3.4834      4.2914      5.5542      8.5844      13.822    
  40.472      46.790      46.803      40.498      30.050      18.959      10.472      5.9679      4.3561      3.4846    
  2.9496      2.7237      2.7255      2.9518      3.4834      4.3550      5.9733      10.481      18.959      30.032    
  68.791      73.757      68.810      55.585      38.362      22.318      11.254      5.9713      4.2901      3.4247    
  2.9590      2.8247      2.9592      3.4253      4.2914      5.9733      11.254      22.309      38.342      55.559    
  99.020      99.021      86.301      64.984      41.595      22.317      10.481      5.5508      4.1060      3.3346    
  2.9980      2.9962      3.3321      4.1068      5.5542      10.481      22.309      41.583      64.973      86.295    
  122.48      114.44      92.996      64.973      38.342      18.959      8.5844      4.9647      3.8467      3.2481    
  3.0751      3.2481      3.8467      4.9647      8.5844      18.959      38.342      64.973      92.996      114.44    
  131.36      114.46      86.307      55.558      30.026      13.820      6.5320      4.4420      3.5714      3.1859    
  3.1881      3.5747      4.4417      6.5299      13.822      30.032      55.559      86.295      114.44      131.35    
  85.745      63.884      40.468      21.623      10.251      5.5397      4.1439      3.3901      3.0622      3.0616    
  3.3884      4.1418      5.5391      10.253      21.628      40.473      63.886      85.743      99.020      99.021    
  63.884      43.449      25.018      12.512      6.4393      4.4880      3.6021      3.1207      2.9849      3.1225    
  3.6014      4.4830      6.4351      12.515      25.030      43.462      63.894      80.103      86.295      80.099    
  40.468      25.018      13.393      7.0489      4.7272      3.7810      3.1868      2.9374      2.9397      3.1901    
  3.7790      4.7187      7.0410      13.396      25.037      40.498      55.585      64.984      64.973      55.558    
  21.623      12.512      7.0489      4.8175      3.8824      3.2447      2.9182      2.8263      2.9194      3.2466    
  3.8813      4.8085      7.0350      12.508      21.642      32.564      41.614      45.131      41.583      32.526    
  10.251      6.4393      4.7272      3.8824      3.2669      2.9144      2.7689      2.7681      2.9147      3.2705    
  3.8837      4.7180      6.4223      10.241      16.107      22.331      26.376      26.365      22.309      16.097    
  5.5397      4.4880      3.7810      3.2447      2.9144      2.7513      2.7030      2.7499      2.9157      3.2503    
  3.7862      4.4861      5.5302      7.5811      10.474      13.112      14.185      13.114      10.481      7.5925    
  4.1439      3.6021      3.1868      2.9182      2.7689      2.7030      2.7016      2.7665      2.9191      3.1932    
  3.6118      4.1510      4.7452      5.5451      6.5257      7.2350      7.2399      6.5368      5.5542      4.7462    
  3.3901      3.1207      2.9374      2.8263      2.7681      2.7499      2.7665      2.8224      2.9330      3.1205    
  3.3968      3.7451      4.1141      4.4362      4.6723      4.7685      4.6746      4.4355      4.1068      3.7347    
  3.0622      2.9849      2.9397      2.9194      2.9147      2.9157      2.9191      2.9330      2.9734      3.0540    
  3.1793      3.3406      3.5146      3.6656      3.7544      3.7537      3.6617      3.5063      3.3321      3.1780    
  3.0616      3.1225      3.1901      3.2466      3.2705      3.2503      3.1932      3.1205      3.0540      3.0082    
  2.9903      3.0019      3.0349      3.0697      3.0836      3.0671      3.0322      3.0026      2.9962      3.0174    
  3.3884      3.6014      3.7790      3.8813      3.8837      3.7862      3.6118      3.3968      3.1793      2.9903    
  2.8488      2.7592      2.7125      2.6932      2.6916      2.7108      2.7631      2.8580      2.9980      3.1788    
  4.1418      4.4830      4.7187      4.8085      4.7180      4.4861      4.1510      3.7451      3.3406      3.0019    
  2.7592      2.6077      2.5271      2.5014      2.5264      2.6088      2.7623      3.0026      3.3346      3.7342    
  5.5391      6.4351      7.0410      7.0350      6.4223      5.5302      4.7452      4.1141      3.5146      3.0349    
  2.7125      2.5271      2.4446      2.4451      2.5280      2.7121      3.0308      3.5063      4.1060      4.7443    
  10.253      12.515      13.396      12.508      10.241      7.5811      5.5451      4.4362      3.6656      3.0697    
  2.6932      2.5014      2.4451      2.5028      2.6934      3.0669      3.6617      4.4355      5.5508      7.5923    
  21.628      25.030      25.037      21.642      16.107      10.474      6.5257      4.6723      3.7544      3.0836    
  2.6916      2.5264      2.5280      2.6934      3.0821      3.7527      4.6770      6.5368      10.481      16.102    
  40.473      43.462      40.498      32.564      22.331      13.112      7.2350      4.7685      3.7537      3.0671    
  2.7108      2.6088      2.7121      3.0669      3.7527      4.7715      7.2425      13.114      22.317      32.535    
  63.886      63.894      55.585      41.614      26.376      14.185      7.2399      4.6746      3.6617      3.0322    
  2.7631      2.7623      3.0308      3.6617      4.6770      7.2425      14.183      26.365      41.595      55.566    
  85.743      80.103      64.984      45.131      26.365      13.114      6.5368      4.4355      3.5063      3.0026    
  2.8580      3.0026      3.5063      4.4355      6.5368      13.114      26.365      45.131      64.984      80.103    
  99.020      86.295      64.973      41.583      22.309      10.481      5.5542      4.1068      3.3321      2.9962    
  2.9980      3.3346      4.1060      5.5508      10.481      22.317      41.595      64.984      86.301      99.021    
  99.021      80.099      55.558      32.526      16.097      7.5925      4.7462      3.7347      3.1780      3.0174    
  3.1788      3.7342      4.7443      7.5923      16.102      32.535      55.566      80.103      99.021      106.14    
  50.979      34.677      20.015      10.251      5.7267      4.2608      3.4474      3.0148      2.8917      3.0152    
  3.4470      4.2580      5.7212      10.245      20.016      34.686      50.993      63.886      68.791      63.875    
  34.677      21.507      11.677      6.4393      4.5615      3.6735      3.1198      2.8878      2.8896      3.1226    
  3.6724      4.5543      6.4296      11.673      21.514      34.693      47.561      55.566      55.559      47.544    
  20.015      11.677      6.7267      4.7272      3.8293      3.2137      2.8989      2.8099      2.9001      3.2152    
  3.8282      4.7199      6.7152      11.672      20.025      30.050      38.362      41.595      38.342      30.026    
  10.251      6.4393      4.7272      3.8824      3.2669      2.9144      2.7689      2.7681      2.9147      3.2705    
  3.8837      4.7180      6.4223      10.241      16.107      22.331      26.376      26.365      22.309      16.097    
  5.7267      4.5615      3.8293      3.2669      2.9199      2.7510      2.7024      2.7508      2.9227      3.2720    
  3.8294      4.5515      5.7115      8.0221      11.256      14.189      15.376      14.183      11.254      8.0311    
  4.2608      3.6735      3.2137      2.9144      2.7510      2.6817      2.6812      2.7507      2.9168      3.2184    
  3.6769      4.2592      4.9339      5.9635      7.2345      8.1447      8.1477      7.2425      5.9733      4.9411    
  3.4474      3.1198      2.8989      2.7689      2.7024      2.6812      2.7003      2.7669      2.8999      3.1249    
  3.4545      3.8646      4.2899      4.6705      4.9959      5.1362      5.0018      4.6770      4.2914      3.8600    
  3.0148      2.8878      2.8099      2.7681      2.7508      2.7507      2.7669      2.8065      2.8839      3.0141    
  3.2018      3.4313      3.6656      3.8576      3.9660      3.9663      3.8569      3.6617      3.4253      3.1978    
  2.8917      2.8896      2.9001      2.9147      2.9227      2.9168      2.8999      2.8839      2.8831      2.9072    
  2.9595      3.0351      3.1185      3.1852      3.2103      3.1830      3.1142      3.0308      2.9592      2.9130    
  3.0152      3.1226      3.2152      3.2705      3.2720      3.2184      3.1249      3.0141      2.9072      2.8190    
  2.7584      2.7277      2.7196      2.7204      2.7195      2.7180      2.7282      2.7623      2.8247      2.9118    
  3.4470      3.6724      3.8282      3.8837      3.8294      3.6769      3.4545      3.2018      2.9595      2.7584    
  2.6128      2.5208      2.4718      2.4558      2.4706      2.5219      2.6175      2.7631      2.9590      3.1956    
  4.2580      4.5543      4.7199      4.7180      4.5515      4.2592      3.8646      3.4313      3.0351      2.7277    
  2.5208      2.3992      2.3431      2.3425      2.3986      2.5216      2.7282      3.0322      3.4247      3.8586    
  5.7212      6.4296      6.7152      6.4223      5.7115      4.9339      4.2899      3.6656      3.1185      2.7196    
  2.4718      2.3431      2.3040      2.3436      2.4716      2.7173      3.1142      3.6617      4.2901      4.9401    
  10.245      11.673      11.672      10.241      8.0221      5.9635      4.6705      3.8576      3.1852      2.7204    
  2.4558      2.3425      2.3436      2.4572      2.7196      3.1825      3.8569      4.6746      5.9713      8.0294    
  20.016      21.514      20.025      16.107      11.256      7.2345      4.9959      3.9660      3.2103      2.7195    
  2.4706      2.3986      2.4716      2.7196      3.2097      3.9679      5.0018      7.2399      11.254      16.097    
  34.686      34.693      30.050      22.331      14.189      8.1447      5.1362      3.9663      3.1830      2.7180    
  2.5219      2.5216      2.7173      3.1825      3.9679      5.1403      8.1477      14.185      22.318      30.034    
  50.993      47.561      38.362      26.376      15.376      8.1477      5.0018      3.8569      3.1142      2.7282    
  2.6175      2.7282      3.1142      3.8569      5.0018      8.1477      15.376      26.376      38.362      47.561    
  63.886      55.566      41.595      26.365      14.183      7.2425      4.6770      3.6617      3.0308      2.7623    
  2.7631      3.0322      3.6617      4.6746      7.2399      14.185      26.376      41.614      55.585      63.894    
  68.791      55.559      38.342      22.309      11.254      5.9733      4.2914      3.4253      2.9592      2.8247    
  2.9590      3.4247      4.2901      5.9713      11.254      22.318      38.362      55.585      68.810      73.757    
  63.875      47.544      30.026      16.097      8.0311      4.9411      3.8600      3.1978      2.9130      2.9118    
  3.1956      3.8586      4.9401      8.0294      16.097      30.034      47.561      63.894      73.757      73.749    
  25.385      15.918      9.0185      5.5397      4.2608      3.4728      2.9985      2.7986      2.7988      2.9999    
  3.4755      4.2614      5.5337      9.0062      15.906      25.379      34.686      40.473      40.472      34.686    
  15.918      9.5842      5.9439      4.4880      3.6735      3.1255      2.8465      2.7656      2.8461      3.1274    
  3.6776      4.4888      5.9365      9.5712      15.907      23.616      30.034      32.535      30.032      23.619    
  9.0185      5.9439      4.5662      3.7810      3.2137      2.8897      2.7536      2.7523      2.8889      3.2174    
  3.7870      4.5668      5.9353      9.0062      13.813      18.959      22.318      22.317      18.959      13.820    
  5.5397      4.4880      3.7810      3.2447      2.9144      2.7513      2.7030      2.7499      2.9157      3.2503    
  3.7862      4.4861      5.5302      7.5811      10.474      13.112      14.185      13.114      10.481      7.5925    
  4.2608      3.6735      3.2137      2.9144      2.7510      2.6817      2.6812      2.7507      2.9168      3.2184    
  3.6769      4.2592      4.9339      5.9635      7.2345      8.1447      8.1477      7.2425      5.9733      4.9411    
  3.4728      3.1255      2.8897      2.7513      2.6817      2.6605      2.6810      2.7507      2.8909      3.1291    
  3.4777      3.9086      4.3519      4.7638      5.1338      5.2947      5.1403      4.7715      4.3550      3.9061    
  2.9985      2.8465      2.7536      2.7030      2.6812      2.6810      2.7022      2.7521      2.8462      3.0015    
  3.2224      3.4876      3.7522      3.9640      4.0823      4.0845      3.9679      3.7527      3.4834      3.2168    
  2.7986      2.7656      2.7523      2.7499      2.7507      2.7507      2.7521      2.7633      2.7958      2.8588    
  2.9537      3.0698      3.1843      3.2690      3.3002      3.2685      3.1825      3.0669      2.9518      2.8596    
  2.7988      2.8461      2.8889      2.9157      2.9168      2.8909      2.8462      2.7958      2.7516      2.7219    
  2.7113      2.7189      2.7361      2.7494      2.7484      2.7339      2.7173      2.7121      2.7255      2.7563    
  2.9999      3.1274      3.2174      3.2503      3.2184      3.1291      3.0015      2.8588      2.7219      2.6060    
  2.5196      2.4642      2.4350      2.4258      2.4344      2.4644      2.5216      2.6088      2.7237      2.8586    
  3.4755      3.6776      3.7870      3.7862      3.6769      3.4777      3.2224      2.9537      2.7113      2.5196    
  2.3850      2.3017      2.2617      2.2613      2.3016      2.3867      2.5219      2.7108      2.9496      3.2174    
  4.2614      4.4888      4.5668      4.4861      4.2592      3.9086      3.4876      3.0698      2.7189      2.4642    
  2.3017      2.2133      2.1850      2.2127      2.3015      2.4644      2.7180      3.0671      3.4846      3.9079    
  5.5337      5.9365      5.9353      5.5302      4.9339      4.3519      3.7522      3.1843      2.7361      2.4350    
  2.2617      2.1850      2.1855      2.2622      2.4341      2.7339      3.1830      3.7537      4.3561      4.9387    
  9.0062      9.5712      9.0062      7.5811      5.9635      4.7638      3.9640      3.2690      2.7494      2.4258    
  2.2613      2.2127      2.2622      2.4261      2.7483      3.2685      3.9663      4.7685      5.9679      7.5830    
  15.906      15.907      13.813      10.474      7.2345      5.1338      4.0823      3.3002      2.7484      2.4344    
  2.3016      2.3015      2.4341      2.7483      3.3012      4.0845      5.1362      7.2350      10.472      13.809    
  25.379      23.616      18.959      13.112      8.1447      5.2947      4.0845      3.2685      2.7339      2.4644    
  2.3867      2.4644      2.7339      3.2685      4.0845      5.2947      8.1447      13.112      18.959      23.616    
  34.686      30.034      22.318      14.185      8.1477      5.1403      3.9679      3.1825      2.7173      2.5216    
  2.5219      2.7180      3.1830      3.9663      5.1362      8.1447      14.189      22.331      30.050      34.693    
  40.473      32.535      22.317      13.114      7.2425      4.7715      3.7527      3.0669      2.7121      2.6088    
  2.7108      3.0671      3.7537      4.7685      7.2350      13.112      22.331      32.564      40.498      43.462    
  40.472      30.032      18.959      10.481      5.9733      4.3550      3.4834      2.9518      2.7255      2.7237    
  2.9496      3.4846      4.3561      5.9679      10.472      18.959      30.050      40.498      46.803      46.790    
  34.686      23.619      13.820      7.5925      4.9411      3.9061      3.2168      2.8596      2.7563      2.8586    
  3.2174      3.9079      4.9387      7.5830      13.809      23.616      34.693      43.462      46.790      43.453    
  11.059      7.1941      5.1004      4.1439      3.4474      2.9985      2.7701      2.7020      2.7691      3.0009    
  3.4551      4.1515      5.0993      7.1812      11.039      15.906      20.016      21.628      20.026      15.924    
  7.1941      5.2429      4.2951      3.6021      3.1198      2.8465      2.7289      2.7273      2.8453      3.1249    
  3.6131      4.3039      5.2414      7.1816      10.343      13.809      16.097      16.102      13.822      10.359    
  5.1004      4.2951      3.6571      3.1868      2.8989      2.7536      2.7091      2.7515      2.8992      3.1933    