fcc Ni                                  
   3.60000000000000     
     0.000000    0.500000    0.500000
     0.500000    0.000000    0.500000
     0.500000    0.500000    0.000000
   Ni
     1
Direct
  0.000000  0.000000  0.000000
 
   20   20   20
 0.16165384721E+03 0.15092623783E+03 0.12251260258E+03 0.85744629201E+02 0.50979018276E+02
 0.25384620984E+02 0.11059205348E+02 0.55946931731E+01 0.41576987307E+01 0.34815614232E+01
 0.32844696134E+01 0.34815614232E+01 0.41576987307E+01 0.55946931731E+01 0.11059205348E+02
 0.25384620984E+02 0.50979018276E+02 0.85744629201E+02 0.12251260258E+03 0.15092623783E+03
 0.15092623783E+03 0.13141212506E+03 0.99059875012E+02 0.63884424420E+02 0.34677299397E+02
 0.15917654200E+02 0.71941059715E+01 0.46227973034E+01 0.37036250818E+01 0.32928152156E+01
 0.32956419662E+01 0.37075058418E+01 0.46220421677E+01 0.71928395505E+01 0.15923812406E+02
 0.34685556962E+02 0.63874748022E+02 0.99020913111E+02 0.13136259589E+03 0.15090335208E+03
 0.12251260258E+03 0.99059875012E+02 0.68811243094E+02 0.40468389790E+02 0.20015261850E+02
 0.90184849223E+01 0.51004067622E+01 0.39428229674E+01 0.33296631935E+01 0.31523285739E+01
 0.33312064838E+01 0.39425744461E+01 0.50993880913E+01 0.90230717607E+01 0.20025982488E+02
 0.40471828119E+02 0.68791332891E+02 0.99019681015E+02 0.12247893129E+03 0.13136259589E+03
 0.85744629201E+02 0.63884424420E+02 0.40468389790E+02 0.21622838220E+02 0.10250562056E+02
 0.55397454379E+01 0.41439294881E+01 0.33900977314E+01 0.30621846340E+01 0.30616162082E+01
 0.33884072483E+01 0.41418008943E+01 0.55391217206E+01 0.10253292321E+02 0.21628274384E+02
 0.40473165526E+02 0.63885600137E+02 0.85742885804E+02 0.99019681015E+02 0.99020913111E+02
 0.50979018276E+02 0.34677299397E+02 0.20015261850E+02 0.10250562056E+02 0.57267493812E+01
 0.42608288424E+01 0.34474198802E+01 0.30148400615E+01 0.28917276260E+01 0.30152423665E+01
 0.34470124425E+01 0.42579652459E+01 0.57212228293E+01 0.10245364550E+02 0.20015603077E+02
 0.34686220919E+02 0.50993228034E+02 0.63885600137E+02 0.68791332891E+02 0.63874748022E+02
 0.25384620984E+02 0.15917654200E+02 0.90184849223E+01 0.55397454379E+01 0.42608288424E+01
 0.34728099446E+01 0.29985178754E+01 0.27986269129E+01 0.27988313709E+01 0.29999135005E+01
 0.34754873455E+01 0.42613945292E+01 0.55337464684E+01 0.90062234808E+01 0.15905522110E+02
 0.25378998463E+02 0.34686220919E+02 0.40473165526E+02 0.40471828119E+02 0.34685556962E+02
 0.11059205348E+02 0.71941059715E+01 0.51004067622E+01 0.41439294881E+01 0.34474198802E+01
 0.29985178754E+01 0.27701303715E+01 0.27019861528E+01 0.27690865720E+01 0.30009095900E+01
 0.34550998630E+01 0.41514724441E+01 0.50993353706E+01 0.71811601211E+01 0.11039310726E+02
 0.15905522110E+02 0.20015603077E+02 0.21628274384E+02 0.20025982488E+02 0.15923812406E+02
 0.55946931731E+01 0.46227973034E+01 0.39428229674E+01 0.33900977314E+01 0.30148400615E+01
 0.27986269129E+01 0.27019861528E+01 0.27007646608E+01 0.27962425936E+01 0.30148533509E+01
 0.33963751206E+01 0.39553144730E+01 0.46347688638E+01 0.55965155794E+01 0.71811601211E+01
 0.90062234808E+01 0.10245364550E+02 0.10253292321E+02 0.90230717607E+01 0.71928395505E+01
 0.41576987307E+01 0.37036250818E+01 0.33296631935E+01 0.30621846340E+01 0.28917276260E+01
 0.27988313709E+01 0.27690865720E+01 0.27962425936E+01 0.28850566180E+01 0.30545395655E+01
 0.33297354041E+01 0.37166740538E+01 0.41772378444E+01 0.46347688638E+01 0.50993353706E+01
 0.55337464684E+01 0.57212228293E+01 0.55391217206E+01 0.50993880913E+01 0.46220421677E+01
 0.34815614232E+01 0.32928152156E+01 0.31523285739E+01 0.30616162082E+01 0.30152423665E+01
 0.29999135005E+01 0.30009095900E+01 0.30148533509E+01 0.30545395655E+01 0.31394931262E+01
 0.32822519820E+01 0.34808125513E+01 0.37166740538E+01 0.39553144730E+01 0.41514724441E+01
 0.42613945292E+01 0.42579652459E+01 0.41418008943E+01 0.39425744461E+01 0.37075058418E+01
 0.32844696134E+01 0.32956419662E+01 0.33312064838E+01 0.33884072483E+01 0.34470124425E+01
 0.34754873455E+01 0.34550998630E+01 0.33963751206E+01 0.33297354041E+01 0.32822519820E+01
 0.32657493249E+01 0.32822519820E+01 0.33297354041E+01 0.33963751206E+01 0.34550998630E+01
 0.34754873455E+01 0.34470124425E+01 0.33884072483E+01 0.33312064838E+01 0.32956419662E+01
 0.34815614232E+01 0.37075058418E+01 0.39425744461E+01 0.41418008943E+01 0.42579652459E+01
 0.42613945292E+01 0.41514724441E+01 0.39553144730E+01 0.37166740538E+01 0.34808125513E+01
 0.32822519820E+01 0.31394931262E+01 0.30545395655E+01 0.30148533509E+01 0.30009095900E+01
 0.29999135005E+01 0.30152423665E+01 0.30616162082E+01 0.31523285739E+01 0.32928152156E+01
 0.41576987307E+01 0.46220421677E+01 0.50993880913E+01 0.55391217206E+01 0.57212228293E+01
 0.55337464684E+01 0.50993353706E+01 0.46347688638E+01 0.41772378444E+01 0.37166740538E+01
 0.33297354041E+01 0.30545395655E+01 0.28850566180E+01 0.27962425936E+01 0.27690865720E+01
 0.27988313709E+01 0.28917276260E+01 0.30621846340E+01 0.33296631935E+01 0.37036250818E+01
 0.55946931731E+01 0.71928395505E+01 0.90230717607E+01 0.10253292321E+02 0.10245364550E+02
 0.90062234808E+01 0.71811601211E+01 0.55965155794E+01 0.46347688638E+01 0.39553144730E+01
 0.33963751206E+01 0.30148533509E+01 0.27962425936E+01 0.27007646608E+01 0.27019861528E+01
 0.27986269129E+01 0.30148400615E+01 0.33900977314E+01 0.39428229674E+01 0.46227973034E+01
 0.11059205348E+02 0.15923812406E+02 0.20025982488E+02 0.21628274384E+02 0.20015603077E+02
 0.15905522110E+02 0.11039310726E+02 0.71811601211E+01 0.50993353706E+01 0.41514724441E+01
 0.34550998630E+01 0.30009095900E+01 0.27690865720E+01 0.27019861528E+01 0.27701303715E+01
 0.29985178754E+01 0.34474198802E+01 0.41439294881E+01 0.51004067622E+01 0.71941059715E+01
 0.25384620984E+02 0.34685556962E+02 0.40471828119E+02 0.40473165526E+02 0.34686220919E+02
 0.25378998463E+02 0.15905522110E+02 0.90062234808E+01 0.55337464684E+01 0.42613945292E+01
 0.34754873455E+01 0.29999135005E+01 0.27988313709E+01 0.27986269129E+01 0.29985178754E+01
 0.34728099446E+01 0.42608288424E+01 0.55397454379E+01 0.90184849223E+01 0.15917654200E+02
 0.50979018276E+02 0.63874748022E+02 0.68791332891E+02 0.63885600137E+02 0.50993228034E+02
 0.34686220919E+02 0.20015603077E+02 0.10245364550E+02 0.57212228293E+01 0.42579652459E+01
 0.34470124425E+01 0.30152423665E+01 0.28917276260E+01 0.30148400615E+01 0.34474198802E+01
 0.42608288424E+01 0.57267493812E+01 0.10250562056E+02 0.20015261850E+02 0.34677299397E+02
 0.85744629201E+02 0.99020913111E+02 0.99019681015E+02 0.85742885804E+02 0.63885600137E+02
 0.40473165526E+02 0.21628274384E+02 0.10253292321E+02 0.55391217206E+01 0.41418008943E+01
 0.33884072483E+01 0.30616162082E+01 0.30621846340E+01 0.33900977314E+01 0.41439294881E+01
 0.55397454379E+01 0.10250562056E+02 0.21622838220E+02 0.40468389790E+02 0.63884424420E+02
 0.12251260258E+03 0.13136259589E+03 0.12247893129E+03 0.99019681015E+02 0.68791332891E+02
 0.40471828119E+02 0.20025982488E+02 0.90230717607E+01 0.50993880913E+01 0.39425744461E+01
 0.33312064838E+01 0.31523285739E+01 0.33296631935E+01 0.39428229674E+01 0.51004067622E+01
 0.90184849223E+01 0.20015261850E+02 0.40468389790E+02 0.68811243094E+02 0.99059875012E+02
 0.15092623783E+03 0.15090335208E+03 0.13136259589E+03 0.99020913111E+02 0.63874748022E+02
 0.34685556962E+02 0.15923812406E+02 0.71928395505E+01 0.46220421677E+01 0.37075058418E+01
 0.32956419662E+01 0.32928152156E+01 0.37036250818E+01 0.46227973034E+01 0.71941059715E+01
 0.15917654200E+02 0.34677299397E+02 0.63884424420E+02 0.99059875012E+02 0.13141212506E+03
 0.15092623783E+03 0.13141212506E+03 0.99059875012E+02 0.63884424420E+02 0.34677299397E+02
 0.15917654200E+02 0.71941059715E+01 0.46227973034E+01 0.37036250818E+01 0.32928152156E+01
 0.32956419662E+01 0.37075058418E+01 0.46220421677E+01 0.71928395505E+01 0.15923812406E+02
 0.34685556962E+02 0.63874748022E+02 0.99020913111E+02 0.13136259589E+03 0.15090335208E+03
 0.13141212506E+03 0.10621134253E+03 0.73784765950E+02 0.43448739146E+02 0.21507116987E+02
 0.95842248840E+01 0.52428912386E+01 0.40164371200E+01 0.33838100456E+01 0.32009380896E+01
 0.33860886446E+01 0.40157299983E+01 0.52412097568E+01 0.95920822620E+01 0.21524693404E+02
 0.43452865004E+02 0.73748572756E+02 0.10614092837E+03 0.13135372447E+03 0.14092859102E+03
 0.99059875012E+02 0.73784765950E+02 0.46791646520E+02 0.25018101995E+02 0.11677205563E+02
 0.59438638232E+01 0.42951210845E+01 0.34961553623E+01 0.31450455040E+01 0.31450009761E+01
 0.34945490816E+01 0.42920332880E+01 0.59456607005E+01 0.11689494349E+02 0.25033218128E+02
 0.46790363442E+02 0.73756906486E+02 0.99021267302E+02 0.11443882912E+03 0.11445701071E+03
 0.63884424420E+02 0.43448739146E+02 0.25018101995E+02 0.12512258463E+02 0.64392996464E+01
 0.44879670154E+01 0.36021498161E+01 0.31207422457E+01 0.29849115523E+01 0.31225066609E+01
 0.36014181832E+01 0.44830311605E+01 0.64350569295E+01 0.12515451058E+02 0.25029514037E+02
 0.43462217230E+02 0.63893557759E+02 0.80102976854E+02 0.86295338263E+02 0.80099390076E+02
 0.34677299397E+02 0.21507116987E+02 0.11677205563E+02 0.64392996464E+01 0.45615074429E+01
 0.36734997265E+01 0.31197867116E+01 0.28877992201E+01 0.28895922160E+01 0.31226433692E+01
 0.36724075621E+01 0.45542561873E+01 0.64296282222E+01 0.11672784336E+02 0.21513664115E+02
 0.34693370261E+02 0.47561184895E+02 0.55565730315E+02 0.55558580238E+02 0.47544356314E+02
 0.15917654200E+02 0.95842248840E+01 0.59438638232E+01 0.44879670154E+01 0.36734997265E+01
 0.31254555505E+01 0.28464893514E+01 0.27656086378E+01 0.28460969459E+01 0.31273992706E+01
 0.36775964720E+01 0.44887901803E+01 0.59365168272E+01 0.95712282851E+01 0.15907244030E+02
 0.23616360995E+02 0.30033681978E+02 0.32534843328E+02 0.30032186459E+02 0.23619216406E+02
 0.71941059715E+01 0.52428912386E+01 0.42951210845E+01 0.36021498161E+01 0.31197867116E+01
 0.28464893514E+01 0.27288537616E+01 0.27272654464E+01 0.28453084548E+01 0.31248659570E+01
 0.36131076190E+01 0.43039290158E+01 0.52413694327E+01 0.71815924598E+01 0.10342580659E+02
 0.13809271852E+02 0.16097150735E+02 0.16101924582E+02 0.13822364791E+02 0.10359369501E+02
 0.46227973034E+01 0.40164371200E+01 0.34961553623E+01 0.31207422457E+01 0.28877992201E+01
 0.27656086378E+01 0.27272654464E+01 0.27635766334E+01 0.28850690570E+01 0.31210595033E+01
 0.35036988776E+01 0.40304635036E+01 0.46354413502E+01 0.54145848254E+01 0.65216655065E+01
 0.75829774622E+01 0.80293723225E+01 0.75922521276E+01 0.65299429911E+01 0.54121867029E+01
 0.37036250818E+01 0.33838100456E+01 0.31450455040E+01 0.29849115523E+01 0.28895922160E+01
 0.28460969459E+01 0.28453084548E+01 0.28850690570E+01 0.29750816523E+01 0.31356952564E+01
 0.33847325898E+01 0.37174139593E+01 0.40944958678E+01 0.44518256201E+01 0.47450269642E+01
 0.49387499399E+01 0.49400738460E+01 0.47442508542E+01 0.44417031109E+01 0.40768620568E+01
 0.32928152156E+01 0.32009380896E+01 0.31450009761E+01 0.31225066609E+01 0.31226433692E+01
 0.31273992706E+01 0.31248659570E+01 0.31210595033E+01 0.31356952564E+01 0.31871512019E+01
 0.32827960789E+01 0.34190049292E+01 0.35817230169E+01 0.37433725019E+01 0.38645058167E+01
 0.39078901872E+01 0.38586383536E+01 0.37342412018E+01 0.35746638191E+01 0.34197843132E+01
 0.32956419662E+01 0.33860886446E+01 0.34945490816E+01 0.36014181832E+01 0.36724075621E+01
 0.36775964720E+01 0.36131076190E+01 0.35036988776E+01 0.33847325898E+01 0.32827960789E+01
 0.32113694538E+01 0.31766715476E+01 0.31780392080E+01 0.32013172863E+01 0.32208425741E+01
 0.32174434609E+01 0.31955797647E+01 0.31787791369E+01 0.31880778983E+01 0.32285380297E+01
 0.37075058418E+01 0.40157299983E+01 0.42920332880E+01 0.44830311605E+01 0.45542561873E+01
 0.44887901803E+01 0.43039290158E+01 0.40304635036E+01 0.37174139593E+01 0.34190049292E+01
 0.31766715476E+01 0.30080932478E+01 0.29081866750E+01 0.28590675366E+01 0.28440109120E+01
 0.28586132089E+01 0.29117836227E+01 0.30173930528E+01 0.31858870021E+01 0.34197843132E+01
 0.46220421677E+01 0.52412097568E+01 0.59456607005E+01 0.64350569295E+01 0.64296282222E+01
 0.59365168272E+01 0.52413694327E+01 0.46354413502E+01 0.40944958678E+01 0.35817230169E+01
 0.31780392080E+01 0.29081866750E+01 0.27524600496E+01 0.26826640595E+01 0.26838508316E+01
 0.27562689542E+01 0.29129734873E+01 0.31779785172E+01 0.35713881760E+01 0.40768620568E+01
 0.71928395505E+01 0.95920822620E+01 0.11689494349E+02 0.12515451058E+02 0.11672784336E+02
 0.95712282851E+01 0.71815924598E+01 0.54145848254E+01 0.44518256201E+01 0.37433725019E+01
 0.32013172863E+01 0.28590675366E+01 0.26826640595E+01 0.26300246350E+01 0.26840096886E+01
 0.28595831941E+01 0.31978151553E+01 0.37346536790E+01 0.44419678451E+01 0.54121867029E+01
 0.15923812406E+02 0.21524693404E+02 0.25033218128E+02 0.25029514037E+02 0.21513664115E+02
 0.15907244030E+02 0.10342580659E+02 0.65216655065E+01 0.47450269642E+01 0.38645058167E+01
 0.32208425741E+01 0.28440109120E+01 0.26838508316E+01 0.26840096886E+01 0.28429336201E+01
 0.32167970434E+01 0.38600470104E+01 0.47461656610E+01 0.65319992915E+01 0.10359369501E+02
 0.34685556962E+02 0.43452865004E+02 0.46790363442E+02 0.43462217230E+02 0.34693370261E+02
 0.23616360995E+02 0.13809271852E+02 0.75829774622E+01 0.49387499399E+01 0.39078901872E+01
 0.32174434609E+01 0.28586132089E+01 0.27562689542E+01 0.28595831941E+01 0.32167970434E+01
 0.39061266207E+01 0.49410753046E+01 0.75924544892E+01 0.13820344651E+02 0.23619216406E+02
 0.63874748022E+02 0.73748572756E+02 0.73756906486E+02 0.63893557759E+02 0.47561184895E+02
 0.30033681978E+02 0.16097150735E+02 0.80293723225E+01 0.49400738460E+01 0.38586383536E+01
 0.31955797647E+01 0.29117836227E+01 0.29129734873E+01 0.31978151553E+01 0.38600470104E+01
 0.49410753046E+01 0.80310722624E+01 0.16097102972E+02 0.30026220028E+02 0.47544356314E+02
 0.99020913111E+02 0.10614092837E+03 0.99021267302E+02 0.80102976854E+02 0.55565730315E+02
 0.32534843328E+02 0.16101924582E+02 0.75922521276E+01 0.47442508542E+01 0.37342412018E+01
 0.31787791369E+01 0.30173930528E+01 0.31779785172E+01 0.37346536790E+01 0.47461656610E+01
 0.75924544892E+01 0.16097102972E+02 0.32526048709E+02 0.55557809260E+02 0.80099390076E+02
 0.13136259589E+03 0.13135372447E+03 0.11443882912E+03 0.86295338263E+02 0.55558580238E+02
 0.30032186459E+02 0.13822364791E+02 0.65299429911E+01 0.44417031109E+01 0.35746638191E+01
 0.31880778983E+01 0.31858870021E+01 0.35713881760E+01 0.44419678451E+01 0.65319992915E+01
 0.13820344651E+02 0.30026220028E+02 0.55557809260E+02 0.86307116925E+02 0.11445701071E+03
 0.15090335208E+03 0.14092859102E+03 0.11445701071E+03 0.80099390076E+02 0.47544356314E+02
 0.23619216406E+02 0.10359369501E+02 0.54121867029E+01 0.40768620568E+01 0.34197843132E+01
 0.32285380297E+01 0.34197843132E+01 0.40768620568E+01 0.54121867029E+01 0.10359369501E+02
 0.23619216406E+02 0.47544356314E+02 0.80099390076E+02 0.11445701071E+03 0.14092859102E+03
 0.12251260258E+03 0.99059875012E+02 0.68811243094E+02 0.40468389790E+02 0.20015261850E+02
 0.90184849223E+01 0.51004067622E+01 0.39428229674E+01 0.33296631935E+01 0.31523285739E+01
 0.33312064838E+01 0.39425744461E+01 0.50993880913E+01 0.90230717607E+01 0.20025982488E+02
 0.40471828119E+02 0.68791332891E+02 0.99019681015E+02 0.12247893129E+03 0.13136259589E+03
 0.99059875012E+02 0.73784765950E+02 0.46791646520E+02 0.25018101995E+02 0.11677205563E+02
 0.59438638232E+01 0.42951210845E+01 0.34961553623E+01 0.31450455040E+01 0.31450009761E+01
 0.34945490816E+01 0.42920332880E+01 0.59456607005E+01 0.11689494349E+02 0.25033218128E+02
 0.46790363442E+02 0.73756906486E+02 0.99021267302E+02 0.11443882912E+03 0.11445701071E+03
 0.68811243094E+02 0.46791646520E+02 0.26932043274E+02 0.13393174908E+02 0.67266940565E+01
 0.45662442249E+01 0.36571104028E+01 0.31587914277E+01 0.30180008682E+01 0.31605859015E+01
 0.36558516675E+01 0.45614385455E+01 0.67260875158E+01 0.13403690787E+02 0.26949204575E+02
 0.46802858472E+02 0.68810264377E+02 0.86301215818E+02 0.92996067588E+02 0.86307116925E+02
 0.40468389790E+02 0.25018101995E+02 0.13393174908E+02 0.70489373977E+01 0.47272095622E+01
 0.37810414237E+01 0.31868321128E+01 0.29374445017E+01 0.29396949852E+01 0.31901024673E+01
 0.37790440922E+01 0.47187394345E+01 0.70409910056E+01 0.13396014237E+02 0.25036770917E+02
 0.40497741950E+02 0.55584665210E+02 0.64984313028E+02 0.64973473112E+02 0.55557809260E+02
 0.20015261850E+02 0.11677205563E+02 0.67266940565E+01 0.47272095622E+01 0.38292859881E+01
 0.32136739154E+01 0.28989360755E+01 0.28099170032E+01 0.29000560526E+01 0.32152065864E+01
 0.38281701631E+01 0.47198939805E+01 0.67152364715E+01 0.11671646814E+02 0.20025474020E+02
 0.30049569602E+02 0.38362182471E+02 0.41595057795E+02 0.38342334512E+02 0.30026220028E+02
 0.90184849223E+01 0.59438638232E+01 0.45662442249E+01 0.37810414237E+01 0.32136739154E+01
 0.28897404759E+01 0.27535786970E+01 0.27523065526E+01 0.28889137676E+01 0.32174056063E+01
 0.37870275541E+01 0.45668266234E+01 0.59352828807E+01 0.90061780489E+01 0.13812857702E+02
 0.18958629639E+02 0.22317723280E+02 0.22316765810E+02 0.18959315710E+02 0.13820344651E+02
 0.51004067622E+01 0.42951210845E+01 0.36571104028E+01 0.31868321128E+01 0.28989360755E+01
 0.27535786970E+01 0.27090573111E+01 0.27514677461E+01 0.28992292725E+01 0.31933251777E+01
 0.36680004426E+01 0.43035999820E+01 0.51001274319E+01 0.65222470145E+01 0.85707249521E+01
 0.10471639284E+02 0.11254090986E+02 0.10481264666E+02 0.85844179267E+01 0.65319992915E+01
 0.39428229674E+01 0.34961553623E+01 0.31587914277E+01 0.29374445017E+01 0.28099170032E+01
 0.27523065526E+01 0.27514677461E+01 0.28070751514E+01 0.29336528665E+01 0.31585359689E+01
 0.35038731554E+01 0.39566128987E+01 0.44532921060E+01 0.49666263214E+01 0.55456139033E+01
 0.59678711109E+01 0.59712730452E+01 0.55508483713E+01 0.49647398635E+01 0.44419678451E+01
 0.33296631935E+01 0.31450455040E+01 0.30180008682E+01 0.29396949852E+01 0.29000560526E+01
 0.28889137676E+01 0.28992292725E+01 0.29336528665E+01 0.30063423289E+01 0.31355557292E+01
 0.33310712047E+01 0.35833469732E+01 0.38600875258E+01 0.41129638036E+01 0.42913638573E+01
 0.43561469107E+01 0.42901450985E+01 0.41059946712E+01 0.38467431058E+01 0.35713881760E+01
 0.31523285739E+01 0.31450009761E+01 0.31605859015E+01 0.31901024673E+01 0.32152065864E+01
 0.32174056063E+01 0.31933251777E+01 0.31585359689E+01 0.31355557292E+01 0.31400451514E+01
 0.31776957936E+01 0.32473480678E+01 0.33392991087E+01 0.34301362261E+01 0.34868132851E+01
 0.34845547799E+01 0.34247416140E+01 0.33346318305E+01 0.32480963064E+01 0.31858870021E+01
 0.33312064838E+01 0.34945490816E+01 0.36558516675E+01 0.37790440922E+01 0.38281701631E+01
 0.37870275541E+01 0.36680004426E+01 0.35038731554E+01 0.33310712047E+01 0.31776957936E+01
 0.30613332215E+01 0.29899837747E+01 0.29595793872E+01 0.29533104167E+01 0.29518753937E+01
 0.29495919968E+01 0.29589930602E+01 0.29979844020E+01 0.30750571410E+01 0.31880778983E+01
 0.39425744461E+01 0.42920332880E+01 0.45614385455E+01 0.47187394345E+01 0.47198939805E+01
 0.45668266234E+01 0.43035999820E+01 0.39566128987E+01 0.35833469732E+01 0.32473480678E+01
 0.29899837747E+01 0.28199832159E+01 0.27229990115E+01 0.26795943876E+01 0.26790872016E+01
 0.27236978986E+01 0.28247247980E+01 0.29962453857E+01 0.32480963064E+01 0.35746638191E+01
 0.50993880913E+01 0.59456607005E+01 0.67260875158E+01 0.70409910056E+01 0.67152364715E+01
 0.59352828807E+01 0.51001274319E+01 0.44532921060E+01 0.38600875258E+01 0.33392991087E+01
 0.29595793872E+01 0.27229990115E+01 0.25989061681E+01 0.25610938200E+01 0.26007167579E+01
 0.27254714997E+01 0.29592439883E+01 0.33321145854E+01 0.38467431058E+01 0.44417031109E+01
 0.90230717607E+01 0.11689494349E+02 0.13403690787E+02 0.13396014237E+02 0.11671646814E+02
 0.90061780489E+01 0.65222470145E+01 0.49666263214E+01 0.41129638036E+01 0.34301362261E+01
 0.29533104167E+01 0.26795943876E+01 0.25610938200E+01 0.25616383520E+01 0.26802117966E+01
 0.29517900741E+01 0.34252678605E+01 0.41068289499E+01 0.49647398635E+01 0.65299429911E+01
 0.20025982488E+02 0.25033218128E+02 0.26949204575E+02 0.25036770917E+02 0.20025474020E+02
 0.13812857702E+02 0.85707249521E+01 0.55456139033E+01 0.42913638573E+01 0.34868132851E+01
 0.29518753937E+01 0.26790872016E+01 0.26007167579E+01 0.26802117966E+01 0.29508032521E+01
 0.34834314389E+01 0.42914366175E+01 0.55541697419E+01 0.85844179267E+01 0.13822364791E+02
 0.40471828119E+02 0.46790363442E+02 0.46802858472E+02 0.40497741950E+02 0.30049569602E+02
 0.18958629639E+02 0.10471639284E+02 0.59678711109E+01 0.43561469107E+01 0.34845547799E+01
 0.29495919968E+01 0.27236978986E+01 0.27254714997E+01 0.29517900741E+01 0.34834314389E+01
 0.43550300533E+01 0.59732700021E+01 0.10481257630E+02 0.18959315710E+02 0.30032186459E+02
 0.68791332891E+02 0.73756906486E+02 0.68810264377E+02 0.55584665210E+02 0.38362182471E+02
 0.22317723280E+02 0.11254090986E+02 0.59712730452E+01 0.42901450985E+01 0.34247416140E+01
 0.29589930602E+01 0.28247247980E+01 0.29592439883E+01 0.34252678605E+01 0.42914366175E+01
 0.59732700021E+01 0.11253827719E+02 0.22309391204E+02 0.38342334512E+02 0.55558580238E+02
 0.99019681015E+02 0.99021267302E+02 0.86301215818E+02 0.64984313028E+02 0.41595057795E+02
 0.22316765810E+02 0.10481264666E+02 0.55508483713E+01 0.41059946712E+01 0.33346318305E+01
 0.29979844020E+01 0.29962453857E+01 0.33321145854E+01 0.41068289499E+01 0.55541697419E+01
 0.10481257630E+02 0.22309391204E+02 0.41582850440E+02 0.64973473112E+02 0.86295338263E+02
 0.12247893129E+03 0.11443882912E+03 0.92996067588E+02 0.64973473112E+02 0.38342334512E+02
 0.18959315710E+02 0.85844179267E+01 0.49647398635E+01 0.38467431058E+01 0.32480963064E+01
 0.30750571410E+01 0.32480963064E+01 0.38467431058E+01 0.49647398635E+01 0.85844179267E+01
 0.18959315710E+02 0.38342334512E+02 0.64973473112E+02 0.92996067588E+02 0.11443882912E+03
 0.13136259589E+03 0.11445701071E+03 0.86307116925E+02 0.55557809260E+02 0.30026220028E+02
 0.13820344651E+02 0.65319992915E+01 0.44419678451E+01 0.35713881760E+01 0.31858870021E+01
 0.31880778983E+01 0.35746638191E+01 0.44417031109E+01 0.65299429911E+01 0.13822364791E+02
 0.30032186459E+02 0.55558580238E+02 0.86295338263E+02 0.11443882912E+03 0.13135372447E+03
 0.85744629201E+02 0.63884424420E+02 0.40468389790E+02 0.21622838220E+02 0.10250562056E+02
 0.55397454379E+01 0.41439294881E+01 0.33900977314E+01 0.30621846340E+01 0.30616162082E+01
 0.33884072483E+01 0.41418008943E+01 0.55391217206E+01 0.10253292321E+02 0.21628274384E+02
 0.40473165526E+02 0.63885600137E+02 0.85742885804E+02 0.99019681015E+02 0.99020913111E+02
 0.63884424420E+02 0.43448739146E+02 0.25018101995E+02 0.12512258463E+02 0.64392996464E+01
 0.44879670154E+01 0.36021498161E+01 0.31207422457E+01 0.29849115523E+01 0.31225066609E+01
 0.36014181832E+01 0.44830311605E+01 0.64350569295E+01 0.12515451058E+02 0.25029514037E+02
 0.43462217230E+02 0.63893557759E+02 0.80102976854E+02 0.86295338263E+02 0.80099390076E+02
 0.40468389790E+02 0.25018101995E+02 0.13393174908E+02 0.70489373977E+01 0.47272095622E+01
 0.37810414237E+01 0.31868321128E+01 0.29374445017E+01 0.29396949852E+01 0.31901024673E+01
 0.37790440922E+01 0.47187394345E+01 0.70409910056E+01 0.13396014237E+02 0.25036770917E+02
 0.40497741950E+02 0.55584665210E+02 0.64984313028E+02 0.64973473112E+02 0.55557809260E+02
 0.21622838220E+02 0.12512258463E+02 0.70489373977E+01 0.48174700216E+01 0.38824061354E+01
 0.32446715218E+01 0.29182393685E+01 0.28262582505E+01 0.29193571653E+01 0.32465525226E+01
 0.38813120792E+01 0.48084968463E+01 0.70349968694E+01 0.12507820310E+02 0.21641957670E+02
 0.32564059036E+02 0.41614255394E+02 0.45130631011E+02 0.41582850440E+02 0.32526048709E+02
 0.10250562056E+02 0.64392996464E+01 0.47272095622E+01 0.38824061354E+01 0.32669443863E+01
 0.29143778307E+01 0.27688950939E+01 0.27681304867E+01 0.29146856886E+01 0.32704969964E+01
 0.38836529570E+01 0.47180251203E+01 0.64223275140E+01 0.10241288023E+02 0.16107385420E+02
 0.22331108863E+02 0.26376356627E+02 0.26365174435E+02 0.22309391204E+02 0.16097102972E+02
 0.55397454379E+01 0.44879670154E+01 0.37810414237E+01 0.32446715218E+01 0.29143778307E+01
 0.27512740911E+01 0.27030394393E+01 0.27498941589E+01 0.29157091298E+01 0.32503089350E+01
 0.37862008119E+01 0.44861406611E+01 0.55302172770E+01 0.75811082024E+01 0.10473987342E+02
 0.13111509482E+02 0.14184840030E+02 0.13114014447E+02 0.10481257630E+02 0.75924544892E+01
 0.41439294881E+01 0.36021498161E+01 0.31868321128E+01 0.29182393685E+01 0.27688950939E+01
 0.27030394393E+01 0.27015805513E+01 0.27665066600E+01 0.29190664262E+01 0.31932194615E+01
 0.36118438841E+01 0.41509627401E+01 0.47451899254E+01 0.55451020606E+01 0.65257231449E+01
 0.72349548232E+01 0.72398678600E+01 0.65367581984E+01 0.55541697419E+01 0.47461656610E+01
 0.33900977314E+01 0.31207422457E+01 0.29374445017E+01 0.28262582505E+01 0.27681304867E+01
 0.27498941589E+01 0.27665066600E+01 0.28223697731E+01 0.29330467312E+01 0.31204615374E+01
 0.33968116715E+01 0.37451161652E+01 0.41140658986E+01 0.44361886398E+01 0.46722612319E+01
 0.47685286722E+01 0.46746390542E+01 0.44355481892E+01 0.41068289499E+01 0.37346536790E+01
 0.30621846340E+01 0.29849115523E+01 0.29396949852E+01 0.29193571653E+01 0.29146856886E+01
 0.29157091298E+01 0.29190664262E+01 0.29330467312E+01 0.29734231338E+01 0.30540185612E+01
 0.31792899102E+01 0.33405705354E+01 0.35145639384E+01 0.36655656077E+01 0.37544486152E+01
 0.37536829544E+01 0.36616637151E+01 0.35062948776E+01 0.33321145854E+01 0.31779785172E+01
 0.30616162082E+01 0.31225066609E+01 0.31901024673E+01 0.32465525226E+01 0.32704969964E+01
 0.32503089350E+01 0.31932194615E+01 0.31204615374E+01 0.30540185612E+01 0.30082322445E+01
 0.29903417915E+01 0.30018763490E+01 0.30349132730E+01 0.30697303227E+01 0.30835819133E+01
 0.30670795574E+01 0.30321854198E+01 0.30025802956E+01 0.29962453857E+01 0.30173930528E+01
 0.33884072483E+01 0.36014181832E+01 0.37790440922E+01 0.38813120792E+01 0.38836529570E+01
 0.37862008119E+01 0.36118438841E+01 0.33968116715E+01 0.31792899102E+01 0.29903417915E+01
 0.28488129201E+01 0.27591792634E+01 0.27124636284E+01 0.26932158664E+01 0.26915635356E+01
 0.27108418456E+01 0.27630596256E+01 0.28580215538E+01 0.29979844020E+01 0.31787791369E+01
 0.41418008943E+01 0.44830311605E+01 0.47187394345E+01 0.48084968463E+01 0.47180251203E+01
 0.44861406611E+01 0.41509627401E+01 0.37451161652E+01 0.33405705354E+01 0.30018763490E+01
 0.27591792634E+01 0.26076656759E+01 0.25271118550E+01 0.25014114001E+01 0.25264469141E+01
 0.26088038570E+01 0.27622738691E+01 0.30025802956E+01 0.33346318305E+01 0.37342412018E+01
 0.55391217206E+01 0.64350569295E+01 0.70409910056E+01 0.70349968694E+01 0.64223275140E+01
 0.55302172770E+01 0.47451899254E+01 0.41140658986E+01 0.35145639384E+01 0.30349132730E+01
 0.27124636284E+01 0.25271118550E+01 0.24446456411E+01 0.24450986307E+01 0.25280058691E+01
 0.27120818044E+01 0.30307843554E+01 0.35062948776E+01 0.41059946712E+01 0.47442508542E+01
 0.10253292321E+02 0.12515451058E+02 0.13396014237E+02 0.12507820310E+02 0.10241288023E+02
 0.75811082024E+01 0.55451020606E+01 0.44361886398E+01 0.36655656077E+01 0.30697303227E+01
 0.26932158664E+01 0.25014114001E+01 0.24450986307E+01 0.25027792991E+01 0.26933893042E+01
 0.30669451556E+01 0.36616542166E+01 0.44355481892E+01 0.55508483713E+01 0.75922521276E+01
 0.21628274384E+02 0.25029514037E+02 0.25036770917E+02 0.21641957670E+02 0.16107385420E+02
 0.10473987342E+02 0.65257231449E+01 0.46722612319E+01 0.37544486152E+01 0.30835819133E+01
 0.26915635356E+01 0.25264469141E+01 0.25280058691E+01 0.26933893042E+01 0.30821495513E+01
 0.37527349612E+01 0.46769700514E+01 0.65367581984E+01 0.10481264666E+02 0.16101924582E+02
 0.40473165526E+02 0.43462217230E+02 0.40497741950E+02 0.32564059036E+02 0.22331108863E+02
 0.13111509482E+02 0.72349548232E+01 0.47685286722E+01 0.37536829544E+01 0.30670795574E+01
 0.27108418456E+01 0.26088038570E+01 0.27120818044E+01 0.30669451556E+01 0.37527349612E+01
 0.47714693625E+01 0.72424646606E+01 0.13114014447E+02 0.22316765810E+02 0.32534843328E+02
 0.63885600137E+02 0.63893557759E+02 0.55584665210E+02 0.41614255394E+02 0.26376356627E+02
 0.14184840030E+02 0.72398678600E+01 0.46746390542E+01 0.36616637151E+01 0.30321854198E+01
 0.27630596256E+01 0.27622738691E+01 0.30307843554E+01 0.36616542166E+01 0.46769700514E+01
 0.72424646606E+01 0.14182749777E+02 0.26365174435E+02 0.41595057795E+02 0.55565730315E+02
 0.85742885804E+02 0.80102976854E+02 0.64984313028E+02 0.45130631011E+02 0.26365174435E+02
 0.13114014447E+02 0.65367581984E+01 0.44355481892E+01 0.35062948776E+01 0.30025802956E+01
 0.28580215538E+01 0.30025802956E+01 0.35062948776E+01 0.44355481892E+01 0.65367581984E+01
 0.13114014447E+02 0.26365174435E+02 0.45130631011E+02 0.64984313028E+02 0.80102976854E+02
 0.99019681015E+02 0.86295338263E+02 0.64973473112E+02 0.41582850440E+02 0.22309391204E+02
 0.10481257630E+02 0.55541697419E+01 0.41068289499E+01 0.33321145854E+01 0.29962453857E+01
 0.29979844020E+01 0.33346318305E+01 0.41059946712E+01 0.55508483713E+01 0.10481264666E+02
 0.22316765810E+02 0.41595057795E+02 0.64984313028E+02 0.86301215818E+02 0.99021267302E+02
 0.99020913111E+02 0.80099390076E+02 0.55557809260E+02 0.32526048709E+02 0.16097102972E+02
 0.75924544892E+01 0.47461656610E+01 0.37346536790E+01 0.31779785172E+01 0.30173930528E+01
 0.31787791369E+01 0.37342412018E+01 0.47442508542E+01 0.75922521276E+01 0.16101924582E+02
 0.32534843328E+02 0.55565730315E+02 0.80102976854E+02 0.99021267302E+02 0.10614092837E+03
 0.50979018276E+02 0.34677299397E+02 0.20015261850E+02 0.10250562056E+02 0.57267493812E+01
 0.42608288424E+01 0.34474198802E+01 0.30148400615E+01 0.28917276260E+01 0.30152423665E+01
 0.34470124425E+01 0.42579652459E+01 0.57212228293E+01 0.10245364550E+02 0.20015603077E+02
 0.34686220919E+02 0.50993228034E+02 0.63885600137E+02 0.68791332891E+02 0.63874748022E+02
 0.34677299397E+02 0.21507116987E+02 0.11677205563E+02 0.64392996464E+01 0.45615074429E+01
 0.36734997265E+01 0.31197867116E+01 0.28877992201E+01 0.28895922160E+01 0.31226433692E+01