   1   1   0   0
  0.1166400E+02  0.2545584E-09  0.2545584E-09  0.2545584E-09  0.5000000E-15
  1.000000000000000E-004
  CAR 
 fcc Ni                                  
     53.49569258     -2.60781410  301      8.42573644      1.00000000
     -2.608  0.0000E+00  0.0000E+00  0.0000E+00  0.0000E+00
     -2.421  0.0000E+00  0.0000E+00  0.0000E+00  0.0000E+00
     -2.234  0.0000E+00  0.0000E+00  0.0000E+00  0.0000E+00
     -2.047  0.0000E+00  0.0000E+00  0.0000E+00  0.0000E+00
     -1.860  0.0000E+00  0.0000E+00  0.0000E+00  0.0000E+00
     -1.673 -0.3273E-31 -0.1161E-29 -0.6120E-32 -0.2171E-30
     -1.486 -0.6613E-25 -0.1550E-23 -0.1237E-25 -0.2899E-24
     -1.299 -0.2288E-19 -0.3540E-18 -0.4278E-20 -0.6620E-19
     -1.112 -0.1304E-14 -0.1326E-13 -0.2438E-15 -0.2480E-14
     -0.925 -0.1278E-10 -0.8531E-10 -0.2391E-11 -0.1596E-10
     -0.738 -0.2061E-07 -0.8953E-07 -0.3857E-08 -0.1676E-07
     -0.551 -0.5202E-05 -0.1440E-04 -0.9766E-06 -0.2709E-05
     -0.364 -0.1739E-03 -0.2774E-03 -0.3350E-04 -0.5458E-04
     -0.177  0.2444E-04  0.7382E-03 -0.2893E-04  0.8347E-04
      0.010  0.5441E-02  0.7291E-02  0.9887E-03  0.1447E-02
      0.197  0.1604E-01  0.1934E-01  0.3988E-02  0.5064E-02
      0.384  0.2504E-01  0.2495E-01  0.8671E-02  0.9730E-02
      0.571  0.2546E-01  0.2614E-01  0.1343E-01  0.1462E-01
      0.758  0.3186E-01  0.3417E-01  0.1939E-01  0.2101E-01
      0.945  0.4545E-01  0.4777E-01  0.2789E-01  0.2994E-01
      1.132  0.4193E-01  0.3672E-01  0.3573E-01  0.3681E-01
      1.319  0.3066E-01  0.3352E-01  0.4146E-01  0.4308E-01
      1.506  0.5587E-01  0.6070E-01  0.5191E-01  0.5443E-01
      1.693  0.7637E-01  0.7368E-01  0.6619E-01  0.6821E-01
      1.880  0.4383E-01  0.3789E-01  0.7439E-01  0.7529E-01
      2.067  0.5027E-01  0.5421E-01  0.8379E-01  0.8543E-01
      2.254  0.8257E-01  0.8191E-01  0.9923E-01  0.1007E+00
      2.442  0.7376E-01  0.7054E-01  0.1130E+00  0.1139E+00
      2.629  0.8096E-01  0.7677E-01  0.1282E+00  0.1283E+00
      2.816  0.9293E-01  0.9011E-01  0.1455E+00  0.1451E+00
      3.003  0.9751E-01  0.8802E-01  0.1638E+00  0.1616E+00
      3.190  0.8320E-01  0.7652E-01  0.1793E+00  0.1759E+00
      3.377  0.1333E+00  0.1101E+00  0.2043E+00  0.1965E+00
      3.564  0.1657E+00  0.1456E+00  0.2353E+00  0.2237E+00
      3.751  0.1457E+00  0.1250E+00  0.2625E+00  0.2471E+00
      3.938  0.2220E+00  0.1183E+00  0.3040E+00  0.2692E+00
      4.125  0.3949E+00  0.1805E+00  0.3779E+00  0.3030E+00
      4.312  0.4848E+00  0.2612E+00  0.4685E+00  0.3518E+00
      4.499  0.6032E+00  0.2977E+00  0.5813E+00  0.4075E+00
      4.686  0.7355E+00  0.4584E+00  0.7189E+00  0.4932E+00
      4.873  0.9555E+00  0.5464E+00  0.8976E+00  0.5954E+00
      5.060  0.1088E+01  0.4938E+00  0.1101E+01  0.6877E+00
      5.247  0.9956E+00  0.6104E+00  0.1287E+01  0.8019E+00
      5.434  0.9187E+00  0.8206E+00  0.1459E+01  0.9554E+00
      5.621  0.9762E+00  0.9586E+00  0.1642E+01  0.1135E+01
      5.808  0.1218E+01  0.9171E+00  0.1869E+01  0.1306E+01
      5.995  0.1357E+01  0.8817E+00  0.2123E+01  0.1471E+01
      6.182  0.1554E+01  0.8772E+00  0.2414E+01  0.1635E+01
      6.369  0.1891E+01  0.1083E+01  0.2767E+01  0.1838E+01
      6.556  0.1614E+01  0.1293E+01  0.3069E+01  0.2079E+01
      6.743  0.1119E+01  0.1393E+01  0.3279E+01  0.2340E+01
      6.930  0.1165E+01  0.1572E+01  0.3496E+01  0.2634E+01
      7.117  0.1487E+01  0.1610E+01  0.3774E+01  0.2935E+01
      7.304  0.1563E+01  0.1382E+01  0.4067E+01  0.3194E+01
      7.491  0.1453E+01  0.1141E+01  0.4338E+01  0.3407E+01
      7.678  0.1855E+01  0.1270E+01  0.4685E+01  0.3645E+01
      7.865  0.2247E+01  0.1463E+01  0.5105E+01  0.3918E+01
      8.052  0.8144E+00  0.1338E+01  0.5258E+01  0.4168E+01
      8.239  0.2028E+00  0.1205E+01  0.5296E+01  0.4394E+01
      8.426  0.1034E+00  0.1559E+01  0.5315E+01  0.4685E+01
      8.613  0.1878E+00  0.1972E+01  0.5350E+01  0.5054E+01
      8.800  0.2142E+00  0.1152E+01  0.5390E+01  0.5270E+01
      8.987  0.1327E+00  0.2824E+00  0.5415E+01  0.5322E+01
      9.174  0.1539E+00  0.1405E+00  0.5444E+01  0.5349E+01
      9.361  0.1564E+00  0.2520E+00  0.5473E+01  0.5396E+01
      9.548  0.1506E+00  0.1793E+00  0.5501E+01  0.5429E+01
      9.735  0.1238E+00  0.1290E+00  0.5524E+01  0.5453E+01
      9.922  0.1249E+00  0.1970E+00  0.5548E+01  0.5490E+01
     10.109  0.1621E+00  0.1756E+00  0.5578E+01  0.5523E+01
     10.296  0.2033E+00  0.1477E+00  0.5616E+01  0.5551E+01
     10.483  0.1133E+00  0.1433E+00  0.5637E+01  0.5578E+01
     10.670  0.6257E-01  0.2095E+00  0.5649E+01  0.5617E+01
     10.857  0.1359E+00  0.1263E+00  0.5674E+01  0.5640E+01
     11.044  0.1165E+00  0.1063E+00  0.5696E+01  0.5660E+01
     11.231  0.1699E+00  0.1272E+00  0.5728E+01  0.5684E+01
     11.418  0.1221E+00  0.1271E+00  0.5751E+01  0.5708E+01
     11.605  0.1881E+00  0.1955E+00  0.5786E+01  0.5744E+01
     11.792  0.8949E-01  0.1399E+00  0.5803E+01  0.5770E+01
     11.979  0.2095E-01  0.1408E+00  0.5807E+01  0.5797E+01
     12.166  0.8726E-01  0.5182E-01  0.5823E+01  0.5806E+01
     12.353  0.1097E+00  0.5487E-01  0.5843E+01  0.5817E+01
     12.540  0.1619E+00  0.1157E+00  0.5874E+01  0.5838E+01
     12.727  0.1233E+00  0.1484E+00  0.5897E+01  0.5866E+01
     12.914  0.6038E-01  0.1389E+00  0.5908E+01  0.5892E+01
     13.101  0.3263E-01  0.8857E-01  0.5914E+01  0.5909E+01
     13.288  0.8221E-01  0.1634E-01  0.5929E+01  0.5912E+01
     13.475  0.4641E-01  0.7814E-01  0.5938E+01  0.5926E+01
     13.662  0.7768E-01  0.6867E-01  0.5953E+01  0.5939E+01
     13.849  0.1557E+00  0.5952E-01  0.5982E+01  0.5950E+01
     14.036  0.1461E+00  0.8659E-01  0.6009E+01  0.5967E+01
     14.223  0.1167E+00  0.1421E+00  0.6031E+01  0.5993E+01
     14.410  0.1466E+00  0.1315E+00  0.6058E+01  0.6018E+01
     14.597  0.1600E+00  0.1421E+00  0.6088E+01  0.6044E+01
     14.784  0.1945E+00  0.1543E+00  0.6125E+01  0.6073E+01
     14.971  0.1127E+00  0.2363E+00  0.6146E+01  0.6117E+01
     15.158  0.1297E+00  0.1323E+00  0.6170E+01  0.6142E+01
     15.345  0.1308E+00  0.1151E+00  0.6194E+01  0.6164E+01
     15.532  0.1358E+00  0.1356E+00  0.6220E+01  0.6189E+01
     15.719  0.1298E+00  0.1404E+00  0.6244E+01  0.6215E+01
     15.906  0.1384E+00  0.1485E+00  0.6270E+01  0.6243E+01
     16.093  0.1313E+00  0.1374E+00  0.6295E+01  0.6269E+01
     16.280  0.1052E+00  0.1400E+00  0.6314E+01  0.6295E+01
     16.467  0.8938E-01  0.1026E+00  0.6331E+01  0.6314E+01
     16.654  0.1628E+00  0.8910E-01  0.6361E+01  0.6331E+01
     16.841  0.9492E-01  0.1555E+00  0.6379E+01  0.6360E+01
     17.028  0.8307E-01  0.1036E+00  0.6395E+01  0.6379E+01
     17.215  0.1273E+00  0.9884E-01  0.6418E+01  0.6398E+01
     17.402  0.1563E+00  0.1113E+00  0.6448E+01  0.6418E+01
     17.589  0.2114E+00  0.1656E+00  0.6487E+01  0.6449E+01
     17.776  0.1269E+00  0.2034E+00  0.6511E+01  0.6487E+01
     17.963  0.2071E+00  0.1398E+00  0.6550E+01  0.6514E+01
     18.150  0.1933E+00  0.2132E+00  0.6586E+01  0.6553E+01
     18.337  0.1619E+00  0.1879E+00  0.6616E+01  0.6589E+01
     18.525  0.1677E+00  0.1757E+00  0.6648E+01  0.6621E+01
     18.712  0.6897E-01  0.1557E+00  0.6660E+01  0.6651E+01
     18.899  0.1634E+00  0.7659E-01  0.6691E+01  0.6665E+01
     19.086  0.2580E+00  0.2022E+00  0.6739E+01  0.6703E+01
     19.273  0.2082E+00  0.2561E+00  0.6778E+01  0.6751E+01
     19.460  0.2092E+00  0.1995E+00  0.6817E+01  0.6788E+01
     19.647  0.2173E+00  0.2189E+00  0.6858E+01  0.6829E+01
     19.834  0.1869E+00  0.2092E+00  0.6893E+01  0.6868E+01
     20.021  0.1939E+00  0.2049E+00  0.6929E+01  0.6906E+01
     20.208  0.1155E+00  0.1619E+00  0.6951E+01  0.6937E+01
     20.395  0.1316E+00  0.1190E+00  0.6975E+01  0.6959E+01
     20.582  0.2409E+00  0.1796E+00  0.7020E+01  0.6992E+01
     20.769  0.2376E+00  0.2639E+00  0.7065E+01  0.7042E+01
     20.956  0.1694E+00  0.2034E+00  0.7096E+01  0.7080E+01
     21.143  0.1386E+00  0.1491E+00  0.7122E+01  0.7108E+01
     21.330  0.1840E+00  0.1543E+00  0.7157E+01  0.7137E+01
     21.517  0.2241E+00  0.2110E+00  0.7199E+01  0.7176E+01
     21.704  0.3201E+00  0.2639E+00  0.7259E+01  0.7225E+01
     21.891  0.1953E+00  0.3001E+00  0.7295E+01  0.7281E+01
     22.078  0.8933E-01  0.1278E+00  0.7312E+01  0.7305E+01
     22.265  0.1387E+00  0.8737E-01  0.7338E+01  0.7322E+01
     22.452  0.3636E+00  0.2836E+00  0.7406E+01  0.7375E+01
     22.639  0.2525E+00  0.3225E+00  0.7453E+01  0.7435E+01
     22.826  0.2553E+00  0.2502E+00  0.7501E+01  0.7482E+01
     23.013  0.1815E+00  0.2189E+00  0.7535E+01  0.7523E+01
     23.200  0.1230E+00  0.1347E+00  0.7558E+01  0.7548E+01
     23.387  0.2333E+00  0.1887E+00  0.7601E+01  0.7583E+01
     23.574  0.2296E+00  0.2495E+00  0.7644E+01  0.7630E+01
     23.761  0.2145E+00  0.2187E+00  0.7684E+01  0.7671E+01
     23.948  0.2367E+00  0.2273E+00  0.7729E+01  0.7713E+01
     24.135  0.2001E+00  0.2011E+00  0.7766E+01  0.7751E+01
     24.322  0.2060E+00  0.2126E+00  0.7805E+01  0.7791E+01
     24.509  0.1648E+00  0.1688E+00  0.7835E+01  0.7822E+01
     24.696  0.2324E+00  0.2120E+00  0.7879E+01  0.7862E+01
     24.883  0.1877E+00  0.2205E+00  0.7914E+01  0.7903E+01
     25.070  0.2453E+00  0.2090E+00  0.7960E+01  0.7942E+01
     25.257  0.2734E+00  0.2865E+00  0.8011E+01  0.7996E+01
     25.444  0.1640E+00  0.1978E+00  0.8042E+01  0.8033E+01
     25.631  0.1259E+00  0.1379E+00  0.8065E+01  0.8059E+01
     25.818  0.1275E+00  0.1074E+00  0.8089E+01  0.8079E+01
     26.005  0.2367E+00  0.2142E+00  0.8133E+01  0.8119E+01
     26.192  0.1610E+00  0.2117E+00  0.8163E+01  0.8158E+01
     26.379  0.7639E-01  0.6760E-01  0.8178E+01  0.8171E+01
     26.566  0.1756E+00  0.1414E+00  0.8210E+01  0.8197E+01
     26.753  0.2288E+00  0.2423E+00  0.8253E+01  0.8243E+01
     26.940  0.1565E+00  0.1777E+00  0.8283E+01  0.8276E+01
     27.127  0.1817E+00  0.1749E+00  0.8317E+01  0.8309E+01
     27.314  0.1802E+00  0.1785E+00  0.8350E+01  0.8342E+01
     27.501  0.1479E+00  0.1562E+00  0.8378E+01  0.8371E+01
     27.688  0.1745E+00  0.1676E+00  0.8410E+01  0.8403E+01
     27.875  0.1343E+00  0.1290E+00  0.8436E+01  0.8427E+01
     28.062  0.1759E+00  0.1556E+00  0.8468E+01  0.8456E+01
     28.249  0.2048E+00  0.2332E+00  0.8507E+01  0.8499E+01
     28.436  0.1553E+00  0.1787E+00  0.8536E+01  0.8533E+01
     28.623  0.1565E+00  0.1393E+00  0.8565E+01  0.8559E+01
     28.810  0.1483E+00  0.1395E+00  0.8593E+01  0.8585E+01
     28.997  0.2254E+00  0.2009E+00  0.8635E+01  0.8623E+01
     29.184  0.2527E+00  0.2614E+00  0.8682E+01  0.8671E+01
     29.371  0.2642E+00  0.2695E+00  0.8732E+01  0.8722E+01
     29.558  0.1936E+00  0.2462E+00  0.8768E+01  0.8768E+01
     29.745  0.2732E+00  0.2095E+00  0.8819E+01  0.8807E+01
     29.932  0.3254E+00  0.3495E+00  0.8880E+01  0.8872E+01
     30.119  0.1703E+00  0.2193E+00  0.8912E+01  0.8913E+01
     30.306  0.1719E+00  0.1503E+00  0.8944E+01  0.8942E+01
     30.493  0.3355E+00  0.3220E+00  0.9007E+01  0.9002E+01
     30.680  0.2699E+00  0.2992E+00  0.9057E+01  0.9058E+01
     30.867  0.1687E+00  0.1297E+00  0.9089E+01  0.9082E+01
     31.054  0.2825E+00  0.2627E+00  0.9141E+01  0.9131E+01
     31.241  0.3787E+00  0.3900E+00  0.9212E+01  0.9204E+01
     31.428  0.3576E+00  0.3943E+00  0.9279E+01  0.9278E+01
     31.615  0.2824E+00  0.2723E+00  0.9332E+01  0.9329E+01
     31.802  0.2351E+00  0.2330E+00  0.9376E+01  0.9372E+01
     31.989  0.2655E+00  0.2579E+00  0.9426E+01  0.9420E+01
     32.176  0.2475E+00  0.2428E+00  0.9472E+01  0.9466E+01
     32.363  0.3093E+00  0.2437E+00  0.9530E+01  0.9511E+01
     32.550  0.2591E+00  0.3120E+00  0.9578E+01  0.9570E+01
     32.737  0.3577E+00  0.3492E+00  0.9645E+01  0.9635E+01
     32.924  0.2130E+00  0.2687E+00  0.9685E+01  0.9685E+01
     33.111  0.1821E+00  0.1812E+00  0.9719E+01  0.9719E+01
     33.298  0.1873E+00  0.1904E+00  0.9754E+01  0.9755E+01
     33.485  0.2055E+00  0.1939E+00  0.9792E+01  0.9791E+01
     33.672  0.2258E+00  0.2077E+00  0.9835E+01  0.9830E+01
     33.859  0.1839E+00  0.1644E+00  0.9869E+01  0.9861E+01
     34.046  0.1850E+00  0.1948E+00  0.9904E+01  0.9897E+01
     34.233  0.1253E+00  0.1490E+00  0.9927E+01  0.9925E+01
     34.421  0.1672E+00  0.1627E+00  0.9958E+01  0.9955E+01
     34.608  0.3142E+00  0.2530E+00  0.1002E+02  0.1000E+02
     34.795  0.3124E+00  0.3216E+00  0.1008E+02  0.1006E+02
     34.982  0.1347E+00  0.1576E+00  0.1010E+02  0.1009E+02
     35.169  0.1515E+00  0.1781E+00  0.1013E+02  0.1013E+02
     35.356  0.1318E+00  0.1347E+00  0.1015E+02  0.1015E+02
     35.543  0.4337E-01  0.4643E-01  0.1016E+02  0.1016E+02
     35.730  0.8413E-01  0.4522E-01  0.1018E+02  0.1017E+02
     35.917  0.1485E+00  0.1766E+00  0.1021E+02  0.1020E+02
     36.104  0.1549E+00  0.1847E+00  0.1023E+02  0.1024E+02
     36.291  0.2304E+00  0.2172E+00  0.1028E+02  0.1028E+02
     36.478  0.3588E+00  0.2807E+00  0.1034E+02  0.1033E+02
     36.665  0.3201E+00  0.3506E+00  0.1040E+02  0.1039E+02
     36.852  0.2709E+00  0.2814E+00  0.1045E+02  0.1045E+02
     37.039  0.3233E+00  0.3186E+00  0.1052E+02  0.1051E+02
     37.226  0.2832E+00  0.2936E+00  0.1057E+02  0.1056E+02
     37.413  0.2772E+00  0.2897E+00  0.1062E+02  0.1062E+02
     37.600  0.2321E+00  0.2646E+00  0.1066E+02  0.1066E+02
     37.787  0.2656E+00  0.2473E+00  0.1071E+02  0.1071E+02
     37.974  0.2824E+00  0.2986E+00  0.1077E+02  0.1077E+02
     38.161  0.3417E+00  0.3329E+00  0.1083E+02  0.1083E+02
     38.348  0.3233E+00  0.2922E+00  0.1089E+02  0.1088E+02
     38.535  0.1323E+00  0.1599E+00  0.1092E+02  0.1091E+02
     38.722  0.1479E+00  0.1616E+00  0.1094E+02  0.1094E+02
     38.909  0.2220E+00  0.2047E+00  0.1098E+02  0.1098E+02
     39.096  0.2237E+00  0.2123E+00  0.1103E+02  0.1102E+02
     39.283  0.1212E+00  0.1549E+00  0.1105E+02  0.1105E+02
     39.470  0.2243E+00  0.2156E+00  0.1109E+02  0.1109E+02
     39.657  0.2390E+00  0.2266E+00  0.1114E+02  0.1113E+02
     39.844  0.1975E+00  0.2138E+00  0.1117E+02  0.1117E+02
     40.031  0.1968E+00  0.1886E+00  0.1121E+02  0.1121E+02
     40.218  0.2398E+00  0.2376E+00  0.1125E+02  0.1125E+02
     40.405  0.1800E+00  0.1817E+00  0.1129E+02  0.1129E+02
     40.592  0.1140E+00  0.1336E+00  0.1131E+02  0.1131E+02
     40.779  0.2327E+00  0.2296E+00  0.1135E+02  0.1136E+02
     40.966  0.1573E+00  0.1341E+00  0.1138E+02  0.1138E+02
     41.153  0.1798E+00  0.1636E+00  0.1142E+02  0.1141E+02
     41.340  0.8505E-01  0.1081E+00  0.1143E+02  0.1143E+02
     41.527  0.1366E+00  0.1218E+00  0.1146E+02  0.1145E+02
     41.714  0.1843E+00  0.1729E+00  0.1149E+02  0.1149E+02
     41.901  0.1710E+00  0.2339E+00  0.1152E+02  0.1153E+02
     42.088  0.2709E+00  0.2591E+00  0.1157E+02  0.1158E+02
     42.275  0.1965E+00  0.1725E+00  0.1161E+02  0.1161E+02
     42.462  0.1758E+00  0.1660E+00  0.1164E+02  0.1164E+02
     42.649  0.1593E+00  0.1662E+00  0.1167E+02  0.1167E+02
     42.836  0.1954E-01  0.3689E-01  0.1168E+02  0.1168E+02
     43.023  0.9485E-01  0.9668E-01  0.1169E+02  0.1170E+02
     43.210  0.1495E+00  0.1311E+00  0.1172E+02  0.1172E+02
     43.397  0.1663E+00  0.1935E+00  0.1175E+02  0.1176E+02
     43.584  0.1292E+00  0.1174E+00  0.1178E+02  0.1178E+02
     43.771  0.8141E-01  0.5534E-01  0.1179E+02  0.1179E+02
     43.958  0.1266E-01  0.2878E-01  0.1180E+02  0.1180E+02
     44.145  0.4017E-01  0.7113E-01  0.1180E+02  0.1181E+02
     44.332  0.9787E-01  0.7868E-01  0.1182E+02  0.1182E+02
     44.519  0.4502E-01  0.3170E-01  0.1183E+02  0.1183E+02
     44.706  0.1237E+00  0.1285E+00  0.1185E+02  0.1185E+02
     44.893  0.7834E-01  0.7720E-01  0.1187E+02  0.1187E+02
     45.080  0.4112E-01  0.4965E-01  0.1188E+02  0.1188E+02
     45.267  0.5382E-01  0.4229E-01  0.1189E+02  0.1189E+02
     45.454  0.2947E-02  0.7818E-02  0.1189E+02  0.1189E+02
     45.641  0.5302E-01  0.7347E-01  0.1190E+02  0.1190E+02
     45.828  0.9077E-01  0.7552E-01  0.1191E+02  0.1192E+02
     46.015  0.1857E-01  0.4507E-02  0.1192E+02  0.1192E+02
     46.202 -0.1816E-02  0.8649E-02  0.1192E+02  0.1192E+02
     46.389  0.3885E-01  0.4447E-01  0.1192E+02  0.1193E+02
     46.576  0.5887E-01  0.5362E-01  0.1193E+02  0.1194E+02
     46.763  0.3155E-01  0.2334E-01  0.1194E+02  0.1194E+02
     46.950 -0.8039E-03 -0.1893E-02  0.1194E+02  0.1194E+02
     47.137 -0.9184E-03 -0.7145E-03  0.1194E+02  0.1194E+02
     47.324 -0.9882E-03 -0.6804E-03  0.1194E+02  0.1194E+02
     47.511  0.9999E-02  0.1316E-01  0.1194E+02  0.1194E+02
     47.698  0.1993E-01  0.1992E-01  0.1195E+02  0.1195E+02
     47.885  0.3041E-01  0.3733E-01  0.1195E+02  0.1195E+02
     48.072  0.3619E-01  0.2968E-01  0.1196E+02  0.1196E+02
     48.259  0.2104E-01  0.2583E-01  0.1196E+02  0.1196E+02
     48.446  0.3418E-01  0.3007E-01  0.1197E+02  0.1197E+02
     48.633  0.1039E-01  0.1054E-01  0.1197E+02  0.1197E+02
     48.820  0.3300E-01  0.4218E-01  0.1198E+02  0.1198E+02
     49.007  0.3189E-01  0.1911E-01  0.1198E+02  0.1198E+02
     49.194 -0.8270E-03 -0.2353E-02  0.1198E+02  0.1198E+02
     49.381 -0.1501E-02 -0.4670E-03  0.1198E+02  0.1198E+02
     49.568  0.1280E-01  0.1653E-01  0.1198E+02  0.1198E+02
     49.755  0.1978E-01  0.1664E-01  0.1199E+02  0.1199E+02
     49.942  0.1099E-02 -0.1690E-03  0.1199E+02  0.1199E+02
     50.129 -0.9266E-03 -0.9246E-03  0.1199E+02  0.1199E+02
     50.316 -0.2253E-03  0.1001E-02  0.1199E+02  0.1199E+02
     50.504  0.1631E-01  0.1938E-01  0.1199E+02  0.1199E+02
     50.691  0.1574E-01  0.1226E-01  0.1199E+02  0.1199E+02
     50.878  0.8378E-02  0.1233E-01  0.1200E+02  0.1200E+02
     51.065  0.2169E-01  0.1933E-01  0.1200E+02  0.1200E+02
     51.252  0.3473E-02  0.9807E-03  0.1200E+02  0.1200E+02
     51.439 -0.8002E-03 -0.5456E-03  0.1200E+02  0.1200E+02
     51.626 -0.4308E-04 -0.1775E-04  0.1200E+02  0.1200E+02
     51.813 -0.2685E-06 -0.7438E-07  0.1200E+02  0.1200E+02
     52.000 -0.2559E-09 -0.4861E-10  0.1200E+02  0.1200E+02
     52.187 -0.3979E-13 -0.5222E-14  0.1200E+02  0.1200E+02
     52.374  0.0000E+00  0.0000E+00  0.1200E+02  0.1200E+02
     52.561  0.0000E+00  0.0000E+00  0.1200E+02  0.1200E+02
     52.748  0.0000E+00  0.0000E+00  0.1200E+02  0.1200E+02
     52.935  0.0000E+00  0.0000E+00  0.1200E+02  0.1200E+02
     53.122  0.0000E+00  0.0000E+00  0.1200E+02  0.1200E+02
     53.309  0.0000E+00  0.0000E+00  0.1200E+02  0.1200E+02
     53.496  0.0000E+00  0.0000E+00  0.1200E+02  0.1200E+02
