    1    1    1    2
  0.1166400E+02  0.2545584E-09  0.2545584E-09  0.2545584E-09  0.5000000E-15
  1.000000000000000E-004
  CAR 
 fcc Ni                                  
     10    110     12
 
  0.5000000E-01  0.5000000E-01  0.5000000E-01  0.2000000E-02
    1       -0.013728     -0.057655   1.000000   1.000000
    2        6.141836      6.876815   1.000000   1.000000
    3        6.186766      6.925489   1.000000   1.000000
    4        6.186766      6.925489   1.000000   1.000000
    5        7.208186      7.836265   1.000000   1.000125
    6        7.208186      7.836265   1.000000   1.000125
    7       31.258664     31.118288   0.000000   0.000000
    8       33.607736     33.591550   0.000000   0.000000
    9       34.646757     34.647196   0.000000   0.000000
   10       34.646757     34.647196   0.000000   0.000000
   11       38.185388     38.230030   0.000000   0.000000
   12       38.185388     38.230031   0.000000   0.000000
 
  0.1500000E+00  0.5000000E-01  0.5000000E-01  0.6000000E-02
    1        0.474481      0.431619   1.000000   1.000000
    2        6.022981      6.742542   1.000000   1.000000
    3        6.276476      7.019743   1.000000   1.000000
    4        6.288643      7.025880   1.000000   1.000000
    5        7.119656      7.742230   1.000000   1.000007
    6        7.233444      7.866346   1.000000   1.000278
    7       28.873298     28.882254   0.000000   0.000000
    8       31.097136     31.086287   0.000000   0.000000
    9       33.699927     33.645609   0.000000   0.000000
   10       35.313722     35.319335   0.000000   0.000000
   11       38.001179     37.947752   0.000000   0.000000
   12       38.377872     38.410001   0.000000   0.000000
 
  0.2500000E+00  0.5000000E-01  0.5000000E-01  0.6000000E-02
    1        1.617646      1.587254   1.000000   1.000000
    2        5.859173      6.532802   1.000000   1.000000
    3        6.375712      7.081702   1.000000   1.000000
    4        6.399804      7.119453   1.000000   1.000000
    5        7.107147      7.756771   1.000000   1.000012
    6        7.336288      8.003155   1.000000   1.005458
    7       23.868143     23.962288   0.000000   0.000000
    8       30.050729     30.052409   0.000000   0.000000
    9       33.166856     33.106033   0.000000   0.000000
   10       34.659314     34.722392   0.000000   0.000000
   11       37.622252     37.574207   0.000000   0.000000
   12       37.845400     37.861835   0.000000   0.000000
 
  0.3500000E+00  0.5000000E-01  0.5000000E-01  0.6000000E-02
    1        3.060777      3.126248   1.000000   1.000000
    2        6.008571      6.537945   1.000000   1.000000
    3        6.309207      6.968579   1.000000   1.000000
    4        6.350250      7.014355   1.000000   1.000000
    5        7.355153      8.069146   1.000000   1.015095
    6        7.634969      8.343116   1.000000   0.818714
    7       19.158731     19.325690   0.000000   0.000000
    8       29.478321     29.470862   0.000000   0.000000
    9       32.063718     32.013895   0.000000   0.000000
   10       33.783525     33.887394   0.000000   0.000000
   11       35.731710     35.739636   0.000000   0.000000
   12       37.427751     37.424211   0.000000   0.000000
 
  0.4500000E+00  0.5000000E-01  0.5000000E-01  0.6000000E-02
    1        3.884564      4.221674   1.000000   1.000000
    2        6.191746      6.821224   1.000000   1.000000
    3        6.245048      6.884951   1.000000   1.000000
    4        6.997914      7.280619   1.000000   1.000000
    5        7.664675      8.414733   1.000001   0.546484
    6        8.150575      8.756572   1.032619  -0.020584
    7       15.225857     15.511488   0.000000   0.000000
    8       29.339223     29.286325   0.000000   0.000000
    9       31.236757     31.227818   0.000000   0.000000
   10       32.314755     32.400959   0.000000   0.000000
   11       35.220565     35.247810   0.000000   0.000000
   12       36.575664     36.587913   0.000000   0.000000
 
 -0.4500000E+00  0.5000000E-01  0.5000000E-01  0.6000000E-02
    1        4.006886      4.431544   1.000000   1.000000
    2        6.149884      6.771284   1.000000   1.000000
    3        6.219398      6.855957   1.000000   1.000000
    4        7.366800      7.753480   1.000000   1.000011
    5        7.808656      8.568609   1.000057   0.035213
    6        8.726581      9.044947  -0.027463  -0.000054
    7       13.716255     14.106120  -0.000000   0.000000
    8       29.580480     29.464693   0.000000   0.000000
    9       31.147454     31.222231   0.000000   0.000000
   10       31.254686     31.314362   0.000000   0.000000
   11       35.803570     35.834906   0.000000   0.000000
   12       35.927710     35.936692   0.000000   0.000000
 
 -0.3500000E+00  0.5000000E-01  0.5000000E-01  0.6000000E-02
    1        3.719234      3.967323   1.000000   1.000000
    2        6.215505      6.824626   1.000000   1.000000
    3        6.286264      6.936842   1.000000   1.000000
    4        6.589870      6.956831   1.000000   1.000000
    5        7.714153      8.457225   1.000003   0.368575
    6        7.808428      8.477903   1.000057   0.287370
    7       16.400773     16.637773   0.000000   0.000000
    8       30.057514     29.929635   0.000000   0.000000
    9       30.682929     30.759498   0.000000   0.000000
   10       32.299984     32.394225   0.000000   0.000000
   11       35.817985     35.812520   0.000000   0.000000
   12       37.063056     37.086904   0.000000   0.000000
 
 -0.2500000E+00  0.5000000E-01  0.5000000E-01  0.6000000E-02
    1        2.593957      2.607051   1.000000   1.000000
    2        5.874612      6.473656   1.000000   1.000000
    3        6.344157      7.012773   1.000000   1.000000
    4        6.384634      7.069125   1.000000   1.000000
    5        7.312895      8.005700   1.000000   1.005707
    6        7.466117      8.166457   1.000000   1.034741
    7       20.664711     20.804844   0.000000   0.000000
    8       30.741715     30.636899   0.000000   0.000000
    9       30.898361     30.975249   0.000000   0.000000
   10       34.055337     34.143143   0.000000   0.000000
   11       36.206983     36.178777   0.000000   0.000000
   12       38.941570     38.946644   0.000000   0.000000
 
 -0.1500000E+00  0.5000000E-01  0.5000000E-01  0.6000000E-02
    1        1.175835      1.138096   1.000000   1.000000
    2        5.897381      6.591369   1.000000   1.000000
    3        6.370883      7.097042   1.000000   1.000000
    4        6.376109      7.105415   1.000000   1.000000
    5        7.090023      7.726484   1.000000   1.000004
    6        7.275932      7.923252   1.000000   1.001095
    7       25.544344     25.615543   0.000000   0.000000
    8       31.478842     31.385923   0.000000   0.000000
    9       31.695118     31.761081   0.000000   0.000000
   10       35.391882     35.390427   0.000000   0.000000
   11       36.835527     36.826734   0.000000   0.000000
   12       40.388841     40.428048   0.000000   0.000000
 
 -0.5000000E-01  0.5000000E-01  0.5000000E-01  0.6000000E-02
    1        0.232299      0.188695   1.000000   1.000000
    2        6.066365      6.793946   1.000000   1.000000
    3        6.243235      6.984080   1.000000   1.000000
    4        6.245898      6.986591   1.000000   1.000000
    5        7.134469      7.757759   1.000000   1.000012
    6        7.239897      7.870034   1.000000   1.000305
    7       30.335027     30.276560   0.000000   0.000000
    8       32.418310     32.373918   0.000000   0.000000
    9       33.004132     33.045044   0.000000   0.000000
   10       34.642769     34.615418   0.000000   0.000000
   11       38.238937     38.265219   0.000000   0.000000
   12       39.748921     39.739525   0.000000   0.000000
 
  0.1500000E+00  0.1500000E+00  0.5000000E-01  0.6000000E-02
    1        0.714473      0.672171   1.000000   1.000000
    2        5.916319      6.630354   1.000000   1.000000
    3        6.365286      7.108351   1.000000   1.000000
    4        6.367883      7.111984   1.000000   1.000000
    5        7.006414      7.620634   1.000000   1.000000
    6        7.301698      7.935698   1.000000   1.001442
    7       29.057048     29.067418   0.000000   0.000000
    8       31.146043     31.170207   0.000000   0.000000
    9       31.218842     31.206440   0.000000   0.000000
   10       33.431178     33.385241   0.000000   0.000000
   11       38.241349     38.395412   0.000000   0.000000
   12       40.070981     40.083230   0.000000   0.000000
 
  0.2500000E+00  0.1500000E+00  0.5000000E-01  0.1200000E-01
    1        1.629398      1.595011   1.000000   1.000000
    2        5.717408      6.406925   1.000000   1.000000
    3        6.443596      7.136374   1.000000   1.000000
    4        6.544734      7.290938   1.000000   1.000000
    5        6.954984      7.590946   1.000000   1.000000
    6        7.414750      8.072094   1.000000   1.015683
    7       25.888204     25.958749   0.000000   0.000000
    8       28.022880     28.064764   0.000000   0.000000
    9       31.797107     31.764085   0.000000   0.000000
   10       33.146239     33.118636   0.000000   0.000000
   11       36.336762     36.513750   0.000000   0.000000
   12       40.306877     40.258076   0.000000   0.000000
 
  0.3500000E+00  0.1500000E+00  0.5000000E-01  0.1200000E-01
    1        2.992272      3.013126   1.000000   1.000000
    2        5.626598      6.252820   1.000000   1.000000
    3        6.269197      6.904555   1.000000   1.000000
    4        6.578507      7.269390   1.000000   1.000000
    5        7.311912      7.998391   1.000000   1.005014
    6        7.729945      8.425712   1.000005   0.500102
    7       21.024415     21.154580   0.000000   0.000000
    8       27.252648     27.298580   0.000000   0.000000
    9       30.303433     30.287559   0.000000   0.000000
   10       32.324097     32.390620   0.000000   0.000000
   11       38.258136     38.304455   0.000000   0.000000
   12       38.927341     38.885696   0.000000   0.000000
 
  0.4500000E+00  0.1500000E+00  0.5000000E-01  0.1200000E-01
    1        4.045421      4.310686   1.000000   1.000000
    2        5.958618      6.407635   1.000000   1.000000
    3        6.139507      6.764506   1.000000   1.000000
    4        6.487127      7.140119   1.000000   1.000000
    5        7.700718      8.437634   1.000002   0.449754
    6        8.576776      9.141882   0.022318  -0.000003
    7       16.718882     16.933562   0.000000   0.000000
    8       27.080231     27.105966   0.000000   0.000000
    9       28.549820     28.594786   0.000000   0.000000
   10       31.577296     31.604639   0.000000   0.000000
   11       37.758369     37.756754   0.000000   0.000000
   12       40.038289     40.015556   0.000000   0.000000
 
 -0.4500000E+00  0.1500000E+00  0.5000000E-01  0.1200000E-01
    1        4.296730      4.744432   1.000000   1.000000
    2        5.941212      6.469630   1.000000   1.000000
    3        6.408602      7.046585   1.000000   1.000000
    4        6.596442      7.095161   1.000000   1.000000
    5        7.782451      8.545861   1.000026   0.079706
    6        9.999139     10.282867  -0.000000  -0.000000
    7       13.847276     14.208874  -0.000000   0.000000
    8       26.732424     26.746070   0.000000   0.000000
    9       28.042523     28.115398   0.000000   0.000000
   10       31.493426     31.487887   0.000000   0.000000
   11       37.026627     37.049070   0.000000   0.000000
   12       39.685000     39.662810   0.000000   0.000000
 
 -0.3500000E+00  0.1500000E+00  0.5000000E-01  0.1200000E-01
    1        4.200437      4.557524   1.000000   1.000000
    2        6.008012      6.530381   1.000000   1.000000
    3        6.330714      6.841766   1.000000   1.000000
    4        6.448566      7.078863   1.000000   1.000000
    5        7.614468      8.364870   1.000000   0.744800
    6        9.136211      9.620929  -0.000003  -0.000000
    7       15.509118     15.768370   0.000000   0.000000
    8       26.004102     26.048503   0.000000   0.000000
    9       29.241236     29.278018   0.000000   0.000000
   10       32.192741     32.190728   0.000000   0.000000
   11       36.669782     36.694890   0.000000   0.000000
   12       39.394687     39.373212   0.000000   0.000000
 
 -0.2500000E+00  0.1500000E+00  0.5000000E-01  0.1200000E-01
    1        3.445969      3.519771   1.000000   1.000000
    2        5.743962      6.325422   1.000000   1.000000
    3        6.192228      6.820038   1.000000   1.000000
    4        6.540044      7.202214   1.000000   1.000000
    5        7.246515      7.959810   1.000000   1.002396
    6        8.078972      8.759362   1.017099  -0.019956
    7       19.519290     19.674723   0.000000   0.000000
    8       25.883908     25.941212   0.000000   0.000000
    9       31.091057     31.088880   0.000000   0.000000
   10       33.629064     33.662211   0.000000   0.000000
   11       36.714258     36.712262   0.000000   0.000000
   12       38.675252     38.658691   0.000000   0.000000
 
 -0.1500000E+00  0.1500000E+00  0.5000000E-01  0.1200000E-01
    1        2.057476      2.031875   1.000000   1.000000
    2        5.712520      6.389111   1.000000   1.000000
    3        6.370275      7.041513   1.000000   1.000000
    4        6.572238      7.312629   1.000000   1.000000
    5        6.953962      7.585376   1.000000   1.000000
    6        7.556384      8.239248   1.000000   1.016621
    7       24.225086     24.317197   0.000000   0.000000
    8       26.422654     26.477394   0.000000   0.000000
    9       33.275032     33.233415   0.000000   0.000000
   10       34.632604     34.607105   0.000000   0.000000
   11       37.260019     37.363188   0.000000   0.000000
   12       37.945437     37.923741   0.000000   0.000000
 
 -0.5000000E-01  0.1500000E+00  0.5000000E-01  0.1200000E-01
    1        0.948598      0.907983   1.000000   1.000000
    2        5.900822      6.607195   1.000000   1.000000
    3        6.368702      7.096413   1.000000   1.000000
    4        6.380700      7.126443   1.000000   1.000000
    5        7.027067      7.646394   1.000000   1.000000
    6        7.301931      7.944779   1.000000   1.001753
    7       27.337968     27.384422   0.000000   0.000000
    8       29.530505     29.549481   0.000000   0.000000
    9       33.053874     33.010876   0.000000   0.000000
   10       35.072938     35.017248   0.000000   0.000000
   11       37.454174     37.517319   0.000000   0.000000
   12       39.532849     39.572971   0.000000   0.000000
 
  0.2500000E+00  0.2500000E+00  0.5000000E-01  0.6000000E-02
    1        2.260286      2.237143   1.000000   1.000000
    2        5.474100      6.150655   1.000000   1.000000
    3        6.585048      7.193580   1.000000   1.000000
    4        6.768045      7.524418   1.000000   1.000000
    5        6.917496      7.630626   1.000000   1.000000
    6        7.486911      8.134759   1.000000   1.029608
    7       26.312417     26.377556   0.000000   0.000000
    8       27.663425     27.728839   0.000000   0.000000
    9       29.008515     28.978861   0.000000   0.000000
   10       29.903603     29.919706   0.000000   0.000000
   11       33.523501     33.701912   0.000000   0.000000
   12       44.169048     44.086472   0.000000   0.000000
 
  0.3500000E+00  0.2500000E+00  0.5000000E-01  0.1200000E-01
    1        3.326301      3.359234   1.000000   1.000000
    2        5.273315      5.925122   1.000000   1.000000
    3        6.384134      6.967807   1.000000   1.000000
    4        6.990762      7.726929   1.000000   1.000005
    5        7.342575      8.011546   1.000000   1.006314
    6        7.748175      8.436415   1.000009   0.454887
    7       23.345989     23.435463   0.000000   0.000000
    8       25.301352     25.358018   0.000000   0.000000
    9       27.054321     27.102787   0.000000   0.000000
   10       30.429865     30.462981   0.000000   0.000000
   11       33.834278     33.946049   0.000000   0.000000
   12       43.609444     43.557423   0.000000   0.000000
 
  0.4500000E+00  0.2500000E+00  0.5000000E-01  0.1200000E-01
    1        4.320991      4.537705   1.000000   1.000000
    2        5.273597      5.851144   1.000000   1.000000
    3        6.147309      6.732405   1.000000   1.000000
    4        6.941602      7.621270   1.000000   1.000000
    5        7.751778      8.487884   1.000010   0.250578
    6        8.891233      9.424782  -0.002417  -0.000000
    7       18.854952     18.997869   0.000000   0.000000
    8       24.518816     24.574623   0.000000   0.000000
    9       25.209858     25.288167   0.000000   0.000000
   10       30.480036     30.520393   0.000000   0.000000
   11       37.249079     37.308467   0.000000   0.000000
   12       42.065503     42.045989   0.000000   0.000000
 
 -0.4500000E+00  0.2500000E+00  0.5000000E-01  0.1200000E-01
    1        4.722562      5.190001   1.000000   1.000000
    2        5.456968      5.896067   1.000000   1.000000
    3        6.108835      6.712690   1.000000   1.000000
    4        6.832289      7.481956   1.000000   1.000000
    5        7.796416      8.569414   1.000040   0.033872
    6       11.058463     11.369377  -0.000000  -0.000000
    7       15.073522     15.312805   0.000000   0.000000
    8       22.859579     22.946140   0.000000   0.000000
    9       25.591034     25.655408   0.000000   0.000000
   10       30.635915     30.657766   0.000000   0.000000
   11       40.063970     40.055875   0.000000   0.000000
   12       42.454754     42.500739   0.000000   0.000000
 
 -0.3500000E+00  0.2500000E+00  0.5000000E-01  0.1200000E-01
    1        4.817618      5.284376   1.000000   1.000000
    2        5.593883      6.036477   1.000000   1.000000
    3        6.005913      6.597191   1.000000   1.000000
    4        6.781778      7.412826   1.000000   1.000000
    5        7.579523      8.357152   1.000000   0.772154
    6       11.175717     11.498700  -0.000000  -0.000000
    7       15.086805     15.336924   0.000000   0.000000
    8       21.728741     21.827643   0.000000   0.000000
    9       26.875313     26.937094   0.000000   0.000000
   10       31.349301     31.354682   0.000000   0.000000
   11       39.317728     39.301788   0.000000   0.000000
   12       43.000007     42.957490   0.000000   0.000000
 
 -0.2500000E+00  0.2500000E+00  0.5000000E-01  0.1200000E-01
    1        4.495737      4.691757   1.000000   1.000000
    2        5.599611      6.201010   1.000000   1.000000
    3        5.865887      6.434500   1.000000   1.000000
    4        6.838692      7.448959   1.000000   1.000000
    5        7.190329      7.966175   1.000000   1.002723
    6        9.276229      9.836598  -0.000000  -0.000000
    7       18.861397     19.022922   0.000000   0.000000
    8       21.344753     21.447682   0.000000   0.000000
    9       28.776530     28.826079   0.000000   0.000000
   10       32.789230     32.794685   0.000000   0.000000
   11       38.126357     38.078779   0.000000   0.000000
   12       41.806053     41.803419   0.000000   0.000000
 
 -0.1500000E+00  0.2500000E+00  0.5000000E-01  0.1200000E-01
    1        3.371288      3.404014   1.000000   1.000000
    2        5.584406      6.227367   1.000000   1.000000
    3        6.174953      6.791657   1.000000   1.000000
    4        6.747532      7.405810   1.000000   1.000000
    5        6.989880      7.705937   1.000000   1.000002
    6        8.148409      8.830090   1.032250  -0.007447
    7       21.380792     21.509233   0.000000   0.000000
    8       23.654198     23.735305   0.000000   0.000000
    9       31.093330     31.110439   0.000000   0.000000
   10       34.619051     34.637028   0.000000   0.000000
   11       36.377260     36.331695   0.000000   0.000000
   12       39.591774     39.627390   0.000000   0.000000
 
 -0.5000000E-01  0.2500000E+00  0.5000000E-01  0.1200000E-01
    1        2.243599      2.229392   1.000000   1.000000
    2        5.765699      6.416787   1.000000   1.000000
    3        6.362289      7.034655   1.000000   1.000000
    4        6.466179      7.168329   1.000000   1.000000
    5        7.127306      7.799942   1.000000   1.000045
    6        7.506255      8.193410   1.000000   1.034790
    7       22.357998     22.472434   0.000000   0.000000
    8       28.604149     28.633517   0.000000   0.000000
    9       32.165237     32.118354   0.000000   0.000000
   10       34.570044     34.646318   0.000000   0.000000
   11       36.712986     36.682744   0.000000   0.000000
   12       38.372915     38.378166   0.000000   0.000000
 
  0.3500000E+00  0.3500000E+00  0.5000000E-01  0.6000000E-02
    1        3.831565      3.966380   1.000000   1.000000
    2        5.005112      5.644308   1.000000   1.000000
    3        6.920214      7.397816   1.000000   1.000000
    4        7.290962      8.055885   1.000000   1.012611
    5        7.632810      8.296524   1.000000   0.939614
    6        7.700755      8.378524   1.000002   0.693735
    7       23.703821     23.763499   0.000000   0.000000
    8       24.104307     24.183415   0.000000   0.000000
    9       24.876049     24.918700   0.000000   0.000000
   10       28.422345     28.494939   0.000000   0.000000
   11       31.560571     31.680347   0.000000   0.000000
   12       48.245579     48.200201   0.000000   0.000000
 
  0.4500000E+00  0.3500000E+00  0.5000000E-01  0.1200000E-01
    1        4.281464      4.559334   1.000000   1.000000
    2        4.882519      5.504000   1.000000   1.000000
    3        6.876344      7.447831   1.000000   1.000000
    4        7.490144      8.198263   1.000000   1.034137
    5        7.763253      8.499063   1.000015   0.211640
    6        9.062802      9.487856  -0.000032  -0.000000
    7       21.255553     21.349897   0.000000   0.000000
    8       21.627971     21.731127   0.000000   0.000000
    9       23.352211     23.400354   0.000000   0.000000
   10       29.357250     29.419359   0.000000   0.000000
   11       32.664575     32.762676   0.000000   0.000000
   12       46.576078     46.541674   0.000000   0.000000
 
 -0.4500000E+00  0.3500000E+00  0.5000000E-01  0.1200000E-01
    1        4.643126      5.038969   1.000000   1.000000
    2        4.969702      5.545675   1.000000   1.000000
    3        6.550719      7.149567   1.000000   1.000000
    4        7.349210      8.006820   1.000000   1.005820
    5        7.835632      8.631186   1.000123  -0.027729
    6       11.503688     11.771633  -0.000000  -0.000000
    7       17.474293     17.605024   0.000000   0.000000
    8       19.552251     19.700543   0.000000   0.000000
    9       23.629753     23.678588   0.000000   0.000000
   10       29.811907     29.867030   0.000000   0.000000
   11       36.571724     36.638758   0.000000   0.000000
   12       44.757535     44.722884   0.000000   0.000000
 
 -0.3500000E+00  0.3500000E+00  0.5000000E-01  0.1200000E-01
    1        4.981538      5.491115   1.000000   1.000000
    2        5.180707      5.646090   1.000000   1.000000
    3        6.128598      6.734065   1.000000   1.000000
    4        7.182378      7.800718   1.000000   1.000046
    5        7.649313      8.465253   1.000000   0.336356
    6       13.794413     13.996927  -0.000000   0.000000
    7       14.728121     14.930711   0.000000   0.000000
    8       18.449250     18.613902   0.000000   0.000000
    9       24.804283     24.863858   0.000000   0.000000
   10       30.343741     30.378312   0.000000   0.000000
   11       41.489878     41.537968   0.000000   0.000000
   12       42.958204     42.912468   0.000000   0.000000
 
 -0.2500000E+00  0.3500000E+00  0.5000000E-01  0.1200000E-01
    1        5.036853      5.461190   1.000000   1.000000
    2        5.500951      5.970714   1.000000   1.000000
    3        5.779792      6.386646   1.000000   1.000000
    4        6.962312      7.570955   1.000000   1.000000
    5        7.431951      8.232599   1.000000   1.021190
    6       11.212264     11.569536  -0.000000  -0.000000
    7       16.629308     16.817134   0.000000   0.000000
    8       19.600174     19.729332   0.000000   0.000000
    9       26.661647     26.725029   0.000000   0.000000
   10       31.330216     31.341898   0.000000   0.000000
   11       40.337961     40.290070   0.000000   0.000000
   12       44.181999     44.128139   0.000000   0.000000
 
 -0.1500000E+00  0.3500000E+00  0.5000000E-01  0.1200000E-01
    1        4.360975      4.640079   1.000000   1.000000
    2        5.868054      6.328395   1.000000   1.000000
    3        5.936494      6.567916   1.000000   1.000000
    4        6.630585      7.266363   1.000000   1.000000
    5        7.408048      8.159392   1.000000   1.033940
    6        9.236139      9.772898  -0.000000  -0.000000
    7       17.074333     17.274270   0.000000   0.000000
    8       23.567310     23.645774   0.000000   0.000000
    9       28.931063     28.975273   0.000000   0.000000
   10       32.586726     32.585229   0.000000   0.000000
   11       37.441601     37.438291   0.000000   0.000000
   12       40.697984     40.669793   0.000000   0.000000
 
 -0.5000000E-01  0.3500000E+00  0.5000000E-01  0.1200000E-01
    1        3.570664      3.722303   1.000000   1.000000
    2        6.082962      6.548381   1.000000   1.000000
    3        6.211923      6.856503   1.000000   1.000000
    4        6.383556      7.039954   1.000000   1.000000
    5        7.499900      8.219226   1.000000   1.028184
    6        7.944469      8.626147   1.001742  -0.025339
    7       17.840493     18.033260   0.000000   0.000000
    8       28.233536     28.251243   0.000000   0.000000
    9       30.942474     30.912215   0.000000   0.000000
   10       32.675800     32.756653   0.000000   0.000000
   11       36.434835     36.432739   0.000000   0.000000
   12       38.130432     38.128797   0.000000   0.000000
 
  0.4500000E+00  0.4500000E+00  0.5000000E-01  0.6000000E-02
    1        4.207568      4.551222   1.000000   1.000000
    2        4.680018      5.295225   1.000000   1.000000
    3        7.647751      8.390038   1.000000   0.648417
    4        7.723700      8.419300   1.000004   0.527219
    5        7.859274      8.645160   1.000231  -0.032492
    6        9.734950      9.873035  -0.000000  -0.000000
    7       18.909581     19.084771   0.000000   0.000000
    8       22.326251     22.359093   0.000000   0.000000
    9       23.132442     23.144570   0.000000   0.000000
   10       27.849883     27.956606   0.000000   0.000000
   11       30.917382     31.033160   0.000000   0.000000
   12       50.504931     50.473474   0.000000   0.000000
 
 -0.4500000E+00  0.4500000E+00  0.5000000E-01  0.1200000E-01
    1        4.324119      4.702980   1.000000   1.000000
    2        4.688004      5.295716   1.000000   1.000000
    3        7.375614      8.067691   1.000000   1.014810
    4        7.726983      8.376841   1.000005   0.700195
    5        7.898964      8.733913   1.000624  -0.025798
    6       11.455161     11.562690  -0.000000  -0.000000
    7       17.399674     17.625699   0.000000   0.000000
    8       20.564885     20.626051   0.000000   0.000000
    9       22.355501     22.382217   0.000000   0.000000
   10       28.947273     29.025935   0.000000   0.000000
   11       32.281204     32.382820   0.000000   0.000000
   12       48.815573     48.761874   0.000000   0.000000
 
 -0.3500000E+00  0.4500000E+00  0.5000000E-01  0.1200000E-01
    1        4.631310      5.042183   1.000000   1.000000
    2        4.905371      5.487105   1.000000   1.000000
    3        6.699551      7.322994   1.000000   1.000000
    4        7.474114      8.108474   1.000000   1.023699
    5        7.812380      8.638608   1.000064  -0.030581
    6       12.829440     13.005467  -0.000000  -0.000000
    7       17.036393     17.172483   0.000000   0.000000
    8       17.887415     18.075246   0.000000   0.000000
    9       23.324541     23.368611   0.000000   0.000000
   10       29.691794     29.751588   0.000000   0.000000
   11       36.439728     36.509621   0.000000   0.000000
   12       45.758383     45.703211   0.000000   0.000000
 
 -0.2500000E+00  0.4500000E+00  0.5000000E-01  0.1200000E-01
    1        4.904565      5.421281   1.000000   1.000000
    2        5.272124      5.709131   1.000000   1.000000
    3        6.116116      6.719972   1.000000   1.000000
    4        7.030461      7.669730   1.000000   1.000001
    5        7.734372      8.525487   1.000006   0.130587
    6       12.643994     12.872155  -0.000000  -0.000000
    7       14.615915     14.856774   0.000000   0.000000
    8       20.395057     20.517905   0.000000   0.000000
    9       25.066823     25.127744   0.000000   0.000000
   10       30.436747     30.466277   0.000000   0.000000
   11       41.080776     41.086866   0.000000   0.000000
   12       42.519801     42.538422   0.000000   0.000000
 
 -0.1500000E+00  0.4500000E+00  0.5000000E-01  0.1200000E-01
    1        4.550374      5.020703   1.000000   1.000000
    2        5.757333      6.225639   1.000000   1.000000
    3        6.292574      6.849435   1.000000   1.000000
    4        6.579533      7.218266   1.000000   1.000000
    5        7.714002      8.482409   1.000003   0.270539
    6       10.853321     11.122136  -0.000000  -0.000000
    7       14.011100     14.344959   0.000000   0.000000
    8       24.207514     24.273569   0.000000   0.000000
    9       27.306423     27.367045   0.000000   0.000000
   10       31.396939     31.393688   0.000000   0.000000
   11       38.100151     38.108161   0.000000   0.000000
   12       41.465027     41.432836   0.000000   0.000000
 
 -0.5000000E-01  0.4500000E+00  0.5000000E-01  0.1200000E-01
    1        4.074642      4.478552   1.000000   1.000000
    2        6.096717      6.688272   1.000000   1.000000