       N       E                     dE             d eps       ncg     rms          rms(c)
DAV:   1     0.185553317296E+02    0.18555E+02   -0.29752E+03  5916   0.623E+02
DAV:   2    -0.540829827118E+01   -0.23964E+02   -0.22134E+02  5708   0.118E+02
DAV:   3    -0.586473612587E+01   -0.45644E+00   -0.45496E+00  6024   0.185E+01
DAV:   4    -0.586715739545E+01   -0.24213E-02   -0.24210E-02  6028   0.120E+00
DAV:   5    -0.586719065210E+01   -0.33257E-04   -0.33257E-04  6012   0.135E-01    0.132E+01
DAV:   6    -0.594338302475E+01   -0.76192E-01   -0.15282E+01  6424   0.491E+01    0.697E+00
DAV:   7    -0.544552706266E+01    0.49786E+00   -0.37268E+00  6456   0.203E+01    0.142E+00
DAV:   8    -0.543961626159E+01    0.59108E-02   -0.14945E-02  6064   0.872E-01    0.821E-01
DAV:   9    -0.543700787043E+01    0.26084E-02   -0.12298E-03  5844   0.236E-01    0.360E-01
DAV:  10    -0.543583294237E+01    0.11749E-02   -0.20583E-03  5976   0.301E-01    0.576E-02
DAV:  11    -0.543585244905E+01   -0.19507E-04   -0.33669E-05  2924   0.447E-02
   1 F= -.54358524E+01 E0= -.54349586E+01  d E =-.268144E-02  mag=     0.6294
