 vasp.5.4.4.18Apr17-6-g9f103f2a35 (build Jul 01 2019 03:25:34) complex          
  
 executed on             LinuxIFC date 2020.07.09  19:35:39
 running on    4 total cores
 distrk:  each k-point on    4 cores,    1 groups
 distr:  one band on NCORES_PER_BAND=   1 cores,    4 groups


--------------------------------------------------------------------------------------------------------


 INCAR:
 POTCAR:    PAW_PBE Ni 02Aug2007                  
 POTCAR:    PAW_PBE Ni 02Aug2007                  
   VRHFIN =Ni:                                                                  
   LEXCH  = PE                                                                  
   EATOM  =  1077.6739 eV,   79.2068 Ry                                         
                                                                                
   TITEL  = PAW_PBE Ni 02Aug2007                                                
   LULTRA =        F    use ultrasoft PP ?                                      
   IUNSCR =        1    unscreen: 0-lin 1-nonlin 2-no                           
   RPACOR =    2.000    partial core radius                                     
   POMASS =   58.690; ZVAL   =   10.000    mass and valenz                      
   RCORE  =    2.300    outmost cutoff radius                                   
   RWIGS  =    2.430; RWIGS  =    1.286    wigner-seitz radius (au A)           
   ENMAX  =  269.532; ENMIN  =  202.149 eV                                      
   RCLOC  =    1.201    cutoff for local pot                                    
   LCOR   =        T    correct aug charges                                     
   LPAW   =        T    paw PP                                                  
   EAUG   =  544.565                                                            
   DEXC   =    0.000                                                            
   RMAX   =    2.357    core radius for proj-oper                               
   RAUG   =    1.300    factor for augmentation sphere                          
   RDEP   =    2.390    radius for radial grids                                 
   RDEPT  =    1.838    core radius for aug-charge                              
                                                                                
   Atomic configuration                                                         
    9 entries                                                                   
     n  l   j            E        occ.                                          
     1  0  0.50     -8206.4253   2.0000                                         
     2  0  0.50      -976.1748   2.0000                                         
     2  1  1.50      -839.0571   6.0000                                         
     3  0  0.50      -105.9991   2.0000                                         
     3  1  1.50       -66.4603   6.0000                                         
     3  2  2.50        -4.6458   9.0000                                         
     4  0  0.50        -4.4926   1.0000                                         
     4  1  1.50        -4.0817   0.0000                                         
     4  3  2.50        -1.3606   0.0000                                         
   Description                                                                  
     l       E           TYP  RCUT    TYP  RCUT                                 
     2     -4.6457903     23  2.300                                             
     2     -6.0063729     23  2.300                                             
     0     -4.4925590     23  2.300                                             
     0      5.0102601     23  2.300                                             
     1     -2.7211652     23  2.300                                             
     1     16.5183231     23  2.300                                             
  local pseudopotential read in
  partial core-charges read in
  partial kinetic energy density read in
  atomic valenz-charges read in
  non local Contribution for L=           2  read in
    real space projection operators read in
  non local Contribution for L=           2  read in
    real space projection operators read in
  non local Contribution for L=           0  read in
    real space projection operators read in
  non local Contribution for L=           0  read in
    real space projection operators read in
  non local Contribution for L=           1  read in
    real space projection operators read in
  non local Contribution for L=           1  read in
    real space projection operators read in
    PAW grid and wavefunctions read in
 
   number of l-projection  operators is LMAX  =           6
   number of lm-projection operators is LMMAX =          18
 
  PAW_PBE Ni 02Aug2007                  :
 energy of atom  1       EATOM=-1077.6739
 kinetic energy error for atom=    0.0378 (will be added to EATOM!!)
 
 
 POSCAR: FCC Ni Bulk                             
  positions in direct lattice
  No initial velocities read in
 exchange correlation table for  LEXCH =        8
   RHO(1)=    0.500       N(1)  =     2000
   RHO(2)=  100.500       N(2)  =     4000
 


--------------------------------------------------------------------------------------------------------


 ion  position               nearest neighbor table
   1  0.000  0.000  0.000-
 
  LATTYP: Found a face centered cubic cell.
 ALAT       =     3.6000000000
  
  Lattice vectors:
  
 A1 = (   0.0000000000,   1.8000000000,   1.8000000000)
 A2 = (   1.8000000000,   0.0000000000,   1.8000000000)
 A3 = (   1.8000000000,   1.8000000000,   0.0000000000)


Analysis of symmetry for initial positions (statically):
=====================================================================
 Subroutine PRICEL returns:
 Original cell was already a primitive cell.
 

 Routine SETGRP: Setting up the symmetry group for a 
 face centered cubic supercell.


 Subroutine GETGRP returns: Found 48 space group operations
 (whereof 48 operations were pure point group operations)
 out of a pool of 48 trial point group operations.


The static configuration has the point symmetry O_h .


Analysis of symmetry for dynamics (positions and initial velocities):
=====================================================================
 Subroutine PRICEL returns:
 Original cell was already a primitive cell.
 

 Routine SETGRP: Setting up the symmetry group for a 
 face centered cubic supercell.


 Subroutine GETGRP returns: Found 48 space group operations
 (whereof 48 operations were pure point group operations)
 out of a pool of 48 trial point group operations.


The dynamic configuration has the point symmetry O_h .


Analysis of structural, dynamic, and magnetic symmetry:
=====================================================================
 Subroutine PRICEL returns:
 Original cell was already a primitive cell.
 

 Routine SETGRP: Setting up the symmetry group for a 
 face centered cubic supercell.


 Subroutine GETGRP returns: Found 48 space group operations
 (whereof 48 operations were pure point group operations)
 out of a pool of 48 trial point group operations.


The magnetic configuration has the point symmetry O_h .


 Subroutine INISYM returns: Found 48 space group operations
 (whereof 48 operations are pure point group operations),
 and found     1 'primitive' translations

 
 
 KPOINTS: 10x10x10                                

Automatic generation of k-mesh.
Space group operators:
 irot       det(A)        alpha          n_x          n_y          n_z        tau_x        tau_y        tau_z
    1     1.000000     0.000000     1.000000     0.000000     0.000000     0.000000     0.000000     0.000000
    2    -1.000000     0.000000     1.000000     0.000000     0.000000     0.000000     0.000000     0.000000
    3     1.000000   120.000000    -0.577350    -0.577350    -0.577350     0.000000     0.000000     0.000000
    4    -1.000000   120.000000    -0.577350    -0.577350    -0.577350     0.000000     0.000000     0.000000
    5     1.000000   120.000000     0.577350     0.577350     0.577350     0.000000     0.000000     0.000000
    6    -1.000000   120.000000     0.577350     0.577350     0.577350     0.000000     0.000000     0.000000
    7     1.000000    90.000000     0.000000     0.000000    -1.000000     0.000000     0.000000     0.000000
    8    -1.000000    90.000000     0.000000     0.000000    -1.000000     0.000000     0.000000     0.000000
    9     1.000000   180.000000     0.000000     0.707107     0.707107     0.000000     0.000000     0.000000
   10    -1.000000   180.000000     0.000000     0.707107     0.707107     0.000000     0.000000     0.000000
   11     1.000000    90.000000     0.000000     1.000000     0.000000     0.000000     0.000000     0.000000
   12    -1.000000    90.000000     0.000000     1.000000     0.000000     0.000000     0.000000     0.000000
   13     1.000000   180.000000     0.000000     0.000000     1.000000     0.000000     0.000000     0.000000
   14    -1.000000   180.000000     0.000000     0.000000     1.000000     0.000000     0.000000     0.000000
   15     1.000000   120.000000    -0.577350     0.577350     0.577350     0.000000     0.000000     0.000000
   16    -1.000000   120.000000    -0.577350     0.577350     0.577350     0.000000     0.000000     0.000000
   17     1.000000   120.000000    -0.577350     0.577350    -0.577350     0.000000     0.000000     0.000000
   18    -1.000000   120.000000    -0.577350     0.577350    -0.577350     0.000000     0.000000     0.000000
   19     1.000000    90.000000     0.000000     0.000000     1.000000     0.000000     0.000000     0.000000
   20    -1.000000    90.000000     0.000000     0.000000     1.000000     0.000000     0.000000     0.000000
   21     1.000000    90.000000    -1.000000     0.000000     0.000000     0.000000     0.000000     0.000000
   22    -1.000000    90.000000    -1.000000     0.000000     0.000000     0.000000     0.000000     0.000000
   23     1.000000   180.000000     0.707107     0.000000     0.707107     0.000000     0.000000     0.000000
   24    -1.000000   180.000000     0.707107     0.000000     0.707107     0.000000     0.000000     0.000000
   25     1.000000   120.000000     0.577350    -0.577350     0.577350     0.000000     0.000000     0.000000
   26    -1.000000   120.000000     0.577350    -0.577350     0.577350     0.000000     0.000000     0.000000
   27     1.000000   120.000000    -0.577350    -0.577350     0.577350     0.000000     0.000000     0.000000
   28    -1.000000   120.000000    -0.577350    -0.577350     0.577350     0.000000     0.000000     0.000000
   29     1.000000   180.000000     1.000000     0.000000     0.000000     0.000000     0.000000     0.000000
   30    -1.000000   180.000000     1.000000     0.000000     0.000000     0.000000     0.000000     0.000000
   31     1.000000    90.000000     0.000000    -1.000000     0.000000     0.000000     0.000000     0.000000
   32    -1.000000    90.000000     0.000000    -1.000000     0.000000     0.000000     0.000000     0.000000
   33     1.000000   180.000000     0.707107     0.707107     0.000000     0.000000     0.000000     0.000000
   34    -1.000000   180.000000     0.707107     0.707107     0.000000     0.000000     0.000000     0.000000
   35     1.000000    90.000000     1.000000     0.000000     0.000000     0.000000     0.000000     0.000000
   36    -1.000000    90.000000     1.000000     0.000000     0.000000     0.000000     0.000000     0.000000
   37     1.000000   120.000000     0.577350    -0.577350    -0.577350     0.000000     0.000000     0.000000
   38    -1.000000   120.000000     0.577350    -0.577350    -0.577350     0.000000     0.000000     0.000000
   39     1.000000   180.000000     0.000000     1.000000     0.000000     0.000000     0.000000     0.000000
   40    -1.000000   180.000000     0.000000     1.000000     0.000000     0.000000     0.000000     0.000000
   41     1.000000   120.000000     0.577350     0.577350    -0.577350     0.000000     0.000000     0.000000
   42    -1.000000   120.000000     0.577350     0.577350    -0.577350     0.000000     0.000000     0.000000
   43     1.000000   180.000000     0.000000    -0.707107     0.707107     0.000000     0.000000     0.000000
   44    -1.000000   180.000000     0.000000    -0.707107     0.707107     0.000000     0.000000     0.000000
   45     1.000000   180.000000     0.707107    -0.707107     0.000000     0.000000     0.000000     0.000000
   46    -1.000000   180.000000     0.707107    -0.707107     0.000000     0.000000     0.000000     0.000000
   47     1.000000   180.000000     0.707107     0.000000    -0.707107     0.000000     0.000000     0.000000
   48    -1.000000   180.000000     0.707107     0.000000    -0.707107     0.000000     0.000000     0.000000
 
 Subroutine IBZKPT returns following result:
 ===========================================
 
 Found    110 irreducible k-points:
 
 Following reciprocal coordinates:
            Coordinates               Weight
  0.050000  0.050000  0.050000     96.000000
  0.150000  0.050000  0.050000    288.000000
  0.250000  0.050000  0.050000    288.000000
  0.350000  0.050000  0.050000    288.000000
  0.450000  0.050000  0.050000    288.000000
 -0.450000  0.050000  0.050000    288.000000
 -0.350000  0.050000  0.050000    288.000000
 -0.250000  0.050000  0.050000    288.000000
 -0.150000  0.050000  0.050000    288.000000
 -0.050000  0.050000  0.050000    288.000000
  0.150000  0.150000  0.050000    288.000000
  0.250000  0.150000  0.050000    576.000000
  0.350000  0.150000  0.050000    576.000000
  0.450000  0.150000  0.050000    576.000000
 -0.450000  0.150000  0.050000    576.000000
 -0.350000  0.150000  0.050000    576.000000
 -0.250000  0.150000  0.050000    576.000000
 -0.150000  0.150000  0.050000    576.000000
 -0.050000  0.150000  0.050000    576.000000
  0.250000  0.250000  0.050000    288.000000
  0.350000  0.250000  0.050000    576.000000
  0.450000  0.250000  0.050000    576.000000
 -0.450000  0.250000  0.050000    576.000000
 -0.350000  0.250000  0.050000    576.000000
 -0.250000  0.250000  0.050000    576.000000
 -0.150000  0.250000  0.050000    576.000000
 -0.050000  0.250000  0.050000    576.000000
  0.350000  0.350000  0.050000    288.000000
  0.450000  0.350000  0.050000    576.000000
 -0.450000  0.350000  0.050000    576.000000
 -0.350000  0.350000  0.050000    576.000000
 -0.250000  0.350000  0.050000    576.000000
 -0.150000  0.350000  0.050000    576.000000
 -0.050000  0.350000  0.050000    576.000000
  0.450000  0.450000  0.050000    288.000000
 -0.450000  0.450000  0.050000    576.000000
 -0.350000  0.450000  0.050000    576.000000
 -0.250000  0.450000  0.050000    576.000000
 -0.150000  0.450000  0.050000    576.000000
 -0.050000  0.450000  0.050000    576.000000
 -0.450000 -0.450000  0.050000    288.000000
 -0.350000 -0.450000  0.050000    576.000000
 -0.250000 -0.450000  0.050000    576.000000
 -0.150000 -0.450000  0.050000    576.000000
 -0.350000 -0.350000  0.050000    288.000000
 -0.250000 -0.350000  0.050000    576.000000
 -0.150000 -0.350000  0.050000    576.000000
 -0.250000 -0.250000  0.050000    288.000000
 -0.150000 -0.250000  0.050000    576.000000
 -0.150000 -0.150000  0.050000    288.000000
  0.150000  0.150000  0.150000     96.000000
  0.250000  0.150000  0.150000    288.000000
  0.350000  0.150000  0.150000    288.000000
  0.450000  0.150000  0.150000    288.000000
 -0.450000  0.150000  0.150000    288.000000
 -0.350000  0.150000  0.150000    288.000000
 -0.250000  0.150000  0.150000    288.000000
 -0.150000  0.150000  0.150000    288.000000
  0.250000  0.250000  0.150000    288.000000
  0.350000  0.250000  0.150000    576.000000
  0.450000  0.250000  0.150000    576.000000
 -0.450000  0.250000  0.150000    576.000000
 -0.350000  0.250000  0.150000    576.000000
 -0.250000  0.250000  0.150000    576.000000
 -0.150000  0.250000  0.150000    576.000000
  0.350000  0.350000  0.150000    288.000000
  0.450000  0.350000  0.150000    576.000000
 -0.450000  0.350000  0.150000    576.000000
 -0.350000  0.350000  0.150000    576.000000
 -0.250000  0.350000  0.150000    576.000000
 -0.150000  0.350000  0.150000    576.000000
  0.450000  0.450000  0.150000    288.000000
 -0.450000  0.450000  0.150000    576.000000
 -0.350000  0.450000  0.150000    576.000000
 -0.250000  0.450000  0.150000    576.000000
 -0.150000  0.450000  0.150000    576.000000
 -0.450000 -0.450000  0.150000    288.000000
 -0.350000 -0.450000  0.150000    576.000000
 -0.250000 -0.450000  0.150000    576.000000
 -0.350000 -0.350000  0.150000    288.000000
 -0.250000 -0.350000  0.150000    576.000000
 -0.250000 -0.250000  0.150000    288.000000
  0.250000  0.250000  0.250000     96.000000
  0.350000  0.250000  0.250000    288.000000
  0.450000  0.250000  0.250000    288.000000
 -0.450000  0.250000  0.250000    288.000000
 -0.350000  0.250000  0.250000    288.000000
 -0.250000  0.250000  0.250000    288.000000
  0.350000  0.350000  0.250000    288.000000
  0.450000  0.350000  0.250000    576.000000
 -0.450000  0.350000  0.250000    576.000000
 -0.350000  0.350000  0.250000    576.000000
 -0.250000  0.350000  0.250000    576.000000
  0.450000  0.450000  0.250000    288.000000
 -0.450000  0.450000  0.250000    576.000000
 -0.350000  0.450000  0.250000    576.000000
 -0.250000  0.450000  0.250000    576.000000
 -0.450000 -0.450000  0.250000    288.000000
 -0.350000 -0.450000  0.250000    576.000000
 -0.350000 -0.350000  0.250000    288.000000
  0.350000  0.350000  0.350000     96.000000
  0.450000  0.350000  0.350000    288.000000
 -0.450000  0.350000  0.350000    288.000000
 -0.350000  0.350000  0.350000    288.000000
  0.450000  0.450000  0.350000    288.000000
 -0.450000  0.450000  0.350000    576.000000
 -0.350000  0.450000  0.350000    576.000000
 -0.450000 -0.450000  0.350000    288.000000
  0.450000  0.450000  0.450000     96.000000
 -0.450000  0.450000  0.450000    288.000000
 
 Following cartesian coordinates:
            Coordinates               Weight
  0.050000  0.050000  0.050000     96.000000
 -0.050000  0.150000  0.150000    288.000000
 -0.150000  0.250000  0.250000    288.000000
 -0.250000  0.350000  0.350000    288.000000
 -0.350000  0.450000  0.450000    288.000000
  0.550000 -0.450000 -0.450000    288.000000
  0.450000 -0.350000 -0.350000    288.000000
  0.350000 -0.250000 -0.250000    288.000000
  0.250000 -0.150000 -0.150000    288.000000
  0.150000 -0.050000 -0.050000    288.000000
  0.050000  0.050000  0.250000    288.000000
 -0.050000  0.150000  0.350000    576.000000
 -0.150000  0.250000  0.450000    576.000000
 -0.250000  0.350000  0.550000    576.000000
  0.650000 -0.550000 -0.350000    576.000000
  0.550000 -0.450000 -0.250000    576.000000
  0.450000 -0.350000 -0.150000    576.000000
  0.350000 -0.250000 -0.050000    576.000000
  0.250000 -0.150000  0.050000    576.000000
  0.050000  0.050000  0.450000    288.000000
 -0.050000  0.150000  0.550000    576.000000
 -0.150000  0.250000  0.650000    576.000000
  0.750000 -0.650000 -0.250000    576.000000
  0.650000 -0.550000 -0.150000    576.000000
  0.550000 -0.450000 -0.050000    576.000000
  0.450000 -0.350000  0.050000    576.000000
  0.350000 -0.250000  0.150000    576.000000
  0.050000  0.050000  0.650000    288.000000
 -0.050000  0.150000  0.750000    576.000000
  0.850000 -0.750000 -0.150000    576.000000
  0.750000 -0.650000 -0.050000    576.000000
  0.650000 -0.550000  0.050000    576.000000
  0.550000 -0.450000  0.150000    576.000000
  0.450000 -0.350000  0.250000    576.000000
  0.050000  0.050000  0.850000    288.000000
  0.950000 -0.850000 -0.050000    576.000000
  0.850000 -0.750000  0.050000    576.000000
  0.750000 -0.650000  0.150000    576.000000
  0.650000 -0.550000  0.250000    576.000000
  0.550000 -0.450000  0.350000    576.000000
  0.050000  0.050000 -0.950000    288.000000
 -0.050000  0.150000 -0.850000    576.000000
 -0.150000  0.250000 -0.750000    576.000000
 -0.250000  0.350000 -0.650000    576.000000
  0.050000  0.050000 -0.750000    288.000000
 -0.050000  0.150000 -0.650000    576.000000
 -0.150000  0.250000 -0.550000    576.000000
  0.050000  0.050000 -0.550000    288.000000
 -0.050000  0.150000 -0.450000    576.000000
  0.050000  0.050000 -0.350000    288.000000
  0.150000  0.150000  0.150000     96.000000
  0.050000  0.250000  0.250000    288.000000
 -0.050000  0.350000  0.350000    288.000000
 -0.150000  0.450000  0.450000    288.000000
  0.750000 -0.450000 -0.450000    288.000000
  0.650000 -0.350000 -0.350000    288.000000
  0.550000 -0.250000 -0.250000    288.000000
  0.450000 -0.150000 -0.150000    288.000000
  0.150000  0.150000  0.350000    288.000000
  0.050000  0.250000  0.450000    576.000000
 -0.050000  0.350000  0.550000    576.000000
  0.850000 -0.550000 -0.350000    576.000000
  0.750000 -0.450000 -0.250000    576.000000
  0.650000 -0.350000 -0.150000    576.000000
  0.550000 -0.250000 -0.050000    576.000000
  0.150000  0.150000  0.550000    288.000000
  0.050000  0.250000  0.650000    576.000000
  0.950000 -0.650000 -0.250000    576.000000
  0.850000 -0.550000 -0.150000    576.000000
  0.750000 -0.450000 -0.050000    576.000000
  0.650000 -0.350000  0.050000    576.000000
  0.150000  0.150000  0.750000    288.000000
  1.050000 -0.750000 -0.150000    576.000000
  0.950000 -0.650000 -0.050000    576.000000
  0.850000 -0.550000  0.050000    576.000000
  0.750000 -0.450000  0.150000    576.000000
  0.150000  0.150000 -1.050000    288.000000
  0.050000  0.250000 -0.950000    576.000000
 -0.050000  0.350000 -0.850000    576.000000
  0.150000  0.150000 -0.850000    288.000000
  0.050000  0.250000 -0.750000    576.000000
  0.150000  0.150000 -0.650000    288.000000
  0.250000  0.250000  0.250000     96.000000
  0.150000  0.350000  0.350000    288.000000
  0.050000  0.450000  0.450000    288.000000
  0.950000 -0.450000 -0.450000    288.000000
  0.850000 -0.350000 -0.350000    288.000000
  0.750000 -0.250000 -0.250000    288.000000
  0.250000  0.250000  0.450000    288.000000
  0.150000  0.350000  0.550000    576.000000
  1.050000 -0.550000 -0.350000    576.000000
  0.950000 -0.450000 -0.250000    576.000000
  0.850000 -0.350000 -0.150000    576.000000
  0.250000  0.250000  0.650000    288.000000
  1.150000 -0.650000 -0.250000    576.000000
  1.050000 -0.550000 -0.150000    576.000000
  0.950000 -0.450000 -0.050000    576.000000
  0.250000  0.250000 -1.150000    288.000000
  0.150000  0.350000 -1.050000    576.000000
  0.250000  0.250000 -0.950000    288.000000
  0.350000  0.350000  0.350000     96.000000
  0.250000  0.450000  0.450000    288.000000
  1.150000 -0.450000 -0.450000    288.000000
  1.050000 -0.350000 -0.350000    288.000000
  0.350000  0.350000  0.550000    288.000000
  1.250000 -0.550000 -0.350000    576.000000
  1.150000 -0.450000 -0.250000    576.000000
  0.350000  0.350000 -1.250000    288.000000
  0.450000  0.450000  0.450000     96.000000
  1.350000 -0.450000 -0.450000    288.000000
 


--------------------------------------------------------------------------------------------------------




 Dimension of arrays:
   k-points           NKPTS =    110   k-points in BZ     NKDIM =    110   number of bands    NBANDS=     12
   number of dos      NEDOS =    301   number of ions     NIONS =      1
   non local maximal  LDIM  =      6   non local SUM 2l+1 LMDIM =     18
   total plane-waves  NPLWV =   1000
   max r-space proj   IRMAX =      1   max aug-charges    IRDMAX=   2978
   dimension x,y,z NGX =    10 NGY =   10 NGZ =   10
   dimension x,y,z NGXF=    20 NGYF=   20 NGZF=   20
   support grid    NGXF=    20 NGYF=   20 NGZF=   20
   ions per type =               1
   NGX,Y,Z   is equivalent  to a cutoff of   6.53,  6.53,  6.53 a.u.
   NGXF,Y,Z  is equivalent  to a cutoff of  13.06, 13.06, 13.06 a.u.

 SYSTEM =  fcc Ni                                  
 POSCAR =  FCC Ni Bulk                             

 Startparameter for this run:
   NWRITE =      2    write-flag & timer
   PREC   = normal    normal or accurate (medium, high low for compatibility)
   ISTART =      0    job   : 0-new  1-cont  2-samecut
   ICHARG =      2    charge: 1-file 2-atom 10-const
   ISPIN  =      2    spin polarized calculation?
   LNONCOLLINEAR =      F non collinear calculations
   LSORBIT =      F    spin-orbit coupling
   INIWAV =      1    electr: 0-lowe 1-rand  2-diag
   LASPH  =      F    aspherical Exc in radial PAW
   METAGGA=      F    non-selfconsistent MetaGGA calc.

 Electronic Relaxation 1
   ENCUT  =  270.0 eV  19.84 Ry    4.45 a.u.   3.41  3.41  3.41*2*pi/ulx,y,z
   ENINI  =  270.0     initial cutoff
   ENAUG  =  544.6 eV  augmentation charge cutoff
   NELM   =     60;   NELMIN=  2; NELMDL= -5     # of ELM steps 
   EDIFF  = 0.1E-03   stopping-criterion for ELM
   LREAL  =      F    real-space projection
   NLSPLINE    = F    spline interpolate recip. space projectors
   LCOMPAT=      F    compatible to vasp.4.4
   GGA_COMPAT  = T    GGA compatible to vasp.4.4-vasp.4.6
   LMAXPAW     = -100 max onsite density
   LMAXMIX     =    2 max onsite mixed and CHGCAR
   VOSKOWN=      0    Vosko Wilk Nusair interpolation
   ROPT   =    0.00000
 Ionic relaxation
   EDIFFG = 0.1E-02   stopping-criterion for IOM
   NSW    =      0    number of steps for IOM
   NBLOCK =      1;   KBLOCK =      1    inner block; outer block 
   IBRION =     -1    ionic relax: 0-MD 1-quasi-New 2-CG
   NFREE  =      0    steps in history (QN), initial steepest desc. (CG)
   ISIF   =      2    stress and relaxation
   IWAVPR =     10    prediction:  0-non 1-charg 2-wave 3-comb
   ISYM   =      2    0-nonsym 1-usesym 2-fastsym
   LCORR  =      T    Harris-Foulkes like correction to forces

   POTIM  = 0.5000    time-step for ionic-motion
   TEIN   =    0.0    initial temperature
   TEBEG  =    0.0;   TEEND  =   0.0 temperature during run
   SMASS  =  -3.00    Nose mass-parameter (am)
   estimated Nose-frequenzy (Omega)   =  0.10E-29 period in steps =****** mass=  -0.148E-27a.u.
   SCALEE = 1.0000    scale energy and forces
   NPACO  =    256;   APACO  = 16.0  distance and # of slots for P.C.
   PSTRESS=    0.0 pullay stress

  Mass of Ions in am
   POMASS =  58.69
  Ionic Valenz
   ZVAL   =  10.00
  Atomic Wigner-Seitz radii
   RWIGS  =  -1.00
  virtual crystal weights 
   VCA    =   1.00
   NELECT =      10.0000    total number of electrons
   NUPDOWN=      -1.0000    fix difference up-down

 DOS related values:
   EMIN   =  10.00;   EMAX   =-10.00  energy-range for DOS
   EFERMI =   0.00
   ISMEAR =     1;   SIGMA  =   0.20  broadening in eV -4-tet -1-fermi 0-gaus

 Electronic relaxation 2 (details)
   IALGO  =     38    algorithm
   LDIAG  =      T    sub-space diagonalisation (order eigenvalues)
   LSUBROT=      F    optimize rotation matrix (better conditioning)
   TURBO    =      0    0=normal 1=particle mesh
   IRESTART =      0    0=no restart 2=restart with 2 vectors
   NREBOOT  =      0    no. of reboots
   NMIN     =      0    reboot dimension
   EREF     =   0.00    reference energy to select bands
   IMIX   =      4    mixing-type and parameters
     AMIX     =   0.40;   BMIX     =  1.00
     AMIX_MAG =   1.60;   BMIX_MAG =  1.00
     AMIN     =   0.10
     WC   =   100.;   INIMIX=   1;  MIXPRE=   1;  MAXMIX= -45

 Intra band minimization:
   WEIMIN = 0.0000     energy-eigenvalue tresh-hold
   EBREAK =  0.21E-05  absolut break condition
   DEPER  =   0.30     relativ break condition  

   TIME   =   0.40     timestep for ELM

  volume/ion in A,a.u.               =      11.66        78.71
  Fermi-wavevector in a.u.,A,eV,Ry     =   1.555222  2.938943 32.908612  2.418715
  Thomas-Fermi vector in A             =   2.659194
 
 Write flags
   LWAVE        =      T    write WAVECAR
   LDOWNSAMPLE  =      F    k-point downsampling of WAVECAR
   LCHARG       =      T    write CHGCAR
   LVTOT        =      F    write LOCPOT, total local potential
   LVHAR        =      F    write LOCPOT, Hartree potential only
   LELF         =      F    write electronic localiz. function (ELF)
   LORBIT       =      0    0 simple, 1 ext, 2 COOP (PROOUT), +10 PAW based schemes


 Dipole corrections
   LMONO  =      F    monopole corrections only (constant potential shift)
   LDIPOL =      F    correct potential (dipole corrections)
   IDIPOL =      0    1-x, 2-y, 3-z, 4-all directions 
   EPSILON=  1.0000000 bulk dielectric constant

 Exchange correlation treatment:
   GGA     =    --    GGA type
   LEXCH   =     8    internal setting for exchange type
   VOSKOWN=      0    Vosko Wilk Nusair interpolation
   LHFCALC =     F    Hartree Fock is set to
   LHFONE  =     F    Hartree Fock one center treatment
   AEXX    =    0.0000 exact exchange contribution

 Linear response parameters
   LEPSILON=     F    determine dielectric tensor
   LRPA    =     F    only Hartree local field effects (RPA)
   LNABLA  =     F    use nabla operator in PAW spheres
   LVEL    =     F    velocity operator in full k-point grid
   LINTERFAST=   F  fast interpolation
   KINTER  =     0    interpolate to denser k-point grid
   CSHIFT  =0.1000    complex shift for real part using Kramers Kronig
   OMEGAMAX=  -1.0    maximum frequency
   DEG_THRESHOLD= 0.2000000E-02 threshold for treating states as degnerate
   RTIME   =   -0.100 relaxation time in fs
  (WPLASMAI=    0.000 imaginary part of plasma frequency in eV, 0.658/RTIME)
   DFIELD  = 0.0000000 0.0000000 0.0000000 field for delta impulse in time
 
 Orbital magnetization related:
   ORBITALMAG=     F  switch on orbital magnetization
   LCHIMAG   =     F  perturbation theory with respect to B field
   DQ        =  0.001000  dq finite difference perturbation B field
   LLRAUG    =     F  two centre corrections for induced B field



--------------------------------------------------------------------------------------------------------


 Static calculation
 charge density and potential will be updated during run
 spin polarized calculation
 Variant of blocked Davidson
 Davidson routine will perform the subspace rotation
 perform sub-space diagonalisation
    after iterative eigenvector-optimisation
 modified Broyden-mixing scheme, WC =      100.0
 initial mixing is a Kerker type mixing with AMIX =  0.4000 and BMIX =      1.0000
 Hartree-type preconditioning will be used
 using additional bands            7
 reciprocal scheme for non local part
 use partial core corrections
 calculate Harris-corrections to forces 
   (improved forces if not selfconsistent)
 use gradient corrections 
 use of overlap-Matrix (Vanderbilt PP)
 Methfessel and Paxton  Order N= 1 SIGMA  =   0.20


--------------------------------------------------------------------------------------------------------


  energy-cutoff  :      270.00
  volume of cell :       11.66
      direct lattice vectors                 reciprocal lattice vectors
     0.000000000  1.800000000  1.800000000    -0.277777778  0.277777778  0.277777778
     1.800000000  0.000000000  1.800000000     0.277777778 -0.277777778  0.277777778
     1.800000000  1.800000000  0.000000000     0.277777778  0.277777778 -0.277777778

  length of vectors
     2.545584412  2.545584412  2.545584412     0.481125224  0.481125224  0.481125224


 
 k-points in units of 2pi/SCALE and weight: 10x10x10                                
   0.05000000  0.05000000  0.05000000       0.002
  -0.05000000  0.15000000  0.15000000       0.006
  -0.15000000  0.25000000  0.25000000       0.006
  -0.25000000  0.35000000  0.35000000       0.006
  -0.35000000  0.45000000  0.45000000       0.006
   0.55000000 -0.45000000 -0.45000000       0.006
   0.45000000 -0.35000000 -0.35000000       0.006
   0.35000000 -0.25000000 -0.25000000       0.006
   0.25000000 -0.15000000 -0.15000000       0.006
   0.15000000 -0.05000000 -0.05000000       0.006
   0.05000000  0.05000000  0.25000000       0.006
  -0.05000000  0.15000000  0.35000000       0.012
  -0.15000000  0.25000000  0.45000000       0.012
  -0.25000000  0.35000000  0.55000000       0.012
   0.65000000 -0.55000000 -0.35000000       0.012
   0.55000000 -0.45000000 -0.25000000       0.012
   0.45000000 -0.35000000 -0.15000000       0.012
   0.35000000 -0.25000000 -0.05000000       0.012
   0.25000000 -0.15000000  0.05000000       0.012
   0.05000000  0.05000000  0.45000000       0.006
  -0.05000000  0.15000000  0.55000000       0.012
  -0.15000000  0.25000000  0.65000000       0.012
   0.75000000 -0.65000000 -0.25000000       0.012
   0.65000000 -0.55000000 -0.15000000       0.012
   0.55000000 -0.45000000 -0.05000000       0.012
   0.45000000 -0.35000000  0.05000000       0.012
   0.35000000 -0.25000000  0.15000000       0.012
   0.05000000  0.05000000  0.65000000       0.006
  -0.05000000  0.15000000  0.75000000       0.012
   0.85000000 -0.75000000 -0.15000000       0.012
   0.75000000 -0.65000000 -0.05000000       0.012
   0.65000000 -0.55000000  0.05000000       0.012
   0.55000000 -0.45000000  0.15000000       0.012
   0.45000000 -0.35000000  0.25000000       0.012
   0.05000000  0.05000000  0.85000000       0.006
   0.95000000 -0.85000000 -0.05000000       0.012
   0.85000000 -0.75000000  0.05000000       0.012
   0.75000000 -0.65000000  0.15000000       0.012
   0.65000000 -0.55000000  0.25000000       0.012
   0.55000000 -0.45000000  0.35000000       0.012
   0.05000000  0.05000000 -0.95000000       0.006
  -0.05000000  0.15000000 -0.85000000       0.012
  -0.15000000  0.25000000 -0.75000000       0.012
  -0.25000000  0.35000000 -0.65000000       0.012
   0.05000000  0.05000000 -0.75000000       0.006
  -0.05000000  0.15000000 -0.65000000       0.012
  -0.15000000  0.25000000 -0.55000000       0.012
   0.05000000  0.05000000 -0.55000000       0.006
  -0.05000000  0.15000000 -0.45000000       0.012
   0.05000000  0.05000000 -0.35000000       0.006
   0.15000000  0.15000000  0.15000000       0.002
   0.05000000  0.25000000  0.25000000       0.006
  -0.05000000  0.35000000  0.35000000       0.006
  -0.15000000  0.45000000  0.45000000       0.006
   0.75000000 -0.45000000 -0.45000000       0.006
   0.65000000 -0.35000000 -0.35000000       0.006
   0.55000000 -0.25000000 -0.25000000       0.006
   0.45000000 -0.15000000 -0.15000000       0.006
   0.15000000  0.15000000  0.35000000       0.006
   0.05000000  0.25000000  0.45000000       0.012
  -0.05000000  0.35000000  0.55000000       0.012
   0.85000000 -0.55000000 -0.35000000       0.012
   0.75000000 -0.45000000 -0.25000000       0.012
   0.65000000 -0.35000000 -0.15000000       0.012
   0.55000000 -0.25000000 -0.05000000       0.012
   0.15000000  0.15000000  0.55000000       0.006
   0.05000000  0.25000000  0.65000000       0.012
   0.95000000 -0.65000000 -0.25000000       0.012
   0.85000000 -0.55000000 -0.15000000       0.012
   0.75000000 -0.45000000 -0.05000000       0.012
   0.65000000 -0.35000000  0.05000000       0.012
   0.15000000  0.15000000  0.75000000       0.006
   1.05000000 -0.75000000 -0.15000000       0.012
   0.95000000 -0.65000000 -0.05000000       0.012
   0.85000000 -0.55000000  0.05000000       0.012
   0.75000000 -0.45000000  0.15000000       0.012
   0.15000000  0.15000000 -1.05000000       0.006
   0.05000000  0.25000000 -0.95000000       0.012
  -0.05000000  0.35000000 -0.85000000       0.012
   0.15000000  0.15000000 -0.85000000       0.006
   0.05000000  0.25000000 -0.75000000       0.012
   0.15000000  0.15000000 -0.65000000       0.006
   0.25000000  0.25000000  0.25000000       0.002
   0.15000000  0.35000000  0.35000000       0.006
   0.05000000  0.45000000  0.45000000       0.006
   0.95000000 -0.45000000 -0.45000000       0.006
   0.85000000 -0.35000000 -0.35000000       0.006
   0.75000000 -0.25000000 -0.25000000       0.006
   0.25000000  0.25000000  0.45000000       0.006
   0.15000000  0.35000000  0.55000000       0.012
   1.05000000 -0.55000000 -0.35000000       0.012
   0.95000000 -0.45000000 -0.25000000       0.012
   0.85000000 -0.35000000 -0.15000000       0.012
   0.25000000  0.25000000  0.65000000       0.006
   1.15000000 -0.65000000 -0.25000000       0.012
   1.05000000 -0.55000000 -0.15000000       0.012
   0.95000000 -0.45000000 -0.05000000       0.012
   0.25000000  0.25000000 -1.15000000       0.006
   0.15000000  0.35000000 -1.05000000       0.012
   0.25000000  0.25000000 -0.95000000       0.006
   0.35000000  0.35000000  0.35000000       0.002
   0.25000000  0.45000000  0.45000000       0.006
   1.15000000 -0.45000000 -0.45000000       0.006
   1.05000000 -0.35000000 -0.35000000       0.006
   0.35000000  0.35000000  0.55000000       0.006
   1.25000000 -0.55000000 -0.35000000       0.012
   1.15000000 -0.45000000 -0.25000000       0.012
   0.35000000  0.35000000 -1.25000000       0.006
   0.45000000  0.45000000  0.45000000       0.002
   1.35000000 -0.45000000 -0.45000000       0.006
 
 k-points in reciprocal lattice and weights: 10x10x10                                
   0.05000000  0.05000000  0.05000000       0.002
   0.15000000  0.05000000  0.05000000       0.006
   0.25000000  0.05000000  0.05000000       0.006
   0.35000000  0.05000000  0.05000000       0.006
   0.45000000  0.05000000  0.05000000       0.006
  -0.45000000  0.05000000  0.05000000       0.006
  -0.35000000  0.05000000  0.05000000       0.006
  -0.25000000  0.05000000  0.05000000       0.006
  -0.15000000  0.05000000  0.05000000       0.006
  -0.05000000  0.05000000  0.05000000       0.006
   0.15000000  0.15000000  0.05000000       0.006
   0.25000000  0.15000000  0.05000000       0.012
   0.35000000  0.15000000  0.05000000       0.012
   0.45000000  0.15000000  0.05000000       0.012
  -0.45000000  0.15000000  0.05000000       0.012
  -0.35000000  0.15000000  0.05000000       0.012
  -0.25000000  0.15000000  0.05000000       0.012
  -0.15000000  0.15000000  0.05000000       0.012
  -0.05000000  0.15000000  0.05000000       0.012
   0.25000000  0.25000000  0.05000000       0.006
   0.35000000  0.25000000  0.05000000       0.012
   0.45000000  0.25000000  0.05000000       0.012
  -0.45000000  0.25000000  0.05000000       0.012
  -0.35000000  0.25000000  0.05000000       0.012
  -0.25000000  0.25000000  0.05000000       0.012
  -0.15000000  0.25000000  0.05000000       0.012
  -0.05000000  0.25000000  0.05000000       0.012
   0.35000000  0.35000000  0.05000000       0.006
   0.45000000  0.35000000  0.05000000       0.012
  -0.45000000  0.35000000  0.05000000       0.012
  -0.35000000  0.35000000  0.05000000       0.012
  -0.25000000  0.35000000  0.05000000       0.012
  -0.15000000  0.35000000  0.05000000       0.012
  -0.05000000  0.35000000  0.05000000       0.012
   0.45000000  0.45000000  0.05000000       0.006
  -0.45000000  0.45000000  0.05000000       0.012
  -0.35000000  0.45000000  0.05000000       0.012
  -0.25000000  0.45000000  0.05000000       0.012
  -0.15000000  0.45000000  0.05000000       0.012
  -0.05000000  0.45000000  0.05000000       0.012
  -0.45000000 -0.45000000  0.05000000       0.006
  -0.35000000 -0.45000000  0.05000000       0.012
  -0.25000000 -0.45000000  0.05000000       0.012
  -0.15000000 -0.45000000  0.05000000       0.012
  -0.35000000 -0.35000000  0.05000000       0.006
  -0.25000000 -0.35000000  0.05000000       0.012
  -0.15000000 -0.35000000  0.05000000       0.012
  -0.25000000 -0.25000000  0.05000000       0.006
  -0.15000000 -0.25000000  0.05000000       0.012
  -0.15000000 -0.15000000  0.05000000       0.006
   0.15000000  0.15000000  0.15000000       0.002
   0.25000000  0.15000000  0.15000000       0.006
   0.35000000  0.15000000  0.15000000       0.006
   0.45000000  0.15000000  0.15000000       0.006
  -0.45000000  0.15000000  0.15000000       0.006
  -0.35000000  0.15000000  0.15000000       0.006
  -0.25000000  0.15000000  0.15000000       0.006
  -0.15000000  0.15000000  0.15000000       0.006
   0.25000000  0.25000000  0.15000000       0.006
   0.35000000  0.25000000  0.15000000       0.012
   0.45000000  0.25000000  0.15000000       0.012
  -0.45000000  0.25000000  0.15000000       0.012
  -0.35000000  0.25000000  0.15000000       0.012
  -0.25000000  0.25000000  0.15000000       0.012
  -0.15000000  0.25000000  0.15000000       0.012
   0.35000000  0.35000000  0.15000000       0.006
   0.45000000  0.35000000  0.15000000       0.012
  -0.45000000  0.35000000  0.15000000       0.012
  -0.35000000  0.35000000  0.15000000       0.012
  -0.25000000  0.35000000  0.15000000       0.012
  -0.15000000  0.35000000  0.15000000       0.012
   0.45000000  0.45000000  0.15000000       0.006
  -0.45000000  0.45000000  0.15000000       0.012
  -0.35000000  0.45000000  0.15000000       0.012
  -0.25000000  0.45000000  0.15000000       0.012
  -0.15000000  0.45000000  0.15000000       0.012
  -0.45000000 -0.45000000  0.15000000       0.006
  -0.35000000 -0.45000000  0.15000000       0.012
  -0.25000000 -0.45000000  0.15000000       0.012
  -0.35000000 -0.35000000  0.15000000       0.006
  -0.25000000 -0.35000000  0.15000000       0.012
  -0.25000000 -0.25000000  0.15000000       0.006
   0.25000000  0.25000000  0.25000000       0.002
   0.35000000  0.25000000  0.25000000       0.006
   0.45000000  0.25000000  0.25000000       0.006
  -0.45000000  0.25000000  0.25000000       0.006
  -0.35000000  0.25000000  0.25000000       0.006
  -0.25000000  0.25000000  0.25000000       0.006
   0.35000000  0.35000000  0.25000000       0.006
   0.45000000  0.35000000  0.25000000       0.012
  -0.45000000  0.35000000  0.25000000       0.012
  -0.35000000  0.35000000  0.25000000       0.012
  -0.25000000  0.35000000  0.25000000       0.012
   0.45000000  0.45000000  0.25000000       0.006
  -0.45000000  0.45000000  0.25000000       0.012
  -0.35000000  0.45000000  0.25000000       0.012
  -0.25000000  0.45000000  0.25000000       0.012
  -0.45000000 -0.45000000  0.25000000       0.006
  -0.35000000 -0.45000000  0.25000000       0.012
  -0.35000000 -0.35000000  0.25000000       0.006
   0.35000000  0.35000000  0.35000000       0.002
   0.45000000  0.35000000  0.35000000       0.006
  -0.45000000  0.35000000  0.35000000       0.006
  -0.35000000  0.35000000  0.35000000       0.006
   0.45000000  0.45000000  0.35000000       0.006
  -0.45000000  0.45000000  0.35000000       0.012
  -0.35000000  0.45000000  0.35000000       0.012
  -0.45000000 -0.45000000  0.35000000       0.006
   0.45000000  0.45000000  0.45000000       0.002
  -0.45000000  0.45000000  0.45000000       0.006
 
 position of ions in fractional coordinates (direct lattice) 
   0.00000000  0.00000000  0.00000000
 
 position of ions in cartesian coordinates  (Angst):
   0.00000000  0.00000000  0.00000000
 


--------------------------------------------------------------------------------------------------------


 k-point  1 :   0.0500 0.0500 0.0500  plane waves:     116
 k-point  2 :   0.1500 0.0500 0.0500  plane waves:     121
 k-point  3 :   0.2500 0.0500 0.0500  plane waves:     123
 k-point  4 :   0.3500 0.0500 0.0500  plane waves:     116
 k-point  5 :   0.4500 0.0500 0.0500  plane waves:     118
 k-point  6 :  -0.4500 0.0500 0.0500  plane waves:     116
 k-point  7 :  -0.3500 0.0500 0.0500  plane waves:     117
 k-point  8 :  -0.2500 0.0500 0.0500  plane waves:     118
 k-point  9 :  -0.1500 0.0500 0.0500  plane waves:     120
 k-point 10 :  -0.0500 0.0500 0.0500  plane waves:     121
 k-point 11 :   0.1500 0.1500 0.0500  plane waves:     121
 k-point 12 :   0.2500 0.1500 0.0500  plane waves:     122
 k-point 13 :   0.3500 0.1500 0.0500  plane waves:     119
 k-point 14 :   0.4500 0.1500 0.0500  plane waves:     117
 k-point 15 :  -0.4500 0.1500 0.0500  plane waves:     120
 k-point 16 :  -0.3500 0.1500 0.0500  plane waves:     120
 k-point 17 :  -0.2500 0.1500 0.0500  plane waves:     120
 k-point 18 :  -0.1500 0.1500 0.0500  plane waves:     120
 k-point 19 :  -0.0500 0.1500 0.0500  plane waves:     121
 k-point 20 :   0.2500 0.2500 0.0500  plane waves:     125
 k-point 21 :   0.3500 0.2500 0.0500  plane waves:     122
 k-point 22 :   0.4500 0.2500 0.0500  plane waves:     118
 k-point 23 :  -0.4500 0.2500 0.0500  plane waves:     117
 k-point 24 :  -0.3500 0.2500 0.0500  plane waves:     117
 k-point 25 :  -0.2500 0.2500 0.0500  plane waves:     119
 k-point 26 :  -0.1500 0.2500 0.0500  plane waves:     121
 k-point 27 :  -0.0500 0.2500 0.0500  plane waves:     122
 k-point 28 :   0.3500 0.3500 0.0500  plane waves:     120
 k-point 29 :   0.4500 0.3500 0.0500  plane waves:     118
 k-point 30 :  -0.4500 0.3500 0.0500  plane waves:     113
 k-point 31 :  -0.3500 0.3500 0.0500  plane waves:     117
 k-point 32 :  -0.2500 0.3500 0.0500  plane waves:     117
 k-point 33 :  -0.1500 0.3500 0.0500  plane waves:     119
 k-point 34 :  -0.0500 0.3500 0.0500  plane waves:     119
 k-point 35 :   0.4500 0.4500 0.0500  plane waves:     116
 k-point 36 :  -0.4500 0.4500 0.0500  plane waves:     115
 k-point 37 :  -0.3500 0.4500 0.0500  plane waves:     112
 k-point 38 :  -0.2500 0.4500 0.0500  plane waves:     115
 k-point 39 :  -0.1500 0.4500 0.0500  plane waves:     119
 k-point 40 :  -0.0500 0.4500 0.0500  plane waves:     116
 k-point 41 :  -0.4500-0.4500 0.0500  plane waves:     116
 k-point 42 :  -0.3500-0.4500 0.0500  plane waves:     116
 k-point 43 :  -0.2500-0.4500 0.0500  plane waves:     117
 k-point 44 :  -0.1500-0.4500 0.0500  plane waves:     117
 k-point 45 :  -0.3500-0.3500 0.0500  plane waves:     118
 k-point 46 :  -0.2500-0.3500 0.0500  plane waves:     120
 k-point 47 :  -0.1500-0.3500 0.0500  plane waves:     118
 k-point 48 :  -0.2500-0.2500 0.0500  plane waves:     125
 k-point 49 :  -0.1500-0.2500 0.0500  plane waves:     123
 k-point 50 :  -0.1500-0.1500 0.0500  plane waves:     123
 k-point 51 :   0.1500 0.1500 0.1500  plane waves:     122
 k-point 52 :   0.2500 0.1500 0.1500  plane waves:     121
 k-point 53 :   0.3500 0.1500 0.1500  plane waves:     124
 k-point 54 :   0.4500 0.1500 0.1500  plane waves:     119
 k-point 55 :  -0.4500 0.1500 0.1500  plane waves:     118
 k-point 56 :  -0.3500 0.1500 0.1500  plane waves:     117
 k-point 57 :  -0.2500 0.1500 0.1500  plane waves:     115
 k-point 58 :  -0.1500 0.1500 0.1500  plane waves:     125
 k-point 59 :   0.2500 0.2500 0.1500  plane waves:     120
 k-point 60 :   0.3500 0.2500 0.1500  plane waves:     120
 k-point 61 :   0.4500 0.2500 0.1500  plane waves:     121
 k-point 62 :  -0.4500 0.2500 0.1500  plane waves:     116
 k-point 63 :  -0.3500 0.2500 0.1500  plane waves:     118
 k-point 64 :  -0.2500 0.2500 0.1500  plane waves:     117
 k-point 65 :  -0.1500 0.2500 0.1500  plane waves:     120
 k-point 66 :   0.3500 0.3500 0.1500  plane waves:     120
 k-point 67 :   0.4500 0.3500 0.1500  plane waves:     118
 k-point 68 :  -0.4500 0.3500 0.1500  plane waves:     115
 k-point 69 :  -0.3500 0.3500 0.1500  plane waves:     114
 k-point 70 :  -0.2500 0.3500 0.1500  plane waves:     115
 k-point 71 :  -0.1500 0.3500 0.1500  plane waves:     119
 k-point 72 :   0.4500 0.4500 0.1500  plane waves:     118
 k-point 73 :  -0.4500 0.4500 0.1500  plane waves:     113
 k-point 74 :  -0.3500 0.4500 0.1500  plane waves:     112
 k-point 75 :  -0.2500 0.4500 0.1500  plane waves:     111
 k-point 76 :  -0.1500 0.4500 0.1500  plane waves:     116
 k-point 77 :  -0.4500-0.4500 0.1500  plane waves:     114
 k-point 78 :  -0.3500-0.4500 0.1500  plane waves:     113
 k-point 79 :  -0.2500-0.4500 0.1500  plane waves:     114
 k-point 80 :  -0.3500-0.3500 0.1500  plane waves:     116
 k-point 81 :  -0.2500-0.3500 0.1500  plane waves:     117
 k-point 82 :  -0.2500-0.2500 0.1500  plane waves:     118
 k-point 83 :   0.2500 0.2500 0.2500  plane waves:     123
 k-point 84 :   0.3500 0.2500 0.2500  plane waves:     121
 k-point 85 :   0.4500 0.2500 0.2500  plane waves:     119
 k-point 86 :  -0.4500 0.2500 0.2500  plane waves:     119
 k-point 87 :  -0.3500 0.2500 0.2500  plane waves:     116
 k-point 88 :  -0.2500 0.2500 0.2500  plane waves:     119
 k-point 89 :   0.3500 0.3500 0.2500  plane waves:     119
 k-point 90 :   0.4500 0.3500 0.2500  plane waves:     120
 k-point 91 :  -0.4500 0.3500 0.2500  plane waves:     115
 k-point 92 :  -0.3500 0.3500 0.2500  plane waves:     113
 k-point 93 :  -0.2500 0.3500 0.2500  plane waves:     114
 k-point 94 :   0.4500 0.4500 0.2500  plane waves:     117
 k-point 95 :  -0.4500 0.4500 0.2500  plane waves:     116
 k-point 96 :  -0.3500 0.4500 0.2500  plane waves:     113
 k-point 97 :  -0.2500 0.4500 0.2500  plane waves:     112
 k-point 98 :  -0.4500-0.4500 0.2500  plane waves:     116
 k-point 99 :  -0.3500-0.4500 0.2500  plane waves:     112
 k-point ** :  -0.3500-0.3500 0.2500  plane waves:     114
 k-point ** :   0.3500 0.3500 0.3500  plane waves:     117
 k-point ** :   0.4500 0.3500 0.3500  plane waves:     119
 k-point ** :  -0.4500 0.3500 0.3500  plane waves:     119
 k-point ** :  -0.3500 0.3500 0.3500  plane waves:     118
 k-point ** :   0.4500 0.4500 0.3500  plane waves:     116
 k-point ** :  -0.4500 0.4500 0.3500  plane waves:     118
 k-point ** :  -0.3500 0.4500 0.3500  plane waves:     116
 k-point ** :  -0.4500-0.4500 0.3500  plane waves:     117
 k-point ** :   0.4500 0.4500 0.4500  plane waves:     120
 k-point ** :  -0.4500 0.4500 0.4500  plane waves:     118

 maximum and minimum number of plane-waves per node :       125      111

 maximum number of plane-waves:       125
 maximum index in each direction: 
   IXMAX=    3   IYMAX=    3   IZMAX=    3
   IXMIN=   -3   IYMIN=   -3   IZMIN=   -3


 serial   3D FFT for wavefunctions
 parallel 3D FFT for charge:
    minimum data exchange during FFTs selected (reduces bandwidth)


 total amount of memory used by VASP MPI-rank0    34084. kBytes
=======================================================================

   base      :      30000. kBytes
   nonl-proj :       2029. kBytes
   fftplans  :        142. kBytes
   grid      :        320. kBytes
   one-center:         31. kBytes
   wavefun   :       1562. kBytes
 
     INWAV:  cpu time    0.0008: real time    0.0001
 Broyden mixing: mesh for mixing (old mesh)
   NGX =  7   NGY =  7   NGZ =  7
  (NGX  = 20   NGY  = 20   NGZ  = 20)
  gives a total of    343 points

 initial charge density was supplied:
 charge density of overlapping atoms calculated
 number of electron      10.0000000 magnetization       3.0000000
 keeping initial charge density in first step


--------------------------------------------------------------------------------------------------------


 Maximum index for augmentation-charges          685 (set IRDMAX)


--------------------------------------------------------------------------------------------------------


 First call to EWALD:  gamma=   0.782
 Maximum number of real-space cells 3x 3x 3
 Maximum number of reciprocal cells 3x 3x 3

    FEWALD:  cpu time    0.0010: real time    0.0010


--------------------------------------- Iteration      1(   1)  ---------------------------------------


    POTLOK:  cpu time    0.0035: real time    0.0043
    SETDIJ:  cpu time    0.0038: real time    0.0037
     EDDAV:  cpu time    0.3194: real time    0.3266
       DOS:  cpu time    0.0019: real time    0.0020
    --------------------------------------------
      LOOP:  cpu time    0.3286: real time    0.3366

 eigenvalue-minimisations  :  5916
 total energy-change (2. order) : 0.1855533E+02  (-0.2975196E+03)
 number of electron      10.0000000 magnetization       3.0000000
 augmentation part       10.0000000 magnetization       3.0000000

 Free energy of the ion-electron system (eV)
  ---------------------------------------------------
  alpha Z        PSCENC =        43.72376629
  Ewald energy   TEWEN  =      -916.95886177
  -Hartree energ DENC   =      -255.43669129
  -exchange      EXHF   =         0.00000000
  -V(xc)+E(xc)   XCENC  =        32.51734085
  PAW double counting   =       961.92645289    -1028.66799202
  entropy T*S    EENTRO =         0.00035838
  eigenvalues    EBANDS =       103.81488373
  atomic energy  EATOM  =      1077.63607467
  Solvation  Ediel_sol  =         0.00000000
  ---------------------------------------------------
  free energy    TOTEN  =        18.55533173 eV

  energy without entropy =       18.55497335  energy(sigma->0) =       18.55521227


--------------------------------------------------------------------------------------------------------




--------------------------------------- Iteration      1(   2)  ---------------------------------------


     EDDAV:  cpu time    0.3034: real time    0.3103
       DOS:  cpu time    0.0019: real time    0.0019
    --------------------------------------------
      LOOP:  cpu time    0.3053: real time    0.3122

 eigenvalue-minimisations  :  5708
 total energy-change (2. order) :-0.2396363E+02  (-0.2213385E+02)
 number of electron      10.0000000 magnetization       3.0000000
 augmentation part       10.0000000 magnetization       3.0000000

 Free energy of the ion-electron system (eV)
  ---------------------------------------------------
  alpha Z        PSCENC =        43.72376629
  Ewald energy   TEWEN  =      -916.95886177
  -Hartree energ DENC   =      -255.43669129
  -exchange      EXHF   =         0.00000000
  -V(xc)+E(xc)   XCENC  =        32.51734085
  PAW double counting   =       961.92645289    -1028.66799202
  entropy T*S    EENTRO =         0.00073834
  eigenvalues    EBANDS =        79.85087377
  atomic energy  EATOM  =      1077.63607467
  Solvation  Ediel_sol  =         0.00000000
  ---------------------------------------------------
  free energy    TOTEN  =        -5.40829827 eV

  energy without entropy =       -5.40903661  energy(sigma->0) =       -5.40854439


--------------------------------------------------------------------------------------------------------




--------------------------------------- Iteration      1(   3)  ---------------------------------------


     EDDAV:  cpu time    0.3070: real time    0.3137
       DOS:  cpu time    0.0020: real time    0.0020
    --------------------------------------------
      LOOP:  cpu time    0.3089: real time    0.3157

 eigenvalue-minimisations  :  6024
 total energy-change (2. order) :-0.4564379E+00  (-0.4549640E+00)
 number of electron      10.0000000 magnetization       3.0000000
 augmentation part       10.0000000 magnetization       3.0000000

 Free energy of the ion-electron system (eV)
  ---------------------------------------------------
  alpha Z        PSCENC =        43.72376629
  Ewald energy   TEWEN  =      -916.95886177
  -Hartree energ DENC   =      -255.43669129
  -exchange      EXHF   =         0.00000000
  -V(xc)+E(xc)   XCENC  =        32.51734085
  PAW double counting   =       961.92645289    -1028.66799202
  entropy T*S    EENTRO =        -0.00009894
  eigenvalues    EBANDS =        79.39527319
  atomic energy  EATOM  =      1077.63607467
  Solvation  Ediel_sol  =         0.00000000
  ---------------------------------------------------
  free energy    TOTEN  =        -5.86473613 eV

  energy without entropy =       -5.86463719  energy(sigma->0) =       -5.86470315


--------------------------------------------------------------------------------------------------------




--------------------------------------- Iteration      1(   4)  ---------------------------------------


     EDDAV:  cpu time    0.3091: real time    0.3161
       DOS:  cpu time    0.0020: real time    0.0020
    --------------------------------------------
      LOOP:  cpu time    0.3111: real time    0.3181

 eigenvalue-minimisations  :  6028
 total energy-change (2. order) :-0.2421270E-02  (-0.2420988E-02)
 number of electron      10.0000000 magnetization       3.0000000
 augmentation part       10.0000000 magnetization       3.0000000

 Free energy of the ion-electron system (eV)
  ---------------------------------------------------
  alpha Z        PSCENC =        43.72376629
  Ewald energy   TEWEN  =      -916.95886177
  -Hartree energ DENC   =      -255.43669129
  -exchange      EXHF   =         0.00000000
  -V(xc)+E(xc)   XCENC  =        32.51734085
  PAW double counting   =       961.92645289    -1028.66799202
  entropy T*S    EENTRO =        -0.00010262
  eigenvalues    EBANDS =        79.39285561
  atomic energy  EATOM  =      1077.63607467
  Solvation  Ediel_sol  =         0.00000000
  ---------------------------------------------------
  free energy    TOTEN  =        -5.86715740 eV

  energy without entropy =       -5.86705478  energy(sigma->0) =       -5.86712319


--------------------------------------------------------------------------------------------------------




--------------------------------------- Iteration      1(   5)  ---------------------------------------


     EDDAV:  cpu time    0.3148: real time    0.3218
       DOS:  cpu time    0.0020: real time    0.0020
    CHARGE:  cpu time    0.0048: real time    0.0049
    MIXING:  cpu time    0.0003: real time    0.0003
    --------------------------------------------
      LOOP:  cpu time    0.3218: real time    0.3289

 eigenvalue-minimisations  :  6012
 total energy-change (2. order) :-0.3325665E-04  (-0.3325662E-04)
 number of electron      10.0000062 magnetization       0.6336204
 augmentation part        5.5500222 magnetization       0.4143913

 Broyden mixing:
  rms(total) = 0.13247E+01    rms(broyden)= 0.13245E+01
  rms(prec ) = 0.35070E+01
  weight for this iteration     100.00

 Free energy of the ion-electron system (eV)
  ---------------------------------------------------
  alpha Z        PSCENC =        43.72376629
  Ewald energy   TEWEN  =      -916.95886177
  -Hartree energ DENC   =      -255.43669129
  -exchange      EXHF   =         0.00000000
  -V(xc)+E(xc)   XCENC  =        32.51734085
  PAW double counting   =       961.92645289    -1028.66799202
  entropy T*S    EENTRO =        -0.00010262
  eigenvalues    EBANDS =        79.39282235
  atomic energy  EATOM  =      1077.63607467
  Solvation  Ediel_sol  =         0.00000000
  ---------------------------------------------------
  free energy    TOTEN  =        -5.86719065 eV

  energy without entropy =       -5.86708803  energy(sigma->0) =       -5.86715644


--------------------------------------------------------------------------------------------------------




--------------------------------------- Iteration      1(   6)  ---------------------------------------


    POTLOK:  cpu time    0.0030: real time    0.0031
    SETDIJ:  cpu time    0.0032: real time    0.0033
     EDDAV:  cpu time    0.3325: real time    0.3393
       DOS:  cpu time    0.0021: real time    0.0021
    CHARGE:  cpu time    0.0040: real time    0.0041
    MIXING:  cpu time    0.0003: real time    0.0003
    --------------------------------------------
      LOOP:  cpu time    0.3452: real time    0.3521

 eigenvalue-minimisations  :  6424
 total energy-change (2. order) :-0.7619237E-01  (-0.1528230E+01)
 number of electron      10.0000077 magnetization       0.5696929
 augmentation part        6.5786033 magnetization       0.6153252

 Broyden mixing:
  rms(total) = 0.69660E+00    rms(broyden)= 0.69651E+00
  rms(prec ) = 0.19193E+01
  weight for this iteration     100.00

 eigenvalues of (default mixing * dielectric matrix)
  average eigenvalue GAMMA=   0.8981
  0.8981

 Free energy of the ion-electron system (eV)
  ---------------------------------------------------
  alpha Z        PSCENC =        43.72376629
  Ewald energy   TEWEN  =      -916.95886177
  -Hartree energ DENC   =      -228.78287088
  -exchange      EXHF   =         0.00000000
  -V(xc)+E(xc)   XCENC  =        30.24701310
  PAW double counting   =      1007.92668695    -1069.99164199
  entropy T*S    EENTRO =        -0.00562518
  eigenvalues    EBANDS =        50.26207578
  atomic energy  EATOM  =      1077.63607467
  Solvation  Ediel_sol  =         0.00000000
  ---------------------------------------------------
  free energy    TOTEN  =        -5.94338302 eV

  energy without entropy =       -5.93775785  energy(sigma->0) =       -5.94150797


--------------------------------------------------------------------------------------------------------




--------------------------------------- Iteration      1(   7)  ---------------------------------------


    POTLOK:  cpu time    0.0030: real time    0.0031
    SETDIJ:  cpu time    0.0033: real time    0.0033
     EDDAV:  cpu time    0.3295: real time    0.3361
       DOS:  cpu time    0.0021: real time    0.0021
    CHARGE:  cpu time    0.0044: real time    0.0045
    MIXING:  cpu time    0.0003: real time    0.0003
    --------------------------------------------
      LOOP:  cpu time    0.3435: real time    0.3494

 eigenvalue-minimisations  :  6456
 total energy-change (2. order) : 0.4978560E+00  (-0.3726808E+00)
 number of electron      10.0000070 magnetization       0.6618167
 augmentation part        6.1454661 magnetization       0.6511559

 Broyden mixing:
  rms(total) = 0.14197E+00    rms(broyden)= 0.14191E+00
  rms(prec ) = 0.29723E+00
  weight for this iteration     100.00

 eigenvalues of (default mixing * dielectric matrix)
  average eigenvalue GAMMA=   0.8126
  0.9701  0.6551

 Free energy of the ion-electron system (eV)
  ---------------------------------------------------
  alpha Z        PSCENC =        43.72376629
  Ewald energy   TEWEN  =      -916.95886177
  -Hartree energ DENC   =      -238.22300552
  -exchange      EXHF   =         0.00000000
  -V(xc)+E(xc)   XCENC  =        30.68463340
  PAW double counting   =      1039.75675994    -1105.98707720
  entropy T*S    EENTRO =        -0.00251136
  eigenvalues    EBANDS =        63.92469449
  atomic energy  EATOM  =      1077.63607467
  Solvation  Ediel_sol  =         0.00000000
  ---------------------------------------------------
  free energy    TOTEN  =        -5.44552706 eV

  energy without entropy =       -5.44301570  energy(sigma->0) =       -5.44468994


--------------------------------------------------------------------------------------------------------




--------------------------------------- Iteration      1(   8)  ---------------------------------------


    POTLOK:  cpu time    0.0030: real time    0.0030
    SETDIJ:  cpu time    0.0031: real time    0.0031
     EDDAV:  cpu time    0.3193: real time    0.3261
       DOS:  cpu time    0.0021: real time    0.0021
    CHARGE:  cpu time    0.0041: real time    0.0041
    MIXING:  cpu time    0.0003: real time    0.0003
    --------------------------------------------
      LOOP:  cpu time    0.3310: real time    0.3387

 eigenvalue-minimisations  :  6064
 total energy-change (2. order) : 0.5910801E-02  (-0.1494519E-02)
 number of electron      10.0000070 magnetization       0.6323892
 augmentation part        6.1584600 magnetization       0.6018324

 Broyden mixing:
  rms(total) = 0.82072E-01    rms(broyden)= 0.82067E-01
  rms(prec ) = 0.16981E+00
  weight for this iteration     100.00

 eigenvalues of (default mixing * dielectric matrix)
  average eigenvalue GAMMA=   0.8130
  1.1683  0.6837  0.5869

 Free energy of the ion-electron system (eV)
  ---------------------------------------------------
  alpha Z        PSCENC =        43.72376629
  Ewald energy   TEWEN  =      -916.95886177
  -Hartree energ DENC   =      -236.84463376
  -exchange      EXHF   =         0.00000000
  -V(xc)+E(xc)   XCENC  =        30.62078286
  PAW double counting   =      1066.39204675    -1133.48729345
  entropy T*S    EENTRO =        -0.00275056
  eigenvalues    EBANDS =        63.48125270
  atomic energy  EATOM  =      1077.63607467
  Solvation  Ediel_sol  =         0.00000000
  ---------------------------------------------------
  free energy    TOTEN  =        -5.43961626 eV

  energy without entropy =       -5.43686570  energy(sigma->0) =       -5.43869941


--------------------------------------------------------------------------------------------------------




--------------------------------------- Iteration      1(   9)  ---------------------------------------


    POTLOK:  cpu time    0.0030: real time    0.0031
    SETDIJ:  cpu time    0.0031: real time    0.0032
     EDDAV:  cpu time    0.3135: real time    0.3203
       DOS:  cpu time    0.0021: real time    0.0021
    CHARGE:  cpu time    0.0044: real time    0.0044
    MIXING:  cpu time    0.0004: real time    0.0003
    --------------------------------------------
      LOOP:  cpu time    0.3265: real time    0.3334

 eigenvalue-minimisations  :  5844
 total energy-change (2. order) : 0.2608391E-02  (-0.1229819E-03)
 number of electron      10.0000070 magnetization       0.6193888
 augmentation part        6.1663331 magnetization       0.5903150

 Broyden mixing:
  rms(total) = 0.35982E-01    rms(broyden)= 0.35981E-01
  rms(prec ) = 0.90974E-01
  weight for this iteration     100.00

 eigenvalues of (default mixing * dielectric matrix)
  average eigenvalue GAMMA=   1.0846
  2.0988  0.9990  0.5935  0.6471

 Free energy of the ion-electron system (eV)
  ---------------------------------------------------
  alpha Z        PSCENC =        43.72376629
  Ewald energy   TEWEN  =      -916.95886177
  -Hartree energ DENC   =      -236.08226192
  -exchange      EXHF   =         0.00000000
  -V(xc)+E(xc)   XCENC  =        30.58056252
  PAW double counting   =      1082.15031993    -1149.72802876
  entropy T*S    EENTRO =        -0.00265720
  eigenvalues    EBANDS =        63.24407838
  atomic energy  EATOM  =      1077.63607467
  Solvation  Ediel_sol  =         0.00000000
  ---------------------------------------------------
  free energy    TOTEN  =        -5.43700787 eV

  energy without entropy =       -5.43435067  energy(sigma->0) =       -5.43612214


--------------------------------------------------------------------------------------------------------




--------------------------------------- Iteration      1(  10)  ---------------------------------------


    POTLOK:  cpu time    0.0030: real time    0.0031
    SETDIJ:  cpu time    0.0032: real time    0.0033
     EDDAV:  cpu time    0.3133: real time    0.3199
       DOS:  cpu time    0.0021: real time    0.0021
    CHARGE:  cpu time    0.0042: real time    0.0043
    MIXING:  cpu time    0.0004: real time    0.0004
    --------------------------------------------
      LOOP:  cpu time    0.3263: real time    0.3330

 eigenvalue-minimisations  :  5976
 total energy-change (2. order) : 0.1174928E-02  (-0.2058260E-03)
 number of electron      10.0000070 magnetization       0.6318058
 augmentation part        6.1761849 magnetization       0.6054810

 Broyden mixing:
  rms(total) = 0.57627E-02    rms(broyden)= 0.57600E-02
  rms(prec ) = 0.78367E-02
  weight for this iteration     100.00

 eigenvalues of (default mixing * dielectric matrix)
  average eigenvalue GAMMA=   1.1260
  2.3648  1.1661  0.8571  0.6208  0.6208

 Free energy of the ion-electron system (eV)
  ---------------------------------------------------
  alpha Z        PSCENC =        43.72376629
  Ewald energy   TEWEN  =      -916.95886177
  -Hartree energ DENC   =      -235.18736147
  -exchange      EXHF   =         0.00000000
  -V(xc)+E(xc)   XCENC  =        30.54046264
  PAW double counting   =      1101.12522573    -1169.24134707
  entropy T*S    EENTRO =        -0.00262020
  eigenvalues    EBANDS =        62.92882824
  atomic energy  EATOM  =      1077.63607467
  Solvation  Ediel_sol  =         0.00000000
  ---------------------------------------------------
  free energy    TOTEN  =        -5.43583294 eV

  energy without entropy =       -5.43321275  energy(sigma->0) =       -5.43495954


--------------------------------------------------------------------------------------------------------




--------------------------------------- Iteration      1(  11)  ---------------------------------------


    POTLOK:  cpu time    0.0030: real time    0.0031
    SETDIJ:  cpu time    0.0032: real time    0.0033
     EDDAV:  cpu time    0.2131: real time    0.2197
       DOS:  cpu time    0.0021: real time    0.0021
    --------------------------------------------
      LOOP:  cpu time    0.2215: real time    0.2281

 eigenvalue-minimisations  :  2924
 total energy-change (2. order) :-0.1950668E-04  (-0.3366884E-05)
 number of electron      10.0000070 magnetization       0.6318058
 augmentation part        6.1761849 magnetization       0.6054810

 Free energy of the ion-electron system (eV)
  ---------------------------------------------------
  alpha Z        PSCENC =        43.72376629
  Ewald energy   TEWEN  =      -916.95886177
  -Hartree energ DENC   =      -235.11911191
  -exchange      EXHF   =         0.00000000
  -V(xc)+E(xc)   XCENC  =        30.53988415
  PAW double counting   =      1103.56021587    -1171.71858530
  entropy T*S    EENTRO =        -0.00268144
  eigenvalues    EBANDS =        62.90344700
  atomic energy  EATOM  =      1077.63607467
  Solvation  Ediel_sol  =         0.00000000
  ---------------------------------------------------
  free energy    TOTEN  =        -5.43585245 eV

  energy without entropy =       -5.43317101  energy(sigma->0) =       -5.43495864


--------------------------------------------------------------------------------------------------------




 average (electrostatic) potential at core
  the test charge radii are     0.9791
  (the norm of the test charge is              1.0000)
       1 -82.8523
 
 
 
 E-fermi :   8.4257     XC(G=0): -12.8485     alpha+bet :-15.3561


 spin component 1

 k-point     1 :       0.0500    0.0500    0.0500
  band No.  band energies     occupation 
      1      -0.0137      1.00000
      2       6.1418      1.00000
      3       6.1868      1.00000
      4       6.1868      1.00000
      5       7.2082      1.00000
      6       7.2082      1.00000
      7      31.2587      0.00000
      8      33.6077      0.00000
      9      34.6468      0.00000
     10      34.6468      0.00000
     11      38.1854      0.00000
     12      38.1854      0.00000

 k-point     2 :       0.1500    0.0500    0.0500
  band No.  band energies     occupation 
      1       0.4745      1.00000
      2       6.0230      1.00000
      3       6.2765      1.00000
      4       6.2886      1.00000
      5       7.1197      1.00000
      6       7.2334      1.00000
      7      28.8733      0.00000
      8      31.0971      0.00000
      9      33.6999      0.00000
     10      35.3137      0.00000
     11      38.0012      0.00000
     12      38.3779      0.00000

 k-point     3 :       0.2500    0.0500    0.0500
  band No.  band energies     occupation 
      1       1.6176      1.00000
      2       5.8592      1.00000
      3       6.3757      1.00000
      4       6.3998      1.00000
      5       7.1071      1.00000
      6       7.3363      1.00000
      7      23.8681      0.00000
      8      30.0507      0.00000
      9      33.1669      0.00000
     10      34.6593      0.00000
     11      37.6223      0.00000
     12      37.8454      0.00000

 k-point     4 :       0.3500    0.0500    0.0500
  band No.  band energies     occupation 
      1       3.0608      1.00000
      2       6.0086      1.00000
      3       6.3092      1.00000
      4       6.3503      1.00000
      5       7.3552      1.00000
      6       7.6350      1.00000
      7      19.1587      0.00000
      8      29.4783      0.00000
      9      32.0637      0.00000
     10      33.7835      0.00000
     11      35.7317      0.00000
     12      37.4278      0.00000

 k-point     5 :       0.4500    0.0500    0.0500
  band No.  band energies     occupation 
      1       3.8846      1.00000
      2       6.1917      1.00000
      3       6.2450      1.00000
      4       6.9979      1.00000
      5       7.6647      1.00000
      6       8.1506      1.03262
      7      15.2259      0.00000
      8      29.3392      0.00000
      9      31.2368      0.00000
     10      32.3148      0.00000
     11      35.2206      0.00000
     12      36.5757      0.00000

 k-point     6 :      -0.4500    0.0500    0.0500
  band No.  band energies     occupation 
      1       4.0069      1.00000
      2       6.1499      1.00000
      3       6.2194      1.00000
      4       7.3668      1.00000
      5       7.8087      1.00006
      6       8.7266     -0.02746
      7      13.7163     -0.00000
      8      29.5805      0.00000
      9      31.1475      0.00000
     10      31.2547      0.00000
     11      35.8036      0.00000
     12      35.9277      0.00000

 k-point     7 :      -0.3500    0.0500    0.0500
  band No.  band energies     occupation 
      1       3.7192      1.00000
      2       6.2155      1.00000
      3       6.2863      1.00000
      4       6.5899      1.00000
      5       7.7142      1.00000
      6       7.8084      1.00006
      7      16.4008      0.00000
      8      30.0575      0.00000
      9      30.6829      0.00000
     10      32.3000      0.00000
     11      35.8180      0.00000
     12      37.0631      0.00000

 k-point     8 :      -0.2500    0.0500    0.0500
  band No.  band energies     occupation 
      1       2.5940      1.00000
      2       5.8746      1.00000
      3       6.3442      1.00000
      4       6.3846      1.00000
      5       7.3129      1.00000
      6       7.4661      1.00000
      7      20.6647      0.00000
      8      30.7417      0.00000
      9      30.8984      0.00000
     10      34.0553      0.00000
     11      36.2070      0.00000
     12      38.9416      0.00000

 k-point     9 :      -0.1500    0.0500    0.0500
  band No.  band energies     occupation 
      1       1.1758      1.00000
      2       5.8974      1.00000
      3       6.3709      1.00000
      4       6.3761      1.00000
      5       7.0900      1.00000
      6       7.2759      1.00000
      7      25.5443      0.00000
      8      31.4788      0.00000
      9      31.6951      0.00000
     10      35.3919      0.00000
     11      36.8355      0.00000
     12      40.3888      0.00000

 k-point    10 :      -0.0500    0.0500    0.0500
  band No.  band energies     occupation 
      1       0.2323      1.00000
      2       6.0664      1.00000
      3       6.2432      1.00000
      4       6.2459      1.00000
      5       7.1345      1.00000
      6       7.2399      1.00000
      7      30.3350      0.00000
      8      32.4183      0.00000
      9      33.0041      0.00000
     10      34.6428      0.00000
     11      38.2389      0.00000
     12      39.7489      0.00000

 k-point    11 :       0.1500    0.1500    0.0500
  band No.  band energies     occupation 
      1       0.7145      1.00000
      2       5.9163      1.00000
      3       6.3653      1.00000
      4       6.3679      1.00000
      5       7.0064      1.00000
      6       7.3017      1.00000
      7      29.0570      0.00000
      8      31.1460      0.00000
      9      31.2188      0.00000
     10      33.4312      0.00000
     11      38.2413      0.00000
     12      40.0710      0.00000

 k-point    12 :       0.2500    0.1500    0.0500
  band No.  band energies     occupation 
      1       1.6294      1.00000
      2       5.7174      1.00000
      3       6.4436      1.00000
      4       6.5447      1.00000
      5       6.9550      1.00000
      6       7.4147      1.00000
      7      25.8882      0.00000
      8      28.0229      0.00000
      9      31.7971      0.00000
     10      33.1462      0.00000
     11      36.3368      0.00000
     12      40.3069      0.00000

 k-point    13 :       0.3500    0.1500    0.0500
  band No.  band energies     occupation 
      1       2.9923      1.00000
      2       5.6266      1.00000
      3       6.2692      1.00000
      4       6.5785      1.00000
      5       7.3119      1.00000
      6       7.7299      1.00001
      7      21.0244      0.00000
      8      27.2526      0.00000
      9      30.3034      0.00000
     10      32.3241      0.00000
     11      38.2581      0.00000
     12      38.9273      0.00000

 k-point    14 :       0.4500    0.1500    0.0500
  band No.  band energies     occupation 
      1       4.0454      1.00000
      2       5.9586      1.00000
      3       6.1395      1.00000
      4       6.4871      1.00000
      5       7.7007      1.00000
      6       8.5768      0.02232
      7      16.7189      0.00000
      8      27.0802      0.00000
      9      28.5498      0.00000
     10      31.5773      0.00000
     11      37.7584      0.00000
     12      40.0383      0.00000

 k-point    15 :      -0.4500    0.1500    0.0500
  band No.  band energies     occupation 
      1       4.2967      1.00000
      2       5.9412      1.00000
      3       6.4086      1.00000
      4       6.5964      1.00000
      5       7.7825      1.00003
      6       9.9991     -0.00000
      7      13.8473     -0.00000
      8      26.7324      0.00000
      9      28.0425      0.00000
     10      31.4934      0.00000
     11      37.0266      0.00000
     12      39.6850      0.00000

 k-point    16 :      -0.3500    0.1500    0.0500
  band No.  band energies     occupation 
      1       4.2004      1.00000
      2       6.0080      1.00000
      3       6.3307      1.00000
      4       6.4486      1.00000
      5       7.6145      1.00000
      6       9.1362     -0.00000
      7      15.5091      0.00000
      8      26.0041      0.00000
      9      29.2412      0.00000
     10      32.1927      0.00000
     11      36.6698      0.00000
     12      39.3947      0.00000

 k-point    17 :      -0.2500    0.1500    0.0500
  band No.  band energies     occupation 
      1       3.4460      1.00000
      2       5.7440      1.00000
      3       6.1922      1.00000
      4       6.5400      1.00000
      5       7.2465      1.00000
      6       8.0790      1.01710
      7      19.5193      0.00000
      8      25.8839      0.00000
      9      31.0911      0.00000
     10      33.6291      0.00000
     11      36.7143      0.00000
     12      38.6753      0.00000

 k-point    18 :      -0.1500    0.1500    0.0500
  band No.  band energies     occupation 
      1       2.0575      1.00000
      2       5.7125      1.00000
      3       6.3703      1.00000
      4       6.5722      1.00000
      5       6.9540      1.00000
      6       7.5564      1.00000
      7      24.2251      0.00000
      8      26.4227      0.00000
      9      33.2750      0.00000
     10      34.6326      0.00000
     11      37.2600      0.00000
     12      37.9454      0.00000

 k-point    19 :      -0.0500    0.1500    0.0500
  band No.  band energies     occupation 
      1       0.9486      1.00000
      2       5.9008      1.00000
      3       6.3687      1.00000
      4       6.3807      1.00000
      5       7.0271      1.00000
      6       7.3019      1.00000
      7      27.3380      0.00000
      8      29.5305      0.00000
      9      33.0539      0.00000
     10      35.0729      0.00000
     11      37.4542      0.00000
     12      39.5328      0.00000

 k-point    20 :       0.2500    0.2500    0.0500
  band No.  band energies     occupation 
      1       2.2603      1.00000
      2       5.4741      1.00000
      3       6.5850      1.00000
      4       6.7680      1.00000
      5       6.9175      1.00000
      6       7.4869      1.00000
      7      26.3124      0.00000
      8      27.6634      0.00000
      9      29.0085      0.00000
     10      29.9036      0.00000
     11      33.5235      0.00000
     12      44.1690      0.00000

 k-point    21 :       0.3500    0.2500    0.0500
  band No.  band energies     occupation 
      1       3.3263      1.00000
      2       5.2733      1.00000
      3       6.3841      1.00000
      4       6.9908      1.00000
      5       7.3426      1.00000
      6       7.7482      1.00001
      7      23.3460      0.00000
      8      25.3014      0.00000
      9      27.0543      0.00000
     10      30.4299      0.00000
     11      33.8343      0.00000
     12      43.6094      0.00000

[...]
      4       6.9404      1.00000
      5       8.2859      0.95959
      6       8.2859      0.95959
      7      17.8695      0.00000
      8      30.5929      0.00000
      9      32.2622      0.00000
     10      32.2622      0.00000
     11      36.2692      0.00000
     12      36.2692      0.00000

 k-point   102 :       0.4500    0.3500    0.3500
  band No.  band energies     occupation 
      1       4.1513      1.00000
      2       6.6864      1.00000
      3       6.8185      1.00000
      4       7.0061      1.00000
      5       8.2300      1.02276
      6       9.0111     -0.00014
      7      16.7926      0.00000
      8      27.0815      0.00000
      9      31.3745      0.00000
     10      32.2343      0.00000
     11      36.3694      0.00000
     12      37.6418      0.00000

 k-point   103 :      -0.4500    0.3500    0.3500
  band No.  band energies     occupation 
      1       4.9913      1.00000
      2       6.2641      1.00000
      3       6.5831      1.00000
      4       7.2900      1.00000
      5       8.2270      1.02447
      6      10.5027     -0.00000
      7      16.2033      0.00000
      8      22.6357      0.00000
      9      29.3522      0.00000
     10      30.5424      0.00000
     11      39.9481      0.00000
     12      39.9969      0.00000

 k-point   104 :      -0.3500    0.3500    0.3500
  band No.  band energies     occupation 
      1       5.5694      1.00000
      2       5.7554      1.00000
      3       6.5755      1.00000
      4       7.6654      1.00000
      5       8.3251      0.87173
      6      12.6834     -0.00000
      7      15.7513      0.00000
      8      19.0707      0.00000
      9      26.8030      0.00000
     10      29.6871      0.00000
     11      43.3582      0.00000
     12      43.3739      0.00000

 k-point   105 :       0.4500    0.4500    0.3500
  band No.  band energies     occupation 
      1       4.3894      1.00000
      2       6.6221      1.00000
      3       6.9920      1.00000
      4       7.0046      1.00000
      5       8.5600      0.05053
      6       9.1321     -0.00000
      7      15.6286      0.00000
      8      28.5240      0.00000
      9      29.4707      0.00000
     10      30.8101      0.00000
     11      37.6856      0.00000
     12      38.1250      0.00000

 k-point   106 :      -0.4500    0.4500    0.3500
  band No.  band energies     occupation 
      1       4.9238      1.00000
      2       6.2630      1.00000
      3       6.7947      1.00000
      4       7.2197      1.00000
      5       8.4826      0.26979
      6      10.5868     -0.00000
      7      14.9738      0.00000
      8      25.1565      0.00000
      9      26.5696      0.00000
     10      32.4963      0.00000
     11      36.9731      0.00000
     12      41.9124      0.00000

 k-point   107 :      -0.3500    0.4500    0.3500
  band No.  band energies     occupation 
      1       5.5384      1.00000
      2       5.7906      1.00000
      3       6.5432      1.00000
      4       7.5703      1.00000
      5       8.4784      0.28547
      6      12.7064     -0.00000
      7      14.7644      0.00000
      8      21.2210      0.00000
      9      24.2577      0.00000
     10      32.7467      0.00000
     11      38.7161      0.00000
     12      44.6586      0.00000

 k-point   108 :      -0.4500   -0.4500    0.3500
  band No.  band energies     occupation 
      1       5.1147      1.00000
      2       6.0736      1.00000
      3       6.8082      1.00000
      4       7.3134      1.00000
      5       8.5396      0.09416
      6      11.4399     -0.00000
      7      14.4031      0.00000
      8      23.5194      0.00000
      9      27.6139      0.00000
     10      29.8509      0.00000
     11      40.7047      0.00000
     12      40.9585      0.00000

 k-point   109 :       0.4500    0.4500    0.4500
  band No.  band energies     occupation 
      1       4.3098      1.00000
      2       6.8328      1.00000
      3       6.8328      1.00000
      4       7.8694      1.00030
      5       8.5309      0.11606
      6       8.5309      0.11606
      7      14.5934      0.00000
      8      30.0213      0.00000
      9      32.0229      0.00000
     10      32.0229      0.00000
     11      35.0953      0.00000
     12      35.0953      0.00000

 k-point   110 :      -0.4500    0.4500    0.4500
  band No.  band energies     occupation 
      1       4.5936      1.00000
      2       6.6299      1.00000
      3       6.9483      1.00000
      4       7.3251      1.00000
      5       8.5215      0.14176
      6       9.7881     -0.00000
      7      14.1564      0.00000
      8      27.5514      0.00000
      9      30.4254      0.00000
     10      30.6405      0.00000
     11      36.9743      0.00000
     12      37.6446      0.00000


--------------------------------------------------------------------------------------------------------


 soft charge-density along one line, spin component           1
         0         1         2         3         4         5         6         7         8         9
 total charge-density along one line
 
 soft charge-density along one line, spin component           2
         0         1         2         3         4         5         6         7         8         9
 total charge-density along one line
 
 pseudopotential strength for first ion, spin component:           1
 -1.205   0.000   0.000   0.000   0.000   0.000   0.000   0.000  -0.000   0.000  -1.856   0.000   0.000   0.000   0.000   0.000
  0.000   0.000  -1.205   0.000  -0.000   0.000   0.000   0.000   0.000   0.000   0.000   0.000  -1.856   0.000  -0.000   0.000
  0.000   0.000  -0.000   0.000  -1.101   0.000  -0.000   0.000   0.000   0.000   0.000   0.000  -0.000   0.000  -1.757   0.000
  0.000   0.000   0.000   0.000  -0.000   0.000  -1.205   0.000  -0.000   0.000   0.000   0.000   0.000   0.000  -0.000   0.000
 -0.000   0.000   0.000   0.000   0.000   0.000  -0.000   0.000  -1.101   0.000  -0.000   0.000   0.000   0.000   0.000   0.000
 -1.856   0.000   0.000   0.000   0.000   0.000   0.000   0.000  -0.000   0.000  -2.437   0.000   0.000   0.000   0.000   0.000
  0.000   0.000  -1.856   0.000  -0.000   0.000   0.000   0.000   0.000   0.000   0.000   0.000  -2.437   0.000  -0.000   0.000
  0.000   0.000  -0.000   0.000  -1.757   0.000  -0.000   0.000   0.000   0.000   0.000   0.000  -0.000   0.000  -2.342   0.000
  0.000   0.000   0.000   0.000  -0.000   0.000  -1.856   0.000  -0.000   0.000   0.000   0.000   0.000   0.000  -0.000   0.000
 -0.000   0.000   0.000   0.000   0.000   0.000  -0.000   0.000  -1.757   0.000  -0.000   0.000   0.000   0.000   0.000   0.000
 -0.000   0.000  -0.000   0.000   0.000   0.000  -0.000   0.000   0.000   0.000  -0.000   0.000  -0.000   0.000   0.000   0.000
 -0.000   0.000  -0.000   0.000   0.000   0.000  -0.000   0.000   0.000   0.000  -0.000   0.000  -0.000   0.000   0.000   0.000
 -0.000   0.000  -0.000   0.000   0.000   0.000   0.000   0.000   0.000   0.000  -0.000   0.000  -0.000   0.000   0.000   0.000
  0.000   0.000  -0.000   0.000  -0.000   0.000  -0.000   0.000   0.000   0.000   0.000   0.000  -0.000   0.000  -0.000   0.000
 -0.000   0.000   0.000   0.000   0.000   0.000  -0.000   0.000  -0.000   0.000  -0.000   0.000   0.000   0.000   0.000   0.000
 -0.000   0.000  -0.000   0.000   0.000   0.000   0.000   0.000   0.000   0.000  -0.000   0.000  -0.000   0.000   0.000   0.000
  0.000   0.000  -0.000   0.000  -0.000   0.000  -0.000   0.000   0.000   0.000   0.000   0.000  -0.000   0.000  -0.000   0.000
 -0.000   0.000   0.000   0.000   0.000   0.000  -0.000   0.000  -0.000   0.000  -0.000   0.000   0.000   0.000   0.000   0.000
 pseudopotential strength for first ion, spin component:           2
 -0.571   0.000   0.000   0.000   0.000   0.000   0.000   0.000  -0.000   0.000  -1.252   0.000   0.000   0.000   0.000   0.000
  0.000   0.000  -0.571   0.000  -0.000   0.000   0.000   0.000   0.000   0.000   0.000   0.000  -1.252   0.000  -0.000   0.000
  0.000   0.000  -0.000   0.000  -0.599   0.000  -0.000   0.000   0.000   0.000   0.000   0.000  -0.000   0.000  -1.278   0.000
  0.000   0.000   0.000   0.000  -0.000   0.000  -0.571   0.000  -0.000   0.000   0.000   0.000   0.000   0.000  -0.000   0.000
 -0.000   0.000   0.000   0.000   0.000   0.000  -0.000   0.000  -0.599   0.000  -0.000   0.000   0.000   0.000   0.000   0.000
 -1.252   0.000   0.000   0.000   0.000   0.000   0.000   0.000  -0.000   0.000  -1.861   0.000   0.000   0.000   0.000   0.000
  0.000   0.000  -1.252   0.000  -0.000   0.000   0.000   0.000   0.000   0.000   0.000   0.000  -1.861   0.000  -0.000   0.000
  0.000   0.000  -0.000   0.000  -1.278   0.000  -0.000   0.000   0.000   0.000   0.000   0.000  -0.000   0.000  -1.886   0.000
  0.000   0.000   0.000   0.000  -0.000   0.000  -1.252   0.000  -0.000   0.000   0.000   0.000   0.000   0.000  -0.000   0.000
 -0.000   0.000   0.000   0.000   0.000   0.000  -0.000   0.000  -1.278   0.000  -0.000   0.000   0.000   0.000   0.000   0.000
 -0.000   0.000  -0.000   0.000  -0.000   0.000  -0.000   0.000   0.000   0.000  -0.000   0.000  -0.000   0.000  -0.000   0.000
 -0.000   0.000  -0.000   0.000  -0.000   0.000  -0.000   0.000   0.000   0.000  -0.000   0.000  -0.000   0.000  -0.000   0.000
 -0.000   0.000  -0.000   0.000   0.000   0.000   0.000   0.000   0.000   0.000  -0.000   0.000  -0.000   0.000   0.000   0.000
  0.000   0.000  -0.000   0.000  -0.000   0.000  -0.000   0.000   0.000   0.000   0.000   0.000  -0.000   0.000  -0.000   0.000
 -0.000   0.000   0.000   0.000   0.000   0.000  -0.000   0.000  -0.000   0.000  -0.000   0.000   0.000   0.000   0.000   0.000
 -0.000   0.000  -0.000   0.000   0.000   0.000   0.000   0.000   0.000   0.000  -0.000   0.000  -0.000   0.000   0.000   0.000
  0.000   0.000  -0.000   0.000  -0.000   0.000  -0.000   0.000   0.000   0.000   0.000   0.000  -0.000   0.000  -0.000   0.000
 -0.000   0.000   0.000   0.000   0.000   0.000  -0.000   0.000  -0.000   0.000  -0.000   0.000   0.000   0.000   0.000   0.000
 total augmentation occupancy for first ion, spin component:           1
  2.573   0.000   0.000   0.000   0.000  -1.017  -0.000  -0.000  -0.000   0.000  -0.000  -0.000   0.000   0.000   0.000   0.000
  0.000   2.573   0.000   0.000   0.000  -0.000  -1.017  -0.000  -0.000  -0.000   0.000  -0.000   0.000   0.000   0.000   0.000
  0.000   0.000   3.279   0.000   0.000   0.000  -0.000  -1.323  -0.000  -0.000   0.000   0.000   0.000   0.000   0.000   0.000
  0.000   0.000   0.000   2.573  -0.000  -0.000  -0.000  -0.000  -1.017   0.000   0.000  -0.000   0.000   0.000   0.000   0.000
 -0.000  -0.000   0.000  -0.000   3.279   0.000  -0.000  -0.000   0.000  -1.323   0.000   0.000   0.000   0.000   0.000   0.000
 -1.017  -0.000   0.000  -0.000   0.000   1.165  -0.000   0.000  -0.000  -0.000   0.000   0.000   0.000   0.000   0.000   0.000
 -0.000  -1.017  -0.000  -0.000   0.000  -0.000   1.165  -0.000  -0.000   0.000  -0.000   0.000   0.000   0.000   0.000   0.000
  0.000  -0.000  -1.323  -0.000  -0.000   0.000  -0.000   1.193  -0.000  -0.000   0.000  -0.000   0.000   0.000   0.000   0.000
 -0.000  -0.000  -0.000  -1.017  -0.000  -0.000  -0.000  -0.000   1.165  -0.000   0.000   0.000   0.000   0.000   0.000   0.000
  0.000  -0.000   0.000   0.000  -1.323  -0.000   0.000   0.000  -0.000   1.193   0.000  -0.000   0.000   0.000   0.000   0.000
 -0.000   0.000   0.000   0.000   0.000   0.000  -0.000   0.000   0.000   0.000   2.102  -0.275   0.000   0.000   0.000   0.000
  0.000  -0.000   0.000  -0.000   0.000   0.000   0.000  -0.000  -0.000  -0.000  -0.275   0.043   0.000   0.000   0.000   0.000
  0.000   0.000   0.000   0.000   0.000   0.000   0.000   0.000   0.000   0.000   0.000   0.000   0.263   0.000   0.000  -0.027
  0.000   0.000   0.000   0.000   0.000   0.000   0.000   0.000   0.000   0.000   0.000   0.000   0.000   0.263   0.000   0.000
  0.000   0.000   0.000   0.000   0.000   0.000   0.000   0.000   0.000   0.000   0.000   0.000   0.000   0.000   0.263  -0.000
  0.000   0.000   0.000   0.000   0.000   0.000   0.000   0.000   0.000   0.000   0.000   0.000  -0.027   0.000  -0.000   0.003
  0.000   0.000   0.000   0.000   0.000   0.000   0.000   0.000   0.000   0.000   0.000   0.000  -0.000  -0.027   0.000   0.000
  0.000   0.000   0.000   0.000   0.000   0.000   0.000   0.000   0.000   0.000   0.000   0.000   0.000  -0.000  -0.027   0.000
 total augmentation occupancy for first ion, spin component:           2
  0.965   0.000   0.000   0.000  -0.000  -0.461  -0.000  -0.000  -0.000  -0.000   0.000   0.000   0.000   0.000   0.000   0.000
  0.000   0.965   0.000  -0.000   0.000  -0.000  -0.461  -0.000  -0.000  -0.000   0.000  -0.000   0.000   0.000   0.000   0.000
  0.000   0.000   0.552   0.000   0.000   0.000  -0.000  -0.265  -0.000   0.000  -0.000  -0.000   0.000   0.000   0.000   0.000
  0.000   0.000   0.000   0.965  -0.000  -0.000  -0.000  -0.000  -0.461   0.000  -0.000  -0.000   0.000   0.000   0.000   0.000
 -0.000   0.000   0.000  -0.000   0.552   0.000  -0.000   0.000   0.000  -0.265  -0.000   0.000   0.000   0.000   0.000   0.000
 -0.461  -0.000  -0.000  -0.000  -0.000   0.139   0.000   0.000   0.000  -0.000  -0.000   0.000   0.000   0.000   0.000   0.000
 -0.000  -0.461   0.000  -0.000  -0.000   0.000   0.139   0.000   0.000   0.000  -0.000   0.000   0.000   0.000   0.000   0.000
 -0.000  -0.000  -0.265  -0.000   0.000  -0.000  -0.000   0.066   0.000   0.000  -0.000   0.000   0.000   0.000   0.000   0.000
 -0.000  -0.000   0.000  -0.461  -0.000   0.000   0.000   0.000   0.139  -0.000   0.000   0.000   0.000   0.000   0.000   0.000
 -0.000  -0.000   0.000   0.000  -0.265   0.000   0.000   0.000  -0.000   0.066  -0.000   0.000   0.000   0.000   0.000   0.000
  0.000  -0.000   0.000   0.000  -0.000  -0.000  -0.000  -0.000  -0.000  -0.000  -0.122   0.039   0.000   0.000   0.000   0.000
  0.000   0.000  -0.000   0.000   0.000   0.000   0.000   0.000   0.000   0.000   0.039  -0.007   0.000   0.000   0.000   0.000
  0.000   0.000   0.000   0.000   0.000   0.000   0.000   0.000   0.000   0.000   0.000   0.000  -0.017  -0.000   0.000   0.002
  0.000   0.000   0.000   0.000   0.000   0.000   0.000   0.000   0.000   0.000   0.000   0.000  -0.000  -0.017   0.000   0.000
  0.000   0.000   0.000   0.000   0.000   0.000   0.000   0.000   0.000   0.000   0.000   0.000   0.000   0.000  -0.017   0.000
  0.000   0.000   0.000   0.000   0.000   0.000   0.000   0.000   0.000   0.000   0.000   0.000   0.002   0.000   0.000  -0.000
  0.000   0.000   0.000   0.000   0.000   0.000   0.000   0.000   0.000   0.000   0.000   0.000   0.000   0.002  -0.000   0.000
  0.000   0.000   0.000   0.000   0.000   0.000   0.000   0.000   0.000   0.000   0.000   0.000  -0.000   0.000   0.002   0.000


------------------------ aborting loop because EDIFF is reached ----------------------------------------


    CHARGE:  cpu time    0.0043: real time    0.0043
    FORLOC:  cpu time    0.0002: real time    0.0001
    FORNL :  cpu time    0.0113: real time    0.0114
    STRESS:  cpu time    0.0451: real time    0.0452
    FORCOR:  cpu time    0.0025: real time    0.0025
    FORHAR:  cpu time    0.0004: real time    0.0004
    MIXING:  cpu time    0.0004: real time    0.0003
    OFIELD:  cpu time    0.0000: real time    0.0000

  FORCE on cell =-STRESS in cart. coord.  units (eV):
  Direction    XX          YY          ZZ          XY          YZ          ZX
  --------------------------------------------------------------------------------------
  Alpha Z    43.72377    43.72377    43.72377
  Ewald    -305.65296  -305.65296  -305.65296     0.00000     0.00000    -0.00000
  Hartree    78.37354    78.37354    78.37354    -0.00000    -0.00000    -0.00000
  E(xc)     -54.85516   -54.85516   -54.85516    -0.00046    -0.00046    -0.00046
  Local      -7.18519    -7.18519    -7.18519     0.00305     0.00305     0.00305
  n-local    -8.89326    -8.41622   -10.88899     1.63728    -1.74893     0.04039
  augment   176.35553   176.35553   176.35553    -0.00133    -0.00133    -0.00133
  Kinetic    76.71506    76.86825    78.92773    -0.71194     0.63819     0.02916
  Fock        0.00000     0.00000     0.00000     0.00000     0.00000     0.00000
  -------------------------------------------------------------------------------------
  Total      -1.13629    -1.13629    -1.13629     0.00000     0.00000    -0.00000
  in kB    -156.08181  -156.08181  -156.08181     0.00000     0.00000    -0.00000
  external pressure =     -156.08 kB  Pullay stress =        0.00 kB


 VOLUME and BASIS-vectors are now :
 -----------------------------------------------------------------------------
  energy-cutoff  :      270.00
  volume of cell :       11.66
      direct lattice vectors                 reciprocal lattice vectors
     0.000000000  1.800000000  1.800000000    -0.277777778  0.277777778  0.277777778
     1.800000000  0.000000000  1.800000000     0.277777778 -0.277777778  0.277777778
     1.800000000  1.800000000  0.000000000     0.277777778  0.277777778 -0.277777778

  length of vectors
     2.545584412  2.545584412  2.545584412     0.481125224  0.481125224  0.481125224


 FORCES acting on ions
    electron-ion (+dipol)            ewald-force                    non-local-force                 convergence-correction
 -----------------------------------------------------------------------------------------------
   0.485E-13 0.586E-13 0.558E-13   0.293E-15 0.119E-14 -.197E-15   0.000E+00 0.132E-22 -.132E-22   0.720E-14 0.423E-13 0.305E-13
 -----------------------------------------------------------------------------------------------
   0.485E-13 0.586E-13 0.558E-13   0.293E-15 0.119E-14 -.197E-15   0.000E+00 0.132E-22 -.132E-22   0.720E-14 0.423E-13 0.305E-13
 
 
 POSITION                                       TOTAL-FORCE (eV/Angst)
 -----------------------------------------------------------------------------------
      0.00000      0.00000      0.00000         0.000000     -0.000000      0.000000
 -----------------------------------------------------------------------------------
    total drift:                                0.000000      0.000000      0.000000


--------------------------------------------------------------------------------------------------------



  FREE ENERGIE OF THE ION-ELECTRON SYSTEM (eV)
  ---------------------------------------------------
  free  energy   TOTEN  =        -5.43585245 eV

  energy  without entropy=       -5.43317101  energy(sigma->0) =       -5.43495864
 


--------------------------------------------------------------------------------------------------------


    POTLOK:  cpu time    0.0064: real time    0.0065


--------------------------------------------------------------------------------------------------------


 writing wavefunctions
     LOOP+:  cpu time    3.6394: real time    3.7199
    4ORBIT:  cpu time    0.0000: real time    0.0000

 total amount of memory used by VASP MPI-rank0    34084. kBytes
=======================================================================

   base      :      30000. kBytes
   nonl-proj :       2029. kBytes
   fftplans  :        142. kBytes
   grid      :        320. kBytes
   one-center:         31. kBytes
   wavefun   :       1562. kBytes
 
  
  
 General timing and accounting informations for this job:
 ========================================================
  
                  Total CPU time used (sec):        4.083
                            User time (sec):        3.572
                          System time (sec):        0.511
                         Elapsed time (sec):        4.203
  
                   Maximum memory used (kb):       59336.
                   Average memory used (kb):           0.
  
                          Minor page faults:        39403
                          Major page faults:            0
                 Voluntary context switches:         4025
