<?xml version="1.0" encoding="ISO-8859-1"?>
<modeling>
 <generator>
  <i name="program" type="string">vasp </i>
  <i name="version" type="string">5.4.4.18Apr17-6-g9f103f2a35  </i>
  <i name="subversion" type="string">(build Jul 01 2019 03:25:34) complex            parallel </i>
  <i name="platform" type="string">LinuxIFC </i>
  <i name="date" type="string">2020 07 09 </i>
  <i name="time" type="string">19:35:39 </i>
 </generator>
 <incar>
  <i type="string" name="SYSTEM"> fcc Ni</i>
  <i type="string" name="PREC">normal</i>
  <i type="int" name="ISPIN">     2</i>
  <i name="EDIFF">      0.00010000</i>
  <i name="ENCUT">    270.00000000</i>
  <v name="MAGMOM">      3.00000000</v>
  <v type="int" name="KPOINT_BSE">    -1     0     0     0</v>
 </incar>
 <structure name="primitive_cell" >
  <crystal>
   <varray name="basis" >
    <v>       0.00000000       1.80000000       1.80000000 </v>
    <v>       1.80000000       0.00000000       1.80000000 </v>
    <v>       1.80000000       1.80000000       0.00000000 </v>
   </varray>
   <i name="volume">     11.66400000 </i>
   <varray name="rec_basis" >
    <v>      -0.27777778       0.27777778       0.27777778 </v>
    <v>       0.27777778      -0.27777778       0.27777778 </v>
    <v>       0.27777778       0.27777778      -0.27777778 </v>
   </varray>
  </crystal>
  <varray name="positions" >
   <v>       0.00000000       0.00000000       0.00000000 </v>
  </varray>
 </structure>
 <varray name="primitive_index" >
  <v type="int" >        1 </v>
 </varray>
 <kpoints>
  <generation param="Monkhorst-Pack">
   <v type="int" name="divisions">      10       10       10 </v>
   <v name="usershift">      0.00000000       0.00000000       0.00000000 </v>
   <v name="genvec1">      0.10000000       0.00000000       0.00000000 </v>
   <v name="genvec2">      0.00000000       0.10000000       0.00000000 </v>
   <v name="genvec3">      0.00000000       0.00000000       0.10000000 </v>
   <v name="shift">      0.50000000       0.50000000       0.50000000 </v>
  </generation>
  <varray name="kpointlist" >
   <v>       0.05000000       0.05000000       0.05000000 </v>
   <v>       0.15000000       0.05000000       0.05000000 </v>
   <v>       0.25000000       0.05000000       0.05000000 </v>
   <v>       0.35000000       0.05000000       0.05000000 </v>
   <v>       0.45000000       0.05000000       0.05000000 </v>
   <v>      -0.45000000       0.05000000       0.05000000 </v>
   <v>      -0.35000000       0.05000000       0.05000000 </v>
   <v>      -0.25000000       0.05000000       0.05000000 </v>
   <v>      -0.15000000       0.05000000       0.05000000 </v>
   <v>      -0.05000000       0.05000000       0.05000000 </v>
   <v>       0.15000000       0.15000000       0.05000000 </v>
   <v>       0.25000000       0.15000000       0.05000000 </v>
   <v>       0.35000000       0.15000000       0.05000000 </v>
   <v>       0.45000000       0.15000000       0.05000000 </v>
   <v>      -0.45000000       0.15000000       0.05000000 </v>
   <v>      -0.35000000       0.15000000       0.05000000 </v>
   <v>      -0.25000000       0.15000000       0.05000000 </v>
   <v>      -0.15000000       0.15000000       0.05000000 </v>
   <v>      -0.05000000       0.15000000       0.05000000 </v>
   <v>       0.25000000       0.25000000       0.05000000 </v>
   <v>       0.35000000       0.25000000       0.05000000 </v>
   <v>       0.45000000       0.25000000       0.05000000 </v>
   <v>      -0.45000000       0.25000000       0.05000000 </v>
   <v>      -0.35000000       0.25000000       0.05000000 </v>
   <v>      -0.25000000       0.25000000       0.05000000 </v>
   <v>      -0.15000000       0.25000000       0.05000000 </v>
   <v>      -0.05000000       0.25000000       0.05000000 </v>
   <v>       0.35000000       0.35000000       0.05000000 </v>
   <v>       0.45000000       0.35000000       0.05000000 </v>
   <v>      -0.45000000       0.35000000       0.05000000 </v>
   <v>      -0.35000000       0.35000000       0.05000000 </v>
   <v>      -0.25000000       0.35000000       0.05000000 </v>
   <v>      -0.15000000       0.35000000       0.05000000 </v>
   <v>      -0.05000000       0.35000000       0.05000000 </v>
   <v>       0.45000000       0.45000000       0.05000000 </v>
   <v>      -0.45000000       0.45000000       0.05000000 </v>
   <v>      -0.35000000       0.45000000       0.05000000 </v>
   <v>      -0.25000000       0.45000000       0.05000000 </v>
   <v>      -0.15000000       0.45000000       0.05000000 </v>
   <v>      -0.05000000       0.45000000       0.05000000 </v>
   <v>      -0.45000000      -0.45000000       0.05000000 </v>
   <v>      -0.35000000      -0.45000000       0.05000000 </v>
   <v>      -0.25000000      -0.45000000       0.05000000 </v>
   <v>      -0.15000000      -0.45000000       0.05000000 </v>
   <v>      -0.35000000      -0.35000000       0.05000000 </v>
   <v>      -0.25000000      -0.35000000       0.05000000 </v>
   <v>      -0.15000000      -0.35000000       0.05000000 </v>
   <v>      -0.25000000      -0.25000000       0.05000000 </v>
   <v>      -0.15000000      -0.25000000       0.05000000 </v>
   <v>      -0.15000000      -0.15000000       0.05000000 </v>
   <v>       0.15000000       0.15000000       0.15000000 </v>
   <v>       0.25000000       0.15000000       0.15000000 </v>
   <v>       0.35000000       0.15000000       0.15000000 </v>
   <v>       0.45000000       0.15000000       0.15000000 </v>
   <v>      -0.45000000       0.15000000       0.15000000 </v>
   <v>      -0.35000000       0.15000000       0.15000000 </v>
   <v>      -0.25000000       0.15000000       0.15000000 </v>
   <v>      -0.15000000       0.15000000       0.15000000 </v>
   <v>       0.25000000       0.25000000       0.15000000 </v>
   <v>       0.35000000       0.25000000       0.15000000 </v>
   <v>       0.45000000       0.25000000       0.15000000 </v>
   <v>      -0.45000000       0.25000000       0.15000000 </v>
   <v>      -0.35000000       0.25000000       0.15000000 </v>
   <v>      -0.25000000       0.25000000       0.15000000 </v>
   <v>      -0.15000000       0.25000000       0.15000000 </v>
   <v>       0.35000000       0.35000000       0.15000000 </v>
   <v>       0.45000000       0.35000000       0.15000000 </v>
   <v>      -0.45000000       0.35000000       0.15000000 </v>
   <v>      -0.35000000       0.35000000       0.15000000 </v>
   <v>      -0.25000000       0.35000000       0.15000000 </v>
   <v>      -0.15000000       0.35000000       0.15000000 </v>
   <v>       0.45000000       0.45000000       0.15000000 </v>
   <v>      -0.45000000       0.45000000       0.15000000 </v>
   <v>      -0.35000000       0.45000000       0.15000000 </v>
   <v>      -0.25000000       0.45000000       0.15000000 </v>
   <v>      -0.15000000       0.45000000       0.15000000 </v>
   <v>      -0.45000000      -0.45000000       0.15000000 </v>
   <v>      -0.35000000      -0.45000000       0.15000000 </v>
   <v>      -0.25000000      -0.45000000       0.15000000 </v>
   <v>      -0.35000000      -0.35000000       0.15000000 </v>
   <v>      -0.25000000      -0.35000000       0.15000000 </v>
   <v>      -0.25000000      -0.25000000       0.15000000 </v>
   <v>       0.25000000       0.25000000       0.25000000 </v>
   <v>       0.35000000       0.25000000       0.25000000 </v>
   <v>       0.45000000       0.25000000       0.25000000 </v>
   <v>      -0.45000000       0.25000000       0.25000000 </v>
   <v>      -0.35000000       0.25000000       0.25000000 </v>
   <v>      -0.25000000       0.25000000       0.25000000 </v>
   <v>       0.35000000       0.35000000       0.25000000 </v>
   <v>       0.45000000       0.35000000       0.25000000 </v>
   <v>      -0.45000000       0.35000000       0.25000000 </v>
   <v>      -0.35000000       0.35000000       0.25000000 </v>
   <v>      -0.25000000       0.35000000       0.25000000 </v>
   <v>       0.45000000       0.45000000       0.25000000 </v>
   <v>      -0.45000000       0.45000000       0.25000000 </v>
   <v>      -0.35000000       0.45000000       0.25000000 </v>
   <v>      -0.25000000       0.45000000       0.25000000 </v>
   <v>      -0.45000000      -0.45000000       0.25000000 </v>
   <v>      -0.35000000      -0.45000000       0.25000000 </v>
   <v>      -0.35000000      -0.35000000       0.25000000 </v>
   <v>       0.35000000       0.35000000       0.35000000 </v>
   <v>       0.45000000       0.35000000       0.35000000 </v>
   <v>      -0.45000000       0.35000000       0.35000000 </v>
   <v>      -0.35000000       0.35000000       0.35000000 </v>
   <v>       0.45000000       0.45000000       0.35000000 </v>
   <v>      -0.45000000       0.45000000       0.35000000 </v>
   <v>      -0.35000000       0.45000000       0.35000000 </v>
   <v>      -0.45000000      -0.45000000       0.35000000 </v>
   <v>       0.45000000       0.45000000       0.45000000 </v>
   <v>      -0.45000000       0.45000000       0.45000000 </v>
  </varray>
  <varray name="weights" >
   <v>       0.00200000 </v>
   <v>       0.00600000 </v>
   <v>       0.00600000 </v>
   <v>       0.00600000 </v>
   <v>       0.00600000 </v>
   <v>       0.00600000 </v>
   <v>       0.00600000 </v>
   <v>       0.00600000 </v>
   <v>       0.00600000 </v>
   <v>       0.00600000 </v>
   <v>       0.00600000 </v>
   <v>       0.01200000 </v>
   <v>       0.01200000 </v>
   <v>       0.01200000 </v>
   <v>       0.01200000 </v>
   <v>       0.01200000 </v>
   <v>       0.01200000 </v>
   <v>       0.01200000 </v>
   <v>       0.01200000 </v>
   <v>       0.00600000 </v>
   <v>       0.01200000 </v>
   <v>       0.01200000 </v>
   <v>       0.01200000 </v>
   <v>       0.01200000 </v>
   <v>       0.01200000 </v>
   <v>       0.01200000 </v>
   <v>       0.01200000 </v>
   <v>       0.00600000 </v>
   <v>       0.01200000 </v>
   <v>       0.01200000 </v>
   <v>       0.01200000 </v>
   <v>       0.01200000 </v>
   <v>       0.01200000 </v>
   <v>       0.01200000 </v>
   <v>       0.00600000 </v>
   <v>       0.01200000 </v>
   <v>       0.01200000 </v>
   <v>       0.01200000 </v>
   <v>       0.01200000 </v>
   <v>       0.01200000 </v>
   <v>       0.00600000 </v>
   <v>       0.01200000 </v>
   <v>       0.01200000 </v>
   <v>       0.01200000 </v>
   <v>       0.00600000 </v>
   <v>       0.01200000 </v>
   <v>       0.01200000 </v>
   <v>       0.00600000 </v>
   <v>       0.01200000 </v>
   <v>       0.00600000 </v>
   <v>       0.00200000 </v>
   <v>       0.00600000 </v>
   <v>       0.00600000 </v>
   <v>       0.00600000 </v>
   <v>       0.00600000 </v>
   <v>       0.00600000 </v>
   <v>       0.00600000 </v>
   <v>       0.00600000 </v>
   <v>       0.00600000 </v>
   <v>       0.01200000 </v>
   <v>       0.01200000 </v>
   <v>       0.01200000 </v>
   <v>       0.01200000 </v>
   <v>       0.01200000 </v>
   <v>       0.01200000 </v>
   <v>       0.00600000 </v>
   <v>       0.01200000 </v>
   <v>       0.01200000 </v>
   <v>       0.01200000 </v>
   <v>       0.01200000 </v>
   <v>       0.01200000 </v>
   <v>       0.00600000 </v>
   <v>       0.01200000 </v>
   <v>       0.01200000 </v>
   <v>       0.01200000 </v>
   <v>       0.01200000 </v>
   <v>       0.00600000 </v>
   <v>       0.01200000 </v>
   <v>       0.01200000 </v>
   <v>       0.00600000 </v>
   <v>       0.01200000 </v>
   <v>       0.00600000 </v>
   <v>       0.00200000 </v>
   <v>       0.00600000 </v>
   <v>       0.00600000 </v>
   <v>       0.00600000 </v>
   <v>       0.00600000 </v>
   <v>       0.00600000 </v>
   <v>       0.00600000 </v>
   <v>       0.01200000 </v>
   <v>       0.01200000 </v>
   <v>       0.01200000 </v>
   <v>       0.01200000 </v>
   <v>       0.00600000 </v>
   <v>       0.01200000 </v>
   <v>       0.01200000 </v>
   <v>       0.01200000 </v>
   <v>       0.00600000 </v>
   <v>       0.01200000 </v>
   <v>       0.00600000 </v>
   <v>       0.00200000 </v>
   <v>       0.00600000 </v>
   <v>       0.00600000 </v>
   <v>       0.00600000 </v>
   <v>       0.00600000 </v>
   <v>       0.01200000 </v>
   <v>       0.01200000 </v>
   <v>       0.00600000 </v>
   <v>       0.00200000 </v>
   <v>       0.00600000 </v>
  </varray>
 </kpoints>
 <parameters>
  <separator name="general" >
   <i type="string" name="SYSTEM">fcc Ni</i>
   <i type="logical" name="LCOMPAT"> F  </i>
  </separator>
  <separator name="electronic" >
   <i type="string" name="PREC">normal</i>
   <i name="ENMAX">    270.00000000</i>
   <i name="ENAUG">    544.56500000</i>
   <i name="EDIFF">      0.00010000</i>
   <i type="int" name="IALGO">    38</i>
   <i type="int" name="IWAVPR">    10</i>
   <i type="int" name="NBANDS">    12</i>
   <i name="NELECT">     10.00000000</i>
   <i type="int" name="TURBO">     0</i>
   <i type="int" name="IRESTART">     0</i>
   <i type="int" name="NREBOOT">     0</i>
   <i type="int" name="NMIN">     0</i>
   <i name="EREF">      0.00000000</i>
   <separator name="electronic smearing" >
    <i type="int" name="ISMEAR">     1</i>
    <i name="SIGMA">      0.20000000</i>
    <i name="KSPACING">      0.50000000</i>
    <i type="logical" name="KGAMMA"> T  </i>
   </separator>
   <separator name="electronic projectors" >
    <i type="logical" name="LREAL"> F  </i>
    <v name="ROPT">      0.00000000</v>
    <i type="int" name="LMAXPAW">  -100</i>
    <i type="int" name="LMAXMIX">     2</i>
    <i type="logical" name="NLSPLINE"> F  </i>
   </separator>
   <separator name="electronic startup" >
    <i type="int" name="ISTART">     0</i>
    <i type="int" name="ICHARG">     2</i>
    <i type="int" name="INIWAV">     1</i>
   </separator>
   <separator name="electronic spin" >
    <i type="int" name="ISPIN">     2</i>
    <i type="logical" name="LNONCOLLINEAR"> F  </i>
    <v name="MAGMOM">      3.00000000</v>
    <i name="NUPDOWN">     -1.00000000</i>
    <i type="logical" name="LSORBIT"> F  </i>
    <v name="SAXIS">      0.00000000      0.00000000      1.00000000</v>
    <i type="logical" name="LSPIRAL"> F  </i>
    <v name="QSPIRAL">      0.00000000      0.00000000      0.00000000</v>
    <i type="logical" name="LZEROZ"> F  </i>
   </separator>
   <separator name="electronic exchange-correlation" >
    <i type="logical" name="LASPH"> F  </i>
    <i type="logical" name="LMETAGGA"> F  </i>
   </separator>
   <separator name="electronic convergence" >
    <i type="int" name="NELM">    60</i>
    <i type="int" name="NELMDL">    -5</i>
    <i type="int" name="NELMIN">     2</i>
    <i name="ENINI">    270.00000000</i>
    <separator name="electronic convergence detail" >
     <i type="logical" name="LDIAG"> T  </i>
     <i type="logical" name="LSUBROT"> F  </i>
     <i name="WEIMIN">      0.00000000</i>
     <i name="EBREAK">      0.00000208</i>
     <i name="DEPER">      0.30000000</i>
     <i type="int" name="NRMM">     4</i>
     <i name="TIME">      0.40000000</i>
    </separator>
   </separator>
   <separator name="electronic mixer" >
    <i name="AMIX">      0.40000000</i>
    <i name="BMIX">      1.00000000</i>
    <i name="AMIN">      0.10000000</i>
    <i name="AMIX_MAG">      1.60000000</i>
    <i name="BMIX_MAG">      1.00000000</i>
    <separator name="electronic mixer details" >
     <i type="int" name="IMIX">     4</i>
     <i type="logical" name="MIXFIRST"> F  </i>
     <i type="int" name="MAXMIX">   -45</i>
     <i name="WC">    100.00000000</i>
     <i type="int" name="INIMIX">     1</i>
     <i type="int" name="MIXPRE">     1</i>
     <i type="int" name="MREMOVE">     5</i>
    </separator>
   </separator>
   <separator name="electronic dipolcorrection" >
    <i type="logical" name="LDIPOL"> F  </i>
    <i type="logical" name="LMONO"> F  </i>
    <i type="int" name="IDIPOL">     0</i>
    <i name="EPSILON">      1.00000000</i>
    <v name="DIPOL">   -100.00000000   -100.00000000   -100.00000000</v>
    <i name="EFIELD">      0.00000000</i>
   </separator>
  </separator>
  <separator name="grids" >
   <i type="int" name="NGX">    10</i>
   <i type="int" name="NGY">    10</i>
   <i type="int" name="NGZ">    10</i>
   <i type="int" name="NGXF">    20</i>
   <i type="int" name="NGYF">    20</i>
   <i type="int" name="NGZF">    20</i>
   <i type="logical" name="ADDGRID"> F  </i>
  </separator>
  <separator name="ionic" >
   <i type="int" name="NSW">     0</i>
   <i type="int" name="IBRION">    -1</i>
   <i type="int" name="MDALGO">     0</i>
   <i type="int" name="ISIF">     2</i>
   <i name="PSTRESS">      0.00000000</i>
   <i name="EDIFFG">      0.00100000</i>
   <i type="int" name="NFREE">     0</i>
   <i name="POTIM">      0.50000000</i>
   <i name="SMASS">     -3.00000000</i>
   <i name="SCALEE">      1.00000000</i>
  </separator>
  <separator name="ionic md" >
   <i name="TEBEG">      0.00010000</i>
   <i name="TEEND">      0.00010000</i>
   <i type="int" name="NBLOCK">     1</i>
   <i type="int" name="KBLOCK">     1</i>
   <i type="int" name="NPACO">   256</i>
   <i name="APACO">     16.00000000</i>
  </separator>
  <separator name="symmetry" >
   <i type="int" name="ISYM">     2</i>
   <i name="SYMPREC">      0.00001000</i>
  </separator>
  <separator name="dos" >
   <i type="int" name="LORBIT">     0</i>
   <v name="RWIGS">     -1.00000000</v>
   <i type="int" name="NEDOS">   301</i>
   <i name="EMIN">     10.00000000</i>
   <i name="EMAX">    -10.00000000</i>
   <i name="EFERMI">      0.00000000</i>
  </separator>
  <separator name="writing" >
   <i type="int" name="NWRITE">     2</i>
   <i type="logical" name="LWAVE"> T  </i>
   <i type="logical" name="LDOWNSAMPLE"> F  </i>
   <i type="logical" name="LCHARG"> T  </i>
   <i type="logical" name="LPARD"> F  </i>
   <i type="logical" name="LVTOT"> F  </i>
   <i type="logical" name="LVHAR"> F  </i>
   <i type="logical" name="LELF"> F  </i>
   <i type="logical" name="LOPTICS"> F  </i>
   <v name="STM">      0.00000000      0.00000000      0.00000000      0.00000000      0.00000000      0.00000000      0.00000000</v>
  </separator>
  <separator name="performance" >
   <i type="int" name="NPAR">     4</i>
   <i type="int" name="NSIM">     4</i>
   <i type="int" name="NBLK">    -1</i>
   <i type="logical" name="LPLANE"> T  </i>
   <i type="logical" name="LSCALAPACK"> T  </i>
   <i type="logical" name="LSCAAWARE"> F  </i>
   <i type="logical" name="LSCALU"> F  </i>
   <i type="logical" name="LASYNC"> F  </i>
   <i type="logical" name="LORBITALREAL"> F  </i>
  </separator>
  <separator name="miscellaneous" >
   <i type="int" name="IDIOT">     3</i>
   <i type="int" name="ISPECIAL">     0</i>
   <i type="logical" name="LMUSIC"> F  </i>
   <v name="POMASS">     58.69000000</v>
   <v name="DARWINR">      0.00000000</v>
   <v name="DARWINV">      1.00000000</v>
   <i type="logical" name="LCORR"> T  </i>
  </separator>
  <i type="logical" name="GGA_COMPAT"> T  </i>
  <i type="logical" name="LBERRY"> F  </i>
  <i type="int" name="ICORELEVEL">     0</i>
  <i type="logical" name="LDAU"> F  </i>
  <i type="int" name="I_CONSTRAINED_M">     0</i>
  <separator name="electronic exchange-correlation" >
   <i type="string" name="GGA">--</i>
   <i type="int" name="VOSKOWN">     0</i>
   <i type="logical" name="LHFCALC"> F  </i>
   <i type="string" name="PRECFOCK"></i>
   <i type="logical" name="LSYMGRAD"> F  </i>
   <i type="logical" name="LHFONE"> F  </i>
   <i type="logical" name="LRHFCALC"> F  </i>
   <i type="logical" name="LTHOMAS"> F  </i>
   <i type="logical" name="LMODELHF"> F  </i>
   <i name="ENCUT4O">     -1.00000000</i>
   <i type="int" name="EXXOEP">     0</i>
   <i type="int" name="FOURORBIT">     0</i>
   <i name="AEXX">      0.00000000</i>
   <i name="HFALPHA">      0.00000000</i>
   <i name="MCALPHA">      0.00000000</i>
   <i name="ALDAX">      1.00000000</i>
   <i name="AGGAX">      1.00000000</i>
   <i name="ALDAC">      1.00000000</i>
   <i name="AGGAC">      1.00000000</i>
   <i type="int" name="NKREDX">     1</i>
   <i type="int" name="NKREDY">     1</i>
   <i type="int" name="NKREDZ">     1</i>
   <i type="logical" name="SHIFTRED"> F  </i>
   <i type="logical" name="ODDONLY"> F  </i>
   <i type="logical" name="EVENONLY"> F  </i>
   <i type="int" name="LMAXFOCK">     0</i>
   <i type="int" name="NMAXFOCKAE">     0</i>
   <i type="logical" name="LFOCKAEDFT"> F  </i>
   <i name="HFSCREEN">      0.00000000</i>
   <i name="HFSCREENC">      0.00000000</i>
   <i type="int" name="NBANDSGWLOW">     0</i>
  </separator>
  <separator name="vdW DFT" >
   <i type="logical" name="LUSE_VDW"> F  </i>
   <i name="Zab_VDW">     -0.84910000</i>
   <i name="PARAM1">      0.12340000</i>
   <i name="PARAM2">      1.00000000</i>
   <i name="PARAM3">      0.00000000</i>
  </separator>
  <separator name="model GW" >
   <i type="int" name="MODEL_GW">     0</i>
   <i name="MODEL_EPS0">      6.99840000</i>
   <i name="MODEL_ALPHA">      1.00000000</i>
  </separator>
  <separator name="linear response parameters" >
   <i type="logical" name="LEPSILON"> F  </i>
   <i type="logical" name="LRPA"> F  </i>
   <i type="logical" name="LNABLA"> F  </i>
   <i type="logical" name="LVEL"> F  </i>
   <i type="int" name="KINTER">     0</i>
   <i name="CSHIFT">      0.10000000</i>
   <i name="OMEGAMAX">     -1.00000000</i>
   <i name="DEG_THRESHOLD">      0.00200000</i>
   <i name="RTIME">     -0.10000000</i>
   <i name="WPLASMAI">      0.00000000</i>
   <v name="DFIELD">      0.00000000      0.00000000      0.00000000</v>
   <v name="WPLASMA">      0.00000000      0.00000000      0.00000000      0.00000000      0.00000000      0.00000000      0.00000000      0.00000000      0.00000000</v>
  </separator>
  <separator name="orbital magnetization" >
   <i type="logical" name="NUCIND"> F  </i>
   <v name="MAGPOS">      0.00000000      0.00000000      0.00000000</v>
   <i type="logical" name="LNICSALL"> T  </i>
   <i type="logical" name="ORBITALMAG"> F  </i>
   <i type="logical" name="LMAGBLOCH"> F  </i>
   <i type="logical" name="LCHIMAG"> F  </i>
   <i type="logical" name="LGAUGE"> T  </i>
   <i type="int" name="MAGATOM">     0</i>
   <v name="MAGDIPOL">      0.00000000      0.00000000      0.00000000</v>
   <v name="AVECCONST">      0.00000000      0.00000000      0.00000000</v>
  </separator>
  <separator name="response functions" >
   <i type="logical" name="LADDER"> F  </i>
   <i type="logical" name="LRPAFORCE"> F  </i>
   <i type="logical" name="LFXC"> F  </i>
   <i type="logical" name="LHARTREE"> T  </i>
   <i type="int" name="IBSE">     0</i>
   <v type="int" name="KPOINT">    -1     0     0     0</v>
   <i type="logical" name="LTCTE"> F  </i>
   <i type="logical" name="LTETE"> F  </i>
   <i type="logical" name="LTRIPLET"> F  </i>
   <i type="logical" name="LFXCEPS"> F  </i>
   <i type="logical" name="LFXHEG"> F  </i>
   <i type="int" name="NATURALO">     2</i>
   <i type="logical" name="L2ORDER"> F  </i>
   <i type="logical" name="LMP2LT"> F  </i>
   <i type="logical" name="LUSEW"> F  </i>
   <i name="ENCUTGW">     -2.00000000</i>
   <i name="ENCUTGWSOFT">     -2.00000000</i>
   <i name="ENCUTLF">     -1.00000000</i>
   <i type="int" name="LMAXMP2">    -1</i>
   <i name="SCISSOR">      0.00000000</i>
   <i type="int" name="NOMEGA">     0</i>
   <i type="int" name="NOMEGAR">     0</i>
   <i type="int" name="NBANDSGW">    -1</i>
   <i type="int" name="NBANDSO">    -1</i>
   <i type="int" name="NBANDSV">    -1</i>
   <i type="int" name="NELM">     1</i>
   <i type="int" name="NELMHF">     1</i>
   <i type="int" name="DIM">     3</i>
   <i type="int" name="ANTIRES">     0</i>
   <i name="OMEGAMAX">    -30.00000000</i>
   <i name="OMEGAMIN">    -30.00000000</i>
   <i name="OMEGATL">   -200.00000000</i>
   <i type="int" name="OMEGAGRID">   140</i>
   <i name="CSHIFT">     -0.10000000</i>
   <i type="logical" name="SELFENERGY"> F  </i>
   <i type="logical" name="LSPECTRAL"> F  </i>
   <i type="logical" name="LSPECTRALGW"> F  </i>
   <i type="logical" name="LSINGLES"> F  </i>
   <i type="logical" name="LFERMIGW"> F  </i>
   <i type="logical" name="ODDONLYGW"> F  </i>
   <i type="logical" name="EVENONLYGW"> F  </i>
   <i type="int" name="NKREDLFX">     1</i>
   <i type="int" name="NKREDLFY">     1</i>
   <i type="int" name="NKREDLFZ">     1</i>
   <i type="int" name="MAXMEM">  2800</i>
   <i type="int" name="TELESCOPE">     0</i>
   <i type="int" name="TAUPAR">     1</i>
   <i type="int" name="OMEGAPAR">    -1</i>
   <i name="LAMBDA">      1.00000000</i>
  </separator>
  <separator name="External order field" >
   <i name="OFIELD_KAPPA">      0.00000000</i>
   <v name="OFIELD_K">      0.00000000      0.00000000      0.00000000</v>
   <i name="OFIELD_Q6_NEAR">      0.00000000</i>
   <i name="OFIELD_Q6_FAR">      0.00000000</i>
   <i name="OFIELD_A">      0.00000000</i>
  </separator>
 </parameters>
 <atominfo>
  <atoms>       1 </atoms>
  <types>       1 </types>
  <array name="atoms" >
   <dimension dim="1">ion</dimension>
   <field type="string">element</field>
   <field type="int">atomtype</field>
   <set>
    <rc><c>Ni</c><c>   1</c></rc>
   </set>
  </array>
  <array name="atomtypes" >
   <dimension dim="1">type</dimension>
   <field type="int">atomspertype</field>
   <field type="string">element</field>
   <field>mass</field>
   <field>valence</field>
   <field type="string">pseudopotential</field>
   <set>
    <rc><c>   1</c><c>Ni</c><c>     58.69000000</c><c>     10.00000000</c><c>  PAW_PBE Ni 02Aug2007                  </c></rc>
   </set>
  </array>
 </atominfo>
 <structure name="initialpos" >
  <crystal>
   <varray name="basis" >
    <v>       0.00000000       1.80000000       1.80000000 </v>
    <v>       1.80000000       0.00000000       1.80000000 </v>
    <v>       1.80000000       1.80000000       0.00000000 </v>
   </varray>
   <i name="volume">     11.66400000 </i>
   <varray name="rec_basis" >
    <v>      -0.27777778       0.27777778       0.27777778 </v>
    <v>       0.27777778      -0.27777778       0.27777778 </v>
    <v>       0.27777778       0.27777778      -0.27777778 </v>
   </varray>
  </crystal>
  <varray name="positions" >
   <v>       0.00000000       0.00000000       0.00000000 </v>
  </varray>
 </structure>
 <calculation>
  <scstep>
   <time name="dav">    0.32    0.33</time>
   <time name="total">    0.33    0.34</time>
   <energy>
    <i name="alphaZ">     43.72376629 </i>
    <i name="ewald">   -916.95886177 </i>
    <i name="hartreedc">   -255.43669129 </i>
    <i name="XCdc">     32.51734085 </i>
    <i name="pawpsdc">    961.92645289 </i>
    <i name="pawaedc">  -1028.66799202 </i>
    <i name="eentropy">      0.00035838 </i>
    <i name="bandstr">    103.81488373 </i>
    <i name="atom">   1077.63607467 </i>
    <i name="e_fr_energy">     18.55533173 </i>
    <i name="e_wo_entrp">     18.55497335 </i>
    <i name="e_0_energy">     18.55521227 </i>
   </energy>
  </scstep>
  <scstep>
   <time name="dav">    0.30    0.31</time>
   <time name="total">    0.31    0.31</time>
   <energy>
    <i name="e_fr_energy">     -5.40829827 </i>
    <i name="e_wo_entrp">     -5.40903661 </i>
    <i name="e_0_energy">     -5.40854439 </i>
   </energy>
  </scstep>
  <scstep>
   <time name="dav">    0.31    0.31</time>
   <time name="total">    0.31    0.32</time>
   <energy>
    <i name="e_fr_energy">     -5.86473613 </i>
    <i name="e_wo_entrp">     -5.86463719 </i>
    <i name="e_0_energy">     -5.86470315 </i>
   </energy>
  </scstep>
  <scstep>
   <time name="dav">    0.31    0.32</time>
   <time name="total">    0.31    0.32</time>
   <energy>
    <i name="e_fr_energy">     -5.86715740 </i>
    <i name="e_wo_entrp">     -5.86705478 </i>
    <i name="e_0_energy">     -5.86712319 </i>
   </energy>
  </scstep>
  <scstep>
   <time name="dav">    0.31    0.32</time>
   <time name="total">    0.32    0.33</time>
   <energy>
    <i name="e_fr_energy">     -5.86719065 </i>
    <i name="e_wo_entrp">     -5.86708803 </i>
    <i name="e_0_energy">     -5.86715644 </i>
   </energy>
  </scstep>
  <scstep>
   <time name="dav">    0.33    0.34</time>
   <time name="total">    0.35    0.35</time>
   <energy>
    <i name="e_fr_energy">     -5.94338302 </i>
    <i name="e_wo_entrp">     -5.93775785 </i>
    <i name="e_0_energy">     -5.94150797 </i>
   </energy>
  </scstep>
  <scstep>
   <time name="dav">    0.33    0.34</time>
   <time name="total">    0.34    0.35</time>
   <energy>
    <i name="e_fr_energy">     -5.44552706 </i>
    <i name="e_wo_entrp">     -5.44301570 </i>
    <i name="e_0_energy">     -5.44468994 </i>
   </energy>
  </scstep>
  <scstep>
   <time name="dav">    0.32    0.33</time>
   <time name="total">    0.33    0.34</time>
   <energy>
    <i name="e_fr_energy">     -5.43961626 </i>
    <i name="e_wo_entrp">     -5.43686570 </i>
    <i name="e_0_energy">     -5.43869941 </i>
   </energy>
  </scstep>
  <scstep>
   <time name="dav">    0.31    0.32</time>
   <time name="total">    0.33    0.33</time>
   <energy>
    <i name="e_fr_energy">     -5.43700787 </i>
    <i name="e_wo_entrp">     -5.43435067 </i>
    <i name="e_0_energy">     -5.43612214 </i>
   </energy>
  </scstep>
  <scstep>
   <time name="dav">    0.31    0.32</time>
   <time name="total">    0.33    0.33</time>
   <energy>
    <i name="e_fr_energy">     -5.43583294 </i>
    <i name="e_wo_entrp">     -5.43321275 </i>
    <i name="e_0_energy">     -5.43495954 </i>
   </energy>
  </scstep>
  <scstep>
   <time name="dav">    0.21    0.22</time>
   <time name="total">    0.22    0.23</time>
   <energy>
    <i name="alphaZ">     43.72376629 </i>
    <i name="ewald">   -916.95886177 </i>
    <i name="hartreedc">   -235.11911191 </i>
    <i name="XCdc">     30.53988415 </i>
    <i name="pawpsdc">   1103.56021587 </i>
    <i name="pawaedc">  -1171.71858530 </i>
    <i name="eentropy">     -0.00268144 </i>
    <i name="bandstr">     62.90344700 </i>
    <i name="atom">   1077.63607467 </i>
    <i name="e_fr_energy">     -5.43585245 </i>
    <i name="e_wo_entrp">     -5.43317101 </i>
    <i name="e_0_energy">     -5.43495864 </i>
   </energy>
  </scstep>
  <structure>
   <crystal>
    <varray name="basis" >
     <v>       0.00000000       1.80000000       1.80000000 </v>
     <v>       1.80000000       0.00000000       1.80000000 </v>
     <v>       1.80000000       1.80000000       0.00000000 </v>
    </varray>
    <i name="volume">     11.66400000 </i>
    <varray name="rec_basis" >
     <v>      -0.27777778       0.27777778       0.27777778 </v>
     <v>       0.27777778      -0.27777778       0.27777778 </v>
     <v>       0.27777778       0.27777778      -0.27777778 </v>
    </varray>
   </crystal>
   <varray name="positions" >
    <v>       0.00000000       0.00000000       0.00000000 </v>
   </varray>
  </structure>
  <varray name="forces" >
   <v>       0.00000000      -0.00000000       0.00000000 </v>
  </varray>
  <varray name="stress" >
   <v>    -156.08181298      -0.00000000      -0.00000000 </v>
   <v>       0.00000000    -156.08181298       0.00000000 </v>
   <v>      -0.00000000       0.00000000    -156.08181298 </v>
  </varray>
  <energy>
   <i name="e_fr_energy">     -5.43585245 </i>
   <i name="e_wo_entrp">     -5.43495864 </i>
   <i name="e_0_energy">     -0.00268144 </i>
  </energy>
  <time name="totalsc">    3.64    3.72</time>
  <eigenvalues>
   <array>
    <dimension dim="1">band</dimension>
    <dimension dim="2">kpoint</dimension>
    <dimension dim="3">spin</dimension>
    <field>eigene</field>
    <field>occ</field>
    <set>
     <set comment="spin 1">
      <set comment="kpoint 1">
       <r>   -0.0137    1.0000 </r>
       <r>    6.1418    1.0000 </r>
       <r>    6.1868    1.0000 </r>
       <r>    6.1868    1.0000 </r>
       <r>    7.2082    1.0000 </r>
       <r>    7.2082    1.0000 </r>
       <r>   31.2587    0.0000 </r>
       <r>   33.6077    0.0000 </r>
       <r>   34.6468    0.0000 </r>
       <r>   34.6468    0.0000 </r>
       <r>   38.1854    0.0000 </r>
       <r>   38.1854    0.0000 </r>
      </set>
      <set comment="kpoint 2">
       <r>    0.4745    1.0000 </r>
       <r>    6.0230    1.0000 </r>
       <r>    6.2765    1.0000 </r>
       <r>    6.2886    1.0000 </r>
       <r>    7.1197    1.0000 </r>
       <r>    7.2334    1.0000 </r>
       <r>   28.8733    0.0000 </r>
       <r>   31.0971    0.0000 </r>
       <r>   33.6999    0.0000 </r>
       <r>   35.3137    0.0000 </r>
       <r>   38.0012    0.0000 </r>
       <r>   38.3779    0.0000 </r>
      </set>
      <set comment="kpoint 3">
       <r>    1.6176    1.0000 </r>
       <r>    5.8592    1.0000 </r>
       <r>    6.3757    1.0000 </r>
       <r>    6.3998    1.0000 </r>
       <r>    7.1071    1.0000 </r>
       <r>    7.3363    1.0000 </r>
       <r>   23.8681    0.0000 </r>
       <r>   30.0507    0.0000 </r>
       <r>   33.1669    0.0000 </r>
       <r>   34.6593    0.0000 </r>
       <r>   37.6223    0.0000 </r>
       <r>   37.8454    0.0000 </r>
      </set>
      <set comment="kpoint 4">
       <r>    3.0608    1.0000 </r>
       <r>    6.0086    1.0000 </r>
       <r>    6.3092    1.0000 </r>
       <r>    6.3503    1.0000 </r>
       <r>    7.3552    1.0000 </r>
       <r>    7.6350    1.0000 </r>
       <r>   19.1587    0.0000 </r>
       <r>   29.4783    0.0000 </r>
       <r>   32.0637    0.0000 </r>
       <r>   33.7835    0.0000 </r>
       <r>   35.7317    0.0000 </r>
       <r>   37.4278    0.0000 </r>
      </set>
      <set comment="kpoint 5">
       <r>    3.8846    1.0000 </r>
       <r>    6.1917    1.0000 </r>
       <r>    6.2450    1.0000 </r>
       <r>    6.9979    1.0000 </r>
       <r>    7.6647    1.0000 </r>
       <r>    8.1506    1.0326 </r>
       <r>   15.2259    0.0000 </r>
       <r>   29.3392    0.0000 </r>
       <r>   31.2368    0.0000 </r>
       <r>   32.3148    0.0000 </r>
       <r>   35.2206    0.0000 </r>
       <r>   36.5757    0.0000 </r>
      </set>
      <set comment="kpoint 6">
       <r>    4.0069    1.0000 </r>
       <r>    6.1499    1.0000 </r>
       <r>    6.2194    1.0000 </r>
       <r>    7.3668    1.0000 </r>
       <r>    7.8087    1.0001 </r>
       <r>    8.7266   -0.0275 </r>
       <r>   13.7163   -0.0000 </r>
       <r>   29.5805    0.0000 </r>
       <r>   31.1475    0.0000 </r>
       <r>   31.2547    0.0000 </r>
       <r>   35.8036    0.0000 </r>
       <r>   35.9277    0.0000 </r>
      </set>
      <set comment="kpoint 7">
       <r>    3.7192    1.0000 </r>
       <r>    6.2155    1.0000 </r>
       <r>    6.2863    1.0000 </r>
       <r>    6.5899    1.0000 </r>
       <r>    7.7142    1.0000 </r>
       <r>    7.8084    1.0001 </r>
       <r>   16.4008    0.0000 </r>
       <r>   30.0575    0.0000 </r>
       <r>   30.6829    0.0000 </r>
       <r>   32.3000    0.0000 </r>
       <r>   35.8180    0.0000 </r>
       <r>   37.0631    0.0000 </r>
      </set>
      <set comment="kpoint 8">
       <r>    2.5940    1.0000 </r>
       <r>    5.8746    1.0000 </r>
       <r>    6.3442    1.0000 </r>
       <r>    6.3846    1.0000 </r>
       <r>    7.3129    1.0000 </r>
       <r>    7.4661    1.0000 </r>
       <r>   20.6647    0.0000 </r>
       <r>   30.7417    0.0000 </r>
       <r>   30.8984    0.0000 </r>
       <r>   34.0553    0.0000 </r>
       <r>   36.2070    0.0000 </r>
       <r>   38.9416    0.0000 </r>
      </set>
      <set comment="kpoint 9">
       <r>    1.1758    1.0000 </r>
       <r>    5.8974    1.0000 </r>
       <r>    6.3709    1.0000 </r>
       <r>    6.3761    1.0000 </r>
       <r>    7.0900    1.0000 </r>
       <r>    7.2759    1.0000 </r>
       <r>   25.5443    0.0000 </r>
       <r>   31.4788    0.0000 </r>
       <r>   31.6951    0.0000 </r>
       <r>   35.3919    0.0000 </r>
       <r>   36.8355    0.0000 </r>
       <r>   40.3888    0.0000 </r>
      </set>
      <set comment="kpoint 10">
       <r>    0.2323    1.0000 </r>
       <r>    6.0664    1.0000 </r>
       <r>    6.2432    1.0000 </r>
       <r>    6.2459    1.0000 </r>
       <r>    7.1345    1.0000 </r>
       <r>    7.2399    1.0000 </r>
       <r>   30.3350    0.0000 </r>
       <r>   32.4183    0.0000 </r>
       <r>   33.0041    0.0000 </r>
       <r>   34.6428    0.0000 </r>
       <r>   38.2389    0.0000 </r>
       <r>   39.7489    0.0000 </r>
      </set>
      <set comment="kpoint 11">
       <r>    0.7145    1.0000 </r>
       <r>    5.9163    1.0000 </r>
       <r>    6.3653    1.0000 </r>
       <r>    6.3679    1.0000 </r>
       <r>    7.0064    1.0000 </r>
       <r>    7.3017    1.0000 </r>
       <r>   29.0570    0.0000 </r>
       <r>   31.1460    0.0000 </r>
       <r>   31.2188    0.0000 </r>
       <r>   33.4312    0.0000 </r>
       <r>   38.2413    0.0000 </r>
       <r>   40.0710    0.0000 </r>
      </set>
      <set comment="kpoint 12">
       <r>    1.6294    1.0000 </r>
       <r>    5.7174    1.0000 </r>
       <r>    6.4436    1.0000 </r>
       <r>    6.5447    1.0000 </r>
       <r>    6.9550    1.0000 </r>
       <r>    7.4147    1.0000 </r>
       <r>   25.8882    0.0000 </r>
       <r>   28.0229    0.0000 </r>
       <r>   31.7971    0.0000 </r>
       <r>   33.1462    0.0000 </r>
       <r>   36.3368    0.0000 </r>
       <r>   40.3069    0.0000 </r>
      </set>
      <set comment="kpoint 13">
       <r>    2.9923    1.0000 </r>
       <r>    5.6266    1.0000 </r>
       <r>    6.2692    1.0000 </r>
       <r>    6.5785    1.0000 </r>
       <r>    7.3119    1.0000 </r>
       <r>    7.7299    1.0000 </r>
       <r>   21.0244    0.0000 </r>
       <r>   27.2526    0.0000 </r>
       <r>   30.3034    0.0000 </r>
       <r>   32.3241    0.0000 </r>
       <r>   38.2581    0.0000 </r>
       <r>   38.9273    0.0000 </r>
      </set>
      <set comment="kpoint 14">
       <r>    4.0454    1.0000 </r>
       <r>    5.9586    1.0000 </r>
       <r>    6.1395    1.0000 </r>
       <r>    6.4871    1.0000 </r>
       <r>    7.7007    1.0000 </r>
       <r>    8.5768    0.0223 </r>
       <r>   16.7189    0.0000 </r>
       <r>   27.0802    0.0000 </r>
       <r>   28.5498    0.0000 </r>
       <r>   31.5773    0.0000 </r>
       <r>   37.7584    0.0000 </r>
       <r>   40.0383    0.0000 </r>
      </set>
      <set comment="kpoint 15">
       <r>    4.2967    1.0000 </r>
       <r>    5.9412    1.0000 </r>
       <r>    6.4086    1.0000 </r>
       <r>    6.5964    1.0000 </r>
       <r>    7.7825    1.0000 </r>
       <r>    9.9991   -0.0000 </r>
       <r>   13.8473   -0.0000 </r>
       <r>   26.7324    0.0000 </r>
       <r>   28.0425    0.0000 </r>
       <r>   31.4934    0.0000 </r>
       <r>   37.0266    0.0000 </r>
       <r>   39.6850    0.0000 </r>
      </set>
      <set comment="kpoint 16">
       <r>    4.2004    1.0000 </r>
       <r>    6.0080    1.0000 </r>
       <r>    6.3307    1.0000 </r>
       <r>    6.4486    1.0000 </r>
       <r>    7.6145    1.0000 </r>
       <r>    9.1362   -0.0000 </r>
       <r>   15.5091    0.0000 </r>
       <r>   26.0041    0.0000 </r>
       <r>   29.2412    0.0000 </r>
       <r>   32.1927    0.0000 </r>
       <r>   36.6698    0.0000 </r>
       <r>   39.3947    0.0000 </r>
      </set>
      <set comment="kpoint 17">
       <r>    3.4460    1.0000 </r>
       <r>    5.7440    1.0000 </r>
       <r>    6.1922    1.0000 </r>
       <r>    6.5400    1.0000 </r>
       <r>    7.2465    1.0000 </r>
       <r>    8.0790    1.0171 </r>
       <r>   19.5193    0.0000 </r>
       <r>   25.8839    0.0000 </r>
       <r>   31.0911    0.0000 </r>
       <r>   33.6291    0.0000 </r>
       <r>   36.7143    0.0000 </r>
       <r>   38.6753    0.0000 </r>
      </set>
      <set comment="kpoint 18">
       <r>    2.0575    1.0000 </r>
       <r>    5.7125    1.0000 </r>
       <r>    6.3703    1.0000 </r>
       <r>    6.5722    1.0000 </r>
       <r>    6.9540    1.0000 </r>
       <r>    7.5564    1.0000 </r>
       <r>   24.2251    0.0000 </r>
       <r>   26.4227    0.0000 </r>
       <r>   33.2750    0.0000 </r>
       <r>   34.6326    0.0000 </r>
       <r>   37.2600    0.0000 </r>
       <r>   37.9454    0.0000 </r>
      </set>
      <set comment="kpoint 19">
       <r>    0.9486    1.0000 </r>
       <r>    5.9008    1.0000 </r>
       <r>    6.3687    1.0000 </r>
       <r>    6.3807    1.0000 </r>
       <r>    7.0271    1.0000 </r>
       <r>    7.3019    1.0000 </r>
       <r>   27.3380    0.0000 </r>
       <r>   29.5305    0.0000 </r>
       <r>   33.0539    0.0000 </r>
       <r>   35.0729    0.0000 </r>
       <r>   37.4542    0.0000 </r>
       <r>   39.5328    0.0000 </r>
      </set>
      <set comment="kpoint 20">
       <r>    2.2603    1.0000 </r>
       <r>    5.4741    1.0000 </r>
       <r>    6.5850    1.0000 </r>
       <r>    6.7680    1.0000 </r>
       <r>    6.9175    1.0000 </r>
       <r>    7.4869    1.0000 </r>
       <r>   26.3124    0.0000 </r>
       <r>   27.6634    0.0000 </r>
       <r>   29.0085    0.0000 </r>
       <r>   29.9036    0.0000 </r>
       <r>   33.5235    0.0000 </r>
       <r>   44.1690    0.0000 </r>
      </set>
      <set comment="kpoint 21">
       <r>    3.3263    1.0000 </r>
       <r>    5.2733    1.0000 </r>
       <r>    6.3841    1.0000 </r>
       <r>    6.9908    1.0000 </r>
       <r>    7.3426    1.0000 </r>
       <r>    7.7482    1.0000 </r>
       <r>   23.3460    0.0000 </r>
       <r>   25.3014    0.0000 </r>
       <r>   27.0543    0.0000 </r>
       <r>   30.4299    0.0000 </r>
       <r>   33.8343    0.0000 </r>
       <r>   43.6094    0.0000 </r>
      </set>
      <set comment="kpoint 22">
       <r>    4.3210    1.0000 </r>
       <r>    5.2736    1.0000 </r>
       <r>    6.1473    1.0000 </r>
       <r>    6.9416    1.0000 </r>
       <r>    7.7518    1.0000 </r>
       <r>    8.8912   -0.0024 </r>
       <r>   18.8550    0.0000 </r>
       <r>   24.5188    0.0000 </r>
       <r>   25.2099    0.0000 </r>
       <r>   30.4800    0.0000 </r>
       <r>   37.2491    0.0000 </r>
       <r>   42.0655    0.0000 </r>
      </set>
      <set comment="kpoint 23">
       <r>    4.7226    1.0000 </r>
       <r>    5.4570    1.0000 </r>
       <r>    6.1088    1.0000 </r>
       <r>    6.8323    1.0000 </r>
       <r>    7.7964    1.0000 </r>
       <r>   11.0585   -0.0000 </r>
       <r>   15.0735    0.0000 </r>
       <r>   22.8596    0.0000 </r>
       <r>   25.5910    0.0000 </r>
       <r>   30.6359    0.0000 </r>
       <r>   40.0640    0.0000 </r>
       <r>   42.4548    0.0000 </r>
      </set>
      <set comment="kpoint 24">
       <r>    4.8176    1.0000 </r>
       <r>    5.5939    1.0000 </r>
       <r>    6.0059    1.0000 </r>
       <r>    6.7818    1.0000 </r>
       <r>    7.5795    1.0000 </r>
       <r>   11.1757   -0.0000 </r>
       <r>   15.0868    0.0000 </r>
       <r>   21.7287    0.0000 </r>
       <r>   26.8753    0.0000 </r>
       <r>   31.3493    0.0000 </r>
       <r>   39.3177    0.0000 </r>
       <r>   43.0000    0.0000 </r>
      </set>
      <set comment="kpoint 25">
       <r>    4.4957    1.0000 </r>
       <r>    5.5996    1.0000 </r>
       <r>    5.8659    1.0000 </r>
       <r>    6.8387    1.0000 </r>
       <r>    7.1903    1.0000 </r>
       <r>    9.2762   -0.0000 </r>
       <r>   18.8614    0.0000 </r>
       <r>   21.3448    0.0000 </r>
       <r>   28.7765    0.0000 </r>
       <r>   32.7892    0.0000 </r>
       <r>   38.1264    0.0000 </r>
       <r>   41.8061    0.0000 </r>
      </set>
      <set comment="kpoint 26">
       <r>    3.3713    1.0000 </r>
       <r>    5.5844    1.0000 </r>
       <r>    6.1750    1.0000 </r>
       <r>    6.7475    1.0000 </r>
       <r>    6.9899    1.0000 </r>
       <r>    8.1484    1.0322 </r>
       <r>   21.3808    0.0000 </r>
       <r>   23.6542    0.0000 </r>
       <r>   31.0933    0.0000 </r>
       <r>   34.6191    0.0000 </r>
       <r>   36.3773    0.0000 </r>
       <r>   39.5918    0.0000 </r>
      </set>
      <set comment="kpoint 27">
       <r>    2.2436    1.0000 </r>
       <r>    5.7657    1.0000 </r>
       <r>    6.3623    1.0000 </r>
       <r>    6.4662    1.0000 </r>
       <r>    7.1273    1.0000 </r>
       <r>    7.5063    1.0000 </r>
       <r>   22.3580    0.0000 </r>
       <r>   28.6041    0.0000 </r>
       <r>   32.1652    0.0000 </r>
       <r>   34.5700    0.0000 </r>
       <r>   36.7130    0.0000 </r>
       <r>   38.3729    0.0000 </r>
      </set>
      <set comment="kpoint 28">
       <r>    3.8316    1.0000 </r>
       <r>    5.0051    1.0000 </r>
       <r>    6.9202    1.0000 </r>
       <r>    7.2910    1.0000 </r>
       <r>    7.6328    1.0000 </r>
       <r>    7.7008    1.0000 </r>
       <r>   23.7038    0.0000 </r>
       <r>   24.1043    0.0000 </r>
       <r>   24.8760    0.0000 </r>
       <r>   28.4223    0.0000 </r>
       <r>   31.5606    0.0000 </r>
       <r>   48.2456    0.0000 </r>
      </set>
      <set comment="kpoint 29">
       <r>    4.2815    1.0000 </r>
       <r>    4.8825    1.0000 </r>
       <r>    6.8763    1.0000 </r>
       <r>    7.4901    1.0000 </r>
       <r>    7.7633    1.0000 </r>
       <r>    9.0628   -0.0000 </r>
       <r>   21.2556    0.0000 </r>
       <r>   21.6280    0.0000 </r>
       <r>   23.3522    0.0000 </r>
       <r>   29.3572    0.0000 </r>
       <r>   32.6646    0.0000 </r>
       <r>   46.5761    0.0000 </r>
      </set>
      <set comment="kpoint 30">
       <r>    4.6431    1.0000 </r>
       <r>    4.9697    1.0000 </r>
       <r>    6.5507    1.0000 </r>
       <r>    7.3492    1.0000 </r>
       <r>    7.8356    1.0001 </r>
       <r>   11.5037   -0.0000 </r>
       <r>   17.4743    0.0000 </r>
       <r>   19.5523    0.0000 </r>
       <r>   23.6298    0.0000 </r>
       <r>   29.8119    0.0000 </r>
       <r>   36.5717    0.0000 </r>
       <r>   44.7575    0.0000 </r>
      </set>
      <set comment="kpoint 31">
       <r>    4.9815    1.0000 </r>
       <r>    5.1807    1.0000 </r>
       <r>    6.1286    1.0000 </r>
       <r>    7.1824    1.0000 </r>
       <r>    7.6493    1.0000 </r>
       <r>   13.7944   -0.0000 </r>
       <r>   14.7281    0.0000 </r>
       <r>   18.4492    0.0000 </r>
       <r>   24.8043    0.0000 </r>
       <r>   30.3437    0.0000 </r>
       <r>   41.4899    0.0000 </r>
       <r>   42.9582    0.0000 </r>
      </set>
      <set comment="kpoint 32">
       <r>    5.0369    1.0000 </r>
       <r>    5.5010    1.0000 </r>
       <r>    5.7798    1.0000 </r>
       <r>    6.9623    1.0000 </r>
       <r>    7.4320    1.0000 </r>
       <r>   11.2123   -0.0000 </r>
       <r>   16.6293    0.0000 </r>
       <r>   19.6002    0.0000 </r>
       <r>   26.6616    0.0000 </r>
       <r>   31.3302    0.0000 </r>
       <r>   40.3380    0.0000 </r>
       <r>   44.1820    0.0000 </r>
      </set>
      <set comment="kpoint 33">
       <r>    4.3610    1.0000 </r>
       <r>    5.8681    1.0000 </r>
       <r>    5.9365    1.0000 </r>
       <r>    6.6306    1.0000 </r>
       <r>    7.4080    1.0000 </r>
       <r>    9.2361   -0.0000 </r>
       <r>   17.0743    0.0000 </r>
       <r>   23.5673    0.0000 </r>
       <r>   28.9311    0.0000 </r>
       <r>   32.5867    0.0000 </r>
       <r>   37.4416    0.0000 </r>
       <r>   40.6980    0.0000 </r>
      </set>
      <set comment="kpoint 34">
       <r>    3.5707    1.0000 </r>
       <r>    6.0830    1.0000 </r>
       <r>    6.2119    1.0000 </r>
       <r>    6.3836    1.0000 </r>
       <r>    7.4999    1.0000 </r>
       <r>    7.9445    1.0017 </r>
       <r>   17.8405    0.0000 </r>
       <r>   28.2335    0.0000 </r>
       <r>   30.9425    0.0000 </r>
       <r>   32.6758    0.0000 </r>
       <r>   36.4348    0.0000 </r>
       <r>   38.1304    0.0000 </r>
      </set>
      <set comment="kpoint 35">
       <r>    4.2076    1.0000 </r>
       <r>    4.6800    1.0000 </r>
       <r>    7.6478    1.0000 </r>
       <r>    7.7237    1.0000 </r>
       <r>    7.8593    1.0002 </r>
       <r>    9.7349   -0.0000 </r>
       <r>   18.9096    0.0000 </r>
       <r>   22.3263    0.0000 </r>
       <r>   23.1324    0.0000 </r>
       <r>   27.8499    0.0000 </r>
       <r>   30.9174    0.0000 </r>
       <r>   50.5049    0.0000 </r>
      </set>
      <set comment="kpoint 36">
       <r>    4.3241    1.0000 </r>
       <r>    4.6880    1.0000 </r>
       <r>    7.3756    1.0000 </r>
       <r>    7.7270    1.0000 </r>
       <r>    7.8990    1.0006 </r>
       <r>   11.4552   -0.0000 </r>
       <r>   17.3997    0.0000 </r>
       <r>   20.5649    0.0000 </r>
       <r>   22.3555    0.0000 </r>
       <r>   28.9473    0.0000 </r>
       <r>   32.2812    0.0000 </r>
       <r>   48.8156    0.0000 </r>
      </set>
      <set comment="kpoint 37">
       <r>    4.6313    1.0000 </r>
       <r>    4.9054    1.0000 </r>
       <r>    6.6996    1.0000 </r>
       <r>    7.4741    1.0000 </r>
       <r>    7.8124    1.0001 </r>
       <r>   12.8294   -0.0000 </r>
       <r>   17.0364    0.0000 </r>
       <r>   17.8874    0.0000 </r>
       <r>   23.3245    0.0000 </r>
       <r>   29.6918    0.0000 </r>
       <r>   36.4397    0.0000 </r>
       <r>   45.7584    0.0000 </r>
      </set>
      <set comment="kpoint 38">
       <r>    4.9046    1.0000 </r>
       <r>    5.2721    1.0000 </r>
       <r>    6.1161    1.0000 </r>
       <r>    7.0305    1.0000 </r>
       <r>    7.7344    1.0000 </r>
       <r>   12.6440   -0.0000 </r>
       <r>   14.6159    0.0000 </r>
       <r>   20.3951    0.0000 </r>
       <r>   25.0668    0.0000 </r>
       <r>   30.4367    0.0000 </r>
       <r>   41.0808    0.0000 </r>
       <r>   42.5198    0.0000 </r>
      </set>
      <set comment="kpoint 39">
       <r>    4.5504    1.0000 </r>
       <r>    5.7573    1.0000 </r>
       <r>    6.2926    1.0000 </r>
       <r>    6.5795    1.0000 </r>
       <r>    7.7140    1.0000 </r>
       <r>   10.8533   -0.0000 </r>
       <r>   14.0111    0.0000 </r>
       <r>   24.2075    0.0000 </r>
       <r>   27.3064    0.0000 </r>
       <r>   31.3969    0.0000 </r>
       <r>   38.1002    0.0000 </r>
       <r>   41.4650    0.0000 </r>
      </set>
      <set comment="kpoint 40">
       <r>    4.0746    1.0000 </r>
       <r>    6.0967    1.0000 </r>
       <r>    6.2941    1.0000 </r>
       <r>    6.8882    1.0000 </r>
       <r>    7.7609    1.0000 </r>
       <r>    8.9527   -0.0006 </r>
       <r>   14.3466    0.0000 </r>
       <r>   28.3676    0.0000 </r>
       <r>   29.8031    0.0000 </r>
       <r>   31.6772    0.0000 </r>
       <r>   36.1365    0.0000 </r>
       <r>   37.7478    0.0000 </r>
      </set>
      <set comment="kpoint 41">
       <r>    4.2037    1.0000 </r>
       <r>    4.6096    1.0000 </r>
       <r>    7.7849    1.0000 </r>
       <r>    7.8161    1.0001 </r>
       <r>    7.9064    1.0007 </r>
       <r>   10.8416   -0.0000 </r>
       <r>   17.3120    0.0000 </r>
       <r>   21.9778    0.0000 </r>
       <r>   22.7608    0.0000 </r>
       <r>   27.7438    0.0000 </r>
       <r>   30.8166    0.0000 </r>
       <r>   50.9455    0.0000 </r>
      </set>
      <set comment="kpoint 42">
       <r>    4.3348    1.0000 </r>
       <r>    4.7545    1.0000 </r>
       <r>    7.1927    1.0000 </r>
       <r>    7.6636    1.0000 </r>
       <r>    7.8430    1.0002 </r>
       <r>   10.3237   -0.0000 </r>
       <r>   19.0432    0.0000 </r>
       <r>   20.8862    0.0000 </r>
       <r>   22.6935    0.0000 </r>
       <r>   29.0802    0.0000 </r>
       <r>   32.4032    0.0000 </r>
       <r>   47.9046    0.0000 </r>
      </set>
      <set comment="kpoint 43">
       <r>    4.5889    1.0000 </r>
       <r>    5.0989    1.0000 </r>
       <r>    6.3200    1.0000 </r>
       <r>    7.1560    1.0000 </r>
       <r>    7.8252    1.0001 </r>
       <r>   10.0594   -0.0000 </r>
       <r>   18.0585    0.0000 </r>
       <r>   21.9482    0.0000 </r>
       <r>   24.2303    0.0000 </r>
       <r>   30.0590    0.0000 </r>
       <r>   36.8317    0.0000 </r>
       <r>   43.4237    0.0000 </r>
      </set>
      <set comment="kpoint 44">
       <r>    4.4349    1.0000 </r>
       <r>    5.7037    1.0000 </r>
       <r>    6.1186    1.0000 </r>
       <r>    6.6419    1.0000 </r>
       <r>    7.7937    1.0000 </r>
       <r>    9.6512   -0.0000 </r>
       <r>   15.7909    0.0000 </r>
       <r>   25.4501    0.0000 </r>
       <r>   26.4484    0.0000 </r>
       <r>   30.9935    0.0000 </r>
       <r>   38.9033    0.0000 </r>
       <r>   42.1665    0.0000 </r>
      </set>
      <set comment="kpoint 45">
       <r>    4.1409    1.0000 </r>
       <r>    4.8156    1.0000 </r>
       <r>    7.3634    1.0000 </r>
       <r>    7.5357    1.0000 </r>
       <r>    7.7895    1.0000 </r>
       <r>    8.4699    0.3183 </r>
       <r>   21.2297    0.0000 </r>
       <r>   22.9994    0.0000 </r>
       <r>   23.8511    0.0000 </r>
       <r>   28.0735    0.0000 </r>
       <r>   31.1399    0.0000 </r>
       <r>   49.6003    0.0000 </r>
      </set>
      <set comment="kpoint 46">
       <r>    3.9895    1.0000 </r>
       <r>    5.0605    1.0000 </r>
       <r>    6.5352    1.0000 </r>
       <r>    7.2488    1.0000 </r>
       <r>    7.6222    1.0000 </r>
       <r>    8.1670    1.0348 </r>
       <r>   22.2949    0.0000 </r>
       <r>   23.9248    0.0000 </r>
       <r>   24.4633    0.0000 </r>
       <r>   29.7916    0.0000 </r>
       <r>   33.1232    0.0000 </r>
       <r>   45.1181    0.0000 </r>
      </set>
      <set comment="kpoint 47">
       <r>    3.7462    1.0000 </r>
       <r>    5.4578    1.0000 </r>
       <r>    6.1512    1.0000 </r>
       <r>    6.7409    1.0000 </r>
       <r>    7.5818    1.0000 </r>
       <r>    8.1200    1.0264 </r>
       <r>   19.8508    0.0000 </r>
       <r>   26.0097    0.0000 </r>
       <r>   27.6237    0.0000 </r>
       <r>   31.1517    0.0000 </r>
       <r>   37.7924    0.0000 </r>
       <r>   40.6399    0.0000 </r>
      </set>
      <set comment="kpoint 48">
       <r>    3.1473    1.0000 </r>
       <r>    5.2315    1.0000 </r>
       <r>    6.6188    1.0000 </r>
       <r>    7.0234    1.0000 </r>
       <r>    7.1956    1.0000 </r>
       <r>    7.5939    1.0000 </r>
       <r>   25.0179    0.0000 </r>
       <r>   26.1603    0.0000 </r>
       <r>   26.6729    0.0000 </r>
       <r>   28.9352    0.0000 </r>
       <r>   32.2818    0.0000 </r>
       <r>   46.3497    0.0000 </r>
      </set>
      <set comment="kpoint 49">
       <r>    2.4624    1.0000 </r>
       <r>    5.5005    1.0000 </r>
       <r>    6.4180    1.0000 </r>
       <r>    6.7526    1.0000 </r>
       <r>    7.0613    1.0000 </r>
       <r>    7.5561    1.0000 </r>
       <r>   24.5522    0.0000 </r>
       <r>   26.6058    0.0000 </r>
       <r>   29.8192    0.0000 </r>
       <r>   31.3854    0.0000 </r>
       <r>   34.8768    0.0000 </r>
       <r>   42.0198    0.0000 </r>
      </set>
      <set comment="kpoint 50">
       <r>    1.4084    1.0000 </r>
       <r>    5.7107    1.0000 </r>
       <r>    6.5239    1.0000 </r>
       <r>    6.5440    1.0000 </r>
       <r>    6.8735    1.0000 </r>
       <r>    7.3865    1.0000 </r>
       <r>   27.6786    0.0000 </r>
       <r>   29.3403    0.0000 </r>
       <r>   30.1563    0.0000 </r>
       <r>   31.7728    0.0000 </r>
       <r>   35.5934    0.0000 </r>
       <r>   41.9799    0.0000 </r>
      </set>
      <set comment="kpoint 51">
       <r>    0.7119    1.0000 </r>
       <r>    5.9937    1.0000 </r>
       <r>    6.3068    1.0000 </r>
       <r>    6.3068    1.0000 </r>
       <r>    7.1748    1.0000 </r>
       <r>    7.1748    1.0000 </r>
       <r>   27.1764    0.0000 </r>
       <r>   32.2932    0.0000 </r>
       <r>   33.5848    0.0000 </r>
       <r>   33.5848    0.0000 </r>
       <r>   38.9631    0.0000 </r>
       <r>   39.6564    0.0000 </r>
      </set>
      <set comment="kpoint 52">
       <r>    1.4054    1.0000 </r>
       <r>    5.8383    1.0000 </r>
       <r>    6.3803    1.0000 </r>
       <r>    6.4431    1.0000 </r>
       <r>    6.9922    1.0000 </r>
       <r>    7.3839    1.0000 </r>
       <r>   25.7121    0.0000 </r>
       <r>   27.9083    0.0000 </r>
       <r>   34.3945    0.0000 </r>
       <r>   36.2784    0.0000 </r>
       <r>   36.5064    0.0000 </r>
       <r>   37.8546    0.0000 </r>
      </set>
      <set comment="kpoint 53">
       <r>    2.6595    1.0000 </r>
       <r>    5.6702    1.0000 </r>
       <r>    6.3022    1.0000 </r>
       <r>    6.6382    1.0000 </r>
       <r>    6.9098    1.0000 </r>
       <r>    7.8073    1.0001 </r>
       <r>   22.7185    0.0000 </r>
       <r>   24.9523    0.0000 </r>
       <r>   33.6588    0.0000 </r>
       <r>   34.6885    0.0000 </r>
       <r>   36.4174    0.0000 </r>
       <r>   38.1511    0.0000 </r>
      </set>
      <set comment="kpoint 54">
       <r>    3.9282    1.0000 </r>
       <r>    5.8508    1.0000 </r>
       <r>    6.0977    1.0000 </r>
       <r>    6.5382    1.0000 </r>
       <r>    7.2669    1.0000 </r>
       <r>    8.5449    0.0818 </r>
       <r>   18.2060    0.0000 </r>
       <r>   24.6380    0.0000 </r>
       <r>   31.7382    0.0000 </r>
       <r>   31.9005    0.0000 </r>
       <r>   37.9395    0.0000 </r>
       <r>   38.1207    0.0000 </r>
      </set>
      <set comment="kpoint 55">
       <r>    4.3647    1.0000 </r>
       <r>    5.9202    1.0000 </r>
       <r>    6.4186    1.0000 </r>
       <r>    6.4640    1.0000 </r>
       <r>    7.6392    1.0000 </r>
       <r>    9.9174   -0.0000 </r>
       <r>   14.5748    0.0000 </r>
       <r>   25.0157    0.0000 </r>
       <r>   29.7156    0.0000 </r>
       <r>   30.5563    0.0000 </r>
       <r>   38.3498    0.0000 </r>
       <r>   39.0250    0.0000 </r>
      </set>
      <set comment="kpoint 56">
       <r>    4.3464    1.0000 </r>
       <r>    5.8687    1.0000 </r>
       <r>    6.3710    1.0000 </r>
       <r>    6.4886    1.0000 </r>
       <r>    7.8249    1.0001 </r>
       <r>    9.8393   -0.0000 </r>
       <r>   14.5562    0.0000 </r>
       <r>   26.0796    0.0000 </r>
       <r>   28.3500    0.0000 </r>
       <r>   30.1116    0.0000 </r>
       <r>   39.3280    0.0000 </r>
       <r>   39.5109    0.0000 </r>
      </set>
      <set comment="kpoint 57">
       <r>    3.8891    1.0000 </r>
       <r>    5.6774    1.0000 </r>
       <r>    6.1359    1.0000 </r>
       <r>    6.5796    1.0000 </r>
       <r>    7.7656    1.0000 </r>
       <r>    8.2093    1.0317 </r>
       <r>   18.1750    0.0000 </r>
       <r>   27.6667    0.0000 </r>
       <r>   27.8635    0.0000 </r>
       <r>   30.3477    0.0000 </r>
       <r>   39.9852    0.0000 </r>
       <r>   40.3044    0.0000 </r>
      </set>
      <set comment="kpoint 58">
       <r>    2.6469    1.0000 </r>
       <r>    5.5413    1.0000 </r>
       <r>    6.3575    1.0000 </r>
       <r>    6.6390    1.0000 </r>
       <r>    7.2682    1.0000 </r>
       <r>    7.5469    1.0000 </r>
       <r>   22.7056    0.0000 </r>
       <r>   28.2193    0.0000 </r>
       <r>   29.2246    0.0000 </r>
       <r>   31.3530    0.0000 </r>
       <r>   36.5064    0.0000 </r>
       <r>   41.0021    0.0000 </r>
      </set>
      <set comment="kpoint 59">
       <r>    1.8396    1.0000 </r>
       <r>    5.7393    1.0000 </r>
       <r>    6.4159    1.0000 </r>
       <r>    6.4876    1.0000 </r>
       <r>    7.0756    1.0000 </r>
       <r>    7.4062    1.0000 </r>
       <r>   24.0518    0.0000 </r>
       <r>   29.8869    0.0000 </r>
       <r>   30.4574    0.0000 </r>
       <r>   33.9866    0.0000 </r>
       <r>   36.8863    0.0000 </r>
       <r>   39.6043    0.0000 </r>
      </set>
      <set comment="kpoint 60">
       <r>    2.8475    1.0000 </r>
       <r>    5.5422    1.0000 </r>
       <r>    6.2766    1.0000 </r>
       <r>    6.7505    1.0000 </r>
       <r>    7.0528    1.0000 </r>
       <r>    7.7932    1.0000 </r>
       <r>   22.8905    0.0000 </r>
       <r>   25.0824    0.0000 </r>
       <r>   30.4757    0.0000 </r>
       <r>   33.4923    0.0000 </r>
       <r>   36.5265    0.0000 </r>
       <r>   39.4194    0.0000 </r>
      </set>
      <set comment="kpoint 61">
       <r>    4.0797    1.0000 </r>
       <r>    5.4690    1.0000 </r>
       <r>    5.9887    1.0000 </r>
       <r>    6.9142    1.0000 </r>
       <r>    7.1925    1.0000 </r>
       <r>    8.6491   -0.0334 </r>
       <r>   20.2088    0.0000 </r>
       <r>   22.5375    0.0000 </r>
       <r>   28.0527    0.0000 </r>
       <r>   34.6494    0.0000 </r>
       <r>   36.1803    0.0000 </r>
       <r>   40.1257    0.0000 </r>
      </set>
      <set comment="kpoint 62">
       <r>    4.7108    1.0000 </r>
       <r>    5.6465    1.0000 </r>
       <r>    5.8981    1.0000 </r>
       <r>    6.7902    1.0000 </r>
       <r>    7.5749    1.0000 </r>
       <r>   10.2673   -0.0000 </r>
       <r>   16.1331    0.0000 </r>
       <r>   22.6954    0.0000 </r>
       <r>   26.0445    0.0000 </r>
       <r>   33.3997    0.0000 </r>
       <r>   37.1269    0.0000 </r>
       <r>   43.2404    0.0000 </r>
      </set>
      <set comment="kpoint 63">
       <r>    4.7610    1.0000 </r>
       <r>    5.5612    1.0000 </r>
       <r>    6.0924    1.0000 </r>
       <r>    6.7562    1.0000 </r>
       <r>    7.7364    1.0000 </r>
       <r>   11.5372   -0.0000 </r>
       <r>   14.1947    0.0000 </r>
       <r>   23.5556    0.0000 </r>
       <r>   24.6880    0.0000 </r>
       <r>   32.6776    0.0000 </r>
       <r>   37.6679    0.0000 </r>
       <r>   44.2742    0.0000 </r>
      </set>
      <set comment="kpoint 64">
       <r>    4.5400    1.0000 </r>
       <r>    5.4894    1.0000 </r>
       <r>    5.9494    1.0000 </r>
       <r>    6.8616    1.0000 </r>
       <r>    7.6487    1.0000 </r>
       <r>    9.5161   -0.0000 </r>
       <r>   17.3939    0.0000 </r>
       <r>   23.8006    0.0000 </r>
       <r>   25.3397    0.0000 </r>
       <r>   32.5550    0.0000 </r>
       <r>   37.9591    0.0000 </r>
       <r>   41.0404    0.0000 </r>
      </set>
      <set comment="kpoint 65">
       <r>    3.6575    1.0000 </r>
       <r>    5.3546    1.0000 </r>
       <r>    6.1562    1.0000 </r>
       <r>    6.9673    1.0000 </r>
       <r>    7.2812    1.0000 </r>
       <r>    8.1448    1.0316 </r>
       <r>   21.7115    0.0000 </r>
       <r>   23.8983    0.0000 </r>
       <r>   27.4844    0.0000 </r>
       <r>   32.6138    0.0000 </r>
       <r>   35.7947    0.0000 </r>
       <r>   40.6984    0.0000 </r>
      </set>
      <set comment="kpoint 66">
       <r>    3.4776    1.0000 </r>
       <r>    5.3320    1.0000 </r>
       <r>    6.2890    1.0000 </r>
       <r>    6.8309    1.0000 </r>
       <r>    7.6834    1.0000 </r>
       <r>    7.6990    1.0000 </r>
       <r>   21.5256    0.0000 </r>
       <r>   26.7474    0.0000 </r>
       <r>   27.0237    0.0000 </r>
       <r>   29.9080    0.0000 </r>
       <r>   35.6677    0.0000 </r>
       <r>   43.1224    0.0000 </r>
      </set>
      <set comment="kpoint 67">
       <r>    4.2755    1.0000 </r>
       <r>    5.1735    1.0000 </r>
       <r>    6.1622    1.0000 </r>
       <r>    7.2084    1.0000 </r>
       <r>    7.5131    1.0000 </r>
       <r>    8.7725   -0.0171 </r>
       <r>   20.7038    0.0000 </r>
       <r>   22.8764    0.0000 </r>
       <r>   24.5920    0.0000 </r>
       <r>   31.9354    0.0000 </r>
       <r>   35.2254    0.0000 </r>
       <r>   41.9783    0.0000 </r>
      </set>
      <set comment="kpoint 68">
       <r>    4.8455    1.0000 </r>
       <r>    5.2159    1.0000 </r>
       <r>    5.9340    1.0000 </r>
       <r>    7.2757    1.0000 </r>
       <r>    7.6256    1.0000 </r>
       <r>   10.6386   -0.0000 </r>
       <r>   18.4136    0.0000 </r>
       <r>   20.8783    0.0000 </r>
       <r>   22.3864    0.0000 </r>
       <r>   33.8548    0.0000 </r>
       <r>   36.7476    0.0000 </r>
       <r>   40.7977    0.0000 </r>
      </set>
      <set comment="kpoint 69">
       <r>    5.1306    1.0000 </r>
       <r>    5.2662    1.0000 </r>
       <r>    5.8298    1.0000 </r>
       <r>    7.0896    1.0000 </r>
       <r>    7.7534    1.0000 </r>
       <r>   13.2246   -0.0000 </r>
       <r>   14.9199    0.0000 </r>
       <r>   20.6774    0.0000 </r>
       <r>   21.6814    0.0000 </r>
       <r>   34.3324    0.0000 </r>
       <r>   38.1761    0.0000 </r>
       <r>   42.4590    0.0000 </r>
      </set>
      <set comment="kpoint 70">
       <r>    5.1184    1.0000 </r>
       <r>    5.4109    1.0000 </r>
       <r>    5.6271    1.0000 </r>
       <r>    7.1230    1.0000 </r>
       <r>    7.6091    1.0000 </r>
       <r>   11.5649   -0.0000 </r>
       <r>   17.0380    0.0000 </r>
       <r>   19.8604    0.0000 </r>
       <r>   23.0820    0.0000 </r>
       <r>   35.1384    0.0000 </r>
       <r>   37.0679    0.0000 </r>
       <r>   41.6732    0.0000 </r>
      </set>
      <set comment="kpoint 71">
       <r>    4.6201    1.0000 </r>
       <r>    5.3402    1.0000 </r>
       <r>    5.8630    1.0000 </r>
       <r>    7.1163    1.0000 </r>
       <r>    7.4214    1.0000 </r>
       <r>    9.4519   -0.0000 </r>
       <r>   19.2120    0.0000 </r>
       <r>   21.6121    0.0000 </r>
       <r>   25.1168    0.0000 </r>
       <r>   34.2708    0.0000 </r>
       <r>   36.4369    0.0000 </r>
       <r>   40.3106    0.0000 </r>
      </set>
      <set comment="kpoint 72">
       <r>    4.3953    1.0000 </r>
       <r>    4.9536    1.0000 </r>
       <r>    6.6652    1.0000 </r>
       <r>    7.2718    1.0000 </r>
       <r>    7.8602    1.0002 </r>
       <r>    9.4450   -0.0000 </r>
       <r>   19.6840    0.0000 </r>
       <r>   21.6142    0.0000 </r>
       <r>   24.5184    0.0000 </r>
       <r>   28.9147    0.0000 </r>
       <r>   34.5032    0.0000 </r>
       <r>   46.3653    0.0000 </r>
      </set>
      <set comment="kpoint 73">
       <r>    4.5638    1.0000 </r>
       <r>    4.9044    1.0000 </r>
       <r>    6.6459    1.0000 </r>
       <r>    7.5346    1.0000 </r>
       <r>    7.8099    1.0001 </r>
       <r>   11.1642   -0.0000 </r>
       <r>   19.1711    0.0000 </r>
       <r>   19.5089    0.0000 </r>
       <r>   21.6131    0.0000 </r>
       <r>   31.1272    0.0000 </r>
       <r>   34.6063    0.0000 </r>
       <r>   44.6031    0.0000 </r>
      </set>
      <set comment="kpoint 74">
       <r>    4.7928    1.0000 </r>
       <r>    5.0812    1.0000 </r>
       <r>    6.2795    1.0000 </r>
       <r>    7.3442    1.0000 </r>
       <r>    7.8957    1.0006 </r>
       <r>   13.5311   -0.0000 </r>
       <r>   17.4463    0.0000 </r>
       <r>   18.0290    0.0000 </r>
       <r>   20.2267    0.0000 </r>
       <r>   33.3933    0.0000 </r>
       <r>   37.0146    0.0000 </r>
       <r>   42.3736    0.0000 </r>
      </set>
      <set comment="kpoint 75">
       <r>    5.0825    1.0000 </r>
       <r>    5.3218    1.0000 </r>
       <r>    5.8084    1.0000 </r>
       <r>    7.1574    1.0000 </r>
       <r>    7.7888    1.0000 </r>
       <r>   14.2669    0.0000 </r>
       <r>   15.2048    0.0000 </r>
       <r>   18.6785    0.0000 </r>
       <r>   21.4207    0.0000 </r>
       <r>   34.4045    0.0000 </r>
       <r>   39.3055    0.0000 </r>
       <r>   41.5960    0.0000 </r>
      </set>
      <set comment="kpoint 76">
       <r>    4.9794    1.0000 </r>
       <r>    5.4071    1.0000 </r>
       <r>    5.8637    1.0000 </r>
       <r>    6.9582    1.0000 </r>
       <r>    7.6882    1.0000 </r>
       <r>   11.6389   -0.0000 </r>
       <r>   15.3944    0.0000 </r>
       <r>   22.0086    0.0000 </r>
       <r>   23.3172    0.0000 </r>
       <r>   34.0379    0.0000 </r>
       <r>   37.3309    0.0000 </r>
       <r>   43.0863    0.0000 </r>
      </set>
      <set comment="kpoint 77">
       <r>    4.4341    1.0000 </r>
       <r>    4.7609    1.0000 </r>
       <r>    7.1292    1.0000 </r>
       <r>    7.6230    1.0000 </r>
       <r>    7.8506    1.0002 </r>
       <r>   11.9720   -0.0000 </r>
       <r>   17.4654    0.0000 </r>
       <r>   18.8650    0.0000 </r>
       <r>   23.4852    0.0000 </r>
       <r>   28.6079    0.0000 </r>
       <r>   34.0690    0.0000 </r>
       <r>   48.3993    0.0000 </r>
      </set>
      <set comment="kpoint 78">
       <r>    4.5396    1.0000 </r>
       <r>    4.8458    1.0000 </r>
       <r>    6.8229    1.0000 </r>
       <r>    7.5565    1.0000 </r>
       <r>    7.8965    1.0006 </r>
       <r>   12.4050   -0.0000 </r>
       <r>   17.5803    0.0000 </r>
       <r>   19.0545    0.0000 </r>
       <r>   21.3152    0.0000 </r>
       <r>   30.9705    0.0000 </r>
       <r>   34.4970    0.0000 </r>
       <r>   45.6030    0.0000 </r>
      </set>
      <set comment="kpoint 79">
       <r>    4.8385    1.0000 </r>
       <r>    5.1254    1.0000 </r>
       <r>    6.1321    1.0000 </r>
       <r>    7.3403    1.0000 </r>
       <r>    7.7944    1.0000 </r>
       <r>   12.1206   -0.0000 </r>
       <r>   17.8337    0.0000 </r>
       <r>   19.7691    0.0000 </r>
       <r>   20.5379    0.0000 </r>
       <r>   33.5496    0.0000 </r>
       <r>   36.9357    0.0000 </r>
       <r>   41.6056    0.0000 </r>
      </set>
      <set comment="kpoint 80">
       <r>    4.4461    1.0000 </r>
       <r>    4.8263    1.0000 </r>
       <r>    6.9615    1.0000 </r>
       <r>    7.4749    1.0000 </r>
       <r>    7.8769    1.0004 </r>
       <r>   10.7776   -0.0000 </r>
       <r>   18.9541    0.0000 </r>
       <r>   19.3845    0.0000 </r>
       <r>   23.8350    0.0000 </r>
       <r>   28.7073    0.0000 </r>
       <r>   34.2101    0.0000 </r>
       <r>   47.5618    0.0000 </r>
      </set>
      <set comment="kpoint 81">
       <r>    4.5359    1.0000 </r>
       <r>    5.0170    1.0000 </r>
       <r>    6.3723    1.0000 </r>
       <r>    7.4206    1.0000 </r>
       <r>    7.6799    1.0000 </r>
       <r>    9.8085   -0.0000 </r>
       <r>   19.8866    0.0000 </r>
       <r>   21.6599    0.0000 </r>
       <r>   22.2899    0.0000 </r>
       <r>   31.4414    0.0000 </r>
       <r>   34.8338    0.0000 </r>
       <r>   43.2967    0.0000 </r>
      </set>
      <set comment="kpoint 82">
       <r>    4.1135    1.0000 </r>
       <r>    5.1293    1.0000 </r>
       <r>    6.3802    1.0000 </r>
       <r>    7.0481    1.0000 </r>
       <r>    7.7933    1.0000 </r>
       <r>    8.3978    0.6168 </r>
       <r>   20.5089    0.0000 </r>
       <r>   24.2801    0.0000 </r>
       <r>   25.5003    0.0000 </r>
       <r>   29.2789    0.0000 </r>
       <r>   34.9865    0.0000 </r>
       <r>   45.0808    0.0000 </r>
      </set>
      <set comment="kpoint 83">
       <r>    2.0261    1.0000 </r>
       <r>    5.8827    1.0000 </r>
       <r>    6.3700    1.0000 </r>
       <r>    6.3700    1.0000 </r>
       <r>    7.2784    1.0000 </r>
       <r>    7.2784    1.0000 </r>
       <r>   22.1713    0.0000 </r>
       <r>   31.6040    0.0000 </r>
       <r>   32.7071    0.0000 </r>
       <r>   32.7071    0.0000 </r>
       <r>   38.2721    0.0000 </r>
       <r>   38.2721    0.0000 </r>
      </set>
      <set comment="kpoint 84">
       <r>    2.8026    1.0000 </r>
       <r>    5.7762    1.0000 </r>
       <r>    6.3084    1.0000 </r>
       <r>    6.4761    1.0000 </r>
       <r>    7.1286    1.0000 </r>
       <r>    7.7425    1.0000 </r>
       <r>   20.8486    0.0000 </r>
       <r>   27.1734    0.0000 </r>
       <r>   32.9170    0.0000 </r>
       <r>   34.7363    0.0000 </r>
       <r>   36.2699    0.0000 </r>
       <r>   37.0177    0.0000 </r>
      </set>
      <set comment="kpoint 85">
       <r>    3.9553    1.0000 </r>
       <r>    5.6090    1.0000 </r>
       <r>    6.0596    1.0000 </r>
       <r>    6.7465    1.0000 </r>
       <r>    7.0338    1.0000 </r>
       <r>    8.6153   -0.0189 </r>
       <r>   20.0422    0.0000 </r>
       <r>   22.4003    0.0000 </r>
       <r>   31.7438    0.0000 </r>
       <r>   31.9301    0.0000 </r>
       <r>   38.3305    0.0000 </r>
       <r>   39.7453    0.0000 </r>
      </set>
      <set comment="kpoint 86">
       <r>    4.8168    1.0000 </r>
       <r>    5.7053    1.0000 </r>
       <r>    5.7231    1.0000 </r>
       <r>    6.8486    1.0000 </r>
       <r>    7.2778    1.0000 </r>
       <r>   10.1037   -0.0000 </r>
       <r>   17.6629    0.0000 </r>
       <r>   20.3623    0.0000 </r>
       <r>   29.0617    0.0000 </r>
       <r>   30.5763    0.0000 </r>
       <r>   40.7394    0.0000 </r>
       <r>   41.4260    0.0000 </r>
      </set>
      <set comment="kpoint 87">
       <r>    4.8766    1.0000 </r>
       <r>    5.4508    1.0000 </r>
       <r>    6.0741    1.0000 </r>
       <r>    6.8741    1.0000 </r>
       <r>    7.6531    1.0000 </r>
       <r>   12.1802   -0.0000 </r>
       <r>   14.3617    0.0000 </r>
       <r>   20.9601    0.0000 </r>
       <r>   27.0150    0.0000 </r>
       <r>   29.7134    0.0000 </r>
       <r>   42.1492    0.0000 </r>
       <r>   42.3354    0.0000 </r>
      </set>
      <set comment="kpoint 88">
       <r>    4.6600    1.0000 </r>
       <r>    5.2639    1.0000 </r>
       <r>    6.2135    1.0000 </r>
       <r>    6.9545    1.0000 </r>
       <r>    7.8494    1.0002 </r>
       <r>   10.5062   -0.0000 </r>
       <r>   16.4182    0.0000 </r>
       <r>   22.3126    0.0000 </r>
       <r>   25.7837    0.0000 </r>
       <r>   29.3310    0.0000 </r>
       <r>   39.2470    0.0000 </r>
       <r>   43.3553    0.0000 </r>
      </set>
      <set comment="kpoint 89">
       <r>    3.2513    1.0000 </r>
       <r>    5.8108    1.0000 </r>
       <r>    6.2468    1.0000 </r>
       <r>    6.4545    1.0000 </r>
       <r>    7.5920    1.0000 </r>
       <r>    7.6334    1.0000 </r>
       <r>   19.3292    0.0000 </r>
       <r>   29.2720    0.0000 </r>
       <r>   29.6223    0.0000 </r>
       <r>   31.9810    0.0000 </r>
       <r>   37.9064    0.0000 </r>
       <r>   39.8140    0.0000 </r>
      </set>
      <set comment="kpoint 90">
       <r>    4.0646    1.0000 </r>
       <r>    5.6544    1.0000 </r>
       <r>    6.0298    1.0000 </r>
       <r>    6.6760    1.0000 </r>
       <r>    7.4648    1.0000 </r>
       <r>    8.6152   -0.0188 </r>
       <r>   18.3658    0.0000 </r>
       <r>   24.7599    0.0000 </r>
       <r>   28.2093    0.0000 </r>
       <r>   33.0363    0.0000 </r>
       <r>   37.2539    0.0000 </r>
       <r>   40.6625    0.0000 </r>
      </set>
      <set comment="kpoint 91">
       <r>    4.9087    1.0000 </r>
       <r>    5.5399    1.0000 </r>
       <r>    5.6662    1.0000 </r>
       <r>    6.9966    1.0000 </r>
       <r>    7.3986    1.0000 </r>
       <r>   10.2461   -0.0000 </r>
       <r>   17.8550    0.0000 </r>
       <r>   20.5011    0.0000 </r>
       <r>   25.8477    0.0000 </r>
       <r>   33.9097    0.0000 </r>
       <r>   37.4943    0.0000 </r>
       <r>   42.1674    0.0000 </r>
      </set>
      <set comment="kpoint 92">
       <r>    5.1971    1.0000 </r>
       <r>    5.2706    1.0000 </r>
       <r>    5.8080    1.0000 </r>
       <r>    7.0836    1.0000 </r>
       <r>    7.6175    1.0000 </r>
       <r>   12.6270   -0.0000 </r>
       <r>   15.7833    0.0000 </r>
       <r>   19.0475    0.0000 </r>
       <r>   23.9535    0.0000 </r>
       <r>   32.7574    0.0000 </r>
       <r>   39.7700    0.0000 </r>
       <r>   43.7048    0.0000 </r>
      </set>
      <set comment="kpoint 93">
       <r>    4.8851    1.0000 </r>
       <r>    5.1547    1.0000 </r>
       <r>    6.1327    1.0000 </r>
       <r>    7.2093    1.0000 </r>
       <r>    7.7824    1.0000 </r>
       <r>   12.3657   -0.0000 </r>
       <r>   16.0536    0.0000 </r>
       <r>   20.0251    0.0000 </r>
       <r>   22.6725    0.0000 </r>
       <r>   31.9653    0.0000 </r>
       <r>   38.9242    0.0000 </r>
       <r>   41.8434    0.0000 </r>
      </set>
      <set comment="kpoint 94">
       <r>    4.3810    1.0000 </r>
       <r>    5.4756    1.0000 </r>
       <r>    6.1179    1.0000 </r>
       <r>    6.7515    1.0000 </r>
       <r>    7.8385    1.0001 </r>
       <r>    9.1860   -0.0000 </r>
       <r>   17.1997    0.0000 </r>
       <r>   24.9900    0.0000 </r>
       <r>   26.6907    0.0000 </r>
       <r>   29.6759    0.0000 </r>
       <r>   39.6274    0.0000 </r>
       <r>   42.0418    0.0000 </r>
      </set>
      <set comment="kpoint 95">
       <r>    4.8043    1.0000 </r>
       <r>    5.2951    1.0000 </r>
       <r>    6.0041    1.0000 </r>
       <r>    7.0541    1.0000 </r>
       <r>    7.7447    1.0000 </r>
       <r>   10.8035   -0.0000 </r>
       <r>   16.6190    0.0000 </r>
       <r>   22.4186    0.0000 </r>
       <r>   23.2529    0.0000 </r>
       <r>   32.1969    0.0000 </r>
       <r>   38.5919    0.0000 </r>
       <r>   41.2154    0.0000 </r>
      </set>
      <set comment="kpoint 96">
       <r>    5.0605    1.0000 </r>
       <r>    5.3964    1.0000 </r>
       <r>    5.7096    1.0000 </r>
       <r>    7.1775    1.0000 </r>
       <r>    7.7886    1.0000 </r>
       <r>   13.1667   -0.0000 </r>
       <r>   16.4493    0.0000 </r>
       <r>   19.3976    0.0000 </r>
       <r>   20.5920    0.0000 </r>
       <r>   35.9762    0.0000 </r>
       <r>   37.3664    0.0000 </r>
       <r>   41.0284    0.0000 </r>
      </set>
      <set comment="kpoint 97">
       <r>    4.9805    1.0000 </r>
       <r>    5.3943    1.0000 </r>
       <r>    5.7990    1.0000 </r>
       <r>    7.1848    1.0000 </r>
       <r>    7.8952    1.0006 </r>
       <r>   14.7654    0.0000 </r>
       <r>   16.1201    0.0000 </r>
       <r>   18.3895    0.0000 </r>
       <r>   19.3577    0.0000 </r>
       <r>   36.0491    0.0000 </r>
       <r>   38.6648    0.0000 </r>
       <r>   40.0319    0.0000 </r>
      </set>
      <set comment="kpoint 98">
       <r>    4.7676    1.0000 </r>
       <r>    5.1044    1.0000 </r>
       <r>    6.3544    1.0000 </r>
       <r>    7.1663    1.0000 </r>
       <r>    7.7993    1.0000 </r>
       <r>   12.0712   -0.0000 </r>
       <r>   15.8456    0.0000 </r>
       <r>   19.8764    0.0000 </r>
       <r>   25.1658    0.0000 </r>
       <r>   29.1475    0.0000 </r>
       <r>   39.0064    0.0000 </r>
       <r>   44.7009    0.0000 </r>
      </set>
      <set comment="kpoint 99">
       <r>    4.8764    1.0000 </r>
       <r>    5.1005    1.0000 </r>
       <r>    6.2321    1.0000 </r>
       <r>    7.2903    1.0000 </r>
       <r>    7.7942    1.0000 </r>
       <r>   13.8749   -0.0000 </r>
       <r>   15.6810    0.0000 </r>
       <r>   18.1574    0.0000 </r>
       <r>   22.4107    0.0000 </r>
       <r>   31.8518    0.0000 </r>
       <r>   39.0236    0.0000 </r>
       <r>   42.5677    0.0000 </r>
      </set>
      <set comment="kpoint 100">
       <r>    4.7880    1.0000 </r>
       <r>    5.0269    1.0000 </r>
       <r>    6.4521    1.0000 </r>
       <r>    7.3345    1.0000 </r>
       <r>    7.7171    1.0000 </r>
       <r>   13.5597   -0.0000 </r>
       <r>   15.4495    0.0000 </r>
       <r>   18.0554    0.0000 </r>
       <r>   24.8518    0.0000 </r>
       <r>   29.0674    0.0000 </r>
       <r>   38.8835    0.0000 </r>
       <r>   45.7252    0.0000 </r>
      </set>
      <set comment="kpoint 101">
       <r>    3.3830    1.0000 </r>
       <r>    6.2847    1.0000 </r>
       <r>    6.2847    1.0000 </r>
       <r>    6.3535    1.0000 </r>
       <r>    7.5562    1.0000 </r>
       <r>    7.5562    1.0000 </r>
       <r>   17.6683    0.0000 </r>
       <r>   30.7466    0.0000 </r>
       <r>   32.1764    0.0000 </r>
       <r>   32.1764    0.0000 </r>
       <r>   36.2483    0.0000 </r>
       <r>   36.2483    0.0000 </r>
      </set>
      <set comment="kpoint 102">
       <r>    3.8954    1.0000 </r>
       <r>    6.1491    1.0000 </r>
       <r>    6.3243    1.0000 </r>
       <r>    6.3630    1.0000 </r>
       <r>    7.4873    1.0000 </r>
       <r>    8.3944    0.6309 </r>
       <r>   16.5660    0.0000 </r>
       <r>   27.0487    0.0000 </r>
       <r>   31.4312    0.0000 </r>
[...]
       <r>    36.8517     0.2709    10.4549 </r>
       <r>    37.0387     0.3233    10.5154 </r>
       <r>    37.2257     0.2832    10.5683 </r>
       <r>    37.4127     0.2772    10.6201 </r>
       <r>    37.5997     0.2321    10.6635 </r>
       <r>    37.7867     0.2656    10.7132 </r>
       <r>    37.9737     0.2824    10.7660 </r>
       <r>    38.1607     0.3417    10.8299 </r>
       <r>    38.3477     0.3233    10.8904 </r>
       <r>    38.5348     0.1323    10.9151 </r>
       <r>    38.7218     0.1479    10.9428 </r>
       <r>    38.9088     0.2220    10.9843 </r>
       <r>    39.0958     0.2237    11.0261 </r>
       <r>    39.2828     0.1212    11.0488 </r>
       <r>    39.4698     0.2243    11.0907 </r>
       <r>    39.6568     0.2390    11.1355 </r>
       <r>    39.8438     0.1975    11.1724 </r>
       <r>    40.0309     0.1968    11.2092 </r>
       <r>    40.2179     0.2398    11.2540 </r>
       <r>    40.4049     0.1800    11.2877 </r>
       <r>    40.5919     0.1140    11.3090 </r>
       <r>    40.7789     0.2327    11.3525 </r>
       <r>    40.9659     0.1573    11.3819 </r>
       <r>    41.1529     0.1798    11.4156 </r>
       <r>    41.3399     0.0850    11.4315 </r>
       <r>    41.5269     0.1366    11.4570 </r>
       <r>    41.7140     0.1843    11.4915 </r>
       <r>    41.9010     0.1710    11.5235 </r>
       <r>    42.0880     0.2709    11.5741 </r>
       <r>    42.2750     0.1965    11.6109 </r>
       <r>    42.4620     0.1758    11.6438 </r>
       <r>    42.6490     0.1593    11.6736 </r>
       <r>    42.8360     0.0195    11.6772 </r>
       <r>    43.0230     0.0948    11.6950 </r>
       <r>    43.2100     0.1495    11.7229 </r>
       <r>    43.3971     0.1663    11.7540 </r>
       <r>    43.5841     0.1292    11.7782 </r>
       <r>    43.7711     0.0814    11.7934 </r>
       <r>    43.9581     0.0127    11.7958 </r>
       <r>    44.1451     0.0402    11.8033 </r>
       <r>    44.3321     0.0979    11.8216 </r>
       <r>    44.5191     0.0450    11.8300 </r>
       <r>    44.7061     0.1237    11.8531 </r>
       <r>    44.8932     0.0783    11.8678 </r>
       <r>    45.0802     0.0411    11.8755 </r>
       <r>    45.2672     0.0538    11.8855 </r>
       <r>    45.4542     0.0029    11.8861 </r>
       <r>    45.6412     0.0530    11.8960 </r>
       <r>    45.8282     0.0908    11.9130 </r>
       <r>    46.0152     0.0186    11.9165 </r>
       <r>    46.2022    -0.0018    11.9161 </r>
       <r>    46.3892     0.0389    11.9234 </r>
       <r>    46.5763     0.0589    11.9344 </r>
       <r>    46.7633     0.0316    11.9403 </r>
       <r>    46.9503    -0.0008    11.9401 </r>
       <r>    47.1373    -0.0009    11.9400 </r>
       <r>    47.3243    -0.0010    11.9398 </r>
       <r>    47.5113     0.0100    11.9417 </r>
       <r>    47.6983     0.0199    11.9454 </r>
       <r>    47.8853     0.0304    11.9511 </r>
       <r>    48.0724     0.0362    11.9578 </r>
       <r>    48.2594     0.0210    11.9618 </r>
       <r>    48.4464     0.0342    11.9682 </r>
       <r>    48.6334     0.0104    11.9701 </r>
       <r>    48.8204     0.0330    11.9763 </r>
       <r>    49.0074     0.0319    11.9822 </r>
       <r>    49.1944    -0.0008    11.9821 </r>
       <r>    49.3814    -0.0015    11.9818 </r>
       <r>    49.5684     0.0128    11.9842 </r>
       <r>    49.7555     0.0198    11.9879 </r>
       <r>    49.9425     0.0011    11.9881 </r>
       <r>    50.1295    -0.0009    11.9879 </r>
       <r>    50.3165    -0.0002    11.9879 </r>
       <r>    50.5035     0.0163    11.9909 </r>
       <r>    50.6905     0.0157    11.9939 </r>
       <r>    50.8775     0.0084    11.9955 </r>
       <r>    51.0645     0.0217    11.9995 </r>
       <r>    51.2516     0.0035    12.0002 </r>
       <r>    51.4386    -0.0008    12.0000 </r>
       <r>    51.6256    -0.0000    12.0000 </r>
       <r>    51.8126    -0.0000    12.0000 </r>
       <r>    51.9996    -0.0000    12.0000 </r>
       <r>    52.1866    -0.0000    12.0000 </r>
       <r>    52.3736     0.0000    12.0000 </r>
       <r>    52.5606     0.0000    12.0000 </r>
       <r>    52.7476     0.0000    12.0000 </r>
       <r>    52.9347     0.0000    12.0000 </r>
       <r>    53.1217     0.0000    12.0000 </r>
       <r>    53.3087     0.0000    12.0000 </r>
       <r>    53.4957     0.0000    12.0000 </r>
      </set>
      <set comment="spin 2">
       <r>    -2.6078     0.0000     0.0000 </r>
       <r>    -2.4208     0.0000     0.0000 </r>
       <r>    -2.2338     0.0000     0.0000 </r>
       <r>    -2.0468     0.0000     0.0000 </r>
       <r>    -1.8598     0.0000     0.0000 </r>
       <r>    -1.6728    -0.0000    -0.0000 </r>
       <r>    -1.4857    -0.0000    -0.0000 </r>
       <r>    -1.2987    -0.0000    -0.0000 </r>
       <r>    -1.1117    -0.0000    -0.0000 </r>
       <r>    -0.9247    -0.0000    -0.0000 </r>
       <r>    -0.7377    -0.0000    -0.0000 </r>
       <r>    -0.5507    -0.0000    -0.0000 </r>
       <r>    -0.3637    -0.0003    -0.0001 </r>
       <r>    -0.1767     0.0007     0.0001 </r>
       <r>     0.0103     0.0073     0.0014 </r>
       <r>     0.1974     0.0193     0.0051 </r>
       <r>     0.3844     0.0250     0.0097 </r>
       <r>     0.5714     0.0261     0.0146 </r>
       <r>     0.7584     0.0342     0.0210 </r>
       <r>     0.9454     0.0478     0.0299 </r>
       <r>     1.1324     0.0367     0.0368 </r>
       <r>     1.3194     0.0335     0.0431 </r>
       <r>     1.5064     0.0607     0.0544 </r>
       <r>     1.6935     0.0737     0.0682 </r>
       <r>     1.8805     0.0379     0.0753 </r>
       <r>     2.0675     0.0542     0.0854 </r>
       <r>     2.2545     0.0819     0.1007 </r>
       <r>     2.4415     0.0705     0.1139 </r>
       <r>     2.6285     0.0768     0.1283 </r>
       <r>     2.8155     0.0901     0.1451 </r>
       <r>     3.0025     0.0880     0.1616 </r>
       <r>     3.1895     0.0765     0.1759 </r>
       <r>     3.3766     0.1101     0.1965 </r>
       <r>     3.5636     0.1456     0.2237 </r>
       <r>     3.7506     0.1250     0.2471 </r>
       <r>     3.9376     0.1183     0.2692 </r>
       <r>     4.1246     0.1805     0.3030 </r>
       <r>     4.3116     0.2612     0.3518 </r>
       <r>     4.4986     0.2977     0.4075 </r>
       <r>     4.6856     0.4584     0.4932 </r>
       <r>     4.8727     0.5464     0.5954 </r>
       <r>     5.0597     0.4938     0.6877 </r>
       <r>     5.2467     0.6104     0.8019 </r>
       <r>     5.4337     0.8206     0.9554 </r>
       <r>     5.6207     0.9586     1.1346 </r>
       <r>     5.8077     0.9171     1.3061 </r>
       <r>     5.9947     0.8817     1.4710 </r>
       <r>     6.1817     0.8772     1.6351 </r>
       <r>     6.3687     1.0830     1.8376 </r>
       <r>     6.5558     1.2930     2.0794 </r>
       <r>     6.7428     1.3935     2.3400 </r>
       <r>     6.9298     1.5722     2.6341 </r>
       <r>     7.1168     1.6101     2.9352 </r>
       <r>     7.3038     1.3820     3.1936 </r>
       <r>     7.4908     1.1412     3.4070 </r>
       <r>     7.6778     1.2702     3.6446 </r>
       <r>     7.8648     1.4632     3.9182 </r>
       <r>     8.0519     1.3380     4.1684 </r>
       <r>     8.2389     1.2050     4.3938 </r>
       <r>     8.4259     1.5588     4.6853 </r>
       <r>     8.6129     1.9720     5.0541 </r>
       <r>     8.7999     1.1523     5.2696 </r>
       <r>     8.9869     0.2824     5.3224 </r>
       <r>     9.1739     0.1405     5.3487 </r>
       <r>     9.3609     0.2520     5.3958 </r>
       <r>     9.5479     0.1793     5.4293 </r>
       <r>     9.7350     0.1290     5.4534 </r>
       <r>     9.9220     0.1970     5.4903 </r>
       <r>    10.1090     0.1756     5.5231 </r>
       <r>    10.2960     0.1477     5.5507 </r>
       <r>    10.4830     0.1433     5.5775 </r>
       <r>    10.6700     0.2095     5.6167 </r>
       <r>    10.8570     0.1263     5.6403 </r>
       <r>    11.0440     0.1063     5.6602 </r>
       <r>    11.2311     0.1272     5.6840 </r>
       <r>    11.4181     0.1271     5.7078 </r>
       <r>    11.6051     0.1955     5.7443 </r>
       <r>    11.7921     0.1399     5.7705 </r>
       <r>    11.9791     0.1408     5.7968 </r>
       <r>    12.1661     0.0518     5.8065 </r>
       <r>    12.3531     0.0549     5.8168 </r>
       <r>    12.5401     0.1157     5.8384 </r>
       <r>    12.7271     0.1484     5.8661 </r>
       <r>    12.9142     0.1389     5.8921 </r>
       <r>    13.1012     0.0886     5.9087 </r>
       <r>    13.2882     0.0163     5.9117 </r>
       <r>    13.4752     0.0781     5.9264 </r>
       <r>    13.6622     0.0687     5.9392 </r>
       <r>    13.8492     0.0595     5.9503 </r>
       <r>    14.0362     0.0866     5.9665 </r>
       <r>    14.2232     0.1421     5.9931 </r>
       <r>    14.4102     0.1315     6.0177 </r>
       <r>    14.5973     0.1421     6.0443 </r>
       <r>    14.7843     0.1543     6.0731 </r>
       <r>    14.9713     0.2363     6.1173 </r>
       <r>    15.1583     0.1323     6.1421 </r>
       <r>    15.3453     0.1151     6.1636 </r>
       <r>    15.5323     0.1356     6.1890 </r>
       <r>    15.7193     0.1404     6.2152 </r>
       <r>    15.9063     0.1485     6.2430 </r>
       <r>    16.0934     0.1374     6.2687 </r>
       <r>    16.2804     0.1400     6.2949 </r>
       <r>    16.4674     0.1026     6.3140 </r>
       <r>    16.6544     0.0891     6.3307 </r>
       <r>    16.8414     0.1555     6.3598 </r>
       <r>    17.0284     0.1036     6.3792 </r>
       <r>    17.2154     0.0988     6.3976 </r>
       <r>    17.4024     0.1113     6.4185 </r>
       <r>    17.5894     0.1656     6.4494 </r>
       <r>    17.7765     0.2034     6.4875 </r>
       <r>    17.9635     0.1398     6.5136 </r>
       <r>    18.1505     0.2132     6.5535 </r>
       <r>    18.3375     0.1879     6.5886 </r>
       <r>    18.5245     0.1757     6.6215 </r>
       <r>    18.7115     0.1557     6.6506 </r>
       <r>    18.8985     0.0766     6.6649 </r>
       <r>    19.0855     0.2022     6.7027 </r>
       <r>    19.2726     0.2561     6.7506 </r>
       <r>    19.4596     0.1995     6.7879 </r>
       <r>    19.6466     0.2189     6.8289 </r>
       <r>    19.8336     0.2092     6.8680 </r>
       <r>    20.0206     0.2049     6.9063 </r>
       <r>    20.2076     0.1619     6.9366 </r>
       <r>    20.3946     0.1190     6.9588 </r>
       <r>    20.5816     0.1796     6.9924 </r>
       <r>    20.7686     0.2639     7.0418 </r>
       <r>    20.9557     0.2034     7.0798 </r>
       <r>    21.1427     0.1491     7.1077 </r>
       <r>    21.3297     0.1543     7.1365 </r>
       <r>    21.5167     0.2110     7.1760 </r>
       <r>    21.7037     0.2639     7.2254 </r>
       <r>    21.8907     0.3001     7.2815 </r>
       <r>    22.0777     0.1278     7.3054 </r>
       <r>    22.2647     0.0874     7.3217 </r>
       <r>    22.4518     0.2836     7.3748 </r>
       <r>    22.6388     0.3225     7.4351 </r>
       <r>    22.8258     0.2502     7.4819 </r>
       <r>    23.0128     0.2189     7.5228 </r>
       <r>    23.1998     0.1347     7.5480 </r>
       <r>    23.3868     0.1887     7.5833 </r>
       <r>    23.5738     0.2495     7.6299 </r>
       <r>    23.7608     0.2187     7.6708 </r>
       <r>    23.9478     0.2273     7.7133 </r>
       <r>    24.1349     0.2011     7.7509 </r>
       <r>    24.3219     0.2126     7.7907 </r>
       <r>    24.5089     0.1688     7.8223 </r>
       <r>    24.6959     0.2120     7.8619 </r>
       <r>    24.8829     0.2205     7.9032 </r>
       <r>    25.0699     0.2090     7.9423 </r>
       <r>    25.2569     0.2865     7.9958 </r>
       <r>    25.4439     0.1978     8.0328 </r>
       <r>    25.6310     0.1379     8.0586 </r>
       <r>    25.8180     0.1074     8.0787 </r>
       <r>    26.0050     0.2142     8.1187 </r>
       <r>    26.1920     0.2117     8.1583 </r>
       <r>    26.3790     0.0676     8.1710 </r>
       <r>    26.5660     0.1414     8.1974 </r>
       <r>    26.7530     0.2423     8.2427 </r>
       <r>    26.9400     0.1777     8.2760 </r>
       <r>    27.1270     0.1749     8.3087 </r>
       <r>    27.3141     0.1785     8.3421 </r>
       <r>    27.5011     0.1562     8.3713 </r>
       <r>    27.6881     0.1676     8.4026 </r>
       <r>    27.8751     0.1290     8.4267 </r>
       <r>    28.0621     0.1556     8.4558 </r>
       <r>    28.2491     0.2332     8.4994 </r>
       <r>    28.4361     0.1787     8.5329 </r>
       <r>    28.6231     0.1393     8.5589 </r>
       <r>    28.8101     0.1395     8.5850 </r>
       <r>    28.9972     0.2009     8.6226 </r>
       <r>    29.1842     0.2614     8.6714 </r>
       <r>    29.3712     0.2695     8.7218 </r>
       <r>    29.5582     0.2462     8.7679 </r>
       <r>    29.7452     0.2095     8.8071 </r>
       <r>    29.9322     0.3495     8.8724 </r>
       <r>    30.1192     0.2193     8.9134 </r>
       <r>    30.3062     0.1503     8.9415 </r>
       <r>    30.4933     0.3220     9.0018 </r>
       <r>    30.6803     0.2992     9.0577 </r>
       <r>    30.8673     0.1297     9.0820 </r>
       <r>    31.0543     0.2627     9.1311 </r>
       <r>    31.2413     0.3900     9.2040 </r>
       <r>    31.4283     0.3943     9.2778 </r>
       <r>    31.6153     0.2723     9.3287 </r>
       <r>    31.8023     0.2330     9.3723 </r>
       <r>    31.9893     0.2579     9.4205 </r>
       <r>    32.1764     0.2428     9.4659 </r>
       <r>    32.3634     0.2437     9.5115 </r>
       <r>    32.5504     0.3120     9.5698 </r>
       <r>    32.7374     0.3492     9.6351 </r>
       <r>    32.9244     0.2687     9.6854 </r>
       <r>    33.1114     0.1812     9.7193 </r>
       <r>    33.2984     0.1904     9.7549 </r>
       <r>    33.4854     0.1939     9.7911 </r>
       <r>    33.6725     0.2077     9.8300 </r>
       <r>    33.8595     0.1644     9.8607 </r>
       <r>    34.0465     0.1948     9.8972 </r>
       <r>    34.2335     0.1490     9.9250 </r>
       <r>    34.4205     0.1627     9.9554 </r>
       <r>    34.6075     0.2530    10.0028 </r>
       <r>    34.7945     0.3216    10.0629 </r>
       <r>    34.9815     0.1576    10.0924 </r>
       <r>    35.1685     0.1781    10.1257 </r>
       <r>    35.3556     0.1347    10.1509 </r>
       <r>    35.5426     0.0464    10.1595 </r>
       <r>    35.7296     0.0452    10.1680 </r>
       <r>    35.9166     0.1766    10.2010 </r>
       <r>    36.1036     0.1847    10.2356 </r>
       <r>    36.2906     0.2172    10.2762 </r>
       <r>    36.4776     0.2807    10.3287 </r>
       <r>    36.6646     0.3506    10.3942 </r>
       <r>    36.8517     0.2814    10.4469 </r>
       <r>    37.0387     0.3186    10.5064 </r>
       <r>    37.2257     0.2936    10.5613 </r>
       <r>    37.4127     0.2897    10.6155 </r>
       <r>    37.5997     0.2646    10.6650 </r>
       <r>    37.7867     0.2473    10.7112 </r>
       <r>    37.9737     0.2986    10.7671 </r>
       <r>    38.1607     0.3329    10.8293 </r>
       <r>    38.3477     0.2922    10.8840 </r>
       <r>    38.5348     0.1599    10.9139 </r>
       <r>    38.7218     0.1616    10.9441 </r>
       <r>    38.9088     0.2047    10.9824 </r>
       <r>    39.0958     0.2123    11.0221 </r>
       <r>    39.2828     0.1549    11.0511 </r>
       <r>    39.4698     0.2156    11.0914 </r>
       <r>    39.6568     0.2266    11.1338 </r>
       <r>    39.8438     0.2138    11.1738 </r>
       <r>    40.0309     0.1886    11.2090 </r>
       <r>    40.2179     0.2376    11.2535 </r>
       <r>    40.4049     0.1817    11.2874 </r>
       <r>    40.5919     0.1336    11.3124 </r>
       <r>    40.7789     0.2296    11.3554 </r>
       <r>    40.9659     0.1341    11.3804 </r>
       <r>    41.1529     0.1636    11.4110 </r>
       <r>    41.3399     0.1081    11.4313 </r>
       <r>    41.5269     0.1218    11.4540 </r>
       <r>    41.7140     0.1729    11.4864 </r>
       <r>    41.9010     0.2339    11.5301 </r>
       <r>    42.0880     0.2591    11.5786 </r>
       <r>    42.2750     0.1725    11.6108 </r>
       <r>    42.4620     0.1660    11.6419 </r>
       <r>    42.6490     0.1662    11.6730 </r>
       <r>    42.8360     0.0369    11.6799 </r>
       <r>    43.0230     0.0967    11.6979 </r>
       <r>    43.2100     0.1311    11.7225 </r>
       <r>    43.3971     0.1935    11.7587 </r>
       <r>    43.5841     0.1174    11.7806 </r>
       <r>    43.7711     0.0553    11.7910 </r>
       <r>    43.9581     0.0288    11.7963 </r>
       <r>    44.1451     0.0711    11.8096 </r>
       <r>    44.3321     0.0787    11.8244 </r>
       <r>    44.5191     0.0317    11.8303 </r>
       <r>    44.7061     0.1285    11.8543 </r>
       <r>    44.8932     0.0772    11.8687 </r>
       <r>    45.0802     0.0497    11.8780 </r>
       <r>    45.2672     0.0423    11.8859 </r>
       <r>    45.4542     0.0078    11.8874 </r>
       <r>    45.6412     0.0735    11.9011 </r>
       <r>    45.8282     0.0755    11.9153 </r>
       <r>    46.0152     0.0045    11.9161 </r>
       <r>    46.2022     0.0086    11.9177 </r>
       <r>    46.3892     0.0445    11.9260 </r>
       <r>    46.5763     0.0536    11.9361 </r>
       <r>    46.7633     0.0233    11.9404 </r>
       <r>    46.9503    -0.0019    11.9401 </r>
       <r>    47.1373    -0.0007    11.9399 </r>
       <r>    47.3243    -0.0007    11.9398 </r>
       <r>    47.5113     0.0132    11.9423 </r>
       <r>    47.6983     0.0199    11.9460 </r>
       <r>    47.8853     0.0373    11.9530 </r>
       <r>    48.0724     0.0297    11.9585 </r>
       <r>    48.2594     0.0258    11.9634 </r>
       <r>    48.4464     0.0301    11.9690 </r>
       <r>    48.6334     0.0105    11.9710 </r>
       <r>    48.8204     0.0422    11.9789 </r>
       <r>    49.0074     0.0191    11.9824 </r>
       <r>    49.1944    -0.0024    11.9820 </r>
       <r>    49.3814    -0.0005    11.9819 </r>
       <r>    49.5684     0.0165    11.9850 </r>
       <r>    49.7555     0.0166    11.9881 </r>
       <r>    49.9425    -0.0002    11.9881 </r>
       <r>    50.1295    -0.0009    11.9879 </r>
       <r>    50.3165     0.0010    11.9881 </r>
       <r>    50.5035     0.0194    11.9917 </r>
       <r>    50.6905     0.0123    11.9940 </r>
       <r>    50.8775     0.0123    11.9963 </r>
       <r>    51.0645     0.0193    11.9999 </r>
       <r>    51.2516     0.0010    12.0001 </r>
       <r>    51.4386    -0.0005    12.0000 </r>
       <r>    51.6256    -0.0000    12.0000 </r>
       <r>    51.8126    -0.0000    12.0000 </r>
       <r>    51.9996    -0.0000    12.0000 </r>
       <r>    52.1866    -0.0000    12.0000 </r>
       <r>    52.3736     0.0000    12.0000 </r>
       <r>    52.5606     0.0000    12.0000 </r>
       <r>    52.7476     0.0000    12.0000 </r>
       <r>    52.9347     0.0000    12.0000 </r>
       <r>    53.1217     0.0000    12.0000 </r>
       <r>    53.3087     0.0000    12.0000 </r>
       <r>    53.4957     0.0000    12.0000 </r>
      </set>
     </set>
    </array>
   </total>
  </dos>
 </calculation>
 <structure name="finalpos" >
  <crystal>
   <varray name="basis" >
    <v>       0.00000000       1.80000000       1.80000000 </v>
    <v>       1.80000000       0.00000000       1.80000000 </v>
    <v>       1.80000000       1.80000000       0.00000000 </v>
   </varray>
   <i name="volume">     11.66400000 </i>
   <varray name="rec_basis" >
    <v>      -0.27777778       0.27777778       0.27777778 </v>
    <v>       0.27777778      -0.27777778       0.27777778 </v>
    <v>       0.27777778       0.27777778      -0.27777778 </v>
   </varray>
  </crystal>
  <varray name="positions" >
   <v>       0.00000000       0.00000000       0.00000000 </v>
  </varray>
 </structure>
</modeling>
