fcc Ni                                  
   3.35000000000000     
     0.000000    0.500000    0.500000
     0.500000    0.000000    0.500000
     0.500000    0.500000    0.000000
   Ni
     1
Direct
  0.000000  0.000000  0.000000
 
   20   20   20
  129.63      122.13      101.97      75.060      48.229      26.757      13.020      6.4635      4.4587      3.8521    
  3.6418      3.8521      4.4587      6.4635      13.020      26.757      48.229      75.060      101.97      122.13    
  122.13      108.33      84.929      58.404      34.835      17.972      8.6039      5.0026      4.0656      3.6593    
  3.6594      4.0657      5.0029      8.6054      17.975      34.836      58.400      84.918      108.31      122.12    
  101.97      84.929      62.211      39.691      21.894      10.791      5.7392      4.2647      3.7064      3.5137    
  3.7065      4.2645      5.7396      10.794      21.898      39.692      62.204      84.916      101.96      108.31    
  75.060      58.404      39.691      23.386      12.178      6.4078      4.4355      3.7668      3.4238      3.4239    
  3.7666      4.4347      6.4073      12.179      23.389      39.692      58.403      75.056      84.916      84.918    
  48.229      34.835      21.894      12.178      6.6791      4.5506      3.8175      3.3805      3.2371      3.3808    
  3.8174      4.5495      6.6771      12.176      21.894      34.837      48.233      58.403      62.204      58.400    
  26.757      17.972      10.791      6.4078      4.5506      3.8373      3.3659      3.1369      3.1372      3.3668    
  3.8384      4.5507      6.4057      10.787      17.968      26.756      34.837      39.692      39.692      34.836    
  13.020      8.6039      5.7392      4.4355      3.8175      3.3659      3.1062      3.0242      3.1062      3.3671    
  3.8202      4.4384      5.7396      8.6004      13.013      17.968      21.894      23.389      21.898      17.975    
  6.4635      5.0026      4.2647      3.7668      3.3805      3.1369      3.0242      3.0235      3.1357      3.3806    
  3.7696      4.2696      5.0067      6.4633      8.6004      10.787      12.176      12.179      10.794      8.6054    
  4.4587      4.0656      3.7064      3.4238      3.2371      3.1372      3.1062      3.1357      3.2343      3.4210    
  3.7064      4.0696      4.4647      5.0067      5.7396      6.4057      6.6771      6.4073      5.7396      5.0029    
  3.8521      3.6593      3.5137      3.4239      3.3808      3.3668      3.3671      3.3806      3.4210      3.5088    
  3.6554      3.8522      4.0696      4.2696      4.4384      4.5507      4.5495      4.4347      4.2645      4.0657    
  3.6418      3.6594      3.7065      3.7666      3.8174      3.8384      3.8202      3.7696      3.7064      3.6554    
  3.6360      3.6554      3.7064      3.7696      3.8202      3.8384      3.8174      3.7666      3.7065      3.6594    
  3.8521      4.0657      4.2645      4.4347      4.5495      4.5507      4.4384      4.2696      4.0696      3.8522    
  3.6554      3.5088      3.4210      3.3806      3.3671      3.3668      3.3808      3.4239      3.5137      3.6593    
  4.4587      5.0029      5.7396      6.4073      6.6771      6.4057      5.7396      5.0067      4.4647      4.0696    
  3.7064      3.4210      3.2343      3.1357      3.1062      3.1372      3.2371      3.4238      3.7064      4.0656    
  6.4635      8.6054      10.794      12.179      12.176      10.787      8.6004      6.4633      5.0067      4.2696    
  3.7696      3.3806      3.1357      3.0235      3.0242      3.1369      3.3805      3.7668      4.2647      5.0026    
  13.020      17.975      21.898      23.389      21.894      17.968      13.013      8.6004      5.7396      4.4384    
  3.8202      3.3671      3.1062      3.0242      3.1062      3.3659      3.8175      4.4355      5.7392      8.6039    
  26.757      34.836      39.692      39.692      34.837      26.756      17.968      10.787      6.4057      4.5507    
  3.8384      3.3668      3.1372      3.1369      3.3659      3.8373      4.5506      6.4078      10.791      17.972    
  48.229      58.400      62.204      58.403      48.233      34.837      21.894      12.176      6.6771      4.5495    
  3.8174      3.3808      3.2371      3.3805      3.8175      4.5506      6.6791      12.178      21.894      34.835    
  75.060      84.918      84.916      75.056      58.403      39.692      23.389      12.179      6.4073      4.4347    
  3.7666      3.4239      3.4238      3.7668      4.4355      6.4078      12.178      23.386      39.691      58.404    
  101.97      108.31      101.96      84.916      62.204      39.692      21.898      10.794      5.7396      4.2645    
  3.7065      3.5137      3.7064      4.2647      5.7392      10.791      21.894      39.691      62.211      84.929    
  122.13      122.12      108.31      84.918      58.400      34.836      17.975      8.6054      5.0029      4.0657    
  3.6594      3.6593      4.0656      5.0026      8.6039      17.972      34.835      58.404      84.929      108.33    
  122.13      108.33      84.929      58.404      34.835      17.972      8.6039      5.0026      4.0656      3.6593    
  3.6594      4.0657      5.0029      8.6054      17.975      34.836      58.400      84.918      108.31      122.12    
  108.33      90.183      66.051      42.168      23.280      11.426      5.9500      4.3311      3.7618      3.5642    
  3.7618      4.3310      5.9510      11.430      23.285      42.168      66.040      90.164      108.31      115.08    
  84.929      66.051      44.905      26.480      13.710      6.9798      4.5940      3.8733      3.5126      3.5126    
  3.8729      4.5933      6.9807      13.714      26.485      44.905      66.042      84.917      96.130      96.135    
  58.404      42.168      26.480      14.586      7.6550      4.8305      3.9684      3.4972      3.3401      3.4973    
  3.9677      4.8289      7.6541      14.587      26.484      42.171      58.406      70.772      75.408      70.772    
  34.835      23.280      13.710      7.6550      4.9291      4.0235      3.5005      3.2403      3.2407      3.5010    
  4.0232      4.9273      7.6522      13.708      23.281      34.839      45.444      51.824      51.822      45.439    
  17.972      11.426      6.9798      4.8305      4.0235      3.5043      3.1972      3.0997      3.1977      3.5056    
  4.0250      4.8305      6.9773      11.422      17.970      25.171      30.834      32.984      30.833      25.171    
  8.6039      5.9500      4.5940      3.9684      3.5005      3.1972      3.0559      3.0556      3.1972      3.5022    
  3.9718      4.5971      5.9504      8.6006      12.268      15.898      18.168      18.170      15.903      12.273    
  5.0026      4.3311      3.8733      3.4972      3.2403      3.0997      3.0556      3.0984      3.2387      3.4972    
  3.8763      4.3363      5.0067      6.2043      7.7662      9.1213      9.6607      9.1250      7.7699      6.2042    
  4.0656      3.7618      3.5126      3.3401      3.2407      3.1977      3.1972      3.2387      3.3366      3.5094    
  3.7618      4.0697      4.3882      4.7681      5.2071      5.5157      5.5158      5.2062      4.7645      4.3826    
  3.6593      3.5642      3.5126      3.4973      3.5010      3.5056      3.5022      3.4972      3.5094      3.5590    
  3.6555      3.7910      3.9423      4.0792      4.1738      4.2077      4.1709      4.0748      3.9389      3.7910    
  3.6594      3.7618      3.8729      3.9677      4.0232      4.0250      3.9718      3.8763      3.7618      3.6555    
  3.5801      3.5466      3.5500      3.5717      3.5891      3.5879      3.5695      3.5500      3.5503      3.5857    
  4.0657      4.3310      4.5933      4.8289      4.9273      4.8305      4.5971      4.3363      4.0697      3.7910    
  3.5466      3.3683      3.2608      3.2088      3.1939      3.2091      3.2629      3.3724      3.5501      3.7910    
  5.0029      5.9510      6.9807      7.6541      7.6522      6.9773      5.9504      5.0067      4.3882      3.9423    
  3.5500      3.2608      3.0849      3.0057      3.0065      3.0869      3.2629      3.5500      3.9388      4.3826    
  8.6054      11.430      13.714      14.587      13.708      11.422      8.6006      6.2043      4.7681      4.0792    
  3.5717      3.2088      3.0057      2.9427      3.0064      3.2088      3.5696      4.0752      4.7645      6.2042    
  17.975      23.285      26.485      26.484      23.281      17.970      12.268      7.7662      5.2071      4.1738    
  3.5891      3.1939      3.0065      3.0064      3.1932      3.5873      4.1717      5.2069      7.7694      12.273    
  34.836      42.168      44.905      42.171      34.839      25.171      15.898      9.1213      5.5157      4.2077    
  3.5879      3.2091      3.0869      3.2088      3.5873      4.2076      5.5174      9.1249      15.901      25.171    
  58.400      66.040      66.042      58.406      45.444      30.834      18.168      9.6607      5.5158      4.1709    
  3.5695      3.2629      3.2629      3.5696      4.1717      5.5174      9.6624      18.168      30.831      45.439    
  84.918      90.164      84.917      70.772      51.824      32.984      18.170      9.1250      5.2062      4.0748    
  3.5500      3.3724      3.5500      4.0752      5.2069      9.1249      18.168      32.982      51.823      70.772    
  108.31      108.31      96.130      75.408      51.822      30.833      15.903      7.7699      4.7645      3.9389    
  3.5503      3.5501      3.9388      4.7645      7.7694      15.901      30.831      51.823      75.412      96.135    
  122.12      115.08      96.135      70.772      45.439      25.171      12.273      6.2042      4.3826      3.7910    
  3.5857      3.7910      4.3826      6.2042      12.273      25.171      45.439      70.772      96.135      115.08    
  101.97      84.929      62.211      39.691      21.894      10.791      5.7392      4.2647      3.7064      3.5137    
  3.7065      4.2645      5.7396      10.794      21.898      39.692      62.204      84.916      101.96      108.31    
  84.929      66.051      44.905      26.480      13.710      6.9798      4.5940      3.8733      3.5126      3.5126    
  3.8729      4.5933      6.9807      13.714      26.485      44.905      66.042      84.917      96.130      96.135    
  62.211      44.905      28.195      15.496      8.0347      4.9416      4.0206      3.5385      3.3768      3.5385    
  4.0197      4.9399      8.0346      15.500      28.200      44.908      62.211      75.410      80.364      75.412    
  39.691      26.480      15.496      8.4483      5.1788      4.1215      3.5741      3.2977      3.2980      3.5741    
  4.1201      5.1759      8.4458      15.497      26.486      39.700      51.831      59.141      59.138      51.823    
  21.894      13.710      8.0347      5.1788      4.1573      3.5991      3.2615      3.1536      3.2620      3.5996    
  4.1566      5.1759      8.0308      13.708      21.898      30.839      37.860      40.525      37.853      30.831    
  10.791      6.9798      4.9416      4.1215      3.5991      3.2517      3.0887      3.0888      3.2524      3.6007    
  4.1230      4.9409      6.9767      10.788      15.900      20.889      23.990      23.989      20.888      15.901    
  5.7392      4.5940      4.0206      3.5741      3.2615      3.0887      3.0348      3.0880      3.2615      3.5760    
  4.0240      4.5966      5.7392      7.7664      10.297      12.438      13.279      12.441      10.302      7.7694    
  4.2647      3.8733      3.5385      3.2977      3.1536      3.0888      3.0880      3.1517      3.2959      3.5384    
  3.8762      4.2693      4.7679      5.5465      6.4403      7.0493      7.0506      6.4424      5.5464      4.7645    
  3.7064      3.5126      3.3768      3.2980      3.2620      3.2524      3.2615      3.2959      3.3730      3.5094    
  3.7064      3.9423      4.1784      4.3954      4.5868      4.6673      4.5856      4.3923      4.1738      3.9388    
  3.5137      3.5126      3.5385      3.5741      3.5996      3.6007      3.5760      3.5384      3.5094      3.5089    
  3.5468      3.6186      3.7069      3.7865      3.8330      3.8316      3.7833      3.7042      3.6186      3.5501    
  3.7065      3.8729      4.0197      4.1201      4.1566      4.1230      4.0240      3.8762      3.7064      3.5468    
  3.4242      3.3506      3.3200      3.3136      3.3133      3.3125      3.3199      3.3533      3.4287      3.5503    
  4.2645      4.5933      4.9399      5.1759      5.1759      4.9409      4.5966      4.2693      3.9423      3.6186    
  3.3506      3.1646      3.0570      3.0102      3.0104      3.0583      3.1673      3.3533      3.6186      3.9389    
  5.7396      6.9807      8.0346      8.4458      8.0308      6.9767      5.7392      4.7679      4.1784      3.7069    
  3.3200      3.0570      2.9136      2.8696      2.9147      3.0583      3.3199      3.7042      4.1738      4.7645    
  10.794      13.714      15.500      15.497      13.708      10.788      7.7664      5.5465      4.3954      3.7865    
  3.3136      3.0102      2.8696      2.8699      3.0103      3.3123      3.7837      4.3928      5.5464      7.7699    
  21.898      26.485      28.200      26.486      21.898      15.900      10.297      6.4403      4.5868      3.8330    
  3.3133      3.0104      2.9147      3.0103      3.3123      3.8316      4.5868      6.4430      10.302      15.903    
  39.692      44.905      44.908      39.700      30.839      20.889      12.438      7.0493      4.6673      3.8316    
  3.3125      3.0583      3.0583      3.3123      3.8316      4.6686      7.0524      12.440      20.888      30.833    
  62.204      66.042      62.211      51.831      37.860      23.990      13.279      7.0506      4.5856      3.7833    
  3.3199      3.1673      3.3199      3.7837      4.5868      7.0524      13.280      23.988      37.853      51.822    
  84.916      84.917      75.410      59.141      40.525      23.989      12.441      6.4424      4.3923      3.7042    
  3.3533      3.3533      3.7042      4.3928      6.4430      12.440      23.988      40.522      59.138      75.408    
  101.96      96.130      80.364      59.138      37.853      20.888      10.302      5.5464      4.1738      3.6186    
  3.4287      3.6186      4.1738      5.5464      10.302      20.888      37.853      59.138      80.364      96.130    
  108.31      96.135      75.412      51.823      30.831      15.901      7.7694      4.7645      3.9388      3.5501    
  3.5503      3.9389      4.7645      7.7699      15.903      30.833      51.822      75.408      96.130      108.31    
  75.060      58.404      39.691      23.386      12.178      6.4078      4.4355      3.7668      3.4238      3.4239    
  3.7666      4.4347      6.4073      12.179      23.389      39.692      58.403      75.056      84.916      84.918    
  58.404      42.168      26.480      14.586      7.6550      4.8305      3.9684      3.4972      3.3401      3.4973    
  3.9677      4.8289      7.6541      14.587      26.484      42.171      58.406      70.772      75.408      70.772    
  39.691      26.480      15.496      8.4483      5.1788      4.1215      3.5741      3.2977      3.2980      3.5741    
  4.1201      5.1759      8.4458      15.497      26.486      39.700      51.831      59.141      59.138      51.823    
  23.386      14.586      8.4483      5.3197      4.2034      3.6327      3.2847      3.1732      3.2852      3.6328    
  4.2018      5.3157      8.4439      14.586      23.394      32.994      40.532      43.394      40.522      32.982    
  12.178      7.6550      5.1788      4.2034      3.6546      3.2841      3.1094      3.1096      3.2849      3.6556    
  4.2028      5.1749      7.6498      12.176      18.172      23.995      27.608      27.604      23.988      18.168    
  6.4078      4.8305      4.1215      3.6327      3.2841      3.0904      3.0303      3.0904      3.2851      3.6348    
  4.1228      4.8291      6.4040      9.1213      12.439      15.213      16.297      15.213      12.440      9.1249    
  4.4355      3.9684      3.5741      3.2847      3.1094      3.0303      3.0297      3.1085      3.2849      3.5761    
  3.9714      4.4374      5.2062      6.4399      7.8137      8.7313      8.7328      7.8172      6.4430      5.2069    
  3.7668      3.4972      3.2977      3.1732      3.1096      3.0904      3.1085      3.1711      3.2959      3.4972    
  3.7693      4.0788      4.3950      4.7776      5.1426      5.2970      5.1436      4.7777      4.3928      4.0752    
  3.4238      3.3401      3.2980      3.2852      3.2849      3.2851      3.2849      3.2959      3.3365      3.4211    
  3.5500      3.7068      3.8630      3.9876      4.0566      4.0559      3.9855      3.8598      3.7042      3.5500    
  3.4239      3.4973      3.5741      3.6328      3.6556      3.6348      3.5761      3.4972      3.4211      3.3685    
  3.3507      3.3660      3.4005      3.4331      3.4456      3.4314      3.3986      3.3661      3.3533      3.3724    
  3.7666      3.9677      4.1201      4.2018      4.2028      4.1228      3.9714      3.7693      3.5500      3.3507    
  3.1990      3.1034      3.0547      3.0360      3.0356      3.0546      3.1051      3.2022      3.3533      3.5500    
  4.4347      4.8289      5.1759      5.3157      5.1749      4.8291      4.4374      4.0788      3.7068      3.3660    
  3.1034      2.9325      2.8416      2.8138      2.8422      2.9339      3.1051      3.3661      3.7042      4.0748    
  6.4073      7.6541      8.4458      8.4439      7.6498      6.4040      5.2062      4.3950      3.8630      3.4005    
  3.0547      2.8416      2.7444      2.7448      2.8423      3.0546      3.3987      3.8598      4.3923      5.2062    
  12.179      14.587      15.497      14.586      12.176      9.1213      6.4399      4.7776      3.9876      3.4331    
  3.0360      2.8138      2.7448      2.8140      3.0354      3.4313      3.9859      4.7777      6.4424      9.1250    
  23.389      26.484      26.486      23.394      18.172      12.439      7.8137      5.1426      4.0566      3.4456    
  3.0356      2.8422      2.8423      3.0354      3.4449      4.0565      5.1447      7.8172      12.441      18.170    
  39.692      42.171      39.700      32.994      23.995      15.213      8.7313      5.2970      4.0559      3.4314    
  3.0546      2.9339      3.0546      3.4313      4.0565      5.2991      8.7340      15.213      23.989      32.984    
  58.403      58.406      51.831      40.532      27.608      16.297      8.7328      5.1436      3.9855      3.3986    
  3.1051      3.1051      3.3987      3.9859      5.1447      8.7340      16.297      27.604      40.525      51.824    
  75.056      70.772      59.141      43.394      27.604      15.213      7.8172      4.7777      3.8598      3.3661    
  3.2022      3.3661      3.8598      4.7777      7.8172      15.213      27.604      43.394      59.141      70.772    
  84.916      75.408      59.138      40.522      23.988      12.440      6.4430      4.3928      3.7042      3.3533    
  3.3533      3.7042      4.3923      6.4424      12.441      23.989      40.525      59.141      75.410      84.917    
  84.918      70.772      51.823      32.982      18.168      9.1249      5.2069      4.0752      3.5500      3.3724    
  3.5500      4.0748      5.2062      9.1250      18.170      32.984      51.824      70.772      84.917      90.164    
  48.229      34.835      21.894      12.178      6.6791      4.5506      3.8175      3.3805      3.2371      3.3808    
  3.8174      4.5495      6.6771      12.176      21.894      34.837      48.233      58.403      62.204      58.400    
  34.835      23.280      13.710      7.6550      4.9291      4.0235      3.5005      3.2403      3.2407      3.5010    
  4.0232      4.9273      7.6522      13.708      23.281      34.839      45.444      51.824      51.822      45.439    
  21.894      13.710      8.0347      5.1788      4.1573      3.5991      3.2615      3.1536      3.2620      3.5996    
  4.1566      5.1759      8.0308      13.708      21.898      30.839      37.860      40.525      37.853      30.831    
  12.178      7.6550      5.1788      4.2034      3.6546      3.2841      3.1094      3.1096      3.2849      3.6556    
  4.2028      5.1749      7.6498      12.176      18.172      23.995      27.608      27.604      23.988      18.168    
  6.6791      4.9291      4.1573      3.6546      3.2935      3.0926      3.0303      3.0929      3.2950      3.6565    
  4.1573      4.9256      6.6737      9.6591      13.280      16.299      17.476      16.297      13.280      9.6624    
  4.5506      4.0235      3.5991      3.2841      3.0926      3.0063      3.0061      3.0927      3.2856      3.6016    
  4.0251      4.5493      5.5136      7.0479      8.7308      9.8452      9.8463      8.7340      7.0524      5.5174    
  3.8175      3.5005      3.2615      3.1094      3.0303      3.0061      3.0295      3.1086      3.2620      3.5026    
  3.8202      4.1730      4.5856      5.1416      5.6701      5.8915      5.6727      5.1447      4.5868      4.1717    
  3.3805      3.2403      3.1536      3.1096      3.0929      3.0927      3.1086      3.1518      3.2389      3.3807    
  3.5717      3.7862      3.9871      4.1450      4.2436      4.2439      4.1451      3.9859      3.7837      3.5696    
  3.2371      3.2407      3.2620      3.2849      3.2950      3.2856      3.2620      3.2389      3.2343      3.2608    
  3.3199      3.4003      3.4819      3.5423      3.5641      3.5411      3.4799      3.3987      3.3199      3.2629    
  3.3808      3.5010      3.5996      3.6556      3.6565      3.6016      3.5026      3.3807      3.2608      3.1645    
  3.1032      3.0761      3.0713      3.0736      3.0730      3.0702      3.0761      3.1051      3.1673      3.2629    
  3.8174      4.0232      4.1566      4.2028      4.1573      4.0251      3.8202      3.5717      3.3199      3.1032    
  2.9441      2.8445      2.7933      2.7777      2.7932      2.8453      2.9461      3.1051      3.3199      3.5695    
  4.5495      4.9273      5.1759      5.1749      4.9256      4.5493      4.1730      3.7862      3.4003      3.0761    
  2.8445      2.7050      2.6416      2.6418      2.7056      2.8453      3.0761      3.3986      3.7833      4.1709    
  6.6771      7.6522      8.0308      7.6498      6.6737      5.5136      4.5856      3.9871      3.4819      3.0713    
  2.7933      2.6416      2.5948      2.6420      2.7932      3.0702      3.4799      3.9855      4.5856      5.5158    
  12.176      13.708      13.708      12.176      9.6591      7.0479      5.1416      4.1450      3.5423      3.0736    
  2.7777      2.6418      2.6420      2.7777      3.0728      3.5412      4.1451      5.1436      7.0506      9.6607    
  21.894      23.281      21.898      18.172      13.280      8.7308      5.6701      4.2436      3.5641      3.0730    
  2.7932      2.7056      2.7932      3.0728      3.5640      4.2448      5.6727      8.7328      13.279      18.168    
  34.837      34.839      30.839      23.995      16.299      9.8452      5.8915      4.2439      3.5411      3.0702    
  2.8453      2.8453      3.0702      3.5412      4.2448      5.8931      9.8463      16.297      23.990      30.834    
  48.233      45.444      37.860      27.608      17.476      9.8463      5.6727      4.1451      3.4799      3.0761    
  2.9461      3.0761      3.4799      4.1451      5.6727      9.8463      17.476      27.608      37.860      45.444    
  58.403      51.824      40.525      27.604      16.297      8.7340      5.1447      3.9859      3.3987      3.1051    
  3.1051      3.3986      3.9855      5.1436      8.7328      16.297      27.608      40.532      51.831      58.406    
  62.204      51.822      37.853      23.988      13.280      7.0524      4.5868      3.7837      3.3199      3.1673    
  3.3199      3.7833      4.5856      7.0506      13.279      23.990      37.860      51.831      62.211      66.042    
  58.400      45.439      30.831      18.168      9.6624      5.5174      4.1717      3.5696      3.2629      3.2629    
  3.5695      4.1709      5.5158      9.6607      18.168      30.834      45.444      58.406      66.042      66.040    
  26.757      17.972      10.791      6.4078      4.5506      3.8373      3.3659      3.1369      3.1372      3.3668    
  3.8384      4.5507      6.4057      10.787      17.968      26.756      34.837      39.692      39.692      34.836    
  17.972      11.426      6.9798      4.8305      4.0235      3.5043      3.1972      3.0997      3.1977      3.5056    
  4.0250      4.8305      6.9773      11.422      17.970      25.171      30.834      32.984      30.833      25.171    
  10.791      6.9798      4.9416      4.1215      3.5991      3.2517      3.0887      3.0888      3.2524      3.6007    
  4.1230      4.9409      6.9767      10.788      15.900      20.889      23.990      23.989      20.888      15.901    
  6.4078      4.8305      4.1215      3.6327      3.2841      3.0904      3.0303      3.0904      3.2851      3.6348    
  4.1228      4.8291      6.4040      9.1213      12.439      15.213      16.297      15.213      12.440      9.1249    
  4.5506      4.0235      3.5991      3.2841      3.0926      3.0063      3.0061      3.0927      3.2856      3.6016    
  4.0251      4.5493      5.5136      7.0479      8.7308      9.8452      9.8463      8.7340      7.0524      5.5174    
  3.8373      3.5043      3.2517      3.0904      3.0063      2.9807      3.0058      3.0904      3.2532      3.5070    
  3.8396      4.2077      4.6658      5.2949      5.8900      6.1384      5.8931      5.2991      4.6686      4.2076    
  3.3659      3.1972      3.0887      3.0303      3.0061      3.0058      3.0295      3.0881      3.1977      3.3679    
  3.5899      3.8330      4.0556      4.2426      4.3677      4.3688      4.2448      4.0565      3.8316      3.5873    
  3.1369      3.0997      3.0888      3.0904      3.0927      3.0904      3.0881      3.0983      3.1359      3.2092    
  3.3140      3.4330      3.5419      3.6177      3.6449      3.6177      3.5412      3.4313      3.3123      3.2088    
  3.1372      3.1977      3.2524      3.2851      3.2856      3.2532      3.1977      3.1359      3.0850      3.0570    
  3.0546      3.0712      3.0939      3.1093      3.1089      3.0929      3.0702      3.0546      3.0583      3.0869    
  3.3668      3.5056      3.6007      3.6348      3.6016      3.5070      3.3679      3.2092      3.0570      2.9322    
  2.8443      2.7917      2.7658      2.7581      2.7654      2.7916      2.8453      2.9339      3.0583      3.2091    
  3.8384      4.0250      4.1230      4.1228      4.0251      3.8396      3.5899      3.3140      3.0546      2.8443    
  2.6962      2.6067      2.5655      2.5655      2.6070      2.6971      2.8453      3.0546      3.3125      3.5879    
  4.5507      4.8305      4.9409      4.8291      4.5493      4.2077      3.8330      3.4330      3.0712      2.7917    
  2.6067      2.5058      2.4743      2.5060      2.6070      2.7916      3.0702      3.4314      3.8316      4.2077    
  6.4057      6.9773      6.9767      6.4040      5.5136      4.6658      4.0556      3.5419      3.0939      2.7658    
  2.5655      2.4743      2.4745      2.5656      2.7653      3.0929      3.5411      4.0559      4.6673      5.5157    
  10.787      11.422      10.788      9.1213      7.0479      5.2949      4.2426      3.6177      3.1093      2.7581    
  2.5655      2.5060      2.5656      2.7579      3.1088      3.6177      4.2439      5.2970      7.0493      9.1213    
  17.968      17.970      15.900      12.439      8.7308      5.8900      4.3677      3.6449      3.1089      2.7654    
  2.6070      2.6070      2.7653      3.1088      3.6452      4.3688      5.8915      8.7313      12.438      15.898    
  26.756      25.171      20.889      15.213      9.8452      6.1384      4.3688      3.6177      3.0929      2.7916    
  2.6971      2.7916      3.0929      3.6177      4.3688      6.1384      9.8452      15.213      20.889      25.171    
  34.837      30.834      23.990      16.297      9.8463      5.8931      4.2448      3.5412      3.0702      2.8453    
  2.8453      3.0702      3.5411      4.2439      5.8915      9.8452      16.299      23.995      30.839      34.839    
  39.692      32.984      23.989      15.213      8.7340      5.2991      4.0565      3.4313      3.0546      2.9339    
  3.0546      3.4314      4.0559      5.2970      8.7313      15.213      23.995      32.994      39.700      42.171    
  39.692      30.833      20.888      12.440      7.0524      4.6686      3.8316      3.3123      3.0583      3.0583    
  3.3125      3.8316      4.6673      7.0493      12.438      20.889      30.839      39.700      44.908      44.905    
  34.836      25.171      15.901      9.1249      5.5174      4.2076      3.5873      3.2088      3.0869      3.2091    
  3.5879      4.2077      5.5157      9.1213      15.898      25.171      34.839      42.171      44.905      42.168    
  13.020      8.6039      5.7392      4.4355      3.8175      3.3659      3.1062      3.0242      3.1062      3.3671    
  3.8202      4.4384      5.7396      8.6004      13.013      17.968      21.894      23.389      21.898      17.975    
  8.6039      5.9500      4.5940      3.9684      3.5005      3.1972      3.0559      3.0556      3.1972      3.5022    
  3.9718      4.5971      5.9504      8.6006      12.268      15.898      18.168      18.170      15.903      12.273    
  5.7392      4.5940      4.0206      3.5741      3.2615      3.0887      3.0348      3.0880      3.2615      3.5760    