fcc Ni                                  
   3.35000000000000     
     0.000000    0.500000    0.500000
     0.500000    0.000000    0.500000
     0.500000    0.500000    0.000000
   Ni
     1
Direct
  0.000000  0.000000  0.000000
 
   20   20   20
 0.12962620884E+03 0.12212819597E+03 0.10197389987E+03 0.75059563074E+02 0.48229327169E+02
 0.26757278195E+02 0.13019634450E+02 0.64634846394E+01 0.44587492960E+01 0.38521044791E+01
 0.36418224018E+01 0.38521044791E+01 0.44587492960E+01 0.64634846394E+01 0.13019634450E+02
 0.26757278195E+02 0.48229327169E+02 0.75059563074E+02 0.10197389987E+03 0.12212819597E+03
 0.12212819597E+03 0.10832712832E+03 0.84928935164E+02 0.58404461090E+02 0.34834531236E+02
 0.17972036199E+02 0.86039129453E+01 0.50026293844E+01 0.40655704577E+01 0.36592994874E+01
 0.36594353462E+01 0.40657432202E+01 0.50029417403E+01 0.86054431439E+01 0.17975087594E+02
 0.34836298790E+02 0.58400319509E+02 0.84917615151E+02 0.10831415110E+03 0.12212242628E+03
 0.10197389987E+03 0.84928935164E+02 0.62210933112E+02 0.39690673905E+02 0.21893620175E+02
 0.10791309544E+02 0.57391841203E+01 0.42646614629E+01 0.37063607987E+01 0.35137205272E+01
 0.37064547375E+01 0.42644964583E+01 0.57396029324E+01 0.10793958008E+02 0.21897765332E+02
 0.39691657596E+02 0.62204133992E+02 0.84915959994E+02 0.10196328050E+03 0.10831415110E+03
 0.75059563074E+02 0.58404461090E+02 0.39690673905E+02 0.23386393917E+02 0.12177979992E+02
 0.64078062472E+01 0.44354879169E+01 0.37667933090E+01 0.34237985902E+01 0.34238696472E+01
 0.37665871126E+01 0.44346732821E+01 0.64073350465E+01 0.12179240062E+02 0.23389038383E+02
 0.39692271751E+02 0.58403093455E+02 0.75056393013E+02 0.84915959994E+02 0.84917615151E+02
 0.48229327169E+02 0.34834531236E+02 0.21893620175E+02 0.12177979992E+02 0.66790668960E+01
 0.45505554573E+01 0.38174731911E+01 0.33805401934E+01 0.32371112316E+01 0.33808346535E+01
 0.38174022860E+01 0.45494525258E+01 0.66770640591E+01 0.12176252226E+02 0.21893680485E+02
 0.34836974875E+02 0.48233060119E+02 0.58403093455E+02 0.62204133992E+02 0.58400319509E+02
 0.26757278195E+02 0.17972036199E+02 0.10791309544E+02 0.64078062472E+01 0.45505554573E+01
 0.38373046175E+01 0.33659357120E+01 0.31369342923E+01 0.31371862503E+01 0.33667691127E+01
 0.38384181535E+01 0.45507166015E+01 0.64057472603E+01 0.10787401655E+02 0.17968462219E+02
 0.26755985995E+02 0.34836974875E+02 0.39692271751E+02 0.39691657596E+02 0.34836298790E+02
 0.13019634450E+02 0.86039129453E+01 0.57391841203E+01 0.44354879169E+01 0.38174731911E+01
 0.33659357120E+01 0.31061760688E+01 0.30241630546E+01 0.31062121065E+01 0.33671149047E+01
 0.38202483367E+01 0.44383585799E+01 0.57395731956E+01 0.86003890364E+01 0.13013199799E+02
 0.17968462219E+02 0.21893680485E+02 0.23389038383E+02 0.21897765332E+02 0.17975087594E+02
 0.64634846394E+01 0.50026293844E+01 0.42646614629E+01 0.37667933090E+01 0.33805401934E+01
 0.31369342923E+01 0.30241630546E+01 0.30235093455E+01 0.31357323324E+01 0.33805913565E+01
 0.37695555621E+01 0.42695797594E+01 0.50067263609E+01 0.64633405682E+01 0.86003890364E+01
 0.10787401655E+02 0.12176252226E+02 0.12179240062E+02 0.10793958008E+02 0.86054431439E+01
 0.44587492960E+01 0.40655704577E+01 0.37063607987E+01 0.34237985902E+01 0.32371112316E+01
 0.31371862503E+01 0.31062121065E+01 0.31357323324E+01 0.32342784232E+01 0.34210476429E+01
 0.37063804975E+01 0.40696459687E+01 0.44646748938E+01 0.50067263609E+01 0.57395731956E+01
 0.64057472603E+01 0.66770640591E+01 0.64073350465E+01 0.57396029324E+01 0.50029417403E+01
 0.38521044791E+01 0.36592994874E+01 0.35137205272E+01 0.34238696472E+01 0.33808346535E+01
 0.33667691127E+01 0.33671149047E+01 0.33805913565E+01 0.34210476429E+01 0.35087610959E+01
 0.36553920158E+01 0.38521641929E+01 0.40696459687E+01 0.42695797594E+01 0.44383585799E+01
 0.45507166015E+01 0.45494525258E+01 0.44346732821E+01 0.42644964583E+01 0.40657432202E+01
 0.36418224018E+01 0.36594353462E+01 0.37064547375E+01 0.37665871126E+01 0.38174022860E+01
 0.38384181535E+01 0.38202483367E+01 0.37695555621E+01 0.37063804975E+01 0.36553920158E+01
 0.36359822632E+01 0.36553920158E+01 0.37063804975E+01 0.37695555621E+01 0.38202483367E+01
 0.38384181535E+01 0.38174022860E+01 0.37665871126E+01 0.37064547375E+01 0.36594353462E+01
 0.38521044791E+01 0.40657432202E+01 0.42644964583E+01 0.44346732821E+01 0.45494525258E+01
 0.45507166015E+01 0.44383585799E+01 0.42695797594E+01 0.40696459687E+01 0.38521641929E+01
 0.36553920158E+01 0.35087610959E+01 0.34210476429E+01 0.33805913565E+01 0.33671149047E+01
 0.33667691127E+01 0.33808346535E+01 0.34238696472E+01 0.35137205272E+01 0.36592994874E+01
 0.44587492960E+01 0.50029417403E+01 0.57396029324E+01 0.64073350465E+01 0.66770640591E+01
 0.64057472603E+01 0.57395731956E+01 0.50067263609E+01 0.44646748938E+01 0.40696459687E+01
 0.37063804975E+01 0.34210476429E+01 0.32342784232E+01 0.31357323324E+01 0.31062121065E+01
 0.31371862503E+01 0.32371112316E+01 0.34237985902E+01 0.37063607987E+01 0.40655704577E+01
 0.64634846394E+01 0.86054431439E+01 0.10793958008E+02 0.12179240062E+02 0.12176252226E+02
 0.10787401655E+02 0.86003890364E+01 0.64633405682E+01 0.50067263609E+01 0.42695797594E+01
 0.37695555621E+01 0.33805913565E+01 0.31357323324E+01 0.30235093455E+01 0.30241630546E+01
 0.31369342923E+01 0.33805401934E+01 0.37667933090E+01 0.42646614629E+01 0.50026293844E+01
 0.13019634450E+02 0.17975087594E+02 0.21897765332E+02 0.23389038383E+02 0.21893680485E+02
 0.17968462219E+02 0.13013199799E+02 0.86003890364E+01 0.57395731956E+01 0.44383585799E+01
 0.38202483367E+01 0.33671149047E+01 0.31062121065E+01 0.30241630546E+01 0.31061760688E+01
 0.33659357120E+01 0.38174731911E+01 0.44354879169E+01 0.57391841203E+01 0.86039129453E+01
 0.26757278195E+02 0.34836298790E+02 0.39691657596E+02 0.39692271751E+02 0.34836974875E+02
 0.26755985995E+02 0.17968462219E+02 0.10787401655E+02 0.64057472603E+01 0.45507166015E+01
 0.38384181535E+01 0.33667691127E+01 0.31371862503E+01 0.31369342923E+01 0.33659357120E+01
 0.38373046175E+01 0.45505554573E+01 0.64078062472E+01 0.10791309544E+02 0.17972036199E+02
 0.48229327169E+02 0.58400319509E+02 0.62204133992E+02 0.58403093455E+02 0.48233060119E+02
 0.34836974875E+02 0.21893680485E+02 0.12176252226E+02 0.66770640591E+01 0.45494525258E+01
 0.38174022860E+01 0.33808346535E+01 0.32371112316E+01 0.33805401934E+01 0.38174731911E+01
 0.45505554573E+01 0.66790668960E+01 0.12177979992E+02 0.21893620175E+02 0.34834531236E+02
 0.75059563074E+02 0.84917615151E+02 0.84915959994E+02 0.75056393013E+02 0.58403093455E+02
 0.39692271751E+02 0.23389038383E+02 0.12179240062E+02 0.64073350465E+01 0.44346732821E+01
 0.37665871126E+01 0.34238696472E+01 0.34237985902E+01 0.37667933090E+01 0.44354879169E+01
 0.64078062472E+01 0.12177979992E+02 0.23386393917E+02 0.39690673905E+02 0.58404461090E+02
 0.10197389987E+03 0.10831415110E+03 0.10196328050E+03 0.84915959994E+02 0.62204133992E+02
 0.39691657596E+02 0.21897765332E+02 0.10793958008E+02 0.57396029324E+01 0.42644964583E+01
 0.37064547375E+01 0.35137205272E+01 0.37063607987E+01 0.42646614629E+01 0.57391841203E+01
 0.10791309544E+02 0.21893620175E+02 0.39690673905E+02 0.62210933112E+02 0.84928935164E+02
 0.12212819597E+03 0.12212242628E+03 0.10831415110E+03 0.84917615151E+02 0.58400319509E+02
 0.34836298790E+02 0.17975087594E+02 0.86054431439E+01 0.50029417403E+01 0.40657432202E+01
 0.36594353462E+01 0.36592994874E+01 0.40655704577E+01 0.50026293844E+01 0.86039129453E+01
 0.17972036199E+02 0.34834531236E+02 0.58404461090E+02 0.84928935164E+02 0.10832712832E+03
 0.12212819597E+03 0.10832712832E+03 0.84928935164E+02 0.58404461090E+02 0.34834531236E+02
 0.17972036199E+02 0.86039129453E+01 0.50026293844E+01 0.40655704577E+01 0.36592994874E+01
 0.36594353462E+01 0.40657432202E+01 0.50029417403E+01 0.86054431439E+01 0.17975087594E+02
 0.34836298790E+02 0.58400319509E+02 0.84917615151E+02 0.10831415110E+03 0.12212242628E+03
 0.10832712832E+03 0.90183483729E+02 0.66051045982E+02 0.42167982703E+02 0.23279698669E+02
 0.11425951546E+02 0.59500487008E+01 0.43311062092E+01 0.37617716860E+01 0.35642061266E+01
 0.37618388793E+01 0.43309803614E+01 0.59509587014E+01 0.11429818018E+02 0.23284988704E+02
 0.42168076057E+02 0.66039914702E+02 0.90163978886E+02 0.10831154974E+03 0.11508344065E+03
 0.84928935164E+02 0.66051045982E+02 0.44905035963E+02 0.26480172388E+02 0.13709687130E+02
 0.69798169138E+01 0.45939729803E+01 0.38732566098E+01 0.35126101358E+01 0.35126407586E+01
 0.38728947084E+01 0.45932520515E+01 0.69806841480E+01 0.13713761879E+02 0.26484939810E+02
 0.44904547345E+02 0.66042310878E+02 0.84916962083E+02 0.96129560079E+02 0.96135174985E+02
 0.58404461090E+02 0.42167982703E+02 0.26480172388E+02 0.14585950931E+02 0.76550255869E+01
 0.48305411199E+01 0.39683833905E+01 0.34971593679E+01 0.33400724877E+01 0.34973066947E+01
 0.39677064598E+01 0.48289263750E+01 0.76541001920E+01 0.14587438239E+02 0.26483709856E+02
 0.42171335826E+02 0.58405966768E+02 0.70772234109E+02 0.75407770196E+02 0.70772130434E+02
 0.34834531236E+02 0.23279698669E+02 0.13709687130E+02 0.76550255869E+01 0.49291424583E+01
 0.40235406743E+01 0.35004924989E+01 0.32403359223E+01 0.32406550760E+01 0.35010029734E+01
 0.40232172521E+01 0.49272729774E+01 0.76522238293E+01 0.13708023397E+02 0.23281291394E+02
 0.34839452670E+02 0.45444128283E+02 0.51824317457E+02 0.51821894881E+02 0.45438593711E+02
 0.17972036199E+02 0.11425951546E+02 0.69798169138E+01 0.48305411199E+01 0.40235406743E+01
 0.35043344269E+01 0.31972469500E+01 0.30997164076E+01 0.31977095839E+01 0.35055718534E+01
 0.40249853876E+01 0.48305307411E+01 0.69773169694E+01 0.11422171159E+02 0.17969514774E+02
 0.25171073351E+02 0.30833525256E+02 0.32984348479E+02 0.30832564554E+02 0.25171164155E+02
 0.86039129453E+01 0.59500487008E+01 0.45939729803E+01 0.39683833905E+01 0.35004924989E+01
 0.31972469500E+01 0.30559053783E+01 0.30556208316E+01 0.31972332826E+01 0.35021775276E+01
 0.39717774428E+01 0.45970688257E+01 0.59503548350E+01 0.86005610230E+01 0.12267736750E+02
 0.15898025580E+02 0.18167802424E+02 0.18169761981E+02 0.15902981765E+02 0.12273275491E+02
 0.50026293844E+01 0.43311062092E+01 0.38732566098E+01 0.34971593679E+01 0.32403359223E+01
 0.30997164076E+01 0.30556208316E+01 0.30983594486E+01 0.32387482663E+01 0.34972235291E+01
 0.38763077193E+01 0.43362576899E+01 0.50067017937E+01 0.62042726108E+01 0.77662438702E+01
 0.91213179403E+01 0.96606732599E+01 0.91250092283E+01 0.77699307128E+01 0.62042338215E+01
 0.40655704577E+01 0.37617716860E+01 0.35126101358E+01 0.33400724877E+01 0.32406550760E+01
 0.31977095839E+01 0.31972332826E+01 0.32387482663E+01 0.33365804833E+01 0.35094293926E+01
 0.37618282642E+01 0.40696687497E+01 0.43881674476E+01 0.47680720776E+01 0.52070643170E+01
 0.55156935685E+01 0.55158254261E+01 0.52062208224E+01 0.47644674280E+01 0.43826156836E+01
 0.36592994874E+01 0.35642061266E+01 0.35126407586E+01 0.34973066947E+01 0.35010029734E+01
 0.35055718534E+01 0.35021775276E+01 0.34972235291E+01 0.35094293926E+01 0.35590272059E+01
 0.36554902151E+01 0.37909605720E+01 0.39422835696E+01 0.40791622172E+01 0.41737612132E+01
 0.42077137145E+01 0.41709351254E+01 0.40748102505E+01 0.39388808157E+01 0.37909625438E+01
 0.36594353462E+01 0.37618388793E+01 0.38728947084E+01 0.39677064598E+01 0.40232172521E+01
 0.40249853876E+01 0.39717774428E+01 0.38763077193E+01 0.37618282642E+01 0.36554902151E+01
 0.35801165936E+01 0.35466160819E+01 0.35499678436E+01 0.35716651989E+01 0.35891140250E+01
 0.35878817903E+01 0.35695237501E+01 0.35499929469E+01 0.35502599607E+01 0.35856505076E+01
 0.40657432202E+01 0.43309803614E+01 0.45932520515E+01 0.48289263750E+01 0.49272729774E+01
 0.48305307411E+01 0.45970688257E+01 0.43362576899E+01 0.40696687497E+01 0.37909605720E+01
 0.35466160819E+01 0.33683208381E+01 0.32607979552E+01 0.32087510362E+01 0.31938511517E+01
 0.32091068113E+01 0.32628968372E+01 0.33723511844E+01 0.35501388917E+01 0.37909625438E+01
 0.50029417403E+01 0.59509587014E+01 0.69806841480E+01 0.76541001920E+01 0.76522238293E+01
 0.69773169694E+01 0.59503548350E+01 0.50067017937E+01 0.43881674476E+01 0.39422835696E+01
 0.35499678436E+01 0.32607979552E+01 0.30849422384E+01 0.30057210759E+01 0.30064613098E+01
 0.30869229724E+01 0.32628635702E+01 0.35499596550E+01 0.39387716060E+01 0.43826156836E+01
 0.86054431439E+01 0.11429818018E+02 0.13713761879E+02 0.14587438239E+02 0.13708023397E+02
 0.11422171159E+02 0.86005610230E+01 0.62042726108E+01 0.47680720776E+01 0.40791622172E+01
 0.35716651989E+01 0.32087510362E+01 0.30057210759E+01 0.29426775787E+01 0.30064170176E+01
 0.32087956615E+01 0.35696332909E+01 0.40751940417E+01 0.47644880430E+01 0.62042338215E+01
 0.17975087594E+02 0.23284988704E+02 0.26484939810E+02 0.26483709856E+02 0.23281291394E+02
 0.17969514774E+02 0.12267736750E+02 0.77662438702E+01 0.52070643170E+01 0.41737612132E+01
 0.35891140250E+01 0.31938511517E+01 0.30064613098E+01 0.30064170176E+01 0.31931957517E+01
 0.35872733185E+01 0.41716575097E+01 0.52068804315E+01 0.77693673663E+01 0.12273275491E+02
 0.34836298790E+02 0.42168076057E+02 0.44904547345E+02 0.42171335826E+02 0.34839452670E+02
 0.25171073351E+02 0.15898025580E+02 0.91213179403E+01 0.55156935685E+01 0.42077137145E+01
 0.35878817903E+01 0.32091068113E+01 0.30869229724E+01 0.32087956615E+01 0.35872733185E+01
 0.42075990318E+01 0.55173794853E+01 0.91248647417E+01 0.15901213824E+02 0.25171164155E+02
 0.58400319509E+02 0.66039914702E+02 0.66042310878E+02 0.58405966768E+02 0.45444128283E+02
 0.30833525256E+02 0.18167802424E+02 0.96606732599E+01 0.55158254261E+01 0.41709351254E+01
 0.35695237501E+01 0.32628968372E+01 0.32628635702E+01 0.35696332909E+01 0.41716575097E+01
 0.55173794853E+01 0.96623733683E+01 0.18167998577E+02 0.30830712293E+02 0.45438593711E+02
 0.84917615151E+02 0.90163978886E+02 0.84916962083E+02 0.70772234109E+02 0.51824317457E+02
 0.32984348479E+02 0.18169761981E+02 0.91250092283E+01 0.52062208224E+01 0.40748102505E+01
 0.35499929469E+01 0.33723511844E+01 0.35499596550E+01 0.40751940417E+01 0.52068804315E+01
 0.91248647417E+01 0.18167998577E+02 0.32981694137E+02 0.51822514263E+02 0.70772130434E+02
 0.10831415110E+03 0.10831154974E+03 0.96129560079E+02 0.75407770196E+02 0.51821894881E+02
 0.30832564554E+02 0.15902981765E+02 0.77699307128E+01 0.47644674280E+01 0.39388808157E+01
 0.35502599607E+01 0.35501388917E+01 0.39387716060E+01 0.47644880430E+01 0.77693673663E+01
 0.15901213824E+02 0.30830712293E+02 0.51822514263E+02 0.75412059551E+02 0.96135174985E+02
 0.12212242628E+03 0.11508344065E+03 0.96135174985E+02 0.70772130434E+02 0.45438593711E+02
 0.25171164155E+02 0.12273275491E+02 0.62042338215E+01 0.43826156836E+01 0.37909625438E+01
 0.35856505076E+01 0.37909625438E+01 0.43826156836E+01 0.62042338215E+01 0.12273275491E+02
 0.25171164155E+02 0.45438593711E+02 0.70772130434E+02 0.96135174985E+02 0.11508344065E+03
 0.10197389987E+03 0.84928935164E+02 0.62210933112E+02 0.39690673905E+02 0.21893620175E+02
 0.10791309544E+02 0.57391841203E+01 0.42646614629E+01 0.37063607987E+01 0.35137205272E+01
 0.37064547375E+01 0.42644964583E+01 0.57396029324E+01 0.10793958008E+02 0.21897765332E+02
 0.39691657596E+02 0.62204133992E+02 0.84915959994E+02 0.10196328050E+03 0.10831415110E+03
 0.84928935164E+02 0.66051045982E+02 0.44905035963E+02 0.26480172388E+02 0.13709687130E+02
 0.69798169138E+01 0.45939729803E+01 0.38732566098E+01 0.35126101358E+01 0.35126407586E+01
 0.38728947084E+01 0.45932520515E+01 0.69806841480E+01 0.13713761879E+02 0.26484939810E+02
 0.44904547345E+02 0.66042310878E+02 0.84916962083E+02 0.96129560079E+02 0.96135174985E+02
 0.62210933112E+02 0.44905035963E+02 0.28194635972E+02 0.15496352471E+02 0.80347466232E+01
 0.49415785527E+01 0.40206420477E+01 0.35384898903E+01 0.33767688372E+01 0.35384945127E+01
 0.40196600730E+01 0.49398756022E+01 0.80346177523E+01 0.15499571748E+02 0.28199723844E+02
 0.44908363334E+02 0.62210765906E+02 0.75410460119E+02 0.80364376044E+02 0.75412059551E+02
 0.39690673905E+02 0.26480172388E+02 0.15496352471E+02 0.84482687943E+01 0.51787814591E+01
 0.41214531921E+01 0.35740508767E+01 0.32977479575E+01 0.32980116598E+01 0.35741245245E+01
 0.41200667854E+01 0.51758772627E+01 0.84458378091E+01 0.15497319474E+02 0.26486067706E+02
 0.39699970715E+02 0.51831074025E+02 0.59141484677E+02 0.59138016550E+02 0.51822514263E+02
 0.21893620175E+02 0.13709687130E+02 0.80347466232E+01 0.51787814591E+01 0.41572693773E+01
 0.35990551543E+01 0.32614564652E+01 0.31535619488E+01 0.32619966065E+01 0.35996214242E+01
 0.41566213344E+01 0.51758964843E+01 0.80307574788E+01 0.13708199242E+02 0.21897708837E+02
 0.30839076199E+02 0.37859574128E+02 0.40525121388E+02 0.37852684331E+02 0.30830712293E+02
 0.10791309544E+02 0.69798169138E+01 0.49415785527E+01 0.41214531921E+01 0.35990551543E+01
 0.32517397535E+01 0.30887267179E+01 0.30887633915E+01 0.32523695346E+01 0.36007152052E+01
 0.41229567777E+01 0.49409060481E+01 0.69766710539E+01 0.10787978586E+02 0.15900179806E+02
 0.20889263279E+02 0.23990231223E+02 0.23989386040E+02 0.20888157869E+02 0.15901213824E+02
 0.57391841203E+01 0.45939729803E+01 0.40206420477E+01 0.35740508767E+01 0.32614564652E+01
 0.30887267179E+01 0.30347622237E+01 0.30880402640E+01 0.32614934109E+01 0.35760097872E+01
 0.40239925543E+01 0.45966226411E+01 0.57391599886E+01 0.77664220122E+01 0.10297372408E+02
 0.12437557218E+02 0.13279011106E+02 0.12440506937E+02 0.10301553076E+02 0.77693673663E+01
 0.42646614629E+01 0.38732566098E+01 0.35384898903E+01 0.32977479575E+01 0.31535619488E+01
 0.30887633915E+01 0.30880402640E+01 0.31516931972E+01 0.32958688322E+01 0.35384435010E+01
 0.38761715968E+01 0.42693480659E+01 0.47679253771E+01 0.55465341951E+01 0.64403222472E+01
 0.70493494901E+01 0.70506089898E+01 0.64424411983E+01 0.55464150403E+01 0.47644880430E+01
 0.37063607987E+01 0.35126101358E+01 0.33767688372E+01 0.32980116598E+01 0.32619966065E+01
 0.32523695346E+01 0.32614934109E+01 0.32958688322E+01 0.33729706446E+01 0.35094337675E+01
 0.37064476139E+01 0.39423049570E+01 0.41783745805E+01 0.43953914188E+01 0.45867791729E+01
 0.46673466538E+01 0.45856326499E+01 0.43923349127E+01 0.41738460099E+01 0.39387716060E+01
 0.35137205272E+01 0.35126407586E+01 0.35384945127E+01 0.35741245245E+01 0.35996214242E+01
 0.36007152052E+01 0.35760097872E+01 0.35384435010E+01 0.35094337675E+01 0.35089471928E+01
 0.35467931111E+01 0.36185848141E+01 0.37068648516E+01 0.37864857740E+01 0.38329851521E+01
 0.38316263423E+01 0.37833253961E+01 0.37041771380E+01 0.36186356126E+01 0.35501388917E+01
 0.37064547375E+01 0.38728947084E+01 0.40196600730E+01 0.41200667854E+01 0.41566213344E+01
 0.41229567777E+01 0.40239925543E+01 0.38761715968E+01 0.37064476139E+01 0.35467931111E+01
 0.34241666243E+01 0.33506380979E+01 0.33199623897E+01 0.33136068620E+01 0.33132804125E+01
 0.33124599408E+01 0.33198649262E+01 0.33533449435E+01 0.34287460594E+01 0.35502599607E+01
 0.42644964583E+01 0.45932520515E+01 0.49398756022E+01 0.51758772627E+01 0.51758964843E+01
 0.49409060481E+01 0.45966226411E+01 0.42693480659E+01 0.39423049570E+01 0.36185848141E+01
 0.33506380979E+01 0.31645641608E+01 0.30569966842E+01 0.30101792523E+01 0.30104335535E+01
 0.30582830021E+01 0.31672585907E+01 0.33532832085E+01 0.36186356126E+01 0.39388808157E+01
 0.57396029324E+01 0.69806841480E+01 0.80346177523E+01 0.84458378091E+01 0.80307574788E+01
 0.69766710539E+01 0.57391599886E+01 0.47679253771E+01 0.41783745805E+01 0.37068648516E+01
 0.33199623897E+01 0.30569966842E+01 0.29136418314E+01 0.28696138620E+01 0.29147005134E+01
 0.30582825709E+01 0.33199101144E+01 0.37042170149E+01 0.41738460099E+01 0.47644674280E+01
 0.10793958008E+02 0.13713761879E+02 0.15499571748E+02 0.15497319474E+02 0.13708199242E+02
 0.10787978586E+02 0.77664220122E+01 0.55465341951E+01 0.43953914188E+01 0.37864857740E+01
 0.33136068620E+01 0.30101792523E+01 0.28696138620E+01 0.28698729651E+01 0.30102727831E+01
 0.33123246311E+01 0.37837137860E+01 0.43927772949E+01 0.55464150403E+01 0.77699307128E+01
 0.21897765332E+02 0.26484939810E+02 0.28199723844E+02 0.26486067706E+02 0.21897708837E+02
 0.15900179806E+02 0.10297372408E+02 0.64403222472E+01 0.45867791729E+01 0.38329851521E+01
 0.33132804125E+01 0.30104335535E+01 0.29147005134E+01 0.30102727831E+01 0.33123293946E+01
 0.38315999933E+01 0.45867824321E+01 0.64430276256E+01 0.10301553076E+02 0.15902981765E+02
 0.39691657596E+02 0.44904547345E+02 0.44908363334E+02 0.39699970715E+02 0.30839076199E+02
 0.20889263279E+02 0.12437557218E+02 0.70493494901E+01 0.46673466538E+01 0.38316263423E+01
 0.33124599408E+01 0.30582830021E+01 0.30582825709E+01 0.33123246311E+01 0.38315999933E+01
 0.46685567856E+01 0.70523615271E+01 0.12440376757E+02 0.20888157869E+02 0.30832564554E+02
 0.62204133992E+02 0.66042310878E+02 0.62210765906E+02 0.51831074025E+02 0.37859574128E+02
 0.23990231223E+02 0.13279011106E+02 0.70506089898E+01 0.45856326499E+01 0.37833253961E+01
 0.33198649262E+01 0.31672585907E+01 0.33199101144E+01 0.37837137860E+01 0.45867824321E+01
 0.70523615271E+01 0.13279857982E+02 0.23987779188E+02 0.37852684331E+02 0.51821894881E+02
 0.84915959994E+02 0.84916962083E+02 0.75410460119E+02 0.59141484677E+02 0.40525121388E+02
 0.23989386040E+02 0.12440506937E+02 0.64424411983E+01 0.43923349127E+01 0.37041771380E+01
 0.33533449435E+01 0.33532832085E+01 0.37042170149E+01 0.43927772949E+01 0.64430276256E+01
 0.12440376757E+02 0.23987779188E+02 0.40522110082E+02 0.59138016550E+02 0.75407770196E+02
 0.10196328050E+03 0.96129560079E+02 0.80364376044E+02 0.59138016550E+02 0.37852684331E+02
 0.20888157869E+02 0.10301553076E+02 0.55464150403E+01 0.41738460099E+01 0.36186356126E+01
 0.34287460594E+01 0.36186356126E+01 0.41738460099E+01 0.55464150403E+01 0.10301553076E+02
 0.20888157869E+02 0.37852684331E+02 0.59138016550E+02 0.80364376044E+02 0.96129560079E+02
 0.10831415110E+03 0.96135174985E+02 0.75412059551E+02 0.51822514263E+02 0.30830712293E+02
 0.15901213824E+02 0.77693673663E+01 0.47644880430E+01 0.39387716060E+01 0.35501388917E+01
 0.35502599607E+01 0.39388808157E+01 0.47644674280E+01 0.77699307128E+01 0.15902981765E+02
 0.30832564554E+02 0.51821894881E+02 0.75407770196E+02 0.96129560079E+02 0.10831154974E+03
 0.75059563074E+02 0.58404461090E+02 0.39690673905E+02 0.23386393917E+02 0.12177979992E+02
 0.64078062472E+01 0.44354879169E+01 0.37667933090E+01 0.34237985902E+01 0.34238696472E+01
 0.37665871126E+01 0.44346732821E+01 0.64073350465E+01 0.12179240062E+02 0.23389038383E+02
 0.39692271751E+02 0.58403093455E+02 0.75056393013E+02 0.84915959994E+02 0.84917615151E+02
 0.58404461090E+02 0.42167982703E+02 0.26480172388E+02 0.14585950931E+02 0.76550255869E+01
 0.48305411199E+01 0.39683833905E+01 0.34971593679E+01 0.33400724877E+01 0.34973066947E+01
 0.39677064598E+01 0.48289263750E+01 0.76541001920E+01 0.14587438239E+02 0.26483709856E+02
 0.42171335826E+02 0.58405966768E+02 0.70772234109E+02 0.75407770196E+02 0.70772130434E+02
 0.39690673905E+02 0.26480172388E+02 0.15496352471E+02 0.84482687943E+01 0.51787814591E+01
 0.41214531921E+01 0.35740508767E+01 0.32977479575E+01 0.32980116598E+01 0.35741245245E+01
 0.41200667854E+01 0.51758772627E+01 0.84458378091E+01 0.15497319474E+02 0.26486067706E+02
 0.39699970715E+02 0.51831074025E+02 0.59141484677E+02 0.59138016550E+02 0.51822514263E+02
 0.23386393917E+02 0.14585950931E+02 0.84482687943E+01 0.53196922155E+01 0.42033974547E+01
 0.36326532639E+01 0.32846784729E+01 0.31731620201E+01 0.32851809740E+01 0.36328467057E+01
 0.42018280058E+01 0.53156644721E+01 0.84438607186E+01 0.14585777672E+02 0.23393707601E+02
 0.32994042038E+02 0.40531759890E+02 0.43393785720E+02 0.40522110082E+02 0.32981694137E+02
 0.12177979992E+02 0.76550255869E+01 0.51787814591E+01 0.42033974547E+01 0.36545659237E+01
 0.32840733489E+01 0.31093916910E+01 0.31096194756E+01 0.32849401435E+01 0.36556498897E+01
 0.42027813901E+01 0.51749296275E+01 0.76497766757E+01 0.12176067576E+02 0.18172203310E+02
 0.23994991969E+02 0.27607522449E+02 0.27603968718E+02 0.23987779188E+02 0.18167998577E+02
 0.64078062472E+01 0.48305411199E+01 0.41214531921E+01 0.36326532639E+01 0.32840733489E+01
 0.30904156657E+01 0.30302508301E+01 0.30904388851E+01 0.32851477621E+01 0.36348119858E+01
 0.41227932342E+01 0.48291058798E+01 0.64040326816E+01 0.91212955375E+01 0.12438869854E+02
 0.15212770773E+02 0.16297063144E+02 0.15212769464E+02 0.12440376757E+02 0.91248647417E+01
 0.44354879169E+01 0.39683833905E+01 0.35740508767E+01 0.32846784729E+01 0.31093916910E+01
 0.30302508301E+01 0.30297136371E+01 0.31085061344E+01 0.32849102102E+01 0.35761199582E+01
 0.39713731164E+01 0.44373894427E+01 0.52061618577E+01 0.64399364345E+01 0.78137284207E+01
 0.87312664104E+01 0.87327691152E+01 0.78172029622E+01 0.64430276256E+01 0.52068804315E+01
 0.37667933090E+01 0.34971593679E+01 0.32977479575E+01 0.31731620201E+01 0.31096194756E+01
 0.30904388851E+01 0.31085061344E+01 0.31711488716E+01 0.32959032838E+01 0.34971623564E+01
 0.37693328645E+01 0.40788186962E+01 0.43950283387E+01 0.47776136667E+01 0.51426221730E+01
 0.52969534611E+01 0.51436421142E+01 0.47777116172E+01 0.43927772949E+01 0.40751940417E+01
 0.34237985902E+01 0.33400724877E+01 0.32980116598E+01 0.32851809740E+01 0.32849401435E+01
 0.32851477621E+01 0.32849102102E+01 0.32959032838E+01 0.33365126474E+01 0.34210659993E+01
 0.35500148072E+01 0.37068063662E+01 0.38629526151E+01 0.39876276305E+01 0.40566075813E+01
 0.40559109262E+01 0.39854687842E+01 0.38597589689E+01 0.37042170149E+01 0.35499596550E+01
 0.34238696472E+01 0.34973066947E+01 0.35741245245E+01 0.36328467057E+01 0.36556498897E+01
 0.36348119858E+01 0.35761199582E+01 0.34971623564E+01 0.34210659993E+01 0.33684623637E+01
 0.33506754880E+01 0.33660349974E+01 0.34004746433E+01 0.34331036897E+01 0.34456191826E+01
 0.34313612831E+01 0.33986304123E+01 0.33660716926E+01 0.33532832085E+01 0.33723511844E+01
 0.37665871126E+01 0.39677064598E+01 0.41200667854E+01 0.42018280058E+01 0.42027813901E+01
 0.41227932342E+01 0.39713731164E+01 0.37693328645E+01 0.35500148072E+01 0.33506754880E+01
 0.31989598487E+01 0.31034268448E+01 0.30546970618E+01 0.30359514241E+01 0.30355947255E+01
 0.30545800127E+01 0.31050803929E+01 0.32022129033E+01 0.33533449435E+01 0.35499929469E+01
 0.44346732821E+01 0.48289263750E+01 0.51758772627E+01 0.53156644721E+01 0.51749296275E+01
 0.48291058798E+01 0.44373894427E+01 0.40788186962E+01 0.37068063662E+01 0.33660349974E+01
 0.31034268448E+01 0.29324671962E+01 0.28415891757E+01 0.28138488878E+01 0.28421854543E+01
 0.29339174216E+01 0.31050575313E+01 0.33660716926E+01 0.37041771380E+01 0.40748102505E+01
 0.64073350465E+01 0.76541001920E+01 0.84458378091E+01 0.84438607186E+01 0.76497766757E+01
 0.64040326816E+01 0.52061618577E+01 0.43950283387E+01 0.38629526151E+01 0.34004746433E+01
 0.30546970618E+01 0.28415891757E+01 0.27444088243E+01 0.27447752297E+01 0.28422511878E+01
 0.30545838865E+01 0.33986686666E+01 0.38597589689E+01 0.43923349127E+01 0.52062208224E+01
 0.12179240062E+02 0.14587438239E+02 0.15497319474E+02 0.14585777672E+02 0.12176067576E+02
 0.91212955375E+01 0.64399364345E+01 0.47776136667E+01 0.39876276305E+01 0.34331036897E+01
 0.30359514241E+01 0.28138488878E+01 0.27447752297E+01 0.28140490006E+01 0.30353717559E+01
 0.34313485272E+01 0.39858938858E+01 0.47777116172E+01 0.64424411983E+01 0.91250092283E+01
 0.23389038383E+02 0.26483709856E+02 0.26486067706E+02 0.23393707601E+02 0.18172203310E+02
 0.12438869854E+02 0.78137284207E+01 0.51426221730E+01 0.40566075813E+01 0.34456191826E+01
 0.30355947255E+01 0.28421854543E+01 0.28422511878E+01 0.30353717559E+01 0.34448758814E+01
 0.40565459829E+01 0.51447226703E+01 0.78172029622E+01 0.12440506937E+02 0.18169761981E+02
 0.39692271751E+02 0.42171335826E+02 0.39699970715E+02 0.32994042038E+02 0.23994991969E+02
 0.15212770773E+02 0.87312664104E+01 0.52969534611E+01 0.40559109262E+01 0.34313612831E+01
 0.30545800127E+01 0.29339174216E+01 0.30545838865E+01 0.34313485272E+01 0.40565459829E+01
 0.52990894055E+01 0.87339906488E+01 0.15212769464E+02 0.23989386040E+02 0.32984348479E+02
 0.58403093455E+02 0.58405966768E+02 0.51831074025E+02 0.40531759890E+02 0.27607522449E+02
 0.16297063144E+02 0.87327691152E+01 0.51436421142E+01 0.39854687842E+01 0.33986304123E+01
 0.31050803929E+01 0.31050575313E+01 0.33986686666E+01 0.39858938858E+01 0.51447226703E+01
 0.87339906488E+01 0.16296769621E+02 0.27603968718E+02 0.40525121388E+02 0.51824317457E+02
 0.75056393013E+02 0.70772234109E+02 0.59141484677E+02 0.43393785720E+02 0.27603968718E+02
 0.15212769464E+02 0.78172029622E+01 0.47777116172E+01 0.38597589689E+01 0.33660716926E+01
 0.32022129033E+01 0.33660716926E+01 0.38597589689E+01 0.47777116172E+01 0.78172029622E+01
 0.15212769464E+02 0.27603968718E+02 0.43393785720E+02 0.59141484677E+02 0.70772234109E+02
 0.84915959994E+02 0.75407770196E+02 0.59138016550E+02 0.40522110082E+02 0.23987779188E+02
 0.12440376757E+02 0.64430276256E+01 0.43927772949E+01 0.37042170149E+01 0.33532832085E+01
 0.33533449435E+01 0.37041771380E+01 0.43923349127E+01 0.64424411983E+01 0.12440506937E+02
 0.23989386040E+02 0.40525121388E+02 0.59141484677E+02 0.75410460119E+02 0.84916962083E+02
 0.84917615151E+02 0.70772130434E+02 0.51822514263E+02 0.32981694137E+02 0.18167998577E+02
 0.91248647417E+01 0.52068804315E+01 0.40751940417E+01 0.35499596550E+01 0.33723511844E+01
 0.35499929469E+01 0.40748102505E+01 0.52062208224E+01 0.91250092283E+01 0.18169761981E+02
 0.32984348479E+02 0.51824317457E+02 0.70772234109E+02 0.84916962083E+02 0.90163978886E+02
 0.48229327169E+02 0.34834531236E+02 0.21893620175E+02 0.12177979992E+02 0.66790668960E+01
 0.45505554573E+01 0.38174731911E+01 0.33805401934E+01 0.32371112316E+01 0.33808346535E+01
 0.38174022860E+01 0.45494525258E+01 0.66770640591E+01 0.12176252226E+02 0.21893680485E+02
 0.34836974875E+02 0.48233060119E+02 0.58403093455E+02 0.62204133992E+02 0.58400319509E+02
 0.34834531236E+02 0.23279698669E+02 0.13709687130E+02 0.76550255869E+01 0.49291424583E+01
 0.40235406743E+01 0.35004924989E+01 0.32403359223E+01 0.32406550760E+01 0.35010029734E+01