   1   1   0   0
  0.9398844E+01  0.2368808E-09  0.2368808E-09  0.2368808E-09  0.5000000E-15
  1.000000000000000E-004
  CAR 
 fcc Ni                                  
     61.85630047     -1.24156571  301     11.60800278      1.00000000
     -1.242  0.0000E+00  0.0000E+00  0.0000E+00  0.0000E+00
     -1.031  0.0000E+00  0.0000E+00  0.0000E+00  0.0000E+00
     -0.821  0.0000E+00  0.0000E+00  0.0000E+00  0.0000E+00
     -0.611  0.0000E+00  0.0000E+00  0.0000E+00  0.0000E+00
     -0.400  0.0000E+00  0.0000E+00  0.0000E+00  0.0000E+00
     -0.190  0.0000E+00  0.0000E+00  0.0000E+00  0.0000E+00
      0.020 -0.4143E-30 -0.2114E-29 -0.8714E-31 -0.4447E-30
      0.231 -0.3200E-23 -0.1316E-22 -0.6731E-24 -0.2768E-23
      0.441 -0.2647E-17 -0.8770E-17 -0.5567E-18 -0.1845E-17
      0.651 -0.2232E-12 -0.5941E-12 -0.4695E-13 -0.1250E-12
      0.862 -0.2000E-08 -0.4268E-08 -0.4208E-09 -0.8977E-09
      1.072 -0.1763E-05 -0.2990E-05 -0.3712E-06 -0.6297E-06
      1.282 -0.1280E-03 -0.1658E-03 -0.2728E-04 -0.3551E-04
      1.493  0.1913E-03  0.5023E-03  0.1295E-04  0.7014E-04
      1.703  0.5841E-02  0.6357E-02  0.1241E-02  0.1407E-02
      1.913  0.1478E-01  0.1621E-01  0.4349E-02  0.4816E-02
      2.124  0.2155E-01  0.2117E-01  0.8882E-02  0.9269E-02
      2.334  0.2199E-01  0.2210E-01  0.1351E-01  0.1392E-01
      2.544  0.2744E-01  0.2812E-01  0.1928E-01  0.1983E-01
      2.755  0.3843E-01  0.3950E-01  0.2736E-01  0.2814E-01
      2.965  0.3866E-01  0.3651E-01  0.3549E-01  0.3582E-01
      3.175  0.2441E-01  0.2477E-01  0.4063E-01  0.4103E-01
      3.386  0.4639E-01  0.4711E-01  0.5039E-01  0.5094E-01
      3.596  0.6936E-01  0.6889E-01  0.6498E-01  0.6543E-01
      3.806  0.4114E-01  0.3911E-01  0.7363E-01  0.7365E-01
      4.017  0.3914E-01  0.3813E-01  0.8186E-01  0.8167E-01
      4.227  0.7555E-01  0.7257E-01  0.9775E-01  0.9693E-01
      4.437  0.6729E-01  0.6756E-01  0.1119E+00  0.1111E+00
      4.648  0.7166E-01  0.6491E-01  0.1270E+00  0.1248E+00
      4.858  0.8074E-01  0.7833E-01  0.1440E+00  0.1413E+00
      5.068  0.9932E-01  0.8632E-01  0.1648E+00  0.1594E+00
      5.279  0.8094E-01  0.8102E-01  0.1819E+00  0.1765E+00
      5.489  0.1253E+00  0.9034E-01  0.2082E+00  0.1955E+00
      5.699  0.1683E+00  0.1430E+00  0.2436E+00  0.2256E+00
      5.910  0.1887E+00  0.1324E+00  0.2833E+00  0.2534E+00
      6.120  0.3845E+00  0.1338E+00  0.3642E+00  0.2815E+00
      6.330  0.5000E+00  0.2649E+00  0.4693E+00  0.3373E+00
      6.541  0.5016E+00  0.4400E+00  0.5749E+00  0.4298E+00
      6.751  0.6211E+00  0.3966E+00  0.7055E+00  0.5132E+00
      6.961  0.7856E+00  0.4972E+00  0.8707E+00  0.6178E+00
      7.171  0.8369E+00  0.4616E+00  0.1047E+01  0.7149E+00
      7.382  0.8192E+00  0.6401E+00  0.1219E+01  0.8495E+00
      7.592  0.7039E+00  0.7439E+00  0.1367E+01  0.1006E+01
      7.802  0.6964E+00  0.7492E+00  0.1514E+01  0.1164E+01
      8.013  0.6908E+00  0.7110E+00  0.1659E+01  0.1313E+01
      8.223  0.8582E+00  0.6715E+00  0.1839E+01  0.1454E+01
      8.433  0.9948E+00  0.6414E+00  0.2049E+01  0.1589E+01
      8.644  0.9740E+00  0.6967E+00  0.2253E+01  0.1736E+01
      8.854  0.1239E+01  0.8901E+00  0.2514E+01  0.1923E+01
      9.064  0.1397E+01  0.9458E+00  0.2808E+01  0.2122E+01
      9.275  0.1171E+01  0.9958E+00  0.3054E+01  0.2331E+01
      9.485  0.8442E+00  0.1175E+01  0.3232E+01  0.2578E+01
      9.695  0.7998E+00  0.1191E+01  0.3400E+01  0.2829E+01
      9.906  0.9736E+00  0.1150E+01  0.3605E+01  0.3071E+01
     10.116  0.1087E+01  0.8950E+00  0.3833E+01  0.3259E+01
     10.326  0.1131E+01  0.7937E+00  0.4071E+01  0.3426E+01
     10.537  0.1001E+01  0.9126E+00  0.4282E+01  0.3618E+01
     10.747  0.1036E+01  0.1090E+01  0.4499E+01  0.3847E+01
     10.957  0.1553E+01  0.1011E+01  0.4826E+01  0.4060E+01
     11.168  0.1598E+01  0.8941E+00  0.5162E+01  0.4248E+01
     11.378  0.4391E+00  0.8956E+00  0.5255E+01  0.4436E+01
     11.588  0.2111E+00  0.1112E+01  0.5299E+01  0.4670E+01
     11.799  0.9275E-01  0.1564E+01  0.5318E+01  0.4999E+01
     12.009  0.1382E+00  0.1067E+01  0.5348E+01  0.5224E+01
     12.219  0.1899E+00  0.4121E+00  0.5387E+01  0.5310E+01
     12.430  0.1392E+00  0.9581E-01  0.5417E+01  0.5330E+01
     12.640  0.9962E-01  0.1356E+00  0.5438E+01  0.5359E+01
     12.850  0.1148E+00  0.2200E+00  0.5462E+01  0.5405E+01
     13.061  0.1400E+00  0.1359E+00  0.5491E+01  0.5434E+01
     13.271  0.1500E+00  0.1110E+00  0.5523E+01  0.5457E+01
     13.481  0.1291E+00  0.1300E+00  0.5550E+01  0.5484E+01
     13.692  0.8011E-01  0.1773E+00  0.5567E+01  0.5522E+01
     13.902  0.1550E+00  0.1543E+00  0.5599E+01  0.5554E+01
     14.112  0.1522E+00  0.8368E-01  0.5631E+01  0.5572E+01
     14.323  0.6276E-01  0.1736E+00  0.5645E+01  0.5608E+01
     14.533  0.1203E+00  0.1309E+00  0.5670E+01  0.5636E+01
     14.743  0.9048E-01  0.8019E-01  0.5689E+01  0.5653E+01
     14.954  0.1171E+00  0.1161E+00  0.5714E+01  0.5677E+01
     15.164  0.1617E+00  0.1132E+00  0.5748E+01  0.5701E+01
     15.374  0.1088E+00  0.1645E+00  0.5771E+01  0.5736E+01
     15.585  0.1141E+00  0.1107E+00  0.5794E+01  0.5759E+01
     15.795  0.5813E-01  0.1100E+00  0.5807E+01  0.5782E+01
     16.005  0.2832E-01  0.1082E+00  0.5813E+01  0.5805E+01
     16.216  0.9745E-01  0.2039E-01  0.5833E+01  0.5809E+01
     16.426  0.1258E+00  0.8810E-01  0.5860E+01  0.5827E+01
     16.636  0.1140E+00  0.1146E+00  0.5884E+01  0.5852E+01
     16.846  0.1064E+00  0.1181E+00  0.5906E+01  0.5876E+01
     17.057  0.1865E-01  0.1211E+00  0.5910E+01  0.5902E+01
     17.267  0.3045E-01  0.4057E-01  0.5916E+01  0.5910E+01
     17.477  0.8168E-01  0.9441E-02  0.5934E+01  0.5912E+01
     17.688  0.5809E-01  0.8603E-01  0.5946E+01  0.5931E+01
     17.898  0.4459E-01  0.6895E-01  0.5955E+01  0.5945E+01
     18.108  0.8119E-01  0.4165E-01  0.5972E+01  0.5954E+01
     18.319  0.1573E-01  0.7994E-01  0.5975E+01  0.5971E+01
     18.529  0.6151E-01  0.2654E-01  0.5988E+01  0.5976E+01
     18.739  0.1403E+00  0.1530E-01  0.6018E+01  0.5979E+01
     18.950  0.1013E+00  0.9031E-01  0.6039E+01  0.5998E+01
     19.160  0.1945E+00  0.1333E+00  0.6080E+01  0.6026E+01
     19.370  0.1959E+00  0.1745E+00  0.6121E+01  0.6063E+01
     19.581  0.1004E+00  0.2104E+00  0.6142E+01  0.6107E+01
     19.791  0.1251E+00  0.1341E+00  0.6169E+01  0.6136E+01
     20.001  0.1068E+00  0.1281E+00  0.6191E+01  0.6163E+01
     20.212  0.1454E+00  0.1165E+00  0.6222E+01  0.6187E+01
     20.422  0.1342E+00  0.1320E+00  0.6250E+01  0.6215E+01
     20.632  0.1136E+00  0.1431E+00  0.6274E+01  0.6245E+01
     20.843  0.1284E+00  0.1285E+00  0.6301E+01  0.6272E+01
     21.053  0.7264E-01  0.1271E+00  0.6316E+01  0.6299E+01
     21.263  0.7961E-01  0.7878E-01  0.6333E+01  0.6315E+01
     21.474  0.1285E+00  0.7728E-01  0.6360E+01  0.6331E+01
     21.684  0.1249E+00  0.1242E+00  0.6386E+01  0.6358E+01
     21.894  0.7823E-01  0.1319E+00  0.6403E+01  0.6385E+01
     22.105  0.9451E-01  0.7963E-01  0.6423E+01  0.6402E+01
     22.315  0.1239E+00  0.1061E+00  0.6449E+01  0.6424E+01
     22.525  0.1399E+00  0.1202E+00  0.6478E+01  0.6450E+01
     22.736  0.1765E+00  0.1168E+00  0.6515E+01  0.6474E+01
     22.946  0.1078E+00  0.1940E+00  0.6538E+01  0.6515E+01
     23.156  0.1114E+00  0.1133E+00  0.6561E+01  0.6539E+01
     23.367  0.2448E+00  0.1170E+00  0.6613E+01  0.6563E+01
     23.577  0.1337E+00  0.2471E+00  0.6641E+01  0.6615E+01
     23.787  0.7613E-01  0.1249E+00  0.6657E+01  0.6642E+01
     23.998  0.1805E+00  0.9533E-01  0.6695E+01  0.6662E+01
     24.208  0.2205E+00  0.2015E+00  0.6741E+01  0.6704E+01
     24.418  0.1927E+00  0.2115E+00  0.6782E+01  0.6749E+01
     24.629  0.7143E-01  0.1756E+00  0.6797E+01  0.6786E+01
     24.839  0.1991E+00  0.7161E-01  0.6839E+01  0.6801E+01
     25.049  0.2797E+00  0.2569E+00  0.6898E+01  0.6855E+01
     25.260  0.1430E+00  0.2506E+00  0.6928E+01  0.6907E+01
     25.470  0.8622E-01  0.1139E+00  0.6946E+01  0.6931E+01
     25.680  0.1256E+00  0.9491E-01  0.6972E+01  0.6951E+01
     25.891  0.2271E+00  0.1879E+00  0.7020E+01  0.6991E+01
     26.101  0.1784E+00  0.1958E+00  0.7057E+01  0.7032E+01
     26.311  0.2104E+00  0.2039E+00  0.7102E+01  0.7075E+01
     26.521  0.1602E+00  0.1867E+00  0.7135E+01  0.7114E+01
     26.732  0.1249E+00  0.1483E+00  0.7162E+01  0.7145E+01
     26.942  0.1949E+00  0.1427E+00  0.7203E+01  0.7175E+01
     27.152  0.2542E+00  0.2329E+00  0.7256E+01  0.7224E+01
     27.363  0.2083E+00  0.2535E+00  0.7300E+01  0.7278E+01
     27.573  0.1044E+00  0.1602E+00  0.7322E+01  0.7311E+01
     27.783  0.1714E+00  0.1321E+00  0.7358E+01  0.7339E+01
     27.994  0.2154E+00  0.1829E+00  0.7403E+01  0.7378E+01
     28.204  0.3079E+00  0.2757E+00  0.7468E+01  0.7436E+01
     28.414  0.2521E+00  0.2878E+00  0.7521E+01  0.7496E+01
     28.625  0.9347E-01  0.1899E+00  0.7541E+01  0.7536E+01
     28.835  0.7899E-01  0.4315E-01  0.7557E+01  0.7545E+01
     29.045  0.2602E+00  0.1981E+00  0.7612E+01  0.7587E+01
     29.256  0.2786E+00  0.2653E+00  0.7671E+01  0.7643E+01
     29.466  0.2251E+00  0.2843E+00  0.7718E+01  0.7702E+01
     29.676  0.1040E+00  0.1323E+00  0.7740E+01  0.7730E+01
     29.887  0.1710E+00  0.1185E+00  0.7776E+01  0.7755E+01
     30.097  0.2081E+00  0.2260E+00  0.7820E+01  0.7803E+01
     30.307  0.1077E+00  0.1411E+00  0.7842E+01  0.7832E+01
     30.518  0.1762E+00  0.1320E+00  0.7879E+01  0.7860E+01
     30.728  0.2789E+00  0.2591E+00  0.7938E+01  0.7915E+01
     30.938  0.2163E+00  0.2465E+00  0.7983E+01  0.7966E+01
     31.149  0.1760E+00  0.2028E+00  0.8020E+01  0.8009E+01
     31.359  0.1127E+00  0.1104E+00  0.8044E+01  0.8032E+01
     31.569  0.1288E+00  0.1251E+00  0.8071E+01  0.8059E+01
     31.780  0.2521E+00  0.2201E+00  0.8124E+01  0.8105E+01
     31.990  0.1240E+00  0.1904E+00  0.8150E+01  0.8145E+01
     32.200  0.9522E-01  0.7571E-01  0.8170E+01  0.8161E+01
     32.411  0.1377E+00  0.1556E+00  0.8199E+01  0.8194E+01
     32.621  0.9742E-01  0.7936E-01  0.8220E+01  0.8210E+01
     32.831  0.2539E+00  0.2039E+00  0.8273E+01  0.8253E+01
     33.042  0.1998E+00  0.2342E+00  0.8315E+01  0.8302E+01
     33.252  0.1975E+00  0.2205E+00  0.8357E+01  0.8349E+01
     33.462  0.6852E-01  0.8622E-01  0.8371E+01  0.8367E+01
     33.673  0.1180E+00  0.9551E-01  0.8396E+01  0.8387E+01
     33.883  0.1662E+00  0.1842E+00  0.8431E+01  0.8426E+01
     34.093  0.2016E+00  0.1682E+00  0.8473E+01  0.8461E+01
     34.304  0.1350E+00  0.1433E+00  0.8502E+01  0.8491E+01
     34.514  0.1407E+00  0.1485E+00  0.8531E+01  0.8523E+01
     34.724  0.2138E+00  0.2377E+00  0.8576E+01  0.8573E+01
     34.935  0.1620E+00  0.1501E+00  0.8610E+01  0.8604E+01
     35.145  0.1967E+00  0.1763E+00  0.8652E+01  0.8641E+01
     35.355  0.2026E+00  0.1859E+00  0.8694E+01  0.8680E+01
     35.566  0.1560E+00  0.1599E+00  0.8727E+01  0.8714E+01
     35.776  0.2372E+00  0.2513E+00  0.8777E+01  0.8767E+01
     35.986  0.3060E+00  0.2970E+00  0.8841E+01  0.8829E+01
     36.197  0.2433E+00  0.2522E+00  0.8893E+01  0.8882E+01
     36.407  0.1759E+00  0.1660E+00  0.8930E+01  0.8917E+01
     36.617  0.2103E+00  0.2152E+00  0.8974E+01  0.8963E+01
     36.827  0.2346E+00  0.2491E+00  0.9023E+01  0.9015E+01
     37.038  0.2020E+00  0.2068E+00  0.9066E+01  0.9058E+01
     37.248  0.1691E+00  0.1850E+00  0.9101E+01  0.9097E+01
     37.458  0.2199E+00  0.1827E+00  0.9148E+01  0.9136E+01
     37.669  0.2495E+00  0.2412E+00  0.9200E+01  0.9186E+01
     37.879  0.3924E+00  0.4007E+00  0.9283E+01  0.9271E+01
     38.089  0.1721E+00  0.2017E+00  0.9319E+01  0.9313E+01
     38.300  0.2126E+00  0.1681E+00  0.9363E+01  0.9349E+01
     38.510  0.2523E+00  0.2592E+00  0.9417E+01  0.9403E+01
     38.720  0.1620E+00  0.1801E+00  0.9451E+01  0.9441E+01
     38.931  0.1440E+00  0.1595E+00  0.9481E+01  0.9474E+01
     39.141  0.2391E+00  0.2102E+00  0.9531E+01  0.9519E+01
     39.351  0.3520E+00  0.3342E+00  0.9605E+01  0.9589E+01
     39.562  0.2603E+00  0.3125E+00  0.9660E+01  0.9655E+01
     39.772  0.1482E+00  0.1286E+00  0.9691E+01  0.9682E+01
     39.982  0.2834E+00  0.2442E+00  0.9751E+01  0.9733E+01
     40.193  0.2030E+00  0.2559E+00  0.9793E+01  0.9787E+01
     40.403  0.9730E-01  0.7636E-01  0.9814E+01  0.9803E+01
     40.613  0.1597E+00  0.1864E+00  0.9848E+01  0.9842E+01
     40.824  0.1582E+00  0.1558E+00  0.9881E+01  0.9875E+01
     41.034  0.1163E+00  0.1154E+00  0.9905E+01  0.9899E+01
     41.244  0.1521E+00  0.1676E+00  0.9937E+01  0.9934E+01
     41.455  0.1351E+00  0.1348E+00  0.9966E+01  0.9963E+01
     41.665  0.1499E+00  0.1329E+00  0.9997E+01  0.9991E+01
     41.875  0.1679E+00  0.1144E+00  0.1003E+02  0.1001E+02
     42.086  0.1518E+00  0.1843E+00  0.1006E+02  0.1005E+02
     42.296  0.1783E+00  0.1611E+00  0.1010E+02  0.1009E+02
     42.506  0.9173E-01  0.1258E+00  0.1012E+02  0.1011E+02
     42.717  0.8457E-01  0.8577E-01  0.1014E+02  0.1013E+02
     42.927  0.2066E+00  0.2198E+00  0.1018E+02  0.1018E+02
     43.137  0.2292E+00  0.2053E+00  0.1023E+02  0.1022E+02
     43.348  0.1350E+00  0.1325E+00  0.1026E+02  0.1025E+02
     43.558  0.1590E+00  0.1494E+00  0.1029E+02  0.1028E+02
     43.768  0.2388E+00  0.2424E+00  0.1034E+02  0.1033E+02
     43.979  0.1674E+00  0.2083E+00  0.1038E+02  0.1038E+02
     44.189  0.1299E+00  0.9344E-01  0.1041E+02  0.1040E+02
     44.399  0.4063E+00  0.3411E+00  0.1049E+02  0.1047E+02
     44.610  0.3817E+00  0.4066E+00  0.1057E+02  0.1055E+02
     44.820  0.2367E+00  0.2759E+00  0.1062E+02  0.1061E+02
     45.030  0.4027E+00  0.3748E+00  0.1071E+02  0.1069E+02
     45.241  0.2998E+00  0.3147E+00  0.1077E+02  0.1076E+02
     45.451  0.1405E+00  0.1825E+00  0.1080E+02  0.1079E+02
     45.661  0.1826E+00  0.1438E+00  0.1084E+02  0.1082E+02
     45.872  0.2415E+00  0.2308E+00  0.1089E+02  0.1087E+02
     46.082  0.2681E+00  0.3091E+00  0.1094E+02  0.1094E+02
     46.292  0.1779E+00  0.1912E+00  0.1098E+02  0.1098E+02
     46.502  0.9799E-01  0.1144E+00  0.1100E+02  0.1100E+02
     46.713  0.1066E+00  0.7858E-01  0.1102E+02  0.1102E+02
     46.923  0.2701E+00  0.2554E+00  0.1108E+02  0.1107E+02
     47.133  0.2272E+00  0.2310E+00  0.1113E+02  0.1112E+02
     47.344  0.1536E+00  0.1640E+00  0.1116E+02  0.1116E+02
     47.554  0.2755E+00  0.2847E+00  0.1122E+02  0.1122E+02
     47.764  0.1413E+00  0.1658E+00  0.1125E+02  0.1125E+02
     47.975  0.5508E-01  0.2548E-01  0.1126E+02  0.1126E+02
     48.185  0.1283E+00  0.1287E+00  0.1129E+02  0.1128E+02
     48.395  0.1796E+00  0.1781E+00  0.1133E+02  0.1132E+02
     48.606  0.1767E+00  0.1444E+00  0.1136E+02  0.1135E+02
     48.816  0.1264E+00  0.1586E+00  0.1139E+02  0.1138E+02
     49.026  0.6213E-01  0.8864E-01  0.1140E+02  0.1140E+02
     49.237  0.1106E+00  0.7742E-01  0.1143E+02  0.1142E+02
     49.447  0.2482E+00  0.2261E+00  0.1148E+02  0.1147E+02
     49.657  0.2246E+00  0.2554E+00  0.1152E+02  0.1152E+02
     49.868  0.3074E+00  0.3084E+00  0.1159E+02  0.1158E+02
     50.078  0.1301E+00  0.1470E+00  0.1162E+02  0.1162E+02
     50.288  0.3550E-01  0.1114E-01  0.1162E+02  0.1162E+02
     50.499  0.4356E-01  0.6636E-01  0.1163E+02  0.1163E+02
     50.709  0.1442E+00  0.1247E+00  0.1166E+02  0.1166E+02
     50.919  0.1800E+00  0.1470E+00  0.1170E+02  0.1169E+02
     51.130  0.1613E+00  0.2029E+00  0.1174E+02  0.1173E+02
     51.340  0.1379E+00  0.1597E+00  0.1176E+02  0.1177E+02
     51.550  0.4509E-01  0.4094E-01  0.1177E+02  0.1177E+02
     51.761  0.7417E-01  0.5461E-01  0.1179E+02  0.1179E+02
     51.971  0.6548E-01  0.8886E-01  0.1180E+02  0.1180E+02
     52.181  0.4701E-01  0.4116E-01  0.1181E+02  0.1181E+02
     52.392  0.9265E-01  0.7437E-01  0.1183E+02  0.1183E+02
     52.602  0.9738E-01  0.1157E+00  0.1185E+02  0.1185E+02
     52.812  0.1600E-01  0.1844E-01  0.1186E+02  0.1186E+02
     53.023  0.5142E-01  0.5017E-01  0.1187E+02  0.1187E+02
     53.233  0.8144E-01  0.6963E-01  0.1188E+02  0.1188E+02
     53.443  0.9974E-01  0.1165E+00  0.1191E+02  0.1191E+02
     53.654  0.5288E-01  0.4889E-01  0.1192E+02  0.1192E+02
     53.864 -0.1181E-02  0.1261E-02  0.1192E+02  0.1192E+02
     54.074  0.1795E-01  0.2050E-01  0.1192E+02  0.1192E+02
     54.285  0.1454E-01  0.8151E-02  0.1192E+02  0.1192E+02
     54.495  0.2975E-01  0.2943E-01  0.1193E+02  0.1193E+02
     54.705  0.4595E-01  0.4637E-01  0.1194E+02  0.1194E+02
     54.916  0.6367E-02  0.7009E-02  0.1194E+02  0.1194E+02
     55.126 -0.1372E-02 -0.1425E-02  0.1194E+02  0.1194E+02
     55.336 -0.9127E-03 -0.9205E-03  0.1194E+02  0.1194E+02
     55.547  0.1234E-01  0.1225E-01  0.1194E+02  0.1194E+02
     55.757  0.1639E-01  0.1640E-01  0.1195E+02  0.1195E+02
     55.967  0.3195E-01  0.3185E-01  0.1195E+02  0.1195E+02
     56.177  0.3115E-01  0.2913E-01  0.1196E+02  0.1196E+02
     56.388  0.4082E-01  0.3368E-01  0.1197E+02  0.1197E+02
     56.598  0.1151E-01  0.2123E-01  0.1197E+02  0.1197E+02
     56.808  0.3244E-01  0.3506E-01  0.1198E+02  0.1198E+02
     57.019  0.2605E-01  0.2312E-01  0.1198E+02  0.1198E+02
     57.229 -0.1726E-02 -0.1837E-02  0.1198E+02  0.1198E+02
     57.439 -0.3463E-03 -0.3022E-03  0.1198E+02  0.1198E+02
     57.650 -0.8621E-03 -0.8524E-03  0.1198E+02  0.1198E+02
     57.860  0.1309E-01  0.1324E-01  0.1198E+02  0.1198E+02
     58.070  0.1701E-01  0.1687E-01  0.1199E+02  0.1199E+02
     58.281 -0.5772E-03 -0.5838E-03  0.1199E+02  0.1199E+02
     58.491 -0.7024E-03 -0.8252E-03  0.1199E+02  0.1199E+02
     58.701  0.1579E-01  0.1506E-01  0.1199E+02  0.1199E+02
     58.912  0.2074E-01  0.2091E-01  0.1200E+02  0.1200E+02
     59.122  0.2021E-01  0.2055E-01  0.1200E+02  0.1200E+02
     59.332  0.1473E-02  0.1827E-02  0.1200E+02  0.1200E+02
     59.543 -0.4582E-03 -0.4953E-03  0.1200E+02  0.1200E+02
     59.753 -0.7610E-05 -0.8968E-05  0.1200E+02  0.1200E+02
     59.963 -0.1010E-07 -0.1280E-07  0.1200E+02  0.1200E+02
     60.174 -0.1312E-11 -0.1782E-11  0.1200E+02  0.1200E+02
     60.384 -0.1900E-16 -0.2534E-16  0.1200E+02  0.1200E+02
     60.594  0.0000E+00  0.0000E+00  0.1200E+02  0.1200E+02
     60.805  0.0000E+00  0.0000E+00  0.1200E+02  0.1200E+02
     61.015  0.0000E+00  0.0000E+00  0.1200E+02  0.1200E+02
     61.225  0.0000E+00  0.0000E+00  0.1200E+02  0.1200E+02
     61.436  0.0000E+00  0.0000E+00  0.1200E+02  0.1200E+02
     61.646  0.0000E+00  0.0000E+00  0.1200E+02  0.1200E+02
     61.856  0.0000E+00  0.0000E+00  0.1200E+02  0.1200E+02
