    1    1    1    2
  0.9398844E+01  0.2368808E-09  0.2368808E-09  0.2368808E-09  0.5000000E-15
  1.000000000000000E-004
  CAR 
 fcc Ni                                  
     10    110     12
 
  0.5000000E-01  0.5000000E-01  0.5000000E-01  0.2000000E-02
    1        1.646842      1.626519   1.000000   1.000000
    2        8.750503      9.446389   1.000000   1.000000
    3        8.810565      9.510933   1.000000   1.000000
    4        8.810565      9.510933   1.000000   1.000000
    5       10.196337     10.804054   1.000000   1.000000
    6       10.196337     10.804054   1.000000   1.000000
    7       36.396765     36.288491   0.000000   0.000000
    8       40.186316     40.176213   0.000000   0.000000
    9       41.444473     41.436295   0.000000   0.000000
   10       41.444473     41.436295   0.000000   0.000000
   11       45.681567     45.756556   0.000000   0.000000
   12       45.681574     45.756762   0.000000   0.000000
 
  0.1500000E+00  0.5000000E-01  0.5000000E-01  0.6000000E-02
    1        2.218398      2.199589   1.000000   1.000000
    2        8.581836      9.260105   1.000000   1.000000
    3        8.934857      9.639975   1.000000   1.000000
    4        8.953834      9.652563   1.000000   1.000000
    5       10.066599     10.667786   1.000000   1.000000
    6       10.230544     10.842574   1.000000   1.000000
    7       34.679713     34.692254   0.000000   0.000000
    8       37.232569     37.218430   0.000000   0.000000
    9       40.090568     40.082387   0.000000   0.000000
   10       42.207229     42.202380   0.000000   0.000000
   11       44.945931     44.941319   0.000000   0.000000
   12       45.831938     45.896993   0.000000   0.000000
 
  0.2500000E+00  0.5000000E-01  0.5000000E-01  0.6000000E-02
    1        3.532807      3.529070   1.000000   1.000000
    2        8.345727      8.973341   1.000000   1.000000
    3        9.061785      9.731197   1.000000   1.000000
    4        9.099068      9.782031   1.000000   1.000000
    5       10.049256     10.675193   1.000000   1.000000
    6       10.377947     11.021474   1.000000   1.000135
    7       29.517721     29.637755   0.000000   0.000000
    8       36.008004     35.990702   0.000000   0.000000
    9       39.438665     39.444930   0.000000   0.000000
   10       41.859354     41.915557   0.000000   0.000000
   11       44.516777     44.500877   0.000000   0.000000
   12       45.199072     45.247231   0.000000   0.000000
 
  0.3500000E+00  0.5000000E-01  0.5000000E-01  0.6000000E-02
    1        5.094174      5.196528   1.000000   1.000000
    2        8.537446      9.009453   1.000000   1.000000
    3        8.949102      9.575639   1.000000   1.000000
    4        9.009306      9.639861   1.000000   1.000000
    5       10.406357     11.094576   1.000000   1.000853
    6       10.795597     11.478574   1.000000   0.940048
    7       24.335927     24.538340   0.000000   0.000000
    8       35.205960     35.172178   0.000000   0.000000
    9       38.317563     38.351431   0.000000   0.000000
   10       41.213878     41.325688   0.000000   0.000000
   11       42.700170     42.736787   0.000000   0.000000
   12       44.577223     44.595252   0.000000   0.000000
 
  0.4500000E+00  0.5000000E-01  0.5000000E-01  0.6000000E-02
    1        5.872019      6.210491   1.000000   1.000000
    2        8.781269      9.374717   1.000000   1.000000
    3        8.857521      9.464723   1.000000   1.000000
    4        9.751118      9.990003   1.000000   1.000000
    5       10.851774     11.576153   1.000001   0.632893
    6       11.401810     12.015688   1.028049  -0.007047
    7       20.067874     20.385406   0.000000   0.000000
    8       34.700138     34.628117   0.000000   0.000000
    9       37.717067     37.780458   0.000000   0.000000
   10       39.440297     39.537292   0.000000   0.000000
   11       42.291625     42.345887   0.000000   0.000000
   12       43.786618     43.823459   0.000000   0.000000
 
 -0.4500000E+00  0.5000000E-01  0.5000000E-01  0.6000000E-02
    1        5.974459      6.378176   1.000000   1.000000
    2        8.719072      9.305433   1.000000   1.000000
    3        8.820668      9.424468   1.000000   1.000000
    4       10.265078     10.552968   1.000000   1.000000
    5       11.062302     11.797174   1.000393  -0.018557
    6       11.867396     12.292025  -0.034731  -0.000007
    7       18.510784     18.911451   0.000000   0.000000
    8       34.654390     34.559069   0.000000   0.000000
    9       38.025445     38.114784   0.000000   0.000000
   10       38.110861     38.197280   0.000000   0.000000
   11       43.026577     43.079876   0.000000   0.000000
   12       43.060281     43.099514   0.000000   0.000000
 
 -0.3500000E+00  0.5000000E-01  0.5000000E-01  0.6000000E-02
    1        5.725529      5.994050   1.000000   1.000000
    2        8.811412      9.382689   1.000000   1.000000
    3        8.918090      9.535437   1.000000   1.000000
    4        9.262069      9.587619   1.000000   1.000000
    5       10.918605     11.637298   1.000006   0.377503
    6       10.998010     11.649321   1.000070   0.329238
    7       21.331112     21.603779   0.000000   0.000000
    8       35.157478     35.063427   0.000000   0.000000
    9       37.486560     37.580725   0.000000   0.000000
   10       39.497411     39.602863   0.000000   0.000000
   11       42.776375     42.805134   0.000000   0.000000
   12       44.353166     44.396354   0.000000   0.000000
 
 -0.2500000E+00  0.5000000E-01  0.5000000E-01  0.6000000E-02
    1        4.607845      4.654154   1.000000   1.000000
    2        8.359561      8.905675   1.000000   1.000000
    3        9.000027      9.634997   1.000000   1.000000
    4        9.067000      9.716669   1.000000   1.000000
    5       10.344401     11.010385   1.000000   1.000100
    6       10.557624     11.234380   1.000000   1.011954
    7       25.993725     26.167019   0.000000   0.000000
    8       36.071006     35.991162   0.000000   0.000000
    9       37.716523     37.810860   0.000000   0.000000
   10       41.459575     41.566883   0.000000   0.000000
   11       42.990907     42.992402   0.000000   0.000000
   12       46.300410     46.322310   0.000000   0.000000
 
 -0.1500000E+00  0.5000000E-01  0.5000000E-01  0.6000000E-02
    1        3.029532      3.017052   1.000000   1.000000
    2        8.398984      9.049261   1.000000   1.000000
    3        9.058078      9.746998   1.000000   1.000000
    4        9.070071      9.762080   1.000000   1.000000
    5       10.024055     10.637194   1.000000   1.000000
    6       10.289500     10.915024   1.000000   1.000005
    7       31.317678     31.411237   0.000000   0.000000
    8       37.035603     36.960974   0.000000   0.000000
    9       38.523550     38.601585   0.000000   0.000000
   10       42.231522     42.221421   0.000000   0.000000
   11       43.956514     44.004703   0.000000   0.000000
   12       47.903898     47.887285   0.000000   0.000000
 
 -0.5000000E-01  0.5000000E-01  0.5000000E-01  0.6000000E-02
    1        1.935469      1.915671   1.000000   1.000000
    2        8.643368      9.330838   1.000000   1.000000
    3        8.891966      9.594126   1.000000   1.000000
    4        8.895598      9.597700   1.000000   1.000000
    5       10.089449     10.691553   1.000000   1.000000
    6       10.241352     10.851129   1.000000   1.000001
    7       35.825141     35.769253   0.000000   0.000000
    8       38.647180     38.630862   0.000000   0.000000
    9       39.837334     39.879499   0.000000   0.000000
   10       41.275515     41.253856   0.000000   0.000000
   11       45.687241     45.741770   0.000000   0.000000
   12       47.101351     47.124779   0.000000   0.000000
 
  0.1500000E+00  0.1500000E+00  0.5000000E-01  0.6000000E-02
    1        2.497539      2.479517   1.000000   1.000000
    2        8.429527      9.101835   1.000000   1.000000
    3        9.062876      9.767070   1.000000   1.000000
    4        9.066624      9.771907   1.000000   1.000000
    5        9.903515     10.494904   1.000000   1.000000
    6       10.327308     10.941124   1.000000   1.000013
    7       34.890114     34.901753   0.000000   0.000000
    8       37.154191     37.131188   0.000000   0.000000
    9       37.887398     37.957135   0.000000   0.000000
   10       39.758468     39.740958   0.000000   0.000000
   11       46.680780     46.774284   0.000000   0.000000
   12       48.030982     48.162962   0.000000   0.000000
 
  0.2500000E+00  0.1500000E+00  0.5000000E-01  0.1200000E-01
    1        3.549130      3.540534   1.000000   1.000000
    2        8.147672      8.793273   1.000000   1.000000
    3        9.151721      9.807635   1.000000   1.000000
    4        9.307737     10.016198   1.000000   1.000000
    5        9.835198     10.445088   1.000000   1.000000
    6       10.486351     11.122048   1.000000   1.001576
    7       31.723525     31.815416   0.000000   0.000000
    8       34.063034     34.109225   0.000000   0.000000
    9       37.917441     37.923418   0.000000   0.000000
   10       39.466166     39.465868   0.000000   0.000000
   11       45.050547     45.246447   0.000000   0.000000
   12       47.523565     47.512531   0.000000   0.000000
 
  0.3500000E+00  0.1500000E+00  0.5000000E-01  0.1200000E-01
    1        5.058502      5.110987   1.000000   1.000000
    2        8.019494      8.596165   1.000000   1.000000
    3        8.885368      9.487573   1.000000   1.000000
    4        9.335779      9.992270   1.000000   1.000000
    5       10.341082     10.998162   1.000000   1.000071
    6       10.927929     11.597741   1.000008   0.543359
    7       26.390702     26.552805   0.000000   0.000000
    8       33.160637     33.212403   0.000000   0.000000
    9       36.321493     36.346195   0.000000   0.000000
   10       39.266435     39.339514   0.000000   0.000000
   11       46.031287     46.032346   0.000000   0.000000
   12       46.156902     46.226535   0.000000   0.000000
 
  0.4500000E+00  0.1500000E+00  0.5000000E-01  0.1200000E-01
    1        6.111975      6.393906   1.000000   1.000000
    2        8.415426      8.827790   1.000000   1.000000
    3        8.733182      9.312434   1.000000   1.000000
    4        9.195431      9.815559   1.000000   1.000000
    5       10.894609     11.605062   1.000003   0.512443
    6       11.967943     12.520486  -0.014443  -0.000000
    7       21.646913     21.897667   0.000000   0.000000
    8       32.753164     32.780074   0.000000   0.000000
    9       34.834763     34.909684   0.000000   0.000000
   10       38.204863     38.265848   0.000000   0.000000
   11       45.018797     45.042522   0.000000   0.000000
   12       47.514519     47.519860   0.000000   0.000000
 
 -0.4500000E+00  0.1500000E+00  0.5000000E-01  0.1200000E-01
    1        6.336425      6.759869   1.000000   1.000000
    2        8.399995      8.887556   1.000000   1.000000
    3        9.082986      9.687803   1.000000   1.000000
    4        9.288560      9.746929   1.000000   1.000000
    5       11.022904     11.761005   1.000141   0.019453
    6       13.447101     13.782000  -0.000000  -0.000000
    7       18.615569     18.991641   0.000000   0.000000
    8       32.263973     32.285801   0.000000   0.000000
    9       34.502281     34.598908   0.000000   0.000000
   10       37.859275     37.888282   0.000000   0.000000
   11       44.364545     44.409611   0.000000   0.000000
   12       47.113407     47.121587   0.000000   0.000000
 
 -0.3500000E+00  0.1500000E+00  0.5000000E-01  0.1200000E-01
    1        6.259561      6.614237   1.000000   1.000000
    2        8.495414      8.975066   1.000000   1.000000
    3        8.950532      9.424444   1.000000   1.000000
    4        9.133671      9.732701   1.000000   1.000000
    5       10.781723     11.505190   1.000000   0.877724
    6       12.617051     13.108076  -0.000000  -0.000000
    7       20.338259     20.631642   0.000000   0.000000
    8       31.703380     31.756694   0.000000   0.000000
    9       35.543460     35.599013   0.000000   0.000000
   10       38.704879     38.741444   0.000000   0.000000
   11       43.967714     44.014295   0.000000   0.000000
   12       46.778777     46.786774   0.000000   0.000000
 
 -0.2500000E+00  0.1500000E+00  0.5000000E-01  0.1200000E-01
    1        5.541704      5.648682   1.000000   1.000000
    2        8.180544      8.708361   1.000000   1.000000
    3        8.773164      9.368595   1.000000   1.000000
    4        9.270797      9.899888   1.000000   1.000000
    5       10.256195     10.941469   1.000000   1.000013
    6       11.396574     12.050616   1.030086  -0.003785
    7       24.727509     24.917857   0.000000   0.000000
    8       31.672220     31.743656   0.000000   0.000000
    9       37.312930     37.329791   0.000000   0.000000
   10       40.561403     40.618246   0.000000   0.000000
   11       43.767170     43.788435   0.000000   0.000000
   12       46.033242     46.051989   0.000000   0.000000
 
 -0.1500000E+00  0.1500000E+00  0.5000000E-01  0.1200000E-01
    1        4.036453      4.037510   1.000000   1.000000
    2        8.140040      8.771830   1.000000   1.000000
    3        9.037307      9.672901   1.000000   1.000000
    4        9.341127     10.044494   1.000000   1.000000
    5        9.829311     10.435899   1.000000   1.000000
    6       10.686950     11.345220   1.000000   1.034376
    7       29.911832     30.030169   0.000000   0.000000
    8       32.300863     32.368894   0.000000   0.000000
    9       39.546361     39.539434   0.000000   0.000000
   10       41.156567     41.138868   0.000000   0.000000
   11       44.686565     44.683235   0.000000   0.000000
   12       45.770378     45.897126   0.000000   0.000000
 
 -0.5000000E-01  0.1500000E+00  0.5000000E-01  0.1200000E-01
    1        2.768809      2.752820   1.000000   1.000000
    2        8.407602      9.071319   1.000000   1.000000
    3        9.060095      9.749935   1.000000   1.000000
    4        9.080017      9.787540   1.000000   1.000000
    5        9.932535     10.529071   1.000000   1.000000
    6       10.326493     10.948123   1.000000   1.000016
    7       33.219365     33.280833   0.000000   0.000000
    8       35.631725     35.646789   0.000000   0.000000
    9       39.339197     39.332821   0.000000   0.000000
   10       41.542426     41.516132   0.000000   0.000000
   11       45.007714     45.049209   0.000000   0.000000
   12       46.934084     46.948905   0.000000   0.000000
 
  0.2500000E+00  0.2500000E+00  0.5000000E-01  0.6000000E-02
    1        4.250129      4.255098   1.000000   1.000000
    2        7.807653      8.439348   1.000000   1.000000
    3        9.328356      9.903036   1.000000   1.000000
    4        9.618206     10.337260   1.000000   1.000000
    5        9.811526     10.490216   1.000000   1.000000
    6       10.585952     11.213817   1.000000   1.008772
    7       32.226172     32.311359   0.000000   0.000000
    8       33.914295     34.000447   0.000000   0.000000
    9       34.548396     34.553487   0.000000   0.000000
   10       35.953983     35.998148   0.000000   0.000000
   11       41.964114     42.173723   0.000000   0.000000
   12       51.643154     51.595397   0.000000   0.000000
 
  0.3500000E+00  0.2500000E+00  0.5000000E-01  0.1200000E-01
    1        5.395454      5.460011   1.000000   1.000000
    2        7.528182      8.134187   1.000000   1.000000
    3        9.055245      9.602725   1.000000   1.000000
    4        9.920386     10.621469   1.000000   1.000000
    5       10.383659     11.021434   1.000000   1.000135
    6       10.951764     11.614339   1.000018   0.473205
    7       28.919442     29.036165   0.000000   0.000000
    8       31.030553     31.109565   0.000000   0.000000
    9       33.017386     33.089218   0.000000   0.000000
   10       36.687409     36.744271   0.000000   0.000000
   11       41.781596     41.939272   0.000000   0.000000
   12       51.222805     51.200392   0.000000   0.000000
 
  0.4500000E+00  0.2500000E+00  0.5000000E-01  0.1200000E-01
    1        6.416797      6.650138   1.000000   1.000000
    2        7.521576      8.052455   1.000000   1.000000
    3        8.742895      9.287960   1.000000   1.000000
    4        9.830051     10.477974   1.000000   1.000000
    5       10.965950     11.677058   1.000027   0.226218
    6       12.378351     12.898024  -0.000000  -0.000000
    7       23.934082     24.110898   0.000000   0.000000
    8       30.019291     30.101995   0.000000   0.000000
    9       31.265945     31.364376   0.000000   0.000000
   10       36.935168     37.001286   0.000000   0.000000
   11       45.082611     45.175936   0.000000   0.000000
   12       49.767257     49.784305   0.000000   0.000000
 
 -0.4500000E+00  0.2500000E+00  0.5000000E-01  0.1200000E-01
    1        6.848378      7.289053   1.000000   1.000000
    2        7.718079      8.125376   1.000000   1.000000
    3        8.689690      9.248986   1.000000   1.000000
    4        9.667235     10.286816   1.000000   1.000000
    5       11.042408     11.789786   1.000237  -0.012911
    6       14.840068     15.175877  -0.000000  -0.000000
    7       19.779755     20.051709   0.000000   0.000000
    8       28.356389     28.467495   0.000000   0.000000
    9       31.578728     31.669183   0.000000   0.000000
   10       36.987357     37.035533   0.000000   0.000000
   11       47.527134     47.540867   0.000000   0.000000
   12       50.791920     50.872531   0.000000   0.000000
 
 -0.3500000E+00  0.2500000E+00  0.5000000E-01  0.1200000E-01
    1        7.001452      7.444111   1.000000   1.000000
    2        7.891430      8.298881   1.000000   1.000000
    3        8.534518      9.082346   1.000000   1.000000
    4        9.591525     10.193377   1.000000   1.000000
    5       10.739820     11.488989   1.000000   0.917791
    6       15.011899     15.360295  -0.000000  -0.000000
    7       19.796828     20.081861   0.000000   0.000000
    8       27.143092     27.268945   0.000000   0.000000
    9       32.997051     33.082526   0.000000   0.000000
   10       37.704563     37.736518   0.000000   0.000000
   11       46.602966     46.609962   0.000000   0.000000
   12       50.665522     50.651517   0.000000   0.000000
 
 -0.2500000E+00  0.2500000E+00  0.5000000E-01  0.1200000E-01
    1        6.712992      6.920902   1.000000   1.000000
    2        7.982077      8.533795   1.000000   1.000000
    3        8.294311      8.831347   1.000000   1.000000
    4        9.661837     10.244304   1.000000   1.000000
    5       10.198103     10.941885   1.000000   1.000013
    6       12.910002     13.458323  -0.000000  -0.000000
    7       23.936132     24.137053   0.000000   0.000000
    8       26.751041     26.879800   0.000000   0.000000
    9       35.067031     35.133556   0.000000   0.000000
   10       39.381429     39.416902   0.000000   0.000000
   11       45.012796     44.987429   0.000000   0.000000
   12       49.482107     49.482969   0.000000   0.000000
 
 -0.1500000E+00  0.2500000E+00  0.5000000E-01  0.1200000E-01
    1        5.497109      5.557734   1.000000   1.000000
    2        7.962173      8.558678   1.000000   1.000000
    3        8.741370      9.323871   1.000000   1.000000
    4        9.558896     10.183013   1.000000   1.000000
    5        9.897221     10.586117   1.000000   1.000000
    6       11.496502     12.151238   0.900033  -0.000418
    7       26.772163     26.934436   0.000000   0.000000
    8       29.271195     29.374705   0.000000   0.000000
    9       37.446736     37.479552   0.000000   0.000000
   10       41.539703     41.575795   0.000000   0.000000
   11       43.057446     43.038607   0.000000   0.000000
   12       47.429010     47.478270   0.000000   0.000000
 
 -0.5000000E-01  0.2500000E+00  0.5000000E-01  0.1200000E-01
    1        4.236336      4.251070   1.000000   1.000000
    2        8.214753      8.817787   1.000000   1.000000
    3        9.029004      9.666384   1.000000   1.000000
    4        9.183539      9.850381   1.000000   1.000000
    5       10.081121     10.727517   1.000000   1.000000
    6       10.616815     11.279529   1.000000   1.021120
    7       27.867536     28.011285   0.000000   0.000000
    8       34.575876     34.600400   0.000000   0.000000
    9       38.296826     38.303263   0.000000   0.000000
   10       41.792992     41.845250   0.000000   0.000000
   11       43.704082     43.726278   0.000000   0.000000
   12       45.776120     45.809390   0.000000   0.000000
 
  0.3500000E+00  0.3500000E+00  0.5000000E-01  0.6000000E-02
    1        5.832365      5.993431   1.000000   1.000000
    2        7.157920      7.750601   1.000000   1.000000
    3        9.797782     10.237458   1.000000   1.000000
    4       10.339675     11.072282   1.000000   1.000503
    5       10.769246     11.403016   1.000000   1.027525
    6       10.883717     11.540287   1.000002   0.769135
    7       29.102332     29.192235   0.000000   0.000000
    8       29.875443     29.973704   0.000000   0.000000
    9       30.616919     30.684169   0.000000   0.000000
   10       34.505834     34.609559   0.000000   0.000000
   11       39.301627     39.462131   0.000000   0.000000
   12       56.309139     56.396276   0.000000   0.000000
 
  0.4500000E+00  0.3500000E+00  0.5000000E-01  0.1200000E-01
    1        6.241222      6.515179   1.000000   1.000000
    2        6.992433      7.567638   1.000000   1.000000
    3        9.739764     10.269746   1.000000   1.000000
    4       10.602858     11.280829   1.000000   1.021416
    5       10.979918     11.690963   1.000042   0.180215
    6       12.513742     12.946754  -0.000000  -0.000000
    7       26.386817     26.512552   0.000000   0.000000
    8       27.183639     27.312638   0.000000   0.000000
    9       28.943943     29.017043   0.000000   0.000000
   10       35.605879     35.697139   0.000000   0.000000
   11       40.286571     40.425105   0.000000   0.000000
   12       54.593030     54.597341   0.000000   0.000000
 
 -0.4500000E+00  0.3500000E+00  0.5000000E-01  0.1200000E-01
    1        6.643075      7.008899   1.000000   1.000000
    2        7.107566      7.643181   1.000000   1.000000
    3        9.287357      9.842260   1.000000   1.000000
    4       10.382602     11.014002   1.000000   1.000110
    5       11.100293     11.869683   1.000973  -0.034498
    6       15.365387     15.666045  -0.000000  -0.000000
    7       22.237500     22.403622   0.000000   0.000000
    8       24.881173     25.057597   0.000000   0.000000
    9       29.236670     29.310959   0.000000   0.000000
   10       36.185763     36.269569   0.000000   0.000000
   11       44.356617     44.464843   0.000000   0.000000
   12       52.532698     52.535326   0.000000   0.000000
 
 -0.3500000E+00  0.3500000E+00  0.5000000E-01  0.1200000E-01
    1        7.111959      7.562410   1.000000   1.000000
    2        7.375392      7.826703   1.000000   1.000000
    3        8.706625      9.267697   1.000000   1.000000
    4       10.139870     10.733824   1.000000   1.000000
    5       10.848933     11.634334   1.000001   0.389649
    6       17.981637     18.221722   0.000000   0.000000
    7       19.169776     19.411999   0.000000   0.000000
    8       23.701993     23.892859   0.000000   0.000000
    9       30.624132     30.710315   0.000000   0.000000
   10       36.699036     36.760998   0.000000   0.000000
   11       49.689699     49.751707   0.000000   0.000000
   12       50.522391     50.536885   0.000000   0.000000
 
 -0.2500000E+00  0.3500000E+00  0.5000000E-01  0.1200000E-01
    1        7.294715      7.696481   1.000000   1.000000
    2        7.763052      8.198025   1.000000   1.000000
    3        8.232909      8.795130   1.000000   1.000000
    4        9.832446     10.414896   1.000000   1.000000
    5       10.542823     11.311605   1.000000   1.028447
    6       15.145769     15.522075  -0.000000  -0.000000
    7       21.370239     21.599744   0.000000   0.000000
    8       24.883198     25.039549   0.000000   0.000000
    9       32.767515     32.854734   0.000000   0.000000
   10       37.722628     37.760304   0.000000   0.000000
   11       47.522726     47.499710   0.000000   0.000000
   12       51.828151     51.799909   0.000000   0.000000
 
 -0.1500000E+00  0.3500000E+00  0.5000000E-01  0.1200000E-01
    1        6.501321      6.791538   1.000000   1.000000
    2        8.297675      8.714820   1.000000   1.000000
    3        8.441607      9.032836   1.000000   1.000000
    4        9.384971      9.989761   1.000000   1.000000
    5       10.492958     11.215729   1.000000   1.009039
    6       12.821486     13.350749  -0.000000  -0.000000
    7       22.010110     22.247493   0.000000   0.000000
    8       29.145988     29.247049   0.000000   0.000000
    9       35.208286     35.268461   0.000000   0.000000
   10       39.116849     39.147658   0.000000   0.000000
   11       44.573861     44.590342   0.000000   0.000000
   12       48.199611     48.201158   0.000000   0.000000
 
 -0.5000000E-01  0.3500000E+00  0.5000000E-01  0.1200000E-01
    1        5.619032      5.803871   1.000000   1.000000
    2        8.623235      9.032378   1.000000   1.000000
    3        8.811359      9.425039   1.000000   1.000000
    4        9.055022      9.677934   1.000000   1.000000
    5       10.610700     11.302940   1.000000   1.026510
    6       11.203761     11.861682   1.007461  -0.035181
    7       22.890605     23.119586   0.000000   0.000000
    8       34.008689     34.012598   0.000000   0.000000
    9       37.073969     37.102867   0.000000   0.000000
   10       39.826140     39.921341   0.000000   0.000000
   11       43.496236     43.526790   0.000000   0.000000
   12       45.440938     45.461869   0.000000   0.000000
 
  0.4500000E+00  0.4500000E+00  0.5000000E-01  0.6000000E-02
    1        6.071994      6.393689   1.000000   1.000000
    2        6.714708      7.283029   1.000000   1.000000
    3       10.822896     11.512171   1.000000   0.858438
    4       10.928937     11.599736   1.000009   0.534948
    5       11.129309     11.890928   1.001839  -0.031225
    6       13.099763     13.275905  -0.000000  -0.000000
    7       24.131347     24.337832   0.000000   0.000000
    8       27.654688     27.711330   0.000000   0.000000
    9       28.502573     28.538402   0.000000   0.000000
   10       34.039716     34.178271   0.000000   0.000000
   11       38.443436     38.597896   0.000000   0.000000
   12       58.686943     58.694212   0.000000   0.000000
 
 -0.4500000E+00  0.4500000E+00  0.5000000E-01  0.1200000E-01
    1        6.194103      6.542705   1.000000   1.000000
    2        6.727374      7.289004   1.000000   1.000000
    3       10.421550     11.061678   1.000000   1.000387
    4       10.910582     11.540438   1.000005   0.768608
    5       11.204490     12.010246   1.007550  -0.007709
    6       15.069831     15.231225  -0.000000  -0.000000
    7       22.527547     22.779786   0.000000   0.000000
    8       25.726942     25.814405   0.000000   0.000000
    9       27.690546     27.740037   0.000000   0.000000
   10       35.190947     35.301884   0.000000   0.000000
   11       39.837674     39.979660   0.000000   0.000000
   12       56.790278     56.778223   0.000000   0.000000
 
 -0.3500000E+00  0.4500000E+00  0.5000000E-01  0.1200000E-01
    1        6.601153      6.977263   1.000000   1.000000
    2        7.025574      7.565825   1.000000   1.000000
    3        9.482167     10.058823   1.000000   1.000000
    4       10.546499     11.158933   1.000000   1.003346
    5       11.078939     11.875828   1.000590  -0.033741
    6       16.793345     17.017178  -0.000000  -0.000000
    7       21.616591     21.793458   0.000000   0.000000
    8       23.230253     23.435676   0.000000   0.000000
    9       28.862931     28.932332   0.000000   0.000000
   10       36.054424     36.144266   0.000000   0.000000
   11       44.229380     44.341464   0.000000   0.000000
   12       53.477882     53.458796   0.000000   0.000000
 
 -0.2500000E+00  0.4500000E+00  0.5000000E-01  0.1200000E-01
    1        7.047059      7.519610   1.000000   1.000000
    2        7.474699      7.887031   1.000000   1.000000
    3        8.695227      9.254707   1.000000   1.000000
    4        9.936774     10.548369   1.000000   1.000000
    5       10.958442     11.722126   1.000022   0.093606
    6       16.617518     16.884538  -0.000000  -0.000000
    7       19.236817     19.506903   0.000000   0.000000
    8       25.727925     25.879845   0.000000   0.000000
    9       30.940304     31.027396   0.000000   0.000000
   10       36.787410     36.843137   0.000000   0.000000
   11       48.771746     48.785194   0.000000   0.000000
   12       50.654375     50.740201   0.000000   0.000000
 
 -0.1500000E+00  0.4500000E+00  0.5000000E-01  0.1200000E-01
    1        6.654538      7.097642   1.000000   1.000000
    2        8.127540      8.558586   1.000000   1.000000
    3        8.905981      9.422425   1.000000   1.000000
    4        9.317377      9.924969   1.000000   1.000000
    5       10.927153     11.669178   1.000008   0.254083
    6       14.490025     14.802759  -0.000000  -0.000000
    7       18.750293     19.102812   0.000000   0.000000
    8       29.786819     29.872063   0.000000   0.000000
    9       33.511702     33.596133   0.000000   0.000000
   10       37.725048     37.750004   0.000000   0.000000
   11       45.460876     45.491377   0.000000   0.000000
   12       49.060227     49.055900   0.000000   0.000000
 
 -0.5000000E-01  0.4500000E+00  0.5000000E-01  0.1200000E-01
    1        6.073380      6.462633   1.000000   1.000000
    2        8.634032      9.186646   1.000000   1.000000