       N       E                     dE             d eps       ncg     rms          rms(c)
DAV:   1     0.184770426015E+02    0.18477E+02   -0.29507E+03  5840   0.661E+02
DAV:   2    -0.516302229586E+01   -0.23640E+02   -0.22199E+02  5808   0.123E+02
DAV:   3    -0.556440706735E+01   -0.40138E+00   -0.40061E+00  5940   0.174E+01
DAV:   4    -0.556637778142E+01   -0.19707E-02   -0.19706E-02  6052   0.109E+00
DAV:   5    -0.556639965393E+01   -0.21873E-04   -0.21874E-04  5784   0.108E-01    0.159E+01
DAV:   6    -0.552414950343E+01    0.42250E-01   -0.10217E+01  6740   0.421E+01    0.520E+00
DAV:   7    -0.532183883314E+01    0.20231E+00   -0.16911E+00  6664   0.148E+01    0.221E+00
DAV:   8    -0.530541719320E+01    0.16422E-01   -0.16155E-02  5968   0.969E-01    0.104E+00
DAV:   9    -0.530169415715E+01    0.37230E-02   -0.42558E-03  6840   0.423E-01    0.326E-01
DAV:  10    -0.530155720588E+01    0.13695E-03   -0.14442E-04  3832   0.782E-02    0.486E-02
DAV:  11    -0.530156719492E+01   -0.99890E-05   -0.18524E-05  2852   0.326E-02
   1 F= -.53015672E+01 E0= -.53010133E+01  d E =-.166167E-02  mag=     0.6030
