 vasp.5.4.4.18Apr17-6-g9f103f2a35 (build Jul 01 2019 03:25:34) complex          
  
 executed on             LinuxIFC date 2020.07.09  19:35:22
 running on    4 total cores
 distrk:  each k-point on    4 cores,    1 groups
 distr:  one band on NCORES_PER_BAND=   1 cores,    4 groups


--------------------------------------------------------------------------------------------------------


 INCAR:
 POTCAR:    PAW_PBE Ni 02Aug2007                  
 POTCAR:    PAW_PBE Ni 02Aug2007                  
   VRHFIN =Ni:                                                                  
   LEXCH  = PE                                                                  
   EATOM  =  1077.6739 eV,   79.2068 Ry                                         
                                                                                
   TITEL  = PAW_PBE Ni 02Aug2007                                                
   LULTRA =        F    use ultrasoft PP ?                                      
   IUNSCR =        1    unscreen: 0-lin 1-nonlin 2-no                           
   RPACOR =    2.000    partial core radius                                     
   POMASS =   58.690; ZVAL   =   10.000    mass and valenz                      
   RCORE  =    2.300    outmost cutoff radius                                   
   RWIGS  =    2.430; RWIGS  =    1.286    wigner-seitz radius (au A)           
   ENMAX  =  269.532; ENMIN  =  202.149 eV                                      
   RCLOC  =    1.201    cutoff for local pot                                    
   LCOR   =        T    correct aug charges                                     
   LPAW   =        T    paw PP                                                  
   EAUG   =  544.565                                                            
   DEXC   =    0.000                                                            
   RMAX   =    2.357    core radius for proj-oper                               
   RAUG   =    1.300    factor for augmentation sphere                          
   RDEP   =    2.390    radius for radial grids                                 
   RDEPT  =    1.838    core radius for aug-charge                              
                                                                                
   Atomic configuration                                                         
    9 entries                                                                   
     n  l   j            E        occ.                                          
     1  0  0.50     -8206.4253   2.0000                                         
     2  0  0.50      -976.1748   2.0000                                         
     2  1  1.50      -839.0571   6.0000                                         
     3  0  0.50      -105.9991   2.0000                                         
     3  1  1.50       -66.4603   6.0000                                         
     3  2  2.50        -4.6458   9.0000                                         
     4  0  0.50        -4.4926   1.0000                                         
     4  1  1.50        -4.0817   0.0000                                         
     4  3  2.50        -1.3606   0.0000                                         
   Description                                                                  
     l       E           TYP  RCUT    TYP  RCUT                                 
     2     -4.6457903     23  2.300                                             
     2     -6.0063729     23  2.300                                             
     0     -4.4925590     23  2.300                                             
     0      5.0102601     23  2.300                                             
     1     -2.7211652     23  2.300                                             
     1     16.5183231     23  2.300                                             
  local pseudopotential read in
  partial core-charges read in
  partial kinetic energy density read in
  atomic valenz-charges read in
  non local Contribution for L=           2  read in
    real space projection operators read in
  non local Contribution for L=           2  read in
    real space projection operators read in
  non local Contribution for L=           0  read in
    real space projection operators read in
  non local Contribution for L=           0  read in
    real space projection operators read in
  non local Contribution for L=           1  read in
    real space projection operators read in
  non local Contribution for L=           1  read in
    real space projection operators read in
    PAW grid and wavefunctions read in
 
   number of l-projection  operators is LMAX  =           6
   number of lm-projection operators is LMMAX =          18
 
  PAW_PBE Ni 02Aug2007                  :
 energy of atom  1       EATOM=-1077.6739
 kinetic energy error for atom=    0.0378 (will be added to EATOM!!)
 
 
 POSCAR: FCC Ni Bulk                             
  positions in direct lattice
  No initial velocities read in
 exchange correlation table for  LEXCH =        8
   RHO(1)=    0.500       N(1)  =     2000
   RHO(2)=  100.500       N(2)  =     4000
 


--------------------------------------------------------------------------------------------------------


 ion  position               nearest neighbor table
   1  0.000  0.000  0.000-
 
  LATTYP: Found a face centered cubic cell.
 ALAT       =     3.3500000000
  
  Lattice vectors:
  
 A1 = (   0.0000000000,   1.6750000000,   1.6750000000)
 A2 = (   1.6750000000,   0.0000000000,   1.6750000000)
 A3 = (   1.6750000000,   1.6750000000,   0.0000000000)


Analysis of symmetry for initial positions (statically):
=====================================================================
 Subroutine PRICEL returns:
 Original cell was already a primitive cell.
 

 Routine SETGRP: Setting up the symmetry group for a 
 face centered cubic supercell.


 Subroutine GETGRP returns: Found 48 space group operations
 (whereof 48 operations were pure point group operations)
 out of a pool of 48 trial point group operations.


The static configuration has the point symmetry O_h .


Analysis of symmetry for dynamics (positions and initial velocities):
=====================================================================
 Subroutine PRICEL returns:
 Original cell was already a primitive cell.
 

 Routine SETGRP: Setting up the symmetry group for a 
 face centered cubic supercell.


 Subroutine GETGRP returns: Found 48 space group operations
 (whereof 48 operations were pure point group operations)
 out of a pool of 48 trial point group operations.


The dynamic configuration has the point symmetry O_h .


Analysis of structural, dynamic, and magnetic symmetry:
=====================================================================
 Subroutine PRICEL returns:
 Original cell was already a primitive cell.
 

 Routine SETGRP: Setting up the symmetry group for a 
 face centered cubic supercell.


 Subroutine GETGRP returns: Found 48 space group operations
 (whereof 48 operations were pure point group operations)
 out of a pool of 48 trial point group operations.


The magnetic configuration has the point symmetry O_h .


 Subroutine INISYM returns: Found 48 space group operations
 (whereof 48 operations are pure point group operations),
 and found     1 'primitive' translations

 
 
 KPOINTS: 10x10x10                                

Automatic generation of k-mesh.
Space group operators:
 irot       det(A)        alpha          n_x          n_y          n_z        tau_x        tau_y        tau_z
    1     1.000000     0.000000     1.000000     0.000000     0.000000     0.000000     0.000000     0.000000
    2    -1.000000     0.000000     1.000000     0.000000     0.000000     0.000000     0.000000     0.000000
    3     1.000000   120.000000    -0.577350    -0.577350    -0.577350     0.000000     0.000000     0.000000
    4    -1.000000   120.000000    -0.577350    -0.577350    -0.577350     0.000000     0.000000     0.000000
    5     1.000000   120.000000     0.577350     0.577350     0.577350     0.000000     0.000000     0.000000
    6    -1.000000   120.000000     0.577350     0.577350     0.577350     0.000000     0.000000     0.000000
    7     1.000000    90.000000     0.000000     0.000000    -1.000000     0.000000     0.000000     0.000000
    8    -1.000000    90.000000     0.000000     0.000000    -1.000000     0.000000     0.000000     0.000000
    9     1.000000   180.000000     0.000000     0.707107     0.707107     0.000000     0.000000     0.000000
   10    -1.000000   180.000000     0.000000     0.707107     0.707107     0.000000     0.000000     0.000000
   11     1.000000    90.000000     0.000000     1.000000     0.000000     0.000000     0.000000     0.000000
   12    -1.000000    90.000000     0.000000     1.000000     0.000000     0.000000     0.000000     0.000000
   13     1.000000   180.000000     0.000000     0.000000     1.000000     0.000000     0.000000     0.000000
   14    -1.000000   180.000000     0.000000     0.000000     1.000000     0.000000     0.000000     0.000000
   15     1.000000   120.000000    -0.577350     0.577350     0.577350     0.000000     0.000000     0.000000
   16    -1.000000   120.000000    -0.577350     0.577350     0.577350     0.000000     0.000000     0.000000
   17     1.000000   120.000000    -0.577350     0.577350    -0.577350     0.000000     0.000000     0.000000
   18    -1.000000   120.000000    -0.577350     0.577350    -0.577350     0.000000     0.000000     0.000000
   19     1.000000    90.000000     0.000000     0.000000     1.000000     0.000000     0.000000     0.000000
   20    -1.000000    90.000000     0.000000     0.000000     1.000000     0.000000     0.000000     0.000000
   21     1.000000    90.000000    -1.000000     0.000000     0.000000     0.000000     0.000000     0.000000
   22    -1.000000    90.000000    -1.000000     0.000000     0.000000     0.000000     0.000000     0.000000
   23     1.000000   180.000000     0.707107     0.000000     0.707107     0.000000     0.000000     0.000000
   24    -1.000000   180.000000     0.707107     0.000000     0.707107     0.000000     0.000000     0.000000
   25     1.000000   120.000000     0.577350    -0.577350     0.577350     0.000000     0.000000     0.000000
   26    -1.000000   120.000000     0.577350    -0.577350     0.577350     0.000000     0.000000     0.000000
   27     1.000000   120.000000    -0.577350    -0.577350     0.577350     0.000000     0.000000     0.000000
   28    -1.000000   120.000000    -0.577350    -0.577350     0.577350     0.000000     0.000000     0.000000
   29     1.000000   180.000000     1.000000     0.000000     0.000000     0.000000     0.000000     0.000000
   30    -1.000000   180.000000     1.000000     0.000000     0.000000     0.000000     0.000000     0.000000
   31     1.000000    90.000000     0.000000    -1.000000     0.000000     0.000000     0.000000     0.000000
   32    -1.000000    90.000000     0.000000    -1.000000     0.000000     0.000000     0.000000     0.000000
   33     1.000000   180.000000     0.707107     0.707107     0.000000     0.000000     0.000000     0.000000
   34    -1.000000   180.000000     0.707107     0.707107     0.000000     0.000000     0.000000     0.000000
   35     1.000000    90.000000     1.000000     0.000000     0.000000     0.000000     0.000000     0.000000
   36    -1.000000    90.000000     1.000000     0.000000     0.000000     0.000000     0.000000     0.000000
   37     1.000000   120.000000     0.577350    -0.577350    -0.577350     0.000000     0.000000     0.000000
   38    -1.000000   120.000000     0.577350    -0.577350    -0.577350     0.000000     0.000000     0.000000
   39     1.000000   180.000000     0.000000     1.000000     0.000000     0.000000     0.000000     0.000000
   40    -1.000000   180.000000     0.000000     1.000000     0.000000     0.000000     0.000000     0.000000
   41     1.000000   120.000000     0.577350     0.577350    -0.577350     0.000000     0.000000     0.000000
   42    -1.000000   120.000000     0.577350     0.577350    -0.577350     0.000000     0.000000     0.000000
   43     1.000000   180.000000     0.000000    -0.707107     0.707107     0.000000     0.000000     0.000000
   44    -1.000000   180.000000     0.000000    -0.707107     0.707107     0.000000     0.000000     0.000000
   45     1.000000   180.000000     0.707107    -0.707107     0.000000     0.000000     0.000000     0.000000
   46    -1.000000   180.000000     0.707107    -0.707107     0.000000     0.000000     0.000000     0.000000
   47     1.000000   180.000000     0.707107     0.000000    -0.707107     0.000000     0.000000     0.000000
   48    -1.000000   180.000000     0.707107     0.000000    -0.707107     0.000000     0.000000     0.000000
 
 Subroutine IBZKPT returns following result:
 ===========================================
 
 Found    110 irreducible k-points:
 
 Following reciprocal coordinates:
            Coordinates               Weight
  0.050000  0.050000  0.050000     96.000000
  0.150000  0.050000  0.050000    288.000000
  0.250000  0.050000  0.050000    288.000000
  0.350000  0.050000  0.050000    288.000000
  0.450000  0.050000  0.050000    288.000000
 -0.450000  0.050000  0.050000    288.000000
 -0.350000  0.050000  0.050000    288.000000
 -0.250000  0.050000  0.050000    288.000000
 -0.150000  0.050000  0.050000    288.000000
 -0.050000  0.050000  0.050000    288.000000
  0.150000  0.150000  0.050000    288.000000
  0.250000  0.150000  0.050000    576.000000
  0.350000  0.150000  0.050000    576.000000
  0.450000  0.150000  0.050000    576.000000
 -0.450000  0.150000  0.050000    576.000000
 -0.350000  0.150000  0.050000    576.000000
 -0.250000  0.150000  0.050000    576.000000
 -0.150000  0.150000  0.050000    576.000000
 -0.050000  0.150000  0.050000    576.000000
  0.250000  0.250000  0.050000    288.000000
  0.350000  0.250000  0.050000    576.000000
  0.450000  0.250000  0.050000    576.000000
 -0.450000  0.250000  0.050000    576.000000
 -0.350000  0.250000  0.050000    576.000000
 -0.250000  0.250000  0.050000    576.000000
 -0.150000  0.250000  0.050000    576.000000
 -0.050000  0.250000  0.050000    576.000000
  0.350000  0.350000  0.050000    288.000000
  0.450000  0.350000  0.050000    576.000000
 -0.450000  0.350000  0.050000    576.000000
 -0.350000  0.350000  0.050000    576.000000
 -0.250000  0.350000  0.050000    576.000000
 -0.150000  0.350000  0.050000    576.000000
 -0.050000  0.350000  0.050000    576.000000
  0.450000  0.450000  0.050000    288.000000
 -0.450000  0.450000  0.050000    576.000000
 -0.350000  0.450000  0.050000    576.000000
 -0.250000  0.450000  0.050000    576.000000
 -0.150000  0.450000  0.050000    576.000000
 -0.050000  0.450000  0.050000    576.000000
 -0.450000 -0.450000  0.050000    288.000000
 -0.350000 -0.450000  0.050000    576.000000
 -0.250000 -0.450000  0.050000    576.000000
 -0.150000 -0.450000  0.050000    576.000000
 -0.350000 -0.350000  0.050000    288.000000
 -0.250000 -0.350000  0.050000    576.000000
 -0.150000 -0.350000  0.050000    576.000000
 -0.250000 -0.250000  0.050000    288.000000
 -0.150000 -0.250000  0.050000    576.000000
 -0.150000 -0.150000  0.050000    288.000000
  0.150000  0.150000  0.150000     96.000000
  0.250000  0.150000  0.150000    288.000000
  0.350000  0.150000  0.150000    288.000000
  0.450000  0.150000  0.150000    288.000000
 -0.450000  0.150000  0.150000    288.000000
 -0.350000  0.150000  0.150000    288.000000
 -0.250000  0.150000  0.150000    288.000000
 -0.150000  0.150000  0.150000    288.000000
  0.250000  0.250000  0.150000    288.000000
  0.350000  0.250000  0.150000    576.000000
  0.450000  0.250000  0.150000    576.000000
 -0.450000  0.250000  0.150000    576.000000
 -0.350000  0.250000  0.150000    576.000000
 -0.250000  0.250000  0.150000    576.000000
 -0.150000  0.250000  0.150000    576.000000
  0.350000  0.350000  0.150000    288.000000
  0.450000  0.350000  0.150000    576.000000
 -0.450000  0.350000  0.150000    576.000000
 -0.350000  0.350000  0.150000    576.000000
 -0.250000  0.350000  0.150000    576.000000
 -0.150000  0.350000  0.150000    576.000000
  0.450000  0.450000  0.150000    288.000000
 -0.450000  0.450000  0.150000    576.000000
 -0.350000  0.450000  0.150000    576.000000
 -0.250000  0.450000  0.150000    576.000000
 -0.150000  0.450000  0.150000    576.000000
 -0.450000 -0.450000  0.150000    288.000000
 -0.350000 -0.450000  0.150000    576.000000
 -0.250000 -0.450000  0.150000    576.000000
 -0.350000 -0.350000  0.150000    288.000000
 -0.250000 -0.350000  0.150000    576.000000
 -0.250000 -0.250000  0.150000    288.000000
  0.250000  0.250000  0.250000     96.000000
  0.350000  0.250000  0.250000    288.000000
  0.450000  0.250000  0.250000    288.000000
 -0.450000  0.250000  0.250000    288.000000
 -0.350000  0.250000  0.250000    288.000000
 -0.250000  0.250000  0.250000    288.000000
  0.350000  0.350000  0.250000    288.000000
  0.450000  0.350000  0.250000    576.000000
 -0.450000  0.350000  0.250000    576.000000
 -0.350000  0.350000  0.250000    576.000000
 -0.250000  0.350000  0.250000    576.000000
  0.450000  0.450000  0.250000    288.000000
 -0.450000  0.450000  0.250000    576.000000
 -0.350000  0.450000  0.250000    576.000000
 -0.250000  0.450000  0.250000    576.000000
 -0.450000 -0.450000  0.250000    288.000000
 -0.350000 -0.450000  0.250000    576.000000
 -0.350000 -0.350000  0.250000    288.000000
  0.350000  0.350000  0.350000     96.000000
  0.450000  0.350000  0.350000    288.000000
 -0.450000  0.350000  0.350000    288.000000
 -0.350000  0.350000  0.350000    288.000000
  0.450000  0.450000  0.350000    288.000000
 -0.450000  0.450000  0.350000    576.000000
 -0.350000  0.450000  0.350000    576.000000
 -0.450000 -0.450000  0.350000    288.000000
  0.450000  0.450000  0.450000     96.000000
 -0.450000  0.450000  0.450000    288.000000
 
 Following cartesian coordinates:
            Coordinates               Weight
  0.050000  0.050000  0.050000     96.000000
 -0.050000  0.150000  0.150000    288.000000
 -0.150000  0.250000  0.250000    288.000000
 -0.250000  0.350000  0.350000    288.000000
 -0.350000  0.450000  0.450000    288.000000
  0.550000 -0.450000 -0.450000    288.000000
  0.450000 -0.350000 -0.350000    288.000000
  0.350000 -0.250000 -0.250000    288.000000
  0.250000 -0.150000 -0.150000    288.000000
  0.150000 -0.050000 -0.050000    288.000000
  0.050000  0.050000  0.250000    288.000000
 -0.050000  0.150000  0.350000    576.000000
 -0.150000  0.250000  0.450000    576.000000
 -0.250000  0.350000  0.550000    576.000000
  0.650000 -0.550000 -0.350000    576.000000
  0.550000 -0.450000 -0.250000    576.000000
  0.450000 -0.350000 -0.150000    576.000000
  0.350000 -0.250000 -0.050000    576.000000
  0.250000 -0.150000  0.050000    576.000000
  0.050000  0.050000  0.450000    288.000000
 -0.050000  0.150000  0.550000    576.000000
 -0.150000  0.250000  0.650000    576.000000
  0.750000 -0.650000 -0.250000    576.000000
  0.650000 -0.550000 -0.150000    576.000000
  0.550000 -0.450000 -0.050000    576.000000
  0.450000 -0.350000  0.050000    576.000000
  0.350000 -0.250000  0.150000    576.000000
  0.050000  0.050000  0.650000    288.000000
 -0.050000  0.150000  0.750000    576.000000
  0.850000 -0.750000 -0.150000    576.000000
  0.750000 -0.650000 -0.050000    576.000000
  0.650000 -0.550000  0.050000    576.000000
  0.550000 -0.450000  0.150000    576.000000
  0.450000 -0.350000  0.250000    576.000000
  0.050000  0.050000  0.850000    288.000000
  0.950000 -0.850000 -0.050000    576.000000
  0.850000 -0.750000  0.050000    576.000000
  0.750000 -0.650000  0.150000    576.000000
  0.650000 -0.550000  0.250000    576.000000
  0.550000 -0.450000  0.350000    576.000000
  0.050000  0.050000 -0.950000    288.000000
 -0.050000  0.150000 -0.850000    576.000000
 -0.150000  0.250000 -0.750000    576.000000
 -0.250000  0.350000 -0.650000    576.000000
  0.050000  0.050000 -0.750000    288.000000
 -0.050000  0.150000 -0.650000    576.000000
 -0.150000  0.250000 -0.550000    576.000000
  0.050000  0.050000 -0.550000    288.000000
 -0.050000  0.150000 -0.450000    576.000000
  0.050000  0.050000 -0.350000    288.000000
  0.150000  0.150000  0.150000     96.000000
  0.050000  0.250000  0.250000    288.000000
 -0.050000  0.350000  0.350000    288.000000
 -0.150000  0.450000  0.450000    288.000000
  0.750000 -0.450000 -0.450000    288.000000
  0.650000 -0.350000 -0.350000    288.000000
  0.550000 -0.250000 -0.250000    288.000000
  0.450000 -0.150000 -0.150000    288.000000
  0.150000  0.150000  0.350000    288.000000
  0.050000  0.250000  0.450000    576.000000
 -0.050000  0.350000  0.550000    576.000000
  0.850000 -0.550000 -0.350000    576.000000
  0.750000 -0.450000 -0.250000    576.000000
  0.650000 -0.350000 -0.150000    576.000000
  0.550000 -0.250000 -0.050000    576.000000
  0.150000  0.150000  0.550000    288.000000
  0.050000  0.250000  0.650000    576.000000
  0.950000 -0.650000 -0.250000    576.000000
  0.850000 -0.550000 -0.150000    576.000000
  0.750000 -0.450000 -0.050000    576.000000
  0.650000 -0.350000  0.050000    576.000000
  0.150000  0.150000  0.750000    288.000000
  1.050000 -0.750000 -0.150000    576.000000
  0.950000 -0.650000 -0.050000    576.000000
  0.850000 -0.550000  0.050000    576.000000
  0.750000 -0.450000  0.150000    576.000000
  0.150000  0.150000 -1.050000    288.000000
  0.050000  0.250000 -0.950000    576.000000
 -0.050000  0.350000 -0.850000    576.000000
  0.150000  0.150000 -0.850000    288.000000
  0.050000  0.250000 -0.750000    576.000000
  0.150000  0.150000 -0.650000    288.000000
  0.250000  0.250000  0.250000     96.000000
  0.150000  0.350000  0.350000    288.000000
  0.050000  0.450000  0.450000    288.000000
  0.950000 -0.450000 -0.450000    288.000000
  0.850000 -0.350000 -0.350000    288.000000
  0.750000 -0.250000 -0.250000    288.000000
  0.250000  0.250000  0.450000    288.000000
  0.150000  0.350000  0.550000    576.000000
  1.050000 -0.550000 -0.350000    576.000000
  0.950000 -0.450000 -0.250000    576.000000
  0.850000 -0.350000 -0.150000    576.000000
  0.250000  0.250000  0.650000    288.000000
  1.150000 -0.650000 -0.250000    576.000000
  1.050000 -0.550000 -0.150000    576.000000
  0.950000 -0.450000 -0.050000    576.000000
  0.250000  0.250000 -1.150000    288.000000
  0.150000  0.350000 -1.050000    576.000000
  0.250000  0.250000 -0.950000    288.000000
  0.350000  0.350000  0.350000     96.000000
  0.250000  0.450000  0.450000    288.000000
  1.150000 -0.450000 -0.450000    288.000000
  1.050000 -0.350000 -0.350000    288.000000
  0.350000  0.350000  0.550000    288.000000
  1.250000 -0.550000 -0.350000    576.000000
  1.150000 -0.450000 -0.250000    576.000000
  0.350000  0.350000 -1.250000    288.000000
  0.450000  0.450000  0.450000     96.000000
  1.350000 -0.450000 -0.450000    288.000000
 


--------------------------------------------------------------------------------------------------------




 Dimension of arrays:
   k-points           NKPTS =    110   k-points in BZ     NKDIM =    110   number of bands    NBANDS=     12
   number of dos      NEDOS =    301   number of ions     NIONS =      1
   non local maximal  LDIM  =      6   non local SUM 2l+1 LMDIM =     18
   total plane-waves  NPLWV =   1000
   max r-space proj   IRMAX =      1   max aug-charges    IRDMAX=   3648
   dimension x,y,z NGX =    10 NGY =   10 NGZ =   10
   dimension x,y,z NGXF=    20 NGYF=   20 NGZF=   20
   support grid    NGXF=    20 NGYF=   20 NGZF=   20
   ions per type =               1
   NGX,Y,Z   is equivalent  to a cutoff of   7.02,  7.02,  7.02 a.u.
   NGXF,Y,Z  is equivalent  to a cutoff of  14.04, 14.04, 14.04 a.u.

 SYSTEM =  fcc Ni                                  
 POSCAR =  FCC Ni Bulk                             

 Startparameter for this run:
   NWRITE =      2    write-flag & timer
   PREC   = normal    normal or accurate (medium, high low for compatibility)
   ISTART =      0    job   : 0-new  1-cont  2-samecut
   ICHARG =      2    charge: 1-file 2-atom 10-const
   ISPIN  =      2    spin polarized calculation?
   LNONCOLLINEAR =      F non collinear calculations
   LSORBIT =      F    spin-orbit coupling
   INIWAV =      1    electr: 0-lowe 1-rand  2-diag
   LASPH  =      F    aspherical Exc in radial PAW
   METAGGA=      F    non-selfconsistent MetaGGA calc.

 Electronic Relaxation 1
   ENCUT  =  270.0 eV  19.84 Ry    4.45 a.u.   3.17  3.17  3.17*2*pi/ulx,y,z
   ENINI  =  270.0     initial cutoff
   ENAUG  =  544.6 eV  augmentation charge cutoff
   NELM   =     60;   NELMIN=  2; NELMDL= -5     # of ELM steps 
   EDIFF  = 0.1E-03   stopping-criterion for ELM
   LREAL  =      F    real-space projection
   NLSPLINE    = F    spline interpolate recip. space projectors
   LCOMPAT=      F    compatible to vasp.4.4
   GGA_COMPAT  = T    GGA compatible to vasp.4.4-vasp.4.6
   LMAXPAW     = -100 max onsite density
   LMAXMIX     =    2 max onsite mixed and CHGCAR
   VOSKOWN=      0    Vosko Wilk Nusair interpolation
   ROPT   =    0.00000
 Ionic relaxation
   EDIFFG = 0.1E-02   stopping-criterion for IOM
   NSW    =      0    number of steps for IOM
   NBLOCK =      1;   KBLOCK =      1    inner block; outer block 
   IBRION =     -1    ionic relax: 0-MD 1-quasi-New 2-CG
   NFREE  =      0    steps in history (QN), initial steepest desc. (CG)
   ISIF   =      2    stress and relaxation
   IWAVPR =     10    prediction:  0-non 1-charg 2-wave 3-comb
   ISYM   =      2    0-nonsym 1-usesym 2-fastsym
   LCORR  =      T    Harris-Foulkes like correction to forces

   POTIM  = 0.5000    time-step for ionic-motion
   TEIN   =    0.0    initial temperature
   TEBEG  =    0.0;   TEEND  =   0.0 temperature during run
   SMASS  =  -3.00    Nose mass-parameter (am)
   estimated Nose-frequenzy (Omega)   =  0.10E-29 period in steps =****** mass=  -0.128E-27a.u.
   SCALEE = 1.0000    scale energy and forces
   NPACO  =    256;   APACO  = 16.0  distance and # of slots for P.C.
   PSTRESS=    0.0 pullay stress

  Mass of Ions in am
   POMASS =  58.69
  Ionic Valenz
   ZVAL   =  10.00
  Atomic Wigner-Seitz radii
   RWIGS  =  -1.00
  virtual crystal weights 
   VCA    =   1.00
   NELECT =      10.0000    total number of electrons
   NUPDOWN=      -1.0000    fix difference up-down

 DOS related values:
   EMIN   =  10.00;   EMAX   =-10.00  energy-range for DOS
   EFERMI =   0.00
   ISMEAR =     1;   SIGMA  =   0.20  broadening in eV -4-tet -1-fermi 0-gaus

 Electronic relaxation 2 (details)
   IALGO  =     38    algorithm
   LDIAG  =      T    sub-space diagonalisation (order eigenvalues)
   LSUBROT=      F    optimize rotation matrix (better conditioning)
   TURBO    =      0    0=normal 1=particle mesh
   IRESTART =      0    0=no restart 2=restart with 2 vectors
   NREBOOT  =      0    no. of reboots
   NMIN     =      0    reboot dimension
   EREF     =   0.00    reference energy to select bands
   IMIX   =      4    mixing-type and parameters
     AMIX     =   0.40;   BMIX     =  1.00
     AMIX_MAG =   1.60;   BMIX_MAG =  1.00
     AMIN     =   0.10
     WC   =   100.;   INIMIX=   1;  MIXPRE=   1;  MAXMIX= -45

 Intra band minimization:
   WEIMIN = 0.0000     energy-eigenvalue tresh-hold
   EBREAK =  0.21E-05  absolut break condition
   DEPER  =   0.30     relativ break condition  

   TIME   =   0.40     timestep for ELM

  volume/ion in A,a.u.               =       9.40        63.43
  Fermi-wavevector in a.u.,A,eV,Ry     =   1.671283  3.158267 38.003619  2.793187
  Thomas-Fermi vector in A             =   2.756633
 
 Write flags
   LWAVE        =      T    write WAVECAR
   LDOWNSAMPLE  =      F    k-point downsampling of WAVECAR
   LCHARG       =      T    write CHGCAR
   LVTOT        =      F    write LOCPOT, total local potential
   LVHAR        =      F    write LOCPOT, Hartree potential only
   LELF         =      F    write electronic localiz. function (ELF)
   LORBIT       =      0    0 simple, 1 ext, 2 COOP (PROOUT), +10 PAW based schemes


 Dipole corrections
   LMONO  =      F    monopole corrections only (constant potential shift)
   LDIPOL =      F    correct potential (dipole corrections)
   IDIPOL =      0    1-x, 2-y, 3-z, 4-all directions 
   EPSILON=  1.0000000 bulk dielectric constant

 Exchange correlation treatment:
   GGA     =    --    GGA type
   LEXCH   =     8    internal setting for exchange type
   VOSKOWN=      0    Vosko Wilk Nusair interpolation
   LHFCALC =     F    Hartree Fock is set to
   LHFONE  =     F    Hartree Fock one center treatment
   AEXX    =    0.0000 exact exchange contribution

 Linear response parameters
   LEPSILON=     F    determine dielectric tensor
   LRPA    =     F    only Hartree local field effects (RPA)
   LNABLA  =     F    use nabla operator in PAW spheres
   LVEL    =     F    velocity operator in full k-point grid
   LINTERFAST=   F  fast interpolation
   KINTER  =     0    interpolate to denser k-point grid
   CSHIFT  =0.1000    complex shift for real part using Kramers Kronig
   OMEGAMAX=  -1.0    maximum frequency
   DEG_THRESHOLD= 0.2000000E-02 threshold for treating states as degnerate
   RTIME   =   -0.100 relaxation time in fs
  (WPLASMAI=    0.000 imaginary part of plasma frequency in eV, 0.658/RTIME)
   DFIELD  = 0.0000000 0.0000000 0.0000000 field for delta impulse in time
 
 Orbital magnetization related:
   ORBITALMAG=     F  switch on orbital magnetization
   LCHIMAG   =     F  perturbation theory with respect to B field
   DQ        =  0.001000  dq finite difference perturbation B field
   LLRAUG    =     F  two centre corrections for induced B field



--------------------------------------------------------------------------------------------------------


 Static calculation
 charge density and potential will be updated during run
 spin polarized calculation
 Variant of blocked Davidson
 Davidson routine will perform the subspace rotation
 perform sub-space diagonalisation
    after iterative eigenvector-optimisation
 modified Broyden-mixing scheme, WC =      100.0
 initial mixing is a Kerker type mixing with AMIX =  0.4000 and BMIX =      1.0000
 Hartree-type preconditioning will be used
 using additional bands            7
 reciprocal scheme for non local part
 use partial core corrections
 calculate Harris-corrections to forces 
   (improved forces if not selfconsistent)
 use gradient corrections 
 use of overlap-Matrix (Vanderbilt PP)
 Methfessel and Paxton  Order N= 1 SIGMA  =   0.20


--------------------------------------------------------------------------------------------------------


  energy-cutoff  :      270.00
  volume of cell :        9.40
      direct lattice vectors                 reciprocal lattice vectors
     0.000000000  1.675000000  1.675000000    -0.298507463  0.298507463  0.298507463
     1.675000000  0.000000000  1.675000000     0.298507463 -0.298507463  0.298507463
     1.675000000  1.675000000  0.000000000     0.298507463  0.298507463 -0.298507463

  length of vectors
     2.368807717  2.368807717  2.368807717     0.517030092  0.517030092  0.517030092


 
 k-points in units of 2pi/SCALE and weight: 10x10x10                                
   0.05000000  0.05000000  0.05000000       0.002
  -0.05000000  0.15000000  0.15000000       0.006
  -0.15000000  0.25000000  0.25000000       0.006
  -0.25000000  0.35000000  0.35000000       0.006
  -0.35000000  0.45000000  0.45000000       0.006
   0.55000000 -0.45000000 -0.45000000       0.006
   0.45000000 -0.35000000 -0.35000000       0.006
   0.35000000 -0.25000000 -0.25000000       0.006
   0.25000000 -0.15000000 -0.15000000       0.006
   0.15000000 -0.05000000 -0.05000000       0.006
   0.05000000  0.05000000  0.25000000       0.006
  -0.05000000  0.15000000  0.35000000       0.012
  -0.15000000  0.25000000  0.45000000       0.012
  -0.25000000  0.35000000  0.55000000       0.012
   0.65000000 -0.55000000 -0.35000000       0.012
   0.55000000 -0.45000000 -0.25000000       0.012
   0.45000000 -0.35000000 -0.15000000       0.012
   0.35000000 -0.25000000 -0.05000000       0.012
   0.25000000 -0.15000000  0.05000000       0.012
   0.05000000  0.05000000  0.45000000       0.006
  -0.05000000  0.15000000  0.55000000       0.012
  -0.15000000  0.25000000  0.65000000       0.012
   0.75000000 -0.65000000 -0.25000000       0.012
   0.65000000 -0.55000000 -0.15000000       0.012
   0.55000000 -0.45000000 -0.05000000       0.012
   0.45000000 -0.35000000  0.05000000       0.012
   0.35000000 -0.25000000  0.15000000       0.012
   0.05000000  0.05000000  0.65000000       0.006
  -0.05000000  0.15000000  0.75000000       0.012
   0.85000000 -0.75000000 -0.15000000       0.012
   0.75000000 -0.65000000 -0.05000000       0.012
   0.65000000 -0.55000000  0.05000000       0.012
   0.55000000 -0.45000000  0.15000000       0.012
   0.45000000 -0.35000000  0.25000000       0.012
   0.05000000  0.05000000  0.85000000       0.006
   0.95000000 -0.85000000 -0.05000000       0.012
   0.85000000 -0.75000000  0.05000000       0.012
   0.75000000 -0.65000000  0.15000000       0.012
   0.65000000 -0.55000000  0.25000000       0.012
   0.55000000 -0.45000000  0.35000000       0.012
   0.05000000  0.05000000 -0.95000000       0.006
  -0.05000000  0.15000000 -0.85000000       0.012
  -0.15000000  0.25000000 -0.75000000       0.012
  -0.25000000  0.35000000 -0.65000000       0.012
   0.05000000  0.05000000 -0.75000000       0.006
  -0.05000000  0.15000000 -0.65000000       0.012
  -0.15000000  0.25000000 -0.55000000       0.012
   0.05000000  0.05000000 -0.55000000       0.006
  -0.05000000  0.15000000 -0.45000000       0.012
   0.05000000  0.05000000 -0.35000000       0.006
   0.15000000  0.15000000  0.15000000       0.002
   0.05000000  0.25000000  0.25000000       0.006
  -0.05000000  0.35000000  0.35000000       0.006
  -0.15000000  0.45000000  0.45000000       0.006
   0.75000000 -0.45000000 -0.45000000       0.006
   0.65000000 -0.35000000 -0.35000000       0.006
   0.55000000 -0.25000000 -0.25000000       0.006
   0.45000000 -0.15000000 -0.15000000       0.006
   0.15000000  0.15000000  0.35000000       0.006
   0.05000000  0.25000000  0.45000000       0.012
  -0.05000000  0.35000000  0.55000000       0.012
   0.85000000 -0.55000000 -0.35000000       0.012
   0.75000000 -0.45000000 -0.25000000       0.012
   0.65000000 -0.35000000 -0.15000000       0.012
   0.55000000 -0.25000000 -0.05000000       0.012
   0.15000000  0.15000000  0.55000000       0.006
   0.05000000  0.25000000  0.65000000       0.012
   0.95000000 -0.65000000 -0.25000000       0.012
   0.85000000 -0.55000000 -0.15000000       0.012
   0.75000000 -0.45000000 -0.05000000       0.012
   0.65000000 -0.35000000  0.05000000       0.012
   0.15000000  0.15000000  0.75000000       0.006
   1.05000000 -0.75000000 -0.15000000       0.012
   0.95000000 -0.65000000 -0.05000000       0.012
   0.85000000 -0.55000000  0.05000000       0.012
   0.75000000 -0.45000000  0.15000000       0.012
   0.15000000  0.15000000 -1.05000000       0.006
   0.05000000  0.25000000 -0.95000000       0.012
  -0.05000000  0.35000000 -0.85000000       0.012
   0.15000000  0.15000000 -0.85000000       0.006
   0.05000000  0.25000000 -0.75000000       0.012
   0.15000000  0.15000000 -0.65000000       0.006
   0.25000000  0.25000000  0.25000000       0.002
   0.15000000  0.35000000  0.35000000       0.006
   0.05000000  0.45000000  0.45000000       0.006
   0.95000000 -0.45000000 -0.45000000       0.006
   0.85000000 -0.35000000 -0.35000000       0.006
   0.75000000 -0.25000000 -0.25000000       0.006
   0.25000000  0.25000000  0.45000000       0.006
   0.15000000  0.35000000  0.55000000       0.012
   1.05000000 -0.55000000 -0.35000000       0.012
   0.95000000 -0.45000000 -0.25000000       0.012
   0.85000000 -0.35000000 -0.15000000       0.012
   0.25000000  0.25000000  0.65000000       0.006
   1.15000000 -0.65000000 -0.25000000       0.012
   1.05000000 -0.55000000 -0.15000000       0.012
   0.95000000 -0.45000000 -0.05000000       0.012
   0.25000000  0.25000000 -1.15000000       0.006
   0.15000000  0.35000000 -1.05000000       0.012
   0.25000000  0.25000000 -0.95000000       0.006
   0.35000000  0.35000000  0.35000000       0.002
   0.25000000  0.45000000  0.45000000       0.006
   1.15000000 -0.45000000 -0.45000000       0.006
   1.05000000 -0.35000000 -0.35000000       0.006
   0.35000000  0.35000000  0.55000000       0.006
   1.25000000 -0.55000000 -0.35000000       0.012
   1.15000000 -0.45000000 -0.25000000       0.012
   0.35000000  0.35000000 -1.25000000       0.006
   0.45000000  0.45000000  0.45000000       0.002
   1.35000000 -0.45000000 -0.45000000       0.006
 
 k-points in reciprocal lattice and weights: 10x10x10                                
   0.05000000  0.05000000  0.05000000       0.002
   0.15000000  0.05000000  0.05000000       0.006
   0.25000000  0.05000000  0.05000000       0.006
   0.35000000  0.05000000  0.05000000       0.006
   0.45000000  0.05000000  0.05000000       0.006
  -0.45000000  0.05000000  0.05000000       0.006
  -0.35000000  0.05000000  0.05000000       0.006
  -0.25000000  0.05000000  0.05000000       0.006
  -0.15000000  0.05000000  0.05000000       0.006
  -0.05000000  0.05000000  0.05000000       0.006
   0.15000000  0.15000000  0.05000000       0.006
   0.25000000  0.15000000  0.05000000       0.012
   0.35000000  0.15000000  0.05000000       0.012
   0.45000000  0.15000000  0.05000000       0.012
  -0.45000000  0.15000000  0.05000000       0.012
  -0.35000000  0.15000000  0.05000000       0.012
  -0.25000000  0.15000000  0.05000000       0.012
  -0.15000000  0.15000000  0.05000000       0.012
  -0.05000000  0.15000000  0.05000000       0.012
   0.25000000  0.25000000  0.05000000       0.006
   0.35000000  0.25000000  0.05000000       0.012
   0.45000000  0.25000000  0.05000000       0.012
  -0.45000000  0.25000000  0.05000000       0.012
  -0.35000000  0.25000000  0.05000000       0.012
  -0.25000000  0.25000000  0.05000000       0.012
  -0.15000000  0.25000000  0.05000000       0.012
  -0.05000000  0.25000000  0.05000000       0.012
   0.35000000  0.35000000  0.05000000       0.006
   0.45000000  0.35000000  0.05000000       0.012
  -0.45000000  0.35000000  0.05000000       0.012
  -0.35000000  0.35000000  0.05000000       0.012
  -0.25000000  0.35000000  0.05000000       0.012
  -0.15000000  0.35000000  0.05000000       0.012
  -0.05000000  0.35000000  0.05000000       0.012
   0.45000000  0.45000000  0.05000000       0.006
  -0.45000000  0.45000000  0.05000000       0.012
  -0.35000000  0.45000000  0.05000000       0.012
  -0.25000000  0.45000000  0.05000000       0.012
  -0.15000000  0.45000000  0.05000000       0.012
  -0.05000000  0.45000000  0.05000000       0.012
  -0.45000000 -0.45000000  0.05000000       0.006
  -0.35000000 -0.45000000  0.05000000       0.012
  -0.25000000 -0.45000000  0.05000000       0.012
  -0.15000000 -0.45000000  0.05000000       0.012
  -0.35000000 -0.35000000  0.05000000       0.006
  -0.25000000 -0.35000000  0.05000000       0.012
  -0.15000000 -0.35000000  0.05000000       0.012
  -0.25000000 -0.25000000  0.05000000       0.006
  -0.15000000 -0.25000000  0.05000000       0.012
  -0.15000000 -0.15000000  0.05000000       0.006
   0.15000000  0.15000000  0.15000000       0.002
   0.25000000  0.15000000  0.15000000       0.006
   0.35000000  0.15000000  0.15000000       0.006
   0.45000000  0.15000000  0.15000000       0.006
  -0.45000000  0.15000000  0.15000000       0.006
  -0.35000000  0.15000000  0.15000000       0.006
  -0.25000000  0.15000000  0.15000000       0.006
  -0.15000000  0.15000000  0.15000000       0.006
   0.25000000  0.25000000  0.15000000       0.006
   0.35000000  0.25000000  0.15000000       0.012
   0.45000000  0.25000000  0.15000000       0.012
  -0.45000000  0.25000000  0.15000000       0.012
  -0.35000000  0.25000000  0.15000000       0.012
  -0.25000000  0.25000000  0.15000000       0.012
  -0.15000000  0.25000000  0.15000000       0.012
   0.35000000  0.35000000  0.15000000       0.006
   0.45000000  0.35000000  0.15000000       0.012
  -0.45000000  0.35000000  0.15000000       0.012
  -0.35000000  0.35000000  0.15000000       0.012
  -0.25000000  0.35000000  0.15000000       0.012
  -0.15000000  0.35000000  0.15000000       0.012
   0.45000000  0.45000000  0.15000000       0.006
  -0.45000000  0.45000000  0.15000000       0.012
  -0.35000000  0.45000000  0.15000000       0.012
  -0.25000000  0.45000000  0.15000000       0.012
  -0.15000000  0.45000000  0.15000000       0.012
  -0.45000000 -0.45000000  0.15000000       0.006
  -0.35000000 -0.45000000  0.15000000       0.012
  -0.25000000 -0.45000000  0.15000000       0.012
  -0.35000000 -0.35000000  0.15000000       0.006
  -0.25000000 -0.35000000  0.15000000       0.012
  -0.25000000 -0.25000000  0.15000000       0.006
   0.25000000  0.25000000  0.25000000       0.002
   0.35000000  0.25000000  0.25000000       0.006
   0.45000000  0.25000000  0.25000000       0.006
  -0.45000000  0.25000000  0.25000000       0.006
  -0.35000000  0.25000000  0.25000000       0.006
  -0.25000000  0.25000000  0.25000000       0.006
   0.35000000  0.35000000  0.25000000       0.006
   0.45000000  0.35000000  0.25000000       0.012
  -0.45000000  0.35000000  0.25000000       0.012
  -0.35000000  0.35000000  0.25000000       0.012
  -0.25000000  0.35000000  0.25000000       0.012
   0.45000000  0.45000000  0.25000000       0.006
  -0.45000000  0.45000000  0.25000000       0.012
  -0.35000000  0.45000000  0.25000000       0.012
  -0.25000000  0.45000000  0.25000000       0.012
  -0.45000000 -0.45000000  0.25000000       0.006
  -0.35000000 -0.45000000  0.25000000       0.012
  -0.35000000 -0.35000000  0.25000000       0.006
   0.35000000  0.35000000  0.35000000       0.002
   0.45000000  0.35000000  0.35000000       0.006
  -0.45000000  0.35000000  0.35000000       0.006
  -0.35000000  0.35000000  0.35000000       0.006
   0.45000000  0.45000000  0.35000000       0.006
  -0.45000000  0.45000000  0.35000000       0.012
  -0.35000000  0.45000000  0.35000000       0.012
  -0.45000000 -0.45000000  0.35000000       0.006
   0.45000000  0.45000000  0.45000000       0.002
  -0.45000000  0.45000000  0.45000000       0.006
 
 position of ions in fractional coordinates (direct lattice) 
   0.00000000  0.00000000  0.00000000
 
 position of ions in cartesian coordinates  (Angst):
   0.00000000  0.00000000  0.00000000
 


--------------------------------------------------------------------------------------------------------


 k-point  1 :   0.0500 0.0500 0.0500  plane waves:     101
 k-point  2 :   0.1500 0.0500 0.0500  plane waves:      97
 k-point  3 :   0.2500 0.0500 0.0500  plane waves:      93
 k-point  4 :   0.3500 0.0500 0.0500  plane waves:      96
 k-point  5 :   0.4500 0.0500 0.0500  plane waves:      95
 k-point  6 :  -0.4500 0.0500 0.0500  plane waves:      92
 k-point  7 :  -0.3500 0.0500 0.0500  plane waves:      94
 k-point  8 :  -0.2500 0.0500 0.0500  plane waves:      96
 k-point  9 :  -0.1500 0.0500 0.0500  plane waves:      95
 k-point 10 :  -0.0500 0.0500 0.0500  plane waves:      99
 k-point 11 :   0.1500 0.1500 0.0500  plane waves:      92
 k-point 12 :   0.2500 0.1500 0.0500  plane waves:      91
 k-point 13 :   0.3500 0.1500 0.0500  plane waves:      92
 k-point 14 :   0.4500 0.1500 0.0500  plane waves:      92
 k-point 15 :  -0.4500 0.1500 0.0500  plane waves:      94
 k-point 16 :  -0.3500 0.1500 0.0500  plane waves:      93
 k-point 17 :  -0.2500 0.1500 0.0500  plane waves:      94
 k-point 18 :  -0.1500 0.1500 0.0500  plane waves:      92
 k-point 19 :  -0.0500 0.1500 0.0500  plane waves:      94
 k-point 20 :   0.2500 0.2500 0.0500  plane waves:      92
 k-point 21 :   0.3500 0.2500 0.0500  plane waves:      92
 k-point 22 :   0.4500 0.2500 0.0500  plane waves:      92
 k-point 23 :  -0.4500 0.2500 0.0500  plane waves:      95
 k-point 24 :  -0.3500 0.2500 0.0500  plane waves:      95
 k-point 25 :  -0.2500 0.2500 0.0500  plane waves:      94
 k-point 26 :  -0.1500 0.2500 0.0500  plane waves:      95
 k-point 27 :  -0.0500 0.2500 0.0500  plane waves:      94
 k-point 28 :   0.3500 0.3500 0.0500  plane waves:      91
 k-point 29 :   0.4500 0.3500 0.0500  plane waves:      94
 k-point 30 :  -0.4500 0.3500 0.0500  plane waves:      98
 k-point 31 :  -0.3500 0.3500 0.0500  plane waves:      99
 k-point 32 :  -0.2500 0.3500 0.0500  plane waves:      93
 k-point 33 :  -0.1500 0.3500 0.0500  plane waves:      94
 k-point 34 :  -0.0500 0.3500 0.0500  plane waves:      94
 k-point 35 :   0.4500 0.4500 0.0500  plane waves:      94
 k-point 36 :  -0.4500 0.4500 0.0500  plane waves:      98
 k-point 37 :  -0.3500 0.4500 0.0500  plane waves:      99
 k-point 38 :  -0.2500 0.4500 0.0500  plane waves:      96
 k-point 39 :  -0.1500 0.4500 0.0500  plane waves:      93
 k-point 40 :  -0.0500 0.4500 0.0500  plane waves:      95
 k-point 41 :  -0.4500-0.4500 0.0500  plane waves:      92
 k-point 42 :  -0.3500-0.4500 0.0500  plane waves:      96
 k-point 43 :  -0.2500-0.4500 0.0500  plane waves:      94
 k-point 44 :  -0.1500-0.4500 0.0500  plane waves:      94
 k-point 45 :  -0.3500-0.3500 0.0500  plane waves:      93
 k-point 46 :  -0.2500-0.3500 0.0500  plane waves:      92
 k-point 47 :  -0.1500-0.3500 0.0500  plane waves:      91
 k-point 48 :  -0.2500-0.2500 0.0500  plane waves:      92
 k-point 49 :  -0.1500-0.2500 0.0500  plane waves:      92
 k-point 50 :  -0.1500-0.1500 0.0500  plane waves:      92
 k-point 51 :   0.1500 0.1500 0.1500  plane waves:      95
 k-point 52 :   0.2500 0.1500 0.1500  plane waves:      93
 k-point 53 :   0.3500 0.1500 0.1500  plane waves:      93
 k-point 54 :   0.4500 0.1500 0.1500  plane waves:      96
 k-point 55 :  -0.4500 0.1500 0.1500  plane waves:      91
 k-point 56 :  -0.3500 0.1500 0.1500  plane waves:      93
 k-point 57 :  -0.2500 0.1500 0.1500  plane waves:      91
 k-point 58 :  -0.1500 0.1500 0.1500  plane waves:      90
 k-point 59 :   0.2500 0.2500 0.1500  plane waves:      93
 k-point 60 :   0.3500 0.2500 0.1500  plane waves:      92
 k-point 61 :   0.4500 0.2500 0.1500  plane waves:      93
 k-point 62 :  -0.4500 0.2500 0.1500  plane waves:      93
 k-point 63 :  -0.3500 0.2500 0.1500  plane waves:      95
 k-point 64 :  -0.2500 0.2500 0.1500  plane waves:      93
 k-point 65 :  -0.1500 0.2500 0.1500  plane waves:      92
 k-point 66 :   0.3500 0.3500 0.1500  plane waves:      92
 k-point 67 :   0.4500 0.3500 0.1500  plane waves:      95
 k-point 68 :  -0.4500 0.3500 0.1500  plane waves:      96
 k-point 69 :  -0.3500 0.3500 0.1500  plane waves:      96
 k-point 70 :  -0.2500 0.3500 0.1500  plane waves:      93
 k-point 71 :  -0.1500 0.3500 0.1500  plane waves:      92
 k-point 72 :   0.4500 0.4500 0.1500  plane waves:      98
 k-point 73 :  -0.4500 0.4500 0.1500  plane waves:      99
 k-point 74 :  -0.3500 0.4500 0.1500  plane waves:     101
 k-point 75 :  -0.2500 0.4500 0.1500  plane waves:      97
 k-point 76 :  -0.1500 0.4500 0.1500  plane waves:      95
 k-point 77 :  -0.4500-0.4500 0.1500  plane waves:      97
 k-point 78 :  -0.3500-0.4500 0.1500  plane waves:      99
 k-point 79 :  -0.2500-0.4500 0.1500  plane waves:      98
 k-point 80 :  -0.3500-0.3500 0.1500  plane waves:      97
 k-point 81 :  -0.2500-0.3500 0.1500  plane waves:      98
 k-point 82 :  -0.2500-0.2500 0.1500  plane waves:      94
 k-point 83 :   0.2500 0.2500 0.2500  plane waves:      95
 k-point 84 :   0.3500 0.2500 0.2500  plane waves:      95
 k-point 85 :   0.4500 0.2500 0.2500  plane waves:      95
 k-point 86 :  -0.4500 0.2500 0.2500  plane waves:      94
 k-point 87 :  -0.3500 0.2500 0.2500  plane waves:      95
 k-point 88 :  -0.2500 0.2500 0.2500  plane waves:      94
 k-point 89 :   0.3500 0.3500 0.2500  plane waves:      94
 k-point 90 :   0.4500 0.3500 0.2500  plane waves:      93
 k-point 91 :  -0.4500 0.3500 0.2500  plane waves:      93
 k-point 92 :  -0.3500 0.3500 0.2500  plane waves:      96
 k-point 93 :  -0.2500 0.3500 0.2500  plane waves:      97
 k-point 94 :   0.4500 0.4500 0.2500  plane waves:      94
 k-point 95 :  -0.4500 0.4500 0.2500  plane waves:      95
 k-point 96 :  -0.3500 0.4500 0.2500  plane waves:      97
 k-point 97 :  -0.2500 0.4500 0.2500  plane waves:     100
 k-point 98 :  -0.4500-0.4500 0.2500  plane waves:      98
 k-point 99 :  -0.3500-0.4500 0.2500  plane waves:      99
 k-point ** :  -0.3500-0.3500 0.2500  plane waves:      99
 k-point ** :   0.3500 0.3500 0.3500  plane waves:      98
 k-point ** :   0.4500 0.3500 0.3500  plane waves:      96
 k-point ** :  -0.4500 0.3500 0.3500  plane waves:      95
 k-point ** :  -0.3500 0.3500 0.3500  plane waves:      98
 k-point ** :   0.4500 0.4500 0.3500  plane waves:      94
 k-point ** :  -0.4500 0.4500 0.3500  plane waves:      94
 k-point ** :  -0.3500 0.4500 0.3500  plane waves:      95
 k-point ** :  -0.4500-0.4500 0.3500  plane waves:      93
 k-point ** :   0.4500 0.4500 0.4500  plane waves:      90
 k-point ** :  -0.4500 0.4500 0.4500  plane waves:      95

 maximum and minimum number of plane-waves per node :       101       90

 maximum number of plane-waves:       101
 maximum index in each direction: 
   IXMAX=    3   IYMAX=    3   IZMAX=    3
   IXMIN=   -3   IYMIN=   -3   IZMIN=   -3


 serial   3D FFT for wavefunctions
 parallel 3D FFT for charge:
    minimum data exchange during FFTs selected (reduces bandwidth)


 total amount of memory used by VASP MPI-rank0    33451. kBytes
=======================================================================

   base      :      30000. kBytes
   nonl-proj :       1649. kBytes
   fftplans  :        142. kBytes
   grid      :        320. kBytes
   one-center:         31. kBytes
   wavefun   :       1309. kBytes
 
     INWAV:  cpu time    0.0001: real time    0.0003
 Broyden mixing: mesh for mixing (old mesh)
   NGX =  7   NGY =  7   NGZ =  7
  (NGX  = 20   NGY  = 20   NGZ  = 20)
  gives a total of    343 points

 initial charge density was supplied:
 charge density of overlapping atoms calculated
 number of electron      10.0000000 magnetization       3.0000000
 keeping initial charge density in first step


--------------------------------------------------------------------------------------------------------


 Maximum index for augmentation-charges          871 (set IRDMAX)


--------------------------------------------------------------------------------------------------------


 First call to EWALD:  gamma=   0.840
 Maximum number of real-space cells 3x 3x 3
 Maximum number of reciprocal cells 3x 3x 3

    FEWALD:  cpu time    0.0010: real time    0.0011


--------------------------------------- Iteration      1(   1)  ---------------------------------------


    POTLOK:  cpu time    0.0028: real time    0.0044
    SETDIJ:  cpu time    0.0038: real time    0.0038
     EDDAV:  cpu time    0.3216: real time    0.3289
       DOS:  cpu time    0.0018: real time    0.0018
    --------------------------------------------
      LOOP:  cpu time    0.3301: real time    0.3390

 eigenvalue-minimisations  :  5840
 total energy-change (2. order) : 0.1847704E+02  (-0.2950680E+03)
 number of electron      10.0000000 magnetization       3.0000000
 augmentation part       10.0000000 magnetization       3.0000000

 Free energy of the ion-electron system (eV)
  ---------------------------------------------------
  alpha Z        PSCENC =        54.26135635
  Ewald energy   TEWEN  =      -985.38862757
  -Hartree energ DENC   =      -223.33370506
  -exchange      EXHF   =         0.00000000
  -V(xc)+E(xc)   XCENC  =        33.22540774
  PAW double counting   =       961.92645289    -1028.66799202
  entropy T*S    EENTRO =         0.00091477
  eigenvalues    EBANDS =       128.81716084
  atomic energy  EATOM  =      1077.63607467
  Solvation  Ediel_sol  =         0.00000000
  ---------------------------------------------------
  free energy    TOTEN  =        18.47704260 eV

  energy without entropy =       18.47612783  energy(sigma->0) =       18.47673768


--------------------------------------------------------------------------------------------------------




--------------------------------------- Iteration      1(   2)  ---------------------------------------


     EDDAV:  cpu time    0.3141: real time    0.3217
       DOS:  cpu time    0.0020: real time    0.0020
    --------------------------------------------
      LOOP:  cpu time    0.3161: real time    0.3237

 eigenvalue-minimisations  :  5808
 total energy-change (2. order) :-0.2364006E+02  (-0.2219919E+02)
 number of electron      10.0000000 magnetization       3.0000000
 augmentation part       10.0000000 magnetization       3.0000000

 Free energy of the ion-electron system (eV)
  ---------------------------------------------------
  alpha Z        PSCENC =        54.26135635
  Ewald energy   TEWEN  =      -985.38862757
  -Hartree energ DENC   =      -223.33370506
  -exchange      EXHF   =         0.00000000
  -V(xc)+E(xc)   XCENC  =        33.22540774
  PAW double counting   =       961.92645289    -1028.66799202
  entropy T*S    EENTRO =        -0.00094066
  eigenvalues    EBANDS =       105.17895137
  atomic energy  EATOM  =      1077.63607467
  Solvation  Ediel_sol  =         0.00000000
  ---------------------------------------------------
  free energy    TOTEN  =        -5.16302230 eV

  energy without entropy =       -5.16208164  energy(sigma->0) =       -5.16270874


--------------------------------------------------------------------------------------------------------




--------------------------------------- Iteration      1(   3)  ---------------------------------------


     EDDAV:  cpu time    0.3160: real time    0.3231
       DOS:  cpu time    0.0019: real time    0.0019
    --------------------------------------------
      LOOP:  cpu time    0.3180: real time    0.3250

 eigenvalue-minimisations  :  5940
 total energy-change (2. order) :-0.4013848E+00  (-0.4006125E+00)
 number of electron      10.0000000 magnetization       3.0000000
 augmentation part       10.0000000 magnetization       3.0000000

 Free energy of the ion-electron system (eV)
  ---------------------------------------------------
  alpha Z        PSCENC =        54.26135635
  Ewald energy   TEWEN  =      -985.38862757
  -Hartree energ DENC   =      -223.33370506
  -exchange      EXHF   =         0.00000000
  -V(xc)+E(xc)   XCENC  =        33.22540774
  PAW double counting   =       961.92645289    -1028.66799202
  entropy T*S    EENTRO =        -0.00110028
  eigenvalues    EBANDS =       104.77772622
  atomic energy  EATOM  =      1077.63607467
  Solvation  Ediel_sol  =         0.00000000
  ---------------------------------------------------
  free energy    TOTEN  =        -5.56440707 eV

  energy without entropy =       -5.56330679  energy(sigma->0) =       -5.56404031


--------------------------------------------------------------------------------------------------------




--------------------------------------- Iteration      1(   4)  ---------------------------------------


     EDDAV:  cpu time    0.3190: real time    0.3260
       DOS:  cpu time    0.0019: real time    0.0019
    --------------------------------------------
      LOOP:  cpu time    0.3209: real time    0.3279

 eigenvalue-minimisations  :  6052
 total energy-change (2. order) :-0.1970714E-02  (-0.1970603E-02)
 number of electron      10.0000000 magnetization       3.0000000
 augmentation part       10.0000000 magnetization       3.0000000

 Free energy of the ion-electron system (eV)
  ---------------------------------------------------
  alpha Z        PSCENC =        54.26135635
  Ewald energy   TEWEN  =      -985.38862757
  -Hartree energ DENC   =      -223.33370506
  -exchange      EXHF   =         0.00000000
  -V(xc)+E(xc)   XCENC  =        33.22540774
  PAW double counting   =       961.92645289    -1028.66799202
  entropy T*S    EENTRO =        -0.00109923
  eigenvalues    EBANDS =       104.77575446
  atomic energy  EATOM  =      1077.63607467
  Solvation  Ediel_sol  =         0.00000000
  ---------------------------------------------------
  free energy    TOTEN  =        -5.56637778 eV

  energy without entropy =       -5.56527855  energy(sigma->0) =       -5.56601137


--------------------------------------------------------------------------------------------------------




--------------------------------------- Iteration      1(   5)  ---------------------------------------


     EDDAV:  cpu time    0.3113: real time    0.3185
       DOS:  cpu time    0.0019: real time    0.0019
    CHARGE:  cpu time    0.0045: real time    0.0045
    MIXING:  cpu time    0.0009: real time    0.0003
    --------------------------------------------
      LOOP:  cpu time    0.3187: real time    0.3252

 eigenvalue-minimisations  :  5784
 total energy-change (2. order) :-0.2187250E-04  (-0.2187410E-04)
 number of electron      10.0000065 magnetization       0.3851186
 augmentation part        5.5894797 magnetization       0.2025974

 Broyden mixing:
  rms(total) = 0.15863E+01    rms(broyden)= 0.15862E+01
  rms(prec ) = 0.35792E+01
  weight for this iteration     100.00

 Free energy of the ion-electron system (eV)
  ---------------------------------------------------
  alpha Z        PSCENC =        54.26135635
  Ewald energy   TEWEN  =      -985.38862757
  -Hartree energ DENC   =      -223.33370506
  -exchange      EXHF   =         0.00000000
  -V(xc)+E(xc)   XCENC  =        33.22540774
  PAW double counting   =       961.92645289    -1028.66799202
  entropy T*S    EENTRO =        -0.00109921
  eigenvalues    EBANDS =       104.77573256
  atomic energy  EATOM  =      1077.63607467
  Solvation  Ediel_sol  =         0.00000000
  ---------------------------------------------------
  free energy    TOTEN  =        -5.56639965 eV

  energy without entropy =       -5.56530045  energy(sigma->0) =       -5.56603325


--------------------------------------------------------------------------------------------------------




--------------------------------------- Iteration      1(   6)  ---------------------------------------


    POTLOK:  cpu time    0.0024: real time    0.0033
    SETDIJ:  cpu time    0.0034: real time    0.0034
     EDDAV:  cpu time    0.3489: real time    0.3556
       DOS:  cpu time    0.0020: real time    0.0020
    CHARGE:  cpu time    0.0048: real time    0.0048
    MIXING:  cpu time    0.0003: real time    0.0003
    --------------------------------------------
      LOOP:  cpu time    0.3618: real time    0.3694

 eigenvalue-minimisations  :  6740
 total energy-change (2. order) : 0.4225015E-01  (-0.1021718E+01)
 number of electron      10.0000078 magnetization       0.5662254
 augmentation part        6.3684621 magnetization       0.6074162

 Broyden mixing:
  rms(total) = 0.51973E+00    rms(broyden)= 0.51967E+00
  rms(prec ) = 0.11444E+01
  weight for this iteration     100.00

 eigenvalues of (default mixing * dielectric matrix)
  average eigenvalue GAMMA=   0.9143
  0.9143

 Free energy of the ion-electron system (eV)
  ---------------------------------------------------
  alpha Z        PSCENC =        54.26135635
  Ewald energy   TEWEN  =      -985.38862757
  -Hartree energ DENC   =      -200.20009318
  -exchange      EXHF   =         0.00000000
  -V(xc)+E(xc)   XCENC  =        31.02787930
  PAW double counting   =      1074.05646802    -1137.49347234
  entropy T*S    EENTRO =        -0.00443760
  eigenvalues    EBANDS =        80.58070284
  atomic energy  EATOM  =      1077.63607467
  Solvation  Ediel_sol  =         0.00000000
  ---------------------------------------------------
  free energy    TOTEN  =        -5.52414950 eV

  energy without entropy =       -5.51971190  energy(sigma->0) =       -5.52267030


--------------------------------------------------------------------------------------------------------




--------------------------------------- Iteration      1(   7)  ---------------------------------------


    POTLOK:  cpu time    0.0032: real time    0.0033
    SETDIJ:  cpu time    0.0032: real time    0.0032
     EDDAV:  cpu time    0.3448: real time    0.3516
       DOS:  cpu time    0.0021: real time    0.0021
    CHARGE:  cpu time    0.0039: real time    0.0039
    MIXING:  cpu time    0.0004: real time    0.0003
    --------------------------------------------
      LOOP:  cpu time    0.3575: real time    0.3645

 eigenvalue-minimisations  :  6664
 total energy-change (2. order) : 0.2023107E+00  (-0.1691055E+00)
 number of electron      10.0000073 magnetization       0.6569567
 augmentation part        6.0970134 magnetization       0.6343695

 Broyden mixing:
  rms(total) = 0.22103E+00    rms(broyden)= 0.22102E+00
  rms(prec ) = 0.40386E+00
  weight for this iteration     100.00

 eigenvalues of (default mixing * dielectric matrix)
  average eigenvalue GAMMA=   0.9513
  1.1616  0.7409

 Free energy of the ion-electron system (eV)
  ---------------------------------------------------
  alpha Z        PSCENC =        54.26135635
  Ewald energy   TEWEN  =      -985.38862757
  -Hartree energ DENC   =      -205.80954427
  -exchange      EXHF   =         0.00000000
  -V(xc)+E(xc)   XCENC  =        31.31952324
  PAW double counting   =      1120.78593578    -1187.97505248
  entropy T*S    EENTRO =        -0.00135137
  eigenvalues    EBANDS =        89.84984682
  atomic energy  EATOM  =      1077.63607467
  Solvation  Ediel_sol  =         0.00000000
  ---------------------------------------------------
  free energy    TOTEN  =        -5.32183883 eV

  energy without entropy =       -5.32048746  energy(sigma->0) =       -5.32138838


--------------------------------------------------------------------------------------------------------




--------------------------------------- Iteration      1(   8)  ---------------------------------------


    POTLOK:  cpu time    0.0031: real time    0.0033
    SETDIJ:  cpu time    0.0031: real time    0.0031
     EDDAV:  cpu time    0.3195: real time    0.3264
       DOS:  cpu time    0.0020: real time    0.0020
    CHARGE:  cpu time    0.0042: real time    0.0042
    MIXING:  cpu time    0.0002: real time    0.0003
    --------------------------------------------
      LOOP:  cpu time    0.3322: real time    0.3392

 eigenvalue-minimisations  :  5968
 total energy-change (2. order) : 0.1642164E-01  (-0.1615457E-02)
 number of electron      10.0000073 magnetization       0.5858026
 augmentation part        6.1185769 magnetization       0.5503936

 Broyden mixing:
  rms(total) = 0.10357E+00    rms(broyden)= 0.10357E+00
  rms(prec ) = 0.17856E+00
  weight for this iteration     100.00

 eigenvalues of (default mixing * dielectric matrix)
  average eigenvalue GAMMA=   1.1717
  0.7618  0.8801  1.8732

 Free energy of the ion-electron system (eV)
  ---------------------------------------------------
  alpha Z        PSCENC =        54.26135635
  Ewald energy   TEWEN  =      -985.38862757
  -Hartree energ DENC   =      -203.71727553
  -exchange      EXHF   =         0.00000000
  -V(xc)+E(xc)   XCENC  =        31.21743921
  PAW double counting   =      1177.92357621    -1246.38323793
  entropy T*S    EENTRO =        -0.00130919
  eigenvalues    EBANDS =        89.14658659
  atomic energy  EATOM  =      1077.63607467
  Solvation  Ediel_sol  =         0.00000000
  ---------------------------------------------------
  free energy    TOTEN  =        -5.30541719 eV

  energy without entropy =       -5.30410801  energy(sigma->0) =       -5.30498080


--------------------------------------------------------------------------------------------------------




--------------------------------------- Iteration      1(   9)  ---------------------------------------


    POTLOK:  cpu time    0.0030: real time    0.0031
    SETDIJ:  cpu time    0.0033: real time    0.0033
     EDDAV:  cpu time    0.3520: real time    0.3590
       DOS:  cpu time    0.0021: real time    0.0021
    CHARGE:  cpu time    0.0044: real time    0.0044
    MIXING:  cpu time    0.0003: real time    0.0003
    --------------------------------------------
      LOOP:  cpu time    0.3650: real time    0.3722

 eigenvalue-minimisations  :  6840
 total energy-change (2. order) : 0.3723036E-02  (-0.4255755E-03)
 number of electron      10.0000074 magnetization       0.5944832
 augmentation part        6.1315767 magnetization       0.5678211

 Broyden mixing:
  rms(total) = 0.32612E-01    rms(broyden)= 0.32611E-01
  rms(prec ) = 0.41016E-01
  weight for this iteration     100.00

 eigenvalues of (default mixing * dielectric matrix)
  average eigenvalue GAMMA=   1.1398
  2.2927  0.9628  0.6980  0.6057

 Free energy of the ion-electron system (eV)
  ---------------------------------------------------
  alpha Z        PSCENC =        54.26135635
  Ewald energy   TEWEN  =      -985.38862757
  -Hartree energ DENC   =      -202.37365786
  -exchange      EXHF   =         0.00000000
  -V(xc)+E(xc)   XCENC  =        31.14696387
  PAW double counting   =      1221.43251432    -1290.82558120
  entropy T*S    EENTRO =        -0.00180262
  eigenvalues    EBANDS =        88.81106588
  atomic energy  EATOM  =      1077.63607467
  Solvation  Ediel_sol  =         0.00000000
  ---------------------------------------------------
  free energy    TOTEN  =        -5.30169416 eV

  energy without entropy =       -5.29989154  energy(sigma->0) =       -5.30109329


--------------------------------------------------------------------------------------------------------




--------------------------------------- Iteration      1(  10)  ---------------------------------------


    POTLOK:  cpu time    0.0030: real time    0.0032
    SETDIJ:  cpu time    0.0032: real time    0.0032
     EDDAV:  cpu time    0.2459: real time    0.2525
       DOS:  cpu time    0.0022: real time    0.0022
    CHARGE:  cpu time    0.0042: real time    0.0042
    MIXING:  cpu time    0.0004: real time    0.0004
    --------------------------------------------
      LOOP:  cpu time    0.2588: real time    0.2656

 eigenvalue-minimisations  :  3832
 total energy-change (2. order) : 0.1369513E-03  (-0.1444164E-04)
 number of electron      10.0000074 magnetization       0.6046005
 augmentation part        6.1332722 magnetization       0.5775984

 Broyden mixing:
  rms(total) = 0.48565E-02    rms(broyden)= 0.48555E-02
  rms(prec ) = 0.69920E-02
  weight for this iteration     100.00

 eigenvalues of (default mixing * dielectric matrix)
  average eigenvalue GAMMA=   1.1339
  2.4101  1.1184  0.8155  0.6782  0.6474

 Free energy of the ion-electron system (eV)
  ---------------------------------------------------
  alpha Z        PSCENC =        54.26135635
  Ewald energy   TEWEN  =      -985.38862757
  -Hartree energ DENC   =      -202.11591404
  -exchange      EXHF   =         0.00000000
  -V(xc)+E(xc)   XCENC  =        31.13505674
  PAW double counting   =      1231.46734545    -1301.04621741
  entropy T*S    EENTRO =        -0.00172675
  eigenvalues    EBANDS =        88.75109535
  atomic energy  EATOM  =      1077.63607467
  Solvation  Ediel_sol  =         0.00000000
  ---------------------------------------------------
  free energy    TOTEN  =        -5.30155721 eV

  energy without entropy =       -5.29983046  energy(sigma->0) =       -5.30098162


--------------------------------------------------------------------------------------------------------




--------------------------------------- Iteration      1(  11)  ---------------------------------------


    POTLOK:  cpu time    0.0032: real time    0.0033
    SETDIJ:  cpu time    0.0033: real time    0.0033
     EDDAV:  cpu time    0.2218: real time    0.2284
       DOS:  cpu time    0.0020: real time    0.0020
    --------------------------------------------
      LOOP:  cpu time    0.2304: real time    0.2370

 eigenvalue-minimisations  :  2852
 total energy-change (2. order) :-0.9989039E-05  (-0.1852449E-05)
 number of electron      10.0000074 magnetization       0.6046005
 augmentation part        6.1332722 magnetization       0.5775984

 Free energy of the ion-electron system (eV)
  ---------------------------------------------------
  alpha Z        PSCENC =        54.26135635
  Ewald energy   TEWEN  =      -985.38862757
  -Hartree energ DENC   =      -202.05364700
  -exchange      EXHF   =         0.00000000
  -V(xc)+E(xc)   XCENC  =        31.13372474
  PAW double counting   =      1235.51761760    -1305.14344221
  entropy T*S    EENTRO =        -0.00166167
  eigenvalues    EBANDS =        88.73703790
  atomic energy  EATOM  =      1077.63607467
  Solvation  Ediel_sol  =         0.00000000
  ---------------------------------------------------
  free energy    TOTEN  =        -5.30156719 eV

  energy without entropy =       -5.29990552  energy(sigma->0) =       -5.30101330


--------------------------------------------------------------------------------------------------------




 average (electrostatic) potential at core
  the test charge radii are     0.9791
  (the norm of the test charge is              1.0000)
       1 -80.0340
 
 
 
 E-fermi :  11.6080     XC(G=0): -14.1429     alpha+bet :-19.0570


 spin component 1

 k-point     1 :       0.0500    0.0500    0.0500
  band No.  band energies     occupation 
      1       1.6468      1.00000
      2       8.7505      1.00000
      3       8.8106      1.00000
      4       8.8106      1.00000
      5      10.1963      1.00000
      6      10.1963      1.00000
      7      36.3968      0.00000
      8      40.1863      0.00000
      9      41.4445      0.00000
     10      41.4445      0.00000
     11      45.6816      0.00000
     12      45.6816      0.00000

 k-point     2 :       0.1500    0.0500    0.0500
  band No.  band energies     occupation 
      1       2.2184      1.00000
      2       8.5818      1.00000
      3       8.9349      1.00000
      4       8.9538      1.00000
      5      10.0666      1.00000
      6      10.2305      1.00000
      7      34.6797      0.00000
      8      37.2326      0.00000
      9      40.0906      0.00000
     10      42.2072      0.00000
     11      44.9459      0.00000
     12      45.8319      0.00000

 k-point     3 :       0.2500    0.0500    0.0500
  band No.  band energies     occupation 
      1       3.5328      1.00000
      2       8.3457      1.00000
      3       9.0618      1.00000
      4       9.0991      1.00000
      5      10.0493      1.00000
      6      10.3779      1.00000
      7      29.5177      0.00000
      8      36.0080      0.00000
      9      39.4387      0.00000
     10      41.8594      0.00000
     11      44.5168      0.00000
     12      45.1991      0.00000

 k-point     4 :       0.3500    0.0500    0.0500
  band No.  band energies     occupation 
      1       5.0942      1.00000
      2       8.5374      1.00000
      3       8.9491      1.00000
      4       9.0093      1.00000
      5      10.4064      1.00000
      6      10.7956      1.00000
      7      24.3359      0.00000
      8      35.2060      0.00000
      9      38.3176      0.00000
     10      41.2139      0.00000
     11      42.7002      0.00000
     12      44.5772      0.00000

 k-point     5 :       0.4500    0.0500    0.0500
  band No.  band energies     occupation 
      1       5.8720      1.00000
      2       8.7813      1.00000
      3       8.8575      1.00000
      4       9.7511      1.00000
      5      10.8518      1.00000
      6      11.4018      1.02805
      7      20.0679      0.00000
      8      34.7001      0.00000
      9      37.7171      0.00000
     10      39.4403      0.00000
     11      42.2916      0.00000
     12      43.7866      0.00000

 k-point     6 :      -0.4500    0.0500    0.0500
  band No.  band energies     occupation 
      1       5.9745      1.00000
      2       8.7191      1.00000
      3       8.8207      1.00000
      4      10.2651      1.00000
      5      11.0623      1.00039
      6      11.8674     -0.03473
      7      18.5108      0.00000
      8      34.6544      0.00000
      9      38.0254      0.00000
     10      38.1109      0.00000
     11      43.0266      0.00000
     12      43.0603      0.00000

 k-point     7 :      -0.3500    0.0500    0.0500
  band No.  band energies     occupation 
      1       5.7255      1.00000
      2       8.8114      1.00000
      3       8.9181      1.00000
      4       9.2621      1.00000
      5      10.9186      1.00001
      6      10.9980      1.00007
      7      21.3311      0.00000
      8      35.1575      0.00000
      9      37.4866      0.00000
     10      39.4974      0.00000
     11      42.7764      0.00000
     12      44.3532      0.00000

 k-point     8 :      -0.2500    0.0500    0.0500
  band No.  band energies     occupation 
      1       4.6078      1.00000
      2       8.3596      1.00000
      3       9.0000      1.00000
      4       9.0670      1.00000
      5      10.3444      1.00000
      6      10.5576      1.00000
      7      25.9937      0.00000
      8      36.0710      0.00000
      9      37.7165      0.00000
     10      41.4596      0.00000
     11      42.9909      0.00000
     12      46.3004      0.00000

 k-point     9 :      -0.1500    0.0500    0.0500
  band No.  band energies     occupation 
      1       3.0295      1.00000
      2       8.3990      1.00000
      3       9.0581      1.00000
      4       9.0701      1.00000
      5      10.0241      1.00000
      6      10.2895      1.00000
      7      31.3177      0.00000
      8      37.0356      0.00000
      9      38.5235      0.00000
     10      42.2315      0.00000
     11      43.9565      0.00000
     12      47.9039      0.00000

 k-point    10 :      -0.0500    0.0500    0.0500
  band No.  band energies     occupation 
      1       1.9355      1.00000
      2       8.6434      1.00000
      3       8.8920      1.00000
      4       8.8956      1.00000
      5      10.0894      1.00000
      6      10.2414      1.00000
      7      35.8251      0.00000
      8      38.6472      0.00000
      9      39.8373      0.00000
     10      41.2755      0.00000
     11      45.6872      0.00000
     12      47.1014      0.00000

 k-point    11 :       0.1500    0.1500    0.0500
  band No.  band energies     occupation 
      1       2.4975      1.00000
      2       8.4295      1.00000
      3       9.0629      1.00000
      4       9.0666      1.00000
      5       9.9035      1.00000
      6      10.3273      1.00000
      7      34.8901      0.00000
      8      37.1542      0.00000
      9      37.8874      0.00000
     10      39.7585      0.00000
     11      46.6808      0.00000
     12      48.0310      0.00000

 k-point    12 :       0.2500    0.1500    0.0500
  band No.  band energies     occupation 
      1       3.5491      1.00000
      2       8.1477      1.00000
      3       9.1517      1.00000
      4       9.3077      1.00000
      5       9.8352      1.00000
      6      10.4864      1.00000
      7      31.7235      0.00000
      8      34.0630      0.00000
      9      37.9174      0.00000
     10      39.4662      0.00000
     11      45.0505      0.00000
     12      47.5236      0.00000

 k-point    13 :       0.3500    0.1500    0.0500
  band No.  band energies     occupation 
      1       5.0585      1.00000
      2       8.0195      1.00000
      3       8.8854      1.00000
      4       9.3358      1.00000
      5      10.3411      1.00000
      6      10.9279      1.00001
      7      26.3907      0.00000
      8      33.1606      0.00000
      9      36.3215      0.00000
     10      39.2664      0.00000
     11      46.0313      0.00000
     12      46.1569      0.00000

 k-point    14 :       0.4500    0.1500    0.0500
  band No.  band energies     occupation 
      1       6.1120      1.00000
      2       8.4154      1.00000
      3       8.7332      1.00000
      4       9.1954      1.00000
      5      10.8946      1.00000
      6      11.9679     -0.01444
      7      21.6469      0.00000
      8      32.7532      0.00000
      9      34.8348      0.00000
     10      38.2049      0.00000
     11      45.0188      0.00000
     12      47.5145      0.00000

 k-point    15 :      -0.4500    0.1500    0.0500
  band No.  band energies     occupation 
      1       6.3364      1.00000
      2       8.4000      1.00000
      3       9.0830      1.00000
      4       9.2886      1.00000
      5      11.0229      1.00014
      6      13.4471     -0.00000
      7      18.6156      0.00000
      8      32.2640      0.00000
      9      34.5023      0.00000
     10      37.8593      0.00000
     11      44.3645      0.00000
     12      47.1134      0.00000

 k-point    16 :      -0.3500    0.1500    0.0500
  band No.  band energies     occupation 
      1       6.2596      1.00000
      2       8.4954      1.00000
      3       8.9505      1.00000
      4       9.1337      1.00000
      5      10.7817      1.00000
      6      12.6171     -0.00000
      7      20.3383      0.00000
      8      31.7034      0.00000
      9      35.5435      0.00000
     10      38.7049      0.00000
     11      43.9677      0.00000
     12      46.7788      0.00000

 k-point    17 :      -0.2500    0.1500    0.0500
  band No.  band energies     occupation 
      1       5.5417      1.00000
      2       8.1805      1.00000
      3       8.7732      1.00000
      4       9.2708      1.00000
      5      10.2562      1.00000
      6      11.3966      1.03009
      7      24.7275      0.00000
      8      31.6722      0.00000
      9      37.3129      0.00000
     10      40.5614      0.00000
     11      43.7672      0.00000
     12      46.0332      0.00000

 k-point    18 :      -0.1500    0.1500    0.0500
  band No.  band energies     occupation 
      1       4.0365      1.00000
      2       8.1400      1.00000
      3       9.0373      1.00000
      4       9.3411      1.00000
      5       9.8293      1.00000
      6      10.6869      1.00000
      7      29.9118      0.00000
      8      32.3009      0.00000
      9      39.5464      0.00000
     10      41.1566      0.00000
     11      44.6866      0.00000
     12      45.7704      0.00000

 k-point    19 :      -0.0500    0.1500    0.0500
  band No.  band energies     occupation 
      1       2.7688      1.00000
      2       8.4076      1.00000
      3       9.0601      1.00000
      4       9.0800      1.00000
      5       9.9325      1.00000
      6      10.3265      1.00000
      7      33.2194      0.00000
      8      35.6317      0.00000
      9      39.3392      0.00000
     10      41.5424      0.00000
     11      45.0077      0.00000
     12      46.9341      0.00000

 k-point    20 :       0.2500    0.2500    0.0500
  band No.  band energies     occupation 
      1       4.2501      1.00000
      2       7.8077      1.00000
      3       9.3284      1.00000
      4       9.6182      1.00000
      5       9.8115      1.00000
      6      10.5860      1.00000
      7      32.2262      0.00000
      8      33.9143      0.00000
      9      34.5484      0.00000
     10      35.9540      0.00000
     11      41.9641      0.00000
     12      51.6432      0.00000

 k-point    21 :       0.3500    0.2500    0.0500
  band No.  band energies     occupation 
      1       5.3955      1.00000
      2       7.5282      1.00000
      3       9.0552      1.00000
      4       9.9204      1.00000
      5      10.3837      1.00000
      6      10.9518      1.00002
      7      28.9194      0.00000
      8      31.0306      0.00000
      9      33.0174      0.00000
     10      36.6874      0.00000
     11      41.7816      0.00000
     12      51.2228      0.00000

[...]
      4       9.5383      1.00000
      5      11.3983      1.02945
      6      11.3983      1.02945
      7      22.9457      0.00000
      8      35.6852      0.00000
      9      39.3365      0.00000
     10      39.3365      0.00000
     11      43.4200      0.00000
     12      43.4200      0.00000

 k-point   102 :       0.4500    0.3500    0.3500
  band No.  band energies     occupation 
      1       6.2138      1.00000
      2       9.2047      1.00000
      3       9.3870      1.00000
      4       9.6298      1.00000
      5      11.3171      1.02963
      6      12.3651     -0.00000
      7      21.7588      0.00000
      8      32.8430      0.00000
      9      37.4382      0.00000
     10      39.2804      0.00000
     11      43.6701      0.00000
     12      44.8140      0.00000

 k-point   103 :      -0.4500    0.3500    0.3500
  band No.  band energies     occupation 
      1       7.1398      1.00000
      2       8.6080      1.00000
      3       9.0671      1.00000
      4      10.0230      1.00000
      5      11.3098      1.02806
      6      14.2213     -0.00000
      7      21.0533      0.00000
      8      28.1503      0.00000
      9      35.9468      0.00000
     10      36.6434      0.00000
     11      47.1437      0.00000
     12      47.5756      0.00000

 k-point   104 :      -0.3500    0.3500    0.3500
  band No.  band energies     occupation 
      1       7.7598      1.00000
      2       7.9236      1.00000
      3       9.0530      1.00000
      4      10.5467      1.00000
      5      11.4407      0.99880
      6      16.7851     -0.00000
      7      20.3560      0.00000
      8      24.3550      0.00000
      9      32.9389      0.00000
     10      35.8915      0.00000
     11      50.8732      0.00000
     12      50.9981      0.00000

 k-point   105 :       0.4500    0.4500    0.3500
  band No.  band energies     occupation 
      1       6.4092      1.00000
      2       9.0990      1.00000
      3       9.6258      1.00000
      4       9.6280      1.00000
      5      11.7827     -0.00655
      6      12.4651     -0.00000
      7      20.4932      0.00000
      8      33.8831      0.00000
      9      36.0597      0.00000
     10      37.5677      0.00000
     11      44.8620      0.00000
     12      45.5725      0.00000

 k-point   106 :      -0.4500    0.4500    0.3500
  band No.  band energies     occupation 
      1       7.0013      1.00000
      2       8.6108      1.00000
      3       9.3545      1.00000
      4       9.9247      1.00000
      5      11.6701      0.25092
      6      14.2289     -0.00000
      7      19.7554      0.00000
      8      30.7194      0.00000
      9      32.8138      0.00000
     10      38.9485      0.00000
     11      44.2654      0.00000
     12      49.5455      0.00000

 k-point   107 :      -0.3500    0.4500    0.3500
  band No.  band energies     occupation 
      1       7.7240      1.00000
      2       7.9719      1.00000
      3       9.0078      1.00000
      4      10.4120      1.00000
      5      11.6587      0.29280
      6      16.6961     -0.00000
      7      19.4512      0.00000
      8      26.5939      0.00000
      9      30.1164      0.00000
     10      39.3142      0.00000
     11      45.9528      0.00000
     12      53.2725      0.00000

 k-point   108 :      -0.4500   -0.4500    0.3500
  band No.  band energies     occupation 
      1       7.2002      1.00000
      2       8.3598      1.00000
      3       9.3693      1.00000
      4      10.0548      1.00000
      5      11.7489      0.03858
      6      15.1737     -0.00000
      7      19.1424      0.00000
      8      29.0891      0.00000
      9      33.8894      0.00000
     10      36.0411      0.00000
     11      48.4208      0.00000
     12      48.4250      0.00000

 k-point   109 :       0.4500    0.4500    0.4500
  band No.  band energies     occupation 
      1       6.2583      1.00000
      2       9.3954      1.00000
      3       9.3954      1.00000
      4      10.6639      1.00000
      5      11.7452      0.04508
      6      11.7452      0.04508
      7      19.4219      0.00000
      8      34.9894      0.00000
      9      39.0906      0.00000
     10      39.0906      0.00000
     11      42.2608      0.00000
     12      42.2608      0.00000

 k-point   110 :      -0.4500    0.4500    0.4500
  band No.  band energies     occupation 
      1       6.5767      1.00000
      2       9.1071      1.00000
      3       9.5501      1.00000
      4      10.0343      1.00000
      5      11.7284      0.07909
      6      13.1884     -0.00000
      7      18.9493      0.00000
      8      33.1237      0.00000
      9      36.9087      0.00000
     10      37.1727      0.00000
     11      44.3447      0.00000
     12      44.9106      0.00000


--------------------------------------------------------------------------------------------------------


 soft charge-density along one line, spin component           1
         0         1         2         3         4         5         6         7         8         9
 total charge-density along one line
 
 soft charge-density along one line, spin component           2
         0         1         2         3         4         5         6         7         8         9
 total charge-density along one line
 
 pseudopotential strength for first ion, spin component:           1
  0.843   0.000   0.000   0.000   0.000   0.000   0.000   0.000   0.000   0.000   0.105   0.000   0.000   0.000   0.000   0.000
  0.000   0.000   0.843   0.000  -0.000   0.000   0.000   0.000   0.000   0.000   0.000   0.000   0.105   0.000  -0.000   0.000
  0.000   0.000  -0.000   0.000   0.945   0.000  -0.000   0.000  -0.000   0.000   0.000   0.000  -0.000   0.000   0.203   0.000
  0.000   0.000   0.000   0.000  -0.000   0.000   0.843   0.000  -0.000   0.000   0.000   0.000   0.000   0.000  -0.000   0.000
  0.000   0.000   0.000   0.000  -0.000   0.000  -0.000   0.000   0.945   0.000   0.000   0.000   0.000   0.000  -0.000   0.000
  0.105   0.000   0.000   0.000   0.000   0.000   0.000   0.000   0.000   0.000  -0.558   0.000   0.000   0.000   0.000   0.000
  0.000   0.000   0.105   0.000  -0.000   0.000   0.000   0.000   0.000   0.000   0.000   0.000  -0.558   0.000  -0.000   0.000
  0.000   0.000  -0.000   0.000   0.203   0.000  -0.000   0.000  -0.000   0.000   0.000   0.000  -0.000   0.000  -0.464   0.000
  0.000   0.000   0.000   0.000  -0.000   0.000   0.105   0.000  -0.000   0.000   0.000   0.000   0.000   0.000  -0.000   0.000
  0.000   0.000   0.000   0.000  -0.000   0.000  -0.000   0.000   0.203   0.000   0.000   0.000   0.000   0.000  -0.000   0.000
 -0.000   0.000  -0.000   0.000   0.000   0.000  -0.000   0.000  -0.000   0.000  -0.000   0.000  -0.000   0.000   0.000   0.000
 -0.000   0.000  -0.000   0.000   0.000   0.000  -0.000   0.000  -0.000   0.000  -0.000   0.000  -0.000   0.000   0.000   0.000
 -0.000   0.000  -0.000   0.000   0.000   0.000   0.000   0.000   0.000   0.000  -0.000   0.000  -0.000   0.000   0.000   0.000
  0.000   0.000  -0.000   0.000  -0.000   0.000  -0.000   0.000   0.000   0.000   0.000   0.000  -0.000   0.000  -0.000   0.000
 -0.000   0.000   0.000   0.000   0.000   0.000  -0.000   0.000  -0.000   0.000  -0.000   0.000   0.000   0.000   0.000   0.000
 -0.000   0.000  -0.000   0.000   0.000   0.000   0.000   0.000   0.000   0.000  -0.000   0.000  -0.000   0.000   0.000   0.000
  0.000   0.000  -0.000   0.000  -0.000   0.000  -0.000   0.000   0.000   0.000   0.000   0.000  -0.000   0.000  -0.000   0.000
 -0.000   0.000   0.000   0.000   0.000   0.000  -0.000   0.000  -0.000   0.000  -0.000   0.000   0.000   0.000   0.000   0.000
 pseudopotential strength for first ion, spin component:           2
  1.447   0.000   0.000   0.000  -0.000   0.000   0.000   0.000   0.000   0.000   0.681   0.000   0.000   0.000  -0.000   0.000
  0.000   0.000   1.447   0.000   0.000   0.000   0.000   0.000  -0.000   0.000   0.000   0.000   0.681   0.000   0.000   0.000
 -0.000   0.000   0.000   0.000   1.427   0.000   0.000   0.000  -0.000   0.000  -0.000   0.000   0.000   0.000   0.662   0.000
  0.000   0.000   0.000   0.000   0.000   0.000   1.447   0.000   0.000   0.000   0.000   0.000   0.000   0.000   0.000   0.000
  0.000   0.000  -0.000   0.000  -0.000   0.000   0.000   0.000   1.427   0.000   0.000   0.000  -0.000   0.000  -0.000   0.000
  0.681   0.000   0.000   0.000  -0.000   0.000   0.000   0.000   0.000   0.000  -0.010   0.000   0.000   0.000  -0.000   0.000
  0.000   0.000   0.681   0.000   0.000   0.000   0.000   0.000  -0.000   0.000   0.000   0.000  -0.010   0.000   0.000   0.000
 -0.000   0.000   0.000   0.000   0.662   0.000   0.000   0.000  -0.000   0.000  -0.000   0.000   0.000   0.000  -0.028   0.000
  0.000   0.000   0.000   0.000   0.000   0.000   0.681   0.000   0.000   0.000   0.000   0.000   0.000   0.000   0.000   0.000
  0.000   0.000  -0.000   0.000  -0.000   0.000   0.000   0.000   0.662   0.000   0.000   0.000  -0.000   0.000  -0.000   0.000
 -0.000   0.000  -0.000   0.000   0.000   0.000  -0.000   0.000  -0.000   0.000  -0.000   0.000  -0.000   0.000   0.000   0.000
 -0.000   0.000  -0.000   0.000   0.000   0.000  -0.000   0.000  -0.000   0.000  -0.000   0.000  -0.000   0.000   0.000   0.000
 -0.000   0.000  -0.000   0.000   0.000   0.000   0.000   0.000   0.000   0.000  -0.000   0.000  -0.000   0.000   0.000   0.000
  0.000   0.000  -0.000   0.000  -0.000   0.000  -0.000   0.000   0.000   0.000   0.000   0.000  -0.000   0.000  -0.000   0.000
 -0.000   0.000   0.000   0.000   0.000   0.000  -0.000   0.000  -0.000   0.000  -0.000   0.000   0.000   0.000   0.000   0.000
 -0.000   0.000  -0.000   0.000   0.000   0.000   0.000   0.000   0.000   0.000  -0.000   0.000  -0.000   0.000   0.000   0.000
  0.000   0.000  -0.000   0.000  -0.000   0.000  -0.000   0.000   0.000   0.000   0.000   0.000  -0.000   0.000  -0.000   0.000
 -0.000   0.000   0.000   0.000   0.000   0.000  -0.000   0.000  -0.000   0.000  -0.000   0.000   0.000   0.000   0.000   0.000
 total augmentation occupancy for first ion, spin component:           1
  3.092   0.000   0.000   0.000   0.000  -1.788  -0.000  -0.000  -0.000   0.000   0.000  -0.000   0.000   0.000   0.000   0.000
  0.000   3.092   0.000   0.000   0.000  -0.000  -1.788  -0.000  -0.000  -0.000   0.000  -0.000   0.000   0.000   0.000   0.000
  0.000   0.000   3.909  -0.000  -0.000   0.000   0.000  -2.138   0.000   0.000  -0.000   0.000   0.000   0.000   0.000   0.000
  0.000   0.000  -0.000   3.092  -0.000  -0.000  -0.000   0.000  -1.788   0.000   0.000  -0.000   0.000   0.000   0.000   0.000
 -0.000   0.000   0.000  -0.000   3.909  -0.000  -0.000   0.000   0.000  -2.138   0.000   0.000   0.000   0.000   0.000   0.000
 -1.788  -0.000  -0.000  -0.000   0.000   2.205  -0.000   0.000  -0.000  -0.000   0.000  -0.000   0.000   0.000   0.000   0.000
 -0.000  -1.788  -0.000  -0.000   0.000  -0.000   2.205   0.000  -0.000  -0.000  -0.000   0.000   0.000   0.000   0.000   0.000
  0.000  -0.000  -2.138  -0.000   0.000   0.000   0.000   2.200  -0.000  -0.000   0.000   0.000   0.000   0.000   0.000   0.000
 -0.000  -0.000  -0.000  -1.788   0.000  -0.000  -0.000  -0.000   2.205  -0.000   0.000  -0.000   0.000   0.000   0.000   0.000
  0.000   0.000   0.000   0.000  -2.138  -0.000   0.000   0.000  -0.000   2.200   0.000   0.000   0.000   0.000   0.000   0.000
 -0.000   0.000  -0.000  -0.000   0.000   0.000   0.000   0.000  -0.000   0.000   2.728  -0.407   0.000   0.000   0.000   0.000
  0.000  -0.000   0.000  -0.000   0.000  -0.000   0.000   0.000   0.000   0.000  -0.407   0.071   0.000   0.000   0.000   0.000
  0.000   0.000   0.000   0.000   0.000   0.000   0.000   0.000   0.000   0.000   0.000   0.000   0.393   0.000   0.000  -0.043
  0.000   0.000   0.000   0.000   0.000   0.000   0.000   0.000   0.000   0.000   0.000   0.000   0.000   0.393   0.000  -0.000
  0.000   0.000   0.000   0.000   0.000   0.000   0.000   0.000   0.000   0.000   0.000   0.000   0.000  -0.000   0.393   0.000
  0.000   0.000   0.000   0.000   0.000   0.000   0.000   0.000   0.000   0.000   0.000   0.000  -0.043  -0.000   0.000   0.005
  0.000   0.000   0.000   0.000   0.000   0.000   0.000   0.000   0.000   0.000   0.000   0.000  -0.000  -0.043   0.000   0.000
  0.000   0.000   0.000   0.000   0.000   0.000   0.000   0.000   0.000   0.000   0.000   0.000  -0.000  -0.000  -0.043   0.000
 total augmentation occupancy for first ion, spin component:           2
  1.126   0.000   0.000   0.000   0.000  -0.593  -0.000   0.000  -0.000   0.000  -0.000  -0.000   0.000   0.000   0.000   0.000
  0.000   1.126   0.000   0.000   0.000  -0.000  -0.593   0.000  -0.000  -0.000   0.000  -0.000   0.000   0.000   0.000   0.000
  0.000   0.000   0.617   0.000   0.000   0.000  -0.000  -0.314   0.000   0.000   0.000   0.000   0.000   0.000   0.000   0.000
  0.000   0.000   0.000   1.126  -0.000  -0.000  -0.000  -0.000  -0.593   0.000  -0.000  -0.000   0.000   0.000   0.000   0.000
  0.000   0.000   0.000  -0.000   0.617   0.000   0.000  -0.000   0.000  -0.314   0.000   0.000   0.000   0.000   0.000   0.000
 -0.593  -0.000   0.000  -0.000  -0.000   0.227   0.000   0.000   0.000  -0.000  -0.000   0.000   0.000   0.000   0.000   0.000
 -0.000  -0.593  -0.000  -0.000  -0.000   0.000   0.227   0.000   0.000   0.000   0.000  -0.000   0.000   0.000   0.000   0.000
 -0.000  -0.000  -0.314  -0.000   0.000   0.000   0.000   0.095   0.000   0.000   0.000  -0.000   0.000   0.000   0.000   0.000
 -0.000  -0.000  -0.000  -0.593   0.000   0.000   0.000   0.000   0.227  -0.000   0.000   0.000   0.000   0.000   0.000   0.000
  0.000  -0.000   0.000   0.000  -0.314  -0.000   0.000  -0.000  -0.000   0.095  -0.000   0.000   0.000   0.000   0.000   0.000
  0.000  -0.000   0.000  -0.000   0.000  -0.000   0.000   0.000   0.000  -0.000  -0.144   0.048   0.000   0.000   0.000   0.000
  0.000   0.000   0.000  -0.000   0.000   0.000  -0.000   0.000   0.000  -0.000   0.048  -0.010   0.000   0.000   0.000   0.000
  0.000   0.000   0.000   0.000   0.000   0.000   0.000   0.000   0.000   0.000   0.000   0.000  -0.019  -0.000   0.000   0.003
  0.000   0.000   0.000   0.000   0.000   0.000   0.000   0.000   0.000   0.000   0.000   0.000  -0.000  -0.019  -0.000   0.000
  0.000   0.000   0.000   0.000   0.000   0.000   0.000   0.000   0.000   0.000   0.000   0.000   0.000  -0.000  -0.019   0.000
  0.000   0.000   0.000   0.000   0.000   0.000   0.000   0.000   0.000   0.000   0.000   0.000   0.003   0.000   0.000  -0.000
  0.000   0.000   0.000   0.000   0.000   0.000   0.000   0.000   0.000   0.000   0.000   0.000   0.000   0.003  -0.000  -0.000
  0.000   0.000   0.000   0.000   0.000   0.000   0.000   0.000   0.000   0.000   0.000   0.000   0.000  -0.000   0.003   0.000


------------------------ aborting loop because EDIFF is reached ----------------------------------------


    CHARGE:  cpu time    0.0049: real time    0.0049
    FORLOC:  cpu time    0.0001: real time    0.0001
    FORNL :  cpu time    0.0101: real time    0.0101
    STRESS:  cpu time    0.0393: real time    0.0395
    FORCOR:  cpu time    0.0024: real time    0.0024
    FORHAR:  cpu time    0.0009: real time    0.0004
    MIXING:  cpu time    0.0000: real time    0.0003
    OFIELD:  cpu time    0.0000: real time    0.0000

  FORCE on cell =-STRESS in cart. coord.  units (eV):
  Direction    XX          YY          ZZ          XY          YZ          ZX
  --------------------------------------------------------------------------------------
  Alpha Z    54.26136    54.26136    54.26136
  Ewald    -328.46289  -328.46289  -328.46289    -0.00000     0.00000     0.00000
  Hartree    67.35121    67.35121    67.35121     0.00000     0.00000     0.00000
  E(xc)     -55.54664   -55.54664   -55.54664    -0.00016    -0.00016    -0.00016
  Local      14.43641    14.43641    14.43641     0.00148     0.00148     0.00148
  n-local    -4.72787    -3.91608    -6.97192     1.91565    -2.02549     0.07511
  augment   175.34775   175.34775   175.34775    -0.00148    -0.00148    -0.00148
  Kinetic    79.00407    79.02258    81.70764    -0.81542     0.73301    -0.01489
  Fock        0.00000     0.00000     0.00000     0.00000     0.00000     0.00000
  -------------------------------------------------------------------------------------
  Total       2.09334     2.09334     2.09334     0.00000     0.00000     0.00000
  in kB     356.84150   356.84150   356.84150     0.00000     0.00000     0.00000
  external pressure =      356.84 kB  Pullay stress =        0.00 kB


 VOLUME and BASIS-vectors are now :
 -----------------------------------------------------------------------------
  energy-cutoff  :      270.00
  volume of cell :        9.40
      direct lattice vectors                 reciprocal lattice vectors
     0.000000000  1.675000000  1.675000000    -0.298507463  0.298507463  0.298507463
     1.675000000  0.000000000  1.675000000     0.298507463 -0.298507463  0.298507463
     1.675000000  1.675000000  0.000000000     0.298507463  0.298507463 -0.298507463

  length of vectors
     2.368807717  2.368807717  2.368807717     0.517030092  0.517030092  0.517030092


 FORCES acting on ions
    electron-ion (+dipol)            ewald-force                    non-local-force                 convergence-correction
 -----------------------------------------------------------------------------------------------
   0.462E-13 0.349E-13 0.410E-13   -.154E-16 -.443E-14 0.153E-15   0.331E-23 0.000E+00 -.331E-23   0.389E-13 0.252E-13 0.404E-13
 -----------------------------------------------------------------------------------------------
   0.462E-13 0.349E-13 0.410E-13   -.154E-16 -.443E-14 0.153E-15   0.331E-23 0.000E+00 -.331E-23   0.389E-13 0.252E-13 0.404E-13
 
 
 POSITION                                       TOTAL-FORCE (eV/Angst)
 -----------------------------------------------------------------------------------
      0.00000      0.00000      0.00000         0.000000      0.000000      0.000000
 -----------------------------------------------------------------------------------
    total drift:                                0.000000      0.000000      0.000000


--------------------------------------------------------------------------------------------------------



  FREE ENERGIE OF THE ION-ELECTRON SYSTEM (eV)
  ---------------------------------------------------
  free  energy   TOTEN  =        -5.30156719 eV

  energy  without entropy=       -5.29990552  energy(sigma->0) =       -5.30101330
 


--------------------------------------------------------------------------------------------------------


    POTLOK:  cpu time    0.0058: real time    0.0061


--------------------------------------------------------------------------------------------------------


 writing wavefunctions
     LOOP+:  cpu time    3.6703: real time    3.7542
    4ORBIT:  cpu time    0.0000: real time    0.0000

 total amount of memory used by VASP MPI-rank0    33451. kBytes
=======================================================================

   base      :      30000. kBytes
   nonl-proj :       1649. kBytes
   fftplans  :        142. kBytes
   grid      :        320. kBytes
   one-center:         31. kBytes
   wavefun   :       1309. kBytes
 
  
  
 General timing and accounting informations for this job:
 ========================================================
  
                  Total CPU time used (sec):        4.106
                            User time (sec):        3.614
                          System time (sec):        0.492
                         Elapsed time (sec):        4.380
  
                   Maximum memory used (kb):       57684.
                   Average memory used (kb):           0.
  
                          Minor page faults:        39271
                          Major page faults:            0
                 Voluntary context switches:         4205
