<?xml version="1.0" encoding="ISO-8859-1"?>
<modeling>
 <generator>
  <i name="program" type="string">vasp </i>
  <i name="version" type="string">5.4.4.18Apr17-6-g9f103f2a35  </i>
  <i name="subversion" type="string">(build Jul 01 2019 03:25:34) complex            parallel </i>
  <i name="platform" type="string">LinuxIFC </i>
  <i name="date" type="string">2020 07 09 </i>
  <i name="time" type="string">19:35:22 </i>
 </generator>
 <incar>
  <i type="string" name="SYSTEM"> fcc Ni</i>
  <i type="string" name="PREC">normal</i>
  <i type="int" name="ISPIN">     2</i>
  <i name="EDIFF">      0.00010000</i>
  <i name="ENCUT">    270.00000000</i>
  <v name="MAGMOM">      3.00000000</v>
  <v type="int" name="KPOINT_BSE">    -1     0     0     0</v>
 </incar>
 <structure name="primitive_cell" >
  <crystal>
   <varray name="basis" >
    <v>       0.00000000       1.67500000       1.67500000 </v>
    <v>       1.67500000       0.00000000       1.67500000 </v>
    <v>       1.67500000       1.67500000       0.00000000 </v>
   </varray>
   <i name="volume">      9.39884375 </i>
   <varray name="rec_basis" >
    <v>      -0.29850746       0.29850746       0.29850746 </v>
    <v>       0.29850746      -0.29850746       0.29850746 </v>
    <v>       0.29850746       0.29850746      -0.29850746 </v>
   </varray>
  </crystal>
  <varray name="positions" >
   <v>       0.00000000       0.00000000       0.00000000 </v>
  </varray>
 </structure>
 <varray name="primitive_index" >
  <v type="int" >        1 </v>
 </varray>
 <kpoints>
  <generation param="Monkhorst-Pack">
   <v type="int" name="divisions">      10       10       10 </v>
   <v name="usershift">      0.00000000       0.00000000       0.00000000 </v>
   <v name="genvec1">      0.10000000       0.00000000       0.00000000 </v>
   <v name="genvec2">      0.00000000       0.10000000       0.00000000 </v>
   <v name="genvec3">      0.00000000       0.00000000       0.10000000 </v>
   <v name="shift">      0.50000000       0.50000000       0.50000000 </v>
  </generation>
  <varray name="kpointlist" >
   <v>       0.05000000       0.05000000       0.05000000 </v>
   <v>       0.15000000       0.05000000       0.05000000 </v>
   <v>       0.25000000       0.05000000       0.05000000 </v>
   <v>       0.35000000       0.05000000       0.05000000 </v>
   <v>       0.45000000       0.05000000       0.05000000 </v>
   <v>      -0.45000000       0.05000000       0.05000000 </v>
   <v>      -0.35000000       0.05000000       0.05000000 </v>
   <v>      -0.25000000       0.05000000       0.05000000 </v>
   <v>      -0.15000000       0.05000000       0.05000000 </v>
   <v>      -0.05000000       0.05000000       0.05000000 </v>
   <v>       0.15000000       0.15000000       0.05000000 </v>
   <v>       0.25000000       0.15000000       0.05000000 </v>
   <v>       0.35000000       0.15000000       0.05000000 </v>
   <v>       0.45000000       0.15000000       0.05000000 </v>
   <v>      -0.45000000       0.15000000       0.05000000 </v>
   <v>      -0.35000000       0.15000000       0.05000000 </v>
   <v>      -0.25000000       0.15000000       0.05000000 </v>
   <v>      -0.15000000       0.15000000       0.05000000 </v>
   <v>      -0.05000000       0.15000000       0.05000000 </v>
   <v>       0.25000000       0.25000000       0.05000000 </v>
   <v>       0.35000000       0.25000000       0.05000000 </v>
   <v>       0.45000000       0.25000000       0.05000000 </v>
   <v>      -0.45000000       0.25000000       0.05000000 </v>
   <v>      -0.35000000       0.25000000       0.05000000 </v>
   <v>      -0.25000000       0.25000000       0.05000000 </v>
   <v>      -0.15000000       0.25000000       0.05000000 </v>
   <v>      -0.05000000       0.25000000       0.05000000 </v>
   <v>       0.35000000       0.35000000       0.05000000 </v>
   <v>       0.45000000       0.35000000       0.05000000 </v>
   <v>      -0.45000000       0.35000000       0.05000000 </v>
   <v>      -0.35000000       0.35000000       0.05000000 </v>
   <v>      -0.25000000       0.35000000       0.05000000 </v>
   <v>      -0.15000000       0.35000000       0.05000000 </v>
   <v>      -0.05000000       0.35000000       0.05000000 </v>
   <v>       0.45000000       0.45000000       0.05000000 </v>
   <v>      -0.45000000       0.45000000       0.05000000 </v>
   <v>      -0.35000000       0.45000000       0.05000000 </v>
   <v>      -0.25000000       0.45000000       0.05000000 </v>
   <v>      -0.15000000       0.45000000       0.05000000 </v>
   <v>      -0.05000000       0.45000000       0.05000000 </v>
   <v>      -0.45000000      -0.45000000       0.05000000 </v>
   <v>      -0.35000000      -0.45000000       0.05000000 </v>
   <v>      -0.25000000      -0.45000000       0.05000000 </v>
   <v>      -0.15000000      -0.45000000       0.05000000 </v>
   <v>      -0.35000000      -0.35000000       0.05000000 </v>
   <v>      -0.25000000      -0.35000000       0.05000000 </v>
   <v>      -0.15000000      -0.35000000       0.05000000 </v>
   <v>      -0.25000000      -0.25000000       0.05000000 </v>
   <v>      -0.15000000      -0.25000000       0.05000000 </v>
   <v>      -0.15000000      -0.15000000       0.05000000 </v>
   <v>       0.15000000       0.15000000       0.15000000 </v>
   <v>       0.25000000       0.15000000       0.15000000 </v>
   <v>       0.35000000       0.15000000       0.15000000 </v>
   <v>       0.45000000       0.15000000       0.15000000 </v>
   <v>      -0.45000000       0.15000000       0.15000000 </v>
   <v>      -0.35000000       0.15000000       0.15000000 </v>
   <v>      -0.25000000       0.15000000       0.15000000 </v>
   <v>      -0.15000000       0.15000000       0.15000000 </v>
   <v>       0.25000000       0.25000000       0.15000000 </v>
   <v>       0.35000000       0.25000000       0.15000000 </v>
   <v>       0.45000000       0.25000000       0.15000000 </v>
   <v>      -0.45000000       0.25000000       0.15000000 </v>
   <v>      -0.35000000       0.25000000       0.15000000 </v>
   <v>      -0.25000000       0.25000000       0.15000000 </v>
   <v>      -0.15000000       0.25000000       0.15000000 </v>
   <v>       0.35000000       0.35000000       0.15000000 </v>
   <v>       0.45000000       0.35000000       0.15000000 </v>
   <v>      -0.45000000       0.35000000       0.15000000 </v>
   <v>      -0.35000000       0.35000000       0.15000000 </v>
   <v>      -0.25000000       0.35000000       0.15000000 </v>
   <v>      -0.15000000       0.35000000       0.15000000 </v>
   <v>       0.45000000       0.45000000       0.15000000 </v>
   <v>      -0.45000000       0.45000000       0.15000000 </v>
   <v>      -0.35000000       0.45000000       0.15000000 </v>
   <v>      -0.25000000       0.45000000       0.15000000 </v>
   <v>      -0.15000000       0.45000000       0.15000000 </v>
   <v>      -0.45000000      -0.45000000       0.15000000 </v>
   <v>      -0.35000000      -0.45000000       0.15000000 </v>
   <v>      -0.25000000      -0.45000000       0.15000000 </v>
   <v>      -0.35000000      -0.35000000       0.15000000 </v>
   <v>      -0.25000000      -0.35000000       0.15000000 </v>
   <v>      -0.25000000      -0.25000000       0.15000000 </v>
   <v>       0.25000000       0.25000000       0.25000000 </v>
   <v>       0.35000000       0.25000000       0.25000000 </v>
   <v>       0.45000000       0.25000000       0.25000000 </v>
   <v>      -0.45000000       0.25000000       0.25000000 </v>
   <v>      -0.35000000       0.25000000       0.25000000 </v>
   <v>      -0.25000000       0.25000000       0.25000000 </v>
   <v>       0.35000000       0.35000000       0.25000000 </v>
   <v>       0.45000000       0.35000000       0.25000000 </v>
   <v>      -0.45000000       0.35000000       0.25000000 </v>
   <v>      -0.35000000       0.35000000       0.25000000 </v>
   <v>      -0.25000000       0.35000000       0.25000000 </v>
   <v>       0.45000000       0.45000000       0.25000000 </v>
   <v>      -0.45000000       0.45000000       0.25000000 </v>
   <v>      -0.35000000       0.45000000       0.25000000 </v>
   <v>      -0.25000000       0.45000000       0.25000000 </v>
   <v>      -0.45000000      -0.45000000       0.25000000 </v>
   <v>      -0.35000000      -0.45000000       0.25000000 </v>
   <v>      -0.35000000      -0.35000000       0.25000000 </v>
   <v>       0.35000000       0.35000000       0.35000000 </v>
   <v>       0.45000000       0.35000000       0.35000000 </v>
   <v>      -0.45000000       0.35000000       0.35000000 </v>
   <v>      -0.35000000       0.35000000       0.35000000 </v>
   <v>       0.45000000       0.45000000       0.35000000 </v>
   <v>      -0.45000000       0.45000000       0.35000000 </v>
   <v>      -0.35000000       0.45000000       0.35000000 </v>
   <v>      -0.45000000      -0.45000000       0.35000000 </v>
   <v>       0.45000000       0.45000000       0.45000000 </v>
   <v>      -0.45000000       0.45000000       0.45000000 </v>
  </varray>
  <varray name="weights" >
   <v>       0.00200000 </v>
   <v>       0.00600000 </v>
   <v>       0.00600000 </v>
   <v>       0.00600000 </v>
   <v>       0.00600000 </v>
   <v>       0.00600000 </v>
   <v>       0.00600000 </v>
   <v>       0.00600000 </v>
   <v>       0.00600000 </v>
   <v>       0.00600000 </v>
   <v>       0.00600000 </v>
   <v>       0.01200000 </v>
   <v>       0.01200000 </v>
   <v>       0.01200000 </v>
   <v>       0.01200000 </v>
   <v>       0.01200000 </v>
   <v>       0.01200000 </v>
   <v>       0.01200000 </v>
   <v>       0.01200000 </v>
   <v>       0.00600000 </v>
   <v>       0.01200000 </v>
   <v>       0.01200000 </v>
   <v>       0.01200000 </v>
   <v>       0.01200000 </v>
   <v>       0.01200000 </v>
   <v>       0.01200000 </v>
   <v>       0.01200000 </v>
   <v>       0.00600000 </v>
   <v>       0.01200000 </v>
   <v>       0.01200000 </v>
   <v>       0.01200000 </v>
   <v>       0.01200000 </v>
   <v>       0.01200000 </v>
   <v>       0.01200000 </v>
   <v>       0.00600000 </v>
   <v>       0.01200000 </v>
   <v>       0.01200000 </v>
   <v>       0.01200000 </v>
   <v>       0.01200000 </v>
   <v>       0.01200000 </v>
   <v>       0.00600000 </v>
   <v>       0.01200000 </v>
   <v>       0.01200000 </v>
   <v>       0.01200000 </v>
   <v>       0.00600000 </v>
   <v>       0.01200000 </v>
   <v>       0.01200000 </v>
   <v>       0.00600000 </v>
   <v>       0.01200000 </v>
   <v>       0.00600000 </v>
   <v>       0.00200000 </v>
   <v>       0.00600000 </v>
   <v>       0.00600000 </v>
   <v>       0.00600000 </v>
   <v>       0.00600000 </v>
   <v>       0.00600000 </v>
   <v>       0.00600000 </v>
   <v>       0.00600000 </v>
   <v>       0.00600000 </v>
   <v>       0.01200000 </v>
   <v>       0.01200000 </v>
   <v>       0.01200000 </v>
   <v>       0.01200000 </v>
   <v>       0.01200000 </v>
   <v>       0.01200000 </v>
   <v>       0.00600000 </v>
   <v>       0.01200000 </v>
   <v>       0.01200000 </v>
   <v>       0.01200000 </v>
   <v>       0.01200000 </v>
   <v>       0.01200000 </v>
   <v>       0.00600000 </v>
   <v>       0.01200000 </v>
   <v>       0.01200000 </v>
   <v>       0.01200000 </v>
   <v>       0.01200000 </v>
   <v>       0.00600000 </v>
   <v>       0.01200000 </v>
   <v>       0.01200000 </v>
   <v>       0.00600000 </v>
   <v>       0.01200000 </v>
   <v>       0.00600000 </v>
   <v>       0.00200000 </v>
   <v>       0.00600000 </v>
   <v>       0.00600000 </v>
   <v>       0.00600000 </v>
   <v>       0.00600000 </v>
   <v>       0.00600000 </v>
   <v>       0.00600000 </v>
   <v>       0.01200000 </v>
   <v>       0.01200000 </v>
   <v>       0.01200000 </v>
   <v>       0.01200000 </v>
   <v>       0.00600000 </v>
   <v>       0.01200000 </v>
   <v>       0.01200000 </v>
   <v>       0.01200000 </v>
   <v>       0.00600000 </v>
   <v>       0.01200000 </v>
   <v>       0.00600000 </v>
   <v>       0.00200000 </v>
   <v>       0.00600000 </v>
   <v>       0.00600000 </v>
   <v>       0.00600000 </v>
   <v>       0.00600000 </v>
   <v>       0.01200000 </v>
   <v>       0.01200000 </v>
   <v>       0.00600000 </v>
   <v>       0.00200000 </v>
   <v>       0.00600000 </v>
  </varray>
 </kpoints>
 <parameters>
  <separator name="general" >
   <i type="string" name="SYSTEM">fcc Ni</i>
   <i type="logical" name="LCOMPAT"> F  </i>
  </separator>
  <separator name="electronic" >
   <i type="string" name="PREC">normal</i>
   <i name="ENMAX">    270.00000000</i>
   <i name="ENAUG">    544.56500000</i>
   <i name="EDIFF">      0.00010000</i>
   <i type="int" name="IALGO">    38</i>
   <i type="int" name="IWAVPR">    10</i>
   <i type="int" name="NBANDS">    12</i>
   <i name="NELECT">     10.00000000</i>
   <i type="int" name="TURBO">     0</i>
   <i type="int" name="IRESTART">     0</i>
   <i type="int" name="NREBOOT">     0</i>
   <i type="int" name="NMIN">     0</i>
   <i name="EREF">      0.00000000</i>
   <separator name="electronic smearing" >
    <i type="int" name="ISMEAR">     1</i>
    <i name="SIGMA">      0.20000000</i>
    <i name="KSPACING">      0.50000000</i>
    <i type="logical" name="KGAMMA"> T  </i>
   </separator>
   <separator name="electronic projectors" >
    <i type="logical" name="LREAL"> F  </i>
    <v name="ROPT">      0.00000000</v>
    <i type="int" name="LMAXPAW">  -100</i>
    <i type="int" name="LMAXMIX">     2</i>
    <i type="logical" name="NLSPLINE"> F  </i>
   </separator>
   <separator name="electronic startup" >
    <i type="int" name="ISTART">     0</i>
    <i type="int" name="ICHARG">     2</i>
    <i type="int" name="INIWAV">     1</i>
   </separator>
   <separator name="electronic spin" >
    <i type="int" name="ISPIN">     2</i>
    <i type="logical" name="LNONCOLLINEAR"> F  </i>
    <v name="MAGMOM">      3.00000000</v>
    <i name="NUPDOWN">     -1.00000000</i>
    <i type="logical" name="LSORBIT"> F  </i>
    <v name="SAXIS">      0.00000000      0.00000000      1.00000000</v>
    <i type="logical" name="LSPIRAL"> F  </i>
    <v name="QSPIRAL">      0.00000000      0.00000000      0.00000000</v>
    <i type="logical" name="LZEROZ"> F  </i>
   </separator>
   <separator name="electronic exchange-correlation" >
    <i type="logical" name="LASPH"> F  </i>
    <i type="logical" name="LMETAGGA"> F  </i>
   </separator>
   <separator name="electronic convergence" >
    <i type="int" name="NELM">    60</i>
    <i type="int" name="NELMDL">    -5</i>
    <i type="int" name="NELMIN">     2</i>
    <i name="ENINI">    270.00000000</i>
    <separator name="electronic convergence detail" >
     <i type="logical" name="LDIAG"> T  </i>
     <i type="logical" name="LSUBROT"> F  </i>
     <i name="WEIMIN">      0.00000000</i>
     <i name="EBREAK">      0.00000208</i>
     <i name="DEPER">      0.30000000</i>
     <i type="int" name="NRMM">     4</i>
     <i name="TIME">      0.40000000</i>
    </separator>
   </separator>
   <separator name="electronic mixer" >
    <i name="AMIX">      0.40000000</i>
    <i name="BMIX">      1.00000000</i>
    <i name="AMIN">      0.10000000</i>
    <i name="AMIX_MAG">      1.60000000</i>
    <i name="BMIX_MAG">      1.00000000</i>
    <separator name="electronic mixer details" >
     <i type="int" name="IMIX">     4</i>
     <i type="logical" name="MIXFIRST"> F  </i>
     <i type="int" name="MAXMIX">   -45</i>
     <i name="WC">    100.00000000</i>
     <i type="int" name="INIMIX">     1</i>
     <i type="int" name="MIXPRE">     1</i>
     <i type="int" name="MREMOVE">     5</i>
    </separator>
   </separator>
   <separator name="electronic dipolcorrection" >
    <i type="logical" name="LDIPOL"> F  </i>
    <i type="logical" name="LMONO"> F  </i>
    <i type="int" name="IDIPOL">     0</i>
    <i name="EPSILON">      1.00000000</i>
    <v name="DIPOL">   -100.00000000   -100.00000000   -100.00000000</v>
    <i name="EFIELD">      0.00000000</i>
   </separator>
  </separator>
  <separator name="grids" >
   <i type="int" name="NGX">    10</i>
   <i type="int" name="NGY">    10</i>
   <i type="int" name="NGZ">    10</i>
   <i type="int" name="NGXF">    20</i>
   <i type="int" name="NGYF">    20</i>
   <i type="int" name="NGZF">    20</i>
   <i type="logical" name="ADDGRID"> F  </i>
  </separator>
  <separator name="ionic" >
   <i type="int" name="NSW">     0</i>
   <i type="int" name="IBRION">    -1</i>
   <i type="int" name="MDALGO">     0</i>
   <i type="int" name="ISIF">     2</i>
   <i name="PSTRESS">      0.00000000</i>
   <i name="EDIFFG">      0.00100000</i>
   <i type="int" name="NFREE">     0</i>
   <i name="POTIM">      0.50000000</i>
   <i name="SMASS">     -3.00000000</i>
   <i name="SCALEE">      1.00000000</i>
  </separator>
  <separator name="ionic md" >
   <i name="TEBEG">      0.00010000</i>
   <i name="TEEND">      0.00010000</i>
   <i type="int" name="NBLOCK">     1</i>
   <i type="int" name="KBLOCK">     1</i>
   <i type="int" name="NPACO">   256</i>
   <i name="APACO">     16.00000000</i>
  </separator>
  <separator name="symmetry" >
   <i type="int" name="ISYM">     2</i>
   <i name="SYMPREC">      0.00001000</i>
  </separator>
  <separator name="dos" >
   <i type="int" name="LORBIT">     0</i>
   <v name="RWIGS">     -1.00000000</v>
   <i type="int" name="NEDOS">   301</i>
   <i name="EMIN">     10.00000000</i>
   <i name="EMAX">    -10.00000000</i>
   <i name="EFERMI">      0.00000000</i>
  </separator>
  <separator name="writing" >
   <i type="int" name="NWRITE">     2</i>
   <i type="logical" name="LWAVE"> T  </i>
   <i type="logical" name="LDOWNSAMPLE"> F  </i>
   <i type="logical" name="LCHARG"> T  </i>
   <i type="logical" name="LPARD"> F  </i>
   <i type="logical" name="LVTOT"> F  </i>
   <i type="logical" name="LVHAR"> F  </i>
   <i type="logical" name="LELF"> F  </i>
   <i type="logical" name="LOPTICS"> F  </i>
   <v name="STM">      0.00000000      0.00000000      0.00000000      0.00000000      0.00000000      0.00000000      0.00000000</v>
  </separator>
  <separator name="performance" >
   <i type="int" name="NPAR">     4</i>
   <i type="int" name="NSIM">     4</i>
   <i type="int" name="NBLK">    -1</i>
   <i type="logical" name="LPLANE"> T  </i>
   <i type="logical" name="LSCALAPACK"> T  </i>
   <i type="logical" name="LSCAAWARE"> F  </i>
   <i type="logical" name="LSCALU"> F  </i>
   <i type="logical" name="LASYNC"> F  </i>
   <i type="logical" name="LORBITALREAL"> F  </i>
  </separator>
  <separator name="miscellaneous" >
   <i type="int" name="IDIOT">     3</i>
   <i type="int" name="ISPECIAL">     0</i>
   <i type="logical" name="LMUSIC"> F  </i>
   <v name="POMASS">     58.69000000</v>
   <v name="DARWINR">      0.00000000</v>
   <v name="DARWINV">      1.00000000</v>
   <i type="logical" name="LCORR"> T  </i>
  </separator>
  <i type="logical" name="GGA_COMPAT"> T  </i>
  <i type="logical" name="LBERRY"> F  </i>
  <i type="int" name="ICORELEVEL">     0</i>
  <i type="logical" name="LDAU"> F  </i>
  <i type="int" name="I_CONSTRAINED_M">     0</i>
  <separator name="electronic exchange-correlation" >
   <i type="string" name="GGA">--</i>
   <i type="int" name="VOSKOWN">     0</i>
   <i type="logical" name="LHFCALC"> F  </i>
   <i type="string" name="PRECFOCK"></i>
   <i type="logical" name="LSYMGRAD"> F  </i>
   <i type="logical" name="LHFONE"> F  </i>
   <i type="logical" name="LRHFCALC"> F  </i>
   <i type="logical" name="LTHOMAS"> F  </i>
   <i type="logical" name="LMODELHF"> F  </i>
   <i name="ENCUT4O">     -1.00000000</i>
   <i type="int" name="EXXOEP">     0</i>
   <i type="int" name="FOURORBIT">     0</i>
   <i name="AEXX">      0.00000000</i>
   <i name="HFALPHA">      0.00000000</i>
   <i name="MCALPHA">      0.00000000</i>
   <i name="ALDAX">      1.00000000</i>
   <i name="AGGAX">      1.00000000</i>
   <i name="ALDAC">      1.00000000</i>
   <i name="AGGAC">      1.00000000</i>
   <i type="int" name="NKREDX">     1</i>
   <i type="int" name="NKREDY">     1</i>
   <i type="int" name="NKREDZ">     1</i>
   <i type="logical" name="SHIFTRED"> F  </i>
   <i type="logical" name="ODDONLY"> F  </i>
   <i type="logical" name="EVENONLY"> F  </i>
   <i type="int" name="LMAXFOCK">     0</i>
   <i type="int" name="NMAXFOCKAE">     0</i>
   <i type="logical" name="LFOCKAEDFT"> F  </i>
   <i name="HFSCREEN">      0.00000000</i>
   <i name="HFSCREENC">      0.00000000</i>
   <i type="int" name="NBANDSGWLOW">     0</i>
  </separator>
  <separator name="vdW DFT" >
   <i type="logical" name="LUSE_VDW"> F  </i>
   <i name="Zab_VDW">     -0.84910000</i>
   <i name="PARAM1">      0.12340000</i>
   <i name="PARAM2">      1.00000000</i>
   <i name="PARAM3">      0.00000000</i>
  </separator>
  <separator name="model GW" >
   <i type="int" name="MODEL_GW">     0</i>
   <i name="MODEL_EPS0">      5.63930625</i>
   <i name="MODEL_ALPHA">      1.00000000</i>
  </separator>
  <separator name="linear response parameters" >
   <i type="logical" name="LEPSILON"> F  </i>
   <i type="logical" name="LRPA"> F  </i>
   <i type="logical" name="LNABLA"> F  </i>
   <i type="logical" name="LVEL"> F  </i>
   <i type="int" name="KINTER">     0</i>
   <i name="CSHIFT">      0.10000000</i>
   <i name="OMEGAMAX">     -1.00000000</i>
   <i name="DEG_THRESHOLD">      0.00200000</i>
   <i name="RTIME">     -0.10000000</i>
   <i name="WPLASMAI">      0.00000000</i>
   <v name="DFIELD">      0.00000000      0.00000000      0.00000000</v>
   <v name="WPLASMA">      0.00000000      0.00000000      0.00000000      0.00000000      0.00000000      0.00000000      0.00000000      0.00000000      0.00000000</v>
  </separator>
  <separator name="orbital magnetization" >
   <i type="logical" name="NUCIND"> F  </i>
   <v name="MAGPOS">      0.00000000      0.00000000      0.00000000</v>
   <i type="logical" name="LNICSALL"> T  </i>
   <i type="logical" name="ORBITALMAG"> F  </i>
   <i type="logical" name="LMAGBLOCH"> F  </i>
   <i type="logical" name="LCHIMAG"> F  </i>
   <i type="logical" name="LGAUGE"> T  </i>
   <i type="int" name="MAGATOM">     0</i>
   <v name="MAGDIPOL">      0.00000000      0.00000000      0.00000000</v>
   <v name="AVECCONST">      0.00000000      0.00000000      0.00000000</v>
  </separator>
  <separator name="response functions" >
   <i type="logical" name="LADDER"> F  </i>
   <i type="logical" name="LRPAFORCE"> F  </i>
   <i type="logical" name="LFXC"> F  </i>
   <i type="logical" name="LHARTREE"> T  </i>
   <i type="int" name="IBSE">     0</i>
   <v type="int" name="KPOINT">    -1     0     0     0</v>
   <i type="logical" name="LTCTE"> F  </i>
   <i type="logical" name="LTETE"> F  </i>
   <i type="logical" name="LTRIPLET"> F  </i>
   <i type="logical" name="LFXCEPS"> F  </i>
   <i type="logical" name="LFXHEG"> F  </i>
   <i type="int" name="NATURALO">     2</i>
   <i type="logical" name="L2ORDER"> F  </i>
   <i type="logical" name="LMP2LT"> F  </i>
   <i type="logical" name="LUSEW"> F  </i>
   <i name="ENCUTGW">     -2.00000000</i>
   <i name="ENCUTGWSOFT">     -2.00000000</i>
   <i name="ENCUTLF">     -1.00000000</i>
   <i type="int" name="LMAXMP2">    -1</i>
   <i name="SCISSOR">      0.00000000</i>
   <i type="int" name="NOMEGA">     0</i>
   <i type="int" name="NOMEGAR">     0</i>
   <i type="int" name="NBANDSGW">    -1</i>
   <i type="int" name="NBANDSO">    -1</i>
   <i type="int" name="NBANDSV">    -1</i>
   <i type="int" name="NELM">     1</i>
   <i type="int" name="NELMHF">     1</i>
   <i type="int" name="DIM">     3</i>
   <i type="int" name="ANTIRES">     0</i>
   <i name="OMEGAMAX">    -30.00000000</i>
   <i name="OMEGAMIN">    -30.00000000</i>
   <i name="OMEGATL">   -200.00000000</i>
   <i type="int" name="OMEGAGRID">   140</i>
   <i name="CSHIFT">     -0.10000000</i>
   <i type="logical" name="SELFENERGY"> F  </i>
   <i type="logical" name="LSPECTRAL"> F  </i>
   <i type="logical" name="LSPECTRALGW"> F  </i>
   <i type="logical" name="LSINGLES"> F  </i>
   <i type="logical" name="LFERMIGW"> F  </i>
   <i type="logical" name="ODDONLYGW"> F  </i>
   <i type="logical" name="EVENONLYGW"> F  </i>
   <i type="int" name="NKREDLFX">     1</i>
   <i type="int" name="NKREDLFY">     1</i>
   <i type="int" name="NKREDLFZ">     1</i>
   <i type="int" name="MAXMEM">  2800</i>
   <i type="int" name="TELESCOPE">     0</i>
   <i type="int" name="TAUPAR">     1</i>
   <i type="int" name="OMEGAPAR">    -1</i>
   <i name="LAMBDA">      1.00000000</i>
  </separator>
  <separator name="External order field" >
   <i name="OFIELD_KAPPA">      0.00000000</i>
   <v name="OFIELD_K">      0.00000000      0.00000000      0.00000000</v>
   <i name="OFIELD_Q6_NEAR">      0.00000000</i>
   <i name="OFIELD_Q6_FAR">      0.00000000</i>
   <i name="OFIELD_A">      0.00000000</i>
  </separator>
 </parameters>
 <atominfo>
  <atoms>       1 </atoms>
  <types>       1 </types>
  <array name="atoms" >
   <dimension dim="1">ion</dimension>
   <field type="string">element</field>
   <field type="int">atomtype</field>
   <set>
    <rc><c>Ni</c><c>   1</c></rc>
   </set>
  </array>
  <array name="atomtypes" >
   <dimension dim="1">type</dimension>
   <field type="int">atomspertype</field>
   <field type="string">element</field>
   <field>mass</field>
   <field>valence</field>
   <field type="string">pseudopotential</field>
   <set>
    <rc><c>   1</c><c>Ni</c><c>     58.69000000</c><c>     10.00000000</c><c>  PAW_PBE Ni 02Aug2007                  </c></rc>
   </set>
  </array>
 </atominfo>
 <structure name="initialpos" >
  <crystal>
   <varray name="basis" >
    <v>       0.00000000       1.67500000       1.67500000 </v>
    <v>       1.67500000       0.00000000       1.67500000 </v>
    <v>       1.67500000       1.67500000       0.00000000 </v>
   </varray>
   <i name="volume">      9.39884375 </i>
   <varray name="rec_basis" >
    <v>      -0.29850746       0.29850746       0.29850746 </v>
    <v>       0.29850746      -0.29850746       0.29850746 </v>
    <v>       0.29850746       0.29850746      -0.29850746 </v>
   </varray>
  </crystal>
  <varray name="positions" >
   <v>       0.00000000       0.00000000       0.00000000 </v>
  </varray>
 </structure>
 <calculation>
  <scstep>
   <time name="dav">    0.32    0.33</time>
   <time name="total">    0.33    0.34</time>
   <energy>
    <i name="alphaZ">     54.26135635 </i>
    <i name="ewald">   -985.38862757 </i>
    <i name="hartreedc">   -223.33370506 </i>
    <i name="XCdc">     33.22540774 </i>
    <i name="pawpsdc">    961.92645289 </i>
    <i name="pawaedc">  -1028.66799202 </i>
    <i name="eentropy">      0.00091477 </i>
    <i name="bandstr">    128.81716084 </i>
    <i name="atom">   1077.63607467 </i>
    <i name="e_fr_energy">     18.47704260 </i>
    <i name="e_wo_entrp">     18.47612783 </i>
    <i name="e_0_energy">     18.47673768 </i>
   </energy>
  </scstep>
  <scstep>
   <time name="dav">    0.31    0.32</time>
   <time name="total">    0.32    0.32</time>
   <energy>
    <i name="e_fr_energy">     -5.16302230 </i>
    <i name="e_wo_entrp">     -5.16208164 </i>
    <i name="e_0_energy">     -5.16270874 </i>
   </energy>
  </scstep>
  <scstep>
   <time name="dav">    0.32    0.32</time>
   <time name="total">    0.32    0.32</time>
   <energy>
    <i name="e_fr_energy">     -5.56440707 </i>
    <i name="e_wo_entrp">     -5.56330679 </i>
    <i name="e_0_energy">     -5.56404031 </i>
   </energy>
  </scstep>
  <scstep>
   <time name="dav">    0.32    0.33</time>
   <time name="total">    0.32    0.33</time>
   <energy>
    <i name="e_fr_energy">     -5.56637778 </i>
    <i name="e_wo_entrp">     -5.56527855 </i>
    <i name="e_0_energy">     -5.56601137 </i>
   </energy>
  </scstep>
  <scstep>
   <time name="dav">    0.31    0.32</time>
   <time name="total">    0.32    0.33</time>
   <energy>
    <i name="e_fr_energy">     -5.56639965 </i>
    <i name="e_wo_entrp">     -5.56530045 </i>
    <i name="e_0_energy">     -5.56603325 </i>
   </energy>
  </scstep>
  <scstep>
   <time name="dav">    0.35    0.36</time>
   <time name="total">    0.36    0.37</time>
   <energy>
    <i name="e_fr_energy">     -5.52414950 </i>
    <i name="e_wo_entrp">     -5.51971190 </i>
    <i name="e_0_energy">     -5.52267030 </i>
   </energy>
  </scstep>
  <scstep>
   <time name="dav">    0.34    0.35</time>
   <time name="total">    0.36    0.36</time>
   <energy>
    <i name="e_fr_energy">     -5.32183883 </i>
    <i name="e_wo_entrp">     -5.32048746 </i>
    <i name="e_0_energy">     -5.32138838 </i>
   </energy>
  </scstep>
  <scstep>
   <time name="dav">    0.32    0.33</time>
   <time name="total">    0.33    0.34</time>
   <energy>
    <i name="e_fr_energy">     -5.30541719 </i>
    <i name="e_wo_entrp">     -5.30410801 </i>
    <i name="e_0_energy">     -5.30498080 </i>
   </energy>
  </scstep>
  <scstep>
   <time name="dav">    0.35    0.36</time>
   <time name="total">    0.37    0.37</time>
   <energy>
    <i name="e_fr_energy">     -5.30169416 </i>
    <i name="e_wo_entrp">     -5.29989154 </i>
    <i name="e_0_energy">     -5.30109329 </i>
   </energy>
  </scstep>
  <scstep>
   <time name="dav">    0.25    0.25</time>
   <time name="total">    0.26    0.27</time>
   <energy>
    <i name="e_fr_energy">     -5.30155721 </i>
    <i name="e_wo_entrp">     -5.29983046 </i>
    <i name="e_0_energy">     -5.30098162 </i>
   </energy>
  </scstep>
  <scstep>
   <time name="dav">    0.22    0.23</time>
   <time name="total">    0.23    0.24</time>
   <energy>
    <i name="alphaZ">     54.26135635 </i>
    <i name="ewald">   -985.38862757 </i>
    <i name="hartreedc">   -202.05364700 </i>
    <i name="XCdc">     31.13372474 </i>
    <i name="pawpsdc">   1235.51761760 </i>
    <i name="pawaedc">  -1305.14344221 </i>
    <i name="eentropy">     -0.00166167 </i>
    <i name="bandstr">     88.73703790 </i>
    <i name="atom">   1077.63607467 </i>
    <i name="e_fr_energy">     -5.30156719 </i>
    <i name="e_wo_entrp">     -5.29990552 </i>
    <i name="e_0_energy">     -5.30101330 </i>
   </energy>
  </scstep>
  <structure>
   <crystal>
    <varray name="basis" >
     <v>       0.00000000       1.67500000       1.67500000 </v>
     <v>       1.67500000       0.00000000       1.67500000 </v>
     <v>       1.67500000       1.67500000       0.00000000 </v>
    </varray>
    <i name="volume">      9.39884375 </i>
    <varray name="rec_basis" >
     <v>      -0.29850746       0.29850746       0.29850746 </v>
     <v>       0.29850746      -0.29850746       0.29850746 </v>
     <v>       0.29850746       0.29850746      -0.29850746 </v>
    </varray>
   </crystal>
   <varray name="positions" >
    <v>       0.00000000       0.00000000       0.00000000 </v>
   </varray>
  </structure>
  <varray name="forces" >
   <v>       0.00000000       0.00000000       0.00000000 </v>
  </varray>
  <varray name="stress" >
   <v>     356.84149859      -0.00000000       0.00000000 </v>
   <v>       0.00000000     356.84149859       0.00000000 </v>
   <v>       0.00000000       0.00000000     356.84149859 </v>
  </varray>
  <energy>
   <i name="e_fr_energy">     -5.30156719 </i>
   <i name="e_wo_entrp">     -5.30101330 </i>
   <i name="e_0_energy">     -0.00166167 </i>
  </energy>
  <time name="totalsc">    3.67    3.75</time>
  <eigenvalues>
   <array>
    <dimension dim="1">band</dimension>
    <dimension dim="2">kpoint</dimension>
    <dimension dim="3">spin</dimension>
    <field>eigene</field>
    <field>occ</field>
    <set>
     <set comment="spin 1">
      <set comment="kpoint 1">
       <r>    1.6468    1.0000 </r>
       <r>    8.7505    1.0000 </r>
       <r>    8.8106    1.0000 </r>
       <r>    8.8106    1.0000 </r>
       <r>   10.1963    1.0000 </r>
       <r>   10.1963    1.0000 </r>
       <r>   36.3968    0.0000 </r>
       <r>   40.1863    0.0000 </r>
       <r>   41.4445    0.0000 </r>
       <r>   41.4445    0.0000 </r>
       <r>   45.6816    0.0000 </r>
       <r>   45.6816    0.0000 </r>
      </set>
      <set comment="kpoint 2">
       <r>    2.2184    1.0000 </r>
       <r>    8.5818    1.0000 </r>
       <r>    8.9349    1.0000 </r>
       <r>    8.9538    1.0000 </r>
       <r>   10.0666    1.0000 </r>
       <r>   10.2305    1.0000 </r>
       <r>   34.6797    0.0000 </r>
       <r>   37.2326    0.0000 </r>
       <r>   40.0906    0.0000 </r>
       <r>   42.2072    0.0000 </r>
       <r>   44.9459    0.0000 </r>
       <r>   45.8319    0.0000 </r>
      </set>
      <set comment="kpoint 3">
       <r>    3.5328    1.0000 </r>
       <r>    8.3457    1.0000 </r>
       <r>    9.0618    1.0000 </r>
       <r>    9.0991    1.0000 </r>
       <r>   10.0493    1.0000 </r>
       <r>   10.3779    1.0000 </r>
       <r>   29.5177    0.0000 </r>
       <r>   36.0080    0.0000 </r>
       <r>   39.4387    0.0000 </r>
       <r>   41.8594    0.0000 </r>
       <r>   44.5168    0.0000 </r>
       <r>   45.1991    0.0000 </r>
      </set>
      <set comment="kpoint 4">
       <r>    5.0942    1.0000 </r>
       <r>    8.5374    1.0000 </r>
       <r>    8.9491    1.0000 </r>
       <r>    9.0093    1.0000 </r>
       <r>   10.4064    1.0000 </r>
       <r>   10.7956    1.0000 </r>
       <r>   24.3359    0.0000 </r>
       <r>   35.2060    0.0000 </r>
       <r>   38.3176    0.0000 </r>
       <r>   41.2139    0.0000 </r>
       <r>   42.7002    0.0000 </r>
       <r>   44.5772    0.0000 </r>
      </set>
      <set comment="kpoint 5">
       <r>    5.8720    1.0000 </r>
       <r>    8.7813    1.0000 </r>
       <r>    8.8575    1.0000 </r>
       <r>    9.7511    1.0000 </r>
       <r>   10.8518    1.0000 </r>
       <r>   11.4018    1.0280 </r>
       <r>   20.0679    0.0000 </r>
       <r>   34.7001    0.0000 </r>
       <r>   37.7171    0.0000 </r>
       <r>   39.4403    0.0000 </r>
       <r>   42.2916    0.0000 </r>
       <r>   43.7866    0.0000 </r>
      </set>
      <set comment="kpoint 6">
       <r>    5.9745    1.0000 </r>
       <r>    8.7191    1.0000 </r>
       <r>    8.8207    1.0000 </r>
       <r>   10.2651    1.0000 </r>
       <r>   11.0623    1.0004 </r>
       <r>   11.8674   -0.0347 </r>
       <r>   18.5108    0.0000 </r>
       <r>   34.6544    0.0000 </r>
       <r>   38.0254    0.0000 </r>
       <r>   38.1109    0.0000 </r>
       <r>   43.0266    0.0000 </r>
       <r>   43.0603    0.0000 </r>
      </set>
      <set comment="kpoint 7">
       <r>    5.7255    1.0000 </r>
       <r>    8.8114    1.0000 </r>
       <r>    8.9181    1.0000 </r>
       <r>    9.2621    1.0000 </r>
       <r>   10.9186    1.0000 </r>
       <r>   10.9980    1.0001 </r>
       <r>   21.3311    0.0000 </r>
       <r>   35.1575    0.0000 </r>
       <r>   37.4866    0.0000 </r>
       <r>   39.4974    0.0000 </r>
       <r>   42.7764    0.0000 </r>
       <r>   44.3532    0.0000 </r>
      </set>
      <set comment="kpoint 8">
       <r>    4.6078    1.0000 </r>
       <r>    8.3596    1.0000 </r>
       <r>    9.0000    1.0000 </r>
       <r>    9.0670    1.0000 </r>
       <r>   10.3444    1.0000 </r>
       <r>   10.5576    1.0000 </r>
       <r>   25.9937    0.0000 </r>
       <r>   36.0710    0.0000 </r>
       <r>   37.7165    0.0000 </r>
       <r>   41.4596    0.0000 </r>
       <r>   42.9909    0.0000 </r>
       <r>   46.3004    0.0000 </r>
      </set>
      <set comment="kpoint 9">
       <r>    3.0295    1.0000 </r>
       <r>    8.3990    1.0000 </r>
       <r>    9.0581    1.0000 </r>
       <r>    9.0701    1.0000 </r>
       <r>   10.0241    1.0000 </r>
       <r>   10.2895    1.0000 </r>
       <r>   31.3177    0.0000 </r>
       <r>   37.0356    0.0000 </r>
       <r>   38.5235    0.0000 </r>
       <r>   42.2315    0.0000 </r>
       <r>   43.9565    0.0000 </r>
       <r>   47.9039    0.0000 </r>
      </set>
      <set comment="kpoint 10">
       <r>    1.9355    1.0000 </r>
       <r>    8.6434    1.0000 </r>
       <r>    8.8920    1.0000 </r>
       <r>    8.8956    1.0000 </r>
       <r>   10.0894    1.0000 </r>
       <r>   10.2414    1.0000 </r>
       <r>   35.8251    0.0000 </r>
       <r>   38.6472    0.0000 </r>
       <r>   39.8373    0.0000 </r>
       <r>   41.2755    0.0000 </r>
       <r>   45.6872    0.0000 </r>
       <r>   47.1014    0.0000 </r>
      </set>
      <set comment="kpoint 11">
       <r>    2.4975    1.0000 </r>
       <r>    8.4295    1.0000 </r>
       <r>    9.0629    1.0000 </r>
       <r>    9.0666    1.0000 </r>
       <r>    9.9035    1.0000 </r>
       <r>   10.3273    1.0000 </r>
       <r>   34.8901    0.0000 </r>
       <r>   37.1542    0.0000 </r>
       <r>   37.8874    0.0000 </r>
       <r>   39.7585    0.0000 </r>
       <r>   46.6808    0.0000 </r>
       <r>   48.0310    0.0000 </r>
      </set>
      <set comment="kpoint 12">
       <r>    3.5491    1.0000 </r>
       <r>    8.1477    1.0000 </r>
       <r>    9.1517    1.0000 </r>
       <r>    9.3077    1.0000 </r>
       <r>    9.8352    1.0000 </r>
       <r>   10.4864    1.0000 </r>
       <r>   31.7235    0.0000 </r>
       <r>   34.0630    0.0000 </r>
       <r>   37.9174    0.0000 </r>
       <r>   39.4662    0.0000 </r>
       <r>   45.0505    0.0000 </r>
       <r>   47.5236    0.0000 </r>
      </set>
      <set comment="kpoint 13">
       <r>    5.0585    1.0000 </r>
       <r>    8.0195    1.0000 </r>
       <r>    8.8854    1.0000 </r>
       <r>    9.3358    1.0000 </r>
       <r>   10.3411    1.0000 </r>
       <r>   10.9279    1.0000 </r>
       <r>   26.3907    0.0000 </r>
       <r>   33.1606    0.0000 </r>
       <r>   36.3215    0.0000 </r>
       <r>   39.2664    0.0000 </r>
       <r>   46.0313    0.0000 </r>
       <r>   46.1569    0.0000 </r>
      </set>
      <set comment="kpoint 14">
       <r>    6.1120    1.0000 </r>
       <r>    8.4154    1.0000 </r>
       <r>    8.7332    1.0000 </r>
       <r>    9.1954    1.0000 </r>
       <r>   10.8946    1.0000 </r>
       <r>   11.9679   -0.0144 </r>
       <r>   21.6469    0.0000 </r>
       <r>   32.7532    0.0000 </r>
       <r>   34.8348    0.0000 </r>
       <r>   38.2049    0.0000 </r>
       <r>   45.0188    0.0000 </r>
       <r>   47.5145    0.0000 </r>
      </set>
      <set comment="kpoint 15">
       <r>    6.3364    1.0000 </r>
       <r>    8.4000    1.0000 </r>
       <r>    9.0830    1.0000 </r>
       <r>    9.2886    1.0000 </r>
       <r>   11.0229    1.0001 </r>
       <r>   13.4471   -0.0000 </r>
       <r>   18.6156    0.0000 </r>
       <r>   32.2640    0.0000 </r>
       <r>   34.5023    0.0000 </r>
       <r>   37.8593    0.0000 </r>
       <r>   44.3645    0.0000 </r>
       <r>   47.1134    0.0000 </r>
      </set>
      <set comment="kpoint 16">
       <r>    6.2596    1.0000 </r>
       <r>    8.4954    1.0000 </r>
       <r>    8.9505    1.0000 </r>
       <r>    9.1337    1.0000 </r>
       <r>   10.7817    1.0000 </r>
       <r>   12.6171   -0.0000 </r>
       <r>   20.3383    0.0000 </r>
       <r>   31.7034    0.0000 </r>
       <r>   35.5435    0.0000 </r>
       <r>   38.7049    0.0000 </r>
       <r>   43.9677    0.0000 </r>
       <r>   46.7788    0.0000 </r>
      </set>
      <set comment="kpoint 17">
       <r>    5.5417    1.0000 </r>
       <r>    8.1805    1.0000 </r>
       <r>    8.7732    1.0000 </r>
       <r>    9.2708    1.0000 </r>
       <r>   10.2562    1.0000 </r>
       <r>   11.3966    1.0301 </r>
       <r>   24.7275    0.0000 </r>
       <r>   31.6722    0.0000 </r>
       <r>   37.3129    0.0000 </r>
       <r>   40.5614    0.0000 </r>
       <r>   43.7672    0.0000 </r>
       <r>   46.0332    0.0000 </r>
      </set>
      <set comment="kpoint 18">
       <r>    4.0365    1.0000 </r>
       <r>    8.1400    1.0000 </r>
       <r>    9.0373    1.0000 </r>
       <r>    9.3411    1.0000 </r>
       <r>    9.8293    1.0000 </r>
       <r>   10.6869    1.0000 </r>
       <r>   29.9118    0.0000 </r>
       <r>   32.3009    0.0000 </r>
       <r>   39.5464    0.0000 </r>
       <r>   41.1566    0.0000 </r>
       <r>   44.6866    0.0000 </r>
       <r>   45.7704    0.0000 </r>
      </set>
      <set comment="kpoint 19">
       <r>    2.7688    1.0000 </r>
       <r>    8.4076    1.0000 </r>
       <r>    9.0601    1.0000 </r>
       <r>    9.0800    1.0000 </r>
       <r>    9.9325    1.0000 </r>
       <r>   10.3265    1.0000 </r>
       <r>   33.2194    0.0000 </r>
       <r>   35.6317    0.0000 </r>
       <r>   39.3392    0.0000 </r>
       <r>   41.5424    0.0000 </r>
       <r>   45.0077    0.0000 </r>
       <r>   46.9341    0.0000 </r>
      </set>
      <set comment="kpoint 20">
       <r>    4.2501    1.0000 </r>
       <r>    7.8077    1.0000 </r>
       <r>    9.3284    1.0000 </r>
       <r>    9.6182    1.0000 </r>
       <r>    9.8115    1.0000 </r>
       <r>   10.5860    1.0000 </r>
       <r>   32.2262    0.0000 </r>
       <r>   33.9143    0.0000 </r>
       <r>   34.5484    0.0000 </r>
       <r>   35.9540    0.0000 </r>
       <r>   41.9641    0.0000 </r>
       <r>   51.6432    0.0000 </r>
      </set>
      <set comment="kpoint 21">
       <r>    5.3955    1.0000 </r>
       <r>    7.5282    1.0000 </r>
       <r>    9.0552    1.0000 </r>
       <r>    9.9204    1.0000 </r>
       <r>   10.3837    1.0000 </r>
       <r>   10.9518    1.0000 </r>
       <r>   28.9194    0.0000 </r>
       <r>   31.0306    0.0000 </r>
       <r>   33.0174    0.0000 </r>
       <r>   36.6874    0.0000 </r>
       <r>   41.7816    0.0000 </r>
       <r>   51.2228    0.0000 </r>
      </set>
      <set comment="kpoint 22">
       <r>    6.4168    1.0000 </r>
       <r>    7.5216    1.0000 </r>
       <r>    8.7429    1.0000 </r>
       <r>    9.8301    1.0000 </r>
       <r>   10.9659    1.0000 </r>
       <r>   12.3784   -0.0000 </r>
       <r>   23.9341    0.0000 </r>
       <r>   30.0193    0.0000 </r>
       <r>   31.2659    0.0000 </r>
       <r>   36.9352    0.0000 </r>
       <r>   45.0826    0.0000 </r>
       <r>   49.7673    0.0000 </r>
      </set>
      <set comment="kpoint 23">
       <r>    6.8484    1.0000 </r>
       <r>    7.7181    1.0000 </r>
       <r>    8.6897    1.0000 </r>
       <r>    9.6672    1.0000 </r>
       <r>   11.0424    1.0002 </r>
       <r>   14.8401   -0.0000 </r>
       <r>   19.7798    0.0000 </r>
       <r>   28.3564    0.0000 </r>
       <r>   31.5787    0.0000 </r>
       <r>   36.9874    0.0000 </r>
       <r>   47.5271    0.0000 </r>
       <r>   50.7919    0.0000 </r>
      </set>
      <set comment="kpoint 24">
       <r>    7.0015    1.0000 </r>
       <r>    7.8914    1.0000 </r>
       <r>    8.5345    1.0000 </r>
       <r>    9.5915    1.0000 </r>
       <r>   10.7398    1.0000 </r>
       <r>   15.0119   -0.0000 </r>
       <r>   19.7968    0.0000 </r>
       <r>   27.1431    0.0000 </r>
       <r>   32.9971    0.0000 </r>
       <r>   37.7046    0.0000 </r>
       <r>   46.6030    0.0000 </r>
       <r>   50.6655    0.0000 </r>
      </set>
      <set comment="kpoint 25">
       <r>    6.7130    1.0000 </r>
       <r>    7.9821    1.0000 </r>
       <r>    8.2943    1.0000 </r>
       <r>    9.6618    1.0000 </r>
       <r>   10.1981    1.0000 </r>
       <r>   12.9100   -0.0000 </r>
       <r>   23.9361    0.0000 </r>
       <r>   26.7510    0.0000 </r>
       <r>   35.0670    0.0000 </r>
       <r>   39.3814    0.0000 </r>
       <r>   45.0128    0.0000 </r>
       <r>   49.4821    0.0000 </r>
      </set>
      <set comment="kpoint 26">
       <r>    5.4971    1.0000 </r>
       <r>    7.9622    1.0000 </r>
       <r>    8.7414    1.0000 </r>
       <r>    9.5589    1.0000 </r>
       <r>    9.8972    1.0000 </r>
       <r>   11.4965    0.9000 </r>
       <r>   26.7722    0.0000 </r>
       <r>   29.2712    0.0000 </r>
       <r>   37.4467    0.0000 </r>
       <r>   41.5397    0.0000 </r>
       <r>   43.0574    0.0000 </r>
       <r>   47.4290    0.0000 </r>
      </set>
      <set comment="kpoint 27">
       <r>    4.2363    1.0000 </r>
       <r>    8.2148    1.0000 </r>
       <r>    9.0290    1.0000 </r>
       <r>    9.1835    1.0000 </r>
       <r>   10.0811    1.0000 </r>
       <r>   10.6168    1.0000 </r>
       <r>   27.8675    0.0000 </r>
       <r>   34.5759    0.0000 </r>
       <r>   38.2968    0.0000 </r>
       <r>   41.7930    0.0000 </r>
       <r>   43.7041    0.0000 </r>
       <r>   45.7761    0.0000 </r>
      </set>
      <set comment="kpoint 28">
       <r>    5.8324    1.0000 </r>
       <r>    7.1579    1.0000 </r>
       <r>    9.7978    1.0000 </r>
       <r>   10.3397    1.0000 </r>
       <r>   10.7692    1.0000 </r>
       <r>   10.8837    1.0000 </r>
       <r>   29.1023    0.0000 </r>
       <r>   29.8754    0.0000 </r>
       <r>   30.6169    0.0000 </r>
       <r>   34.5058    0.0000 </r>
       <r>   39.3016    0.0000 </r>
       <r>   56.3091    0.0000 </r>
      </set>
      <set comment="kpoint 29">
       <r>    6.2412    1.0000 </r>
       <r>    6.9924    1.0000 </r>
       <r>    9.7398    1.0000 </r>
       <r>   10.6029    1.0000 </r>
       <r>   10.9799    1.0000 </r>
       <r>   12.5137   -0.0000 </r>
       <r>   26.3868    0.0000 </r>
       <r>   27.1836    0.0000 </r>
       <r>   28.9439    0.0000 </r>
       <r>   35.6059    0.0000 </r>
       <r>   40.2866    0.0000 </r>
       <r>   54.5930    0.0000 </r>
      </set>
      <set comment="kpoint 30">
       <r>    6.6431    1.0000 </r>
       <r>    7.1076    1.0000 </r>
       <r>    9.2874    1.0000 </r>
       <r>   10.3826    1.0000 </r>
       <r>   11.1003    1.0010 </r>
       <r>   15.3654   -0.0000 </r>
       <r>   22.2375    0.0000 </r>
       <r>   24.8812    0.0000 </r>
       <r>   29.2367    0.0000 </r>
       <r>   36.1858    0.0000 </r>
       <r>   44.3566    0.0000 </r>
       <r>   52.5327    0.0000 </r>
      </set>
      <set comment="kpoint 31">
       <r>    7.1120    1.0000 </r>
       <r>    7.3754    1.0000 </r>
       <r>    8.7066    1.0000 </r>
       <r>   10.1399    1.0000 </r>
       <r>   10.8489    1.0000 </r>
       <r>   17.9816    0.0000 </r>
       <r>   19.1698    0.0000 </r>
       <r>   23.7020    0.0000 </r>
       <r>   30.6241    0.0000 </r>
       <r>   36.6990    0.0000 </r>
       <r>   49.6897    0.0000 </r>
       <r>   50.5224    0.0000 </r>
      </set>
      <set comment="kpoint 32">
       <r>    7.2947    1.0000 </r>
       <r>    7.7631    1.0000 </r>
       <r>    8.2329    1.0000 </r>
       <r>    9.8324    1.0000 </r>
       <r>   10.5428    1.0000 </r>
       <r>   15.1458   -0.0000 </r>
       <r>   21.3702    0.0000 </r>
       <r>   24.8832    0.0000 </r>
       <r>   32.7675    0.0000 </r>
       <r>   37.7226    0.0000 </r>
       <r>   47.5227    0.0000 </r>
       <r>   51.8282    0.0000 </r>
      </set>
      <set comment="kpoint 33">
       <r>    6.5013    1.0000 </r>
       <r>    8.2977    1.0000 </r>
       <r>    8.4416    1.0000 </r>
       <r>    9.3850    1.0000 </r>
       <r>   10.4930    1.0000 </r>
       <r>   12.8215   -0.0000 </r>
       <r>   22.0101    0.0000 </r>
       <r>   29.1460    0.0000 </r>
       <r>   35.2083    0.0000 </r>
       <r>   39.1168    0.0000 </r>
       <r>   44.5739    0.0000 </r>
       <r>   48.1996    0.0000 </r>
      </set>
      <set comment="kpoint 34">
       <r>    5.6190    1.0000 </r>
       <r>    8.6232    1.0000 </r>
       <r>    8.8114    1.0000 </r>
       <r>    9.0550    1.0000 </r>
       <r>   10.6107    1.0000 </r>
       <r>   11.2038    1.0075 </r>
       <r>   22.8906    0.0000 </r>
       <r>   34.0087    0.0000 </r>
       <r>   37.0740    0.0000 </r>
       <r>   39.8261    0.0000 </r>
       <r>   43.4962    0.0000 </r>
       <r>   45.4409    0.0000 </r>
      </set>
      <set comment="kpoint 35">
       <r>    6.0720    1.0000 </r>
       <r>    6.7147    1.0000 </r>
       <r>   10.8229    1.0000 </r>
       <r>   10.9289    1.0000 </r>
       <r>   11.1293    1.0018 </r>
       <r>   13.0998   -0.0000 </r>
       <r>   24.1313    0.0000 </r>
       <r>   27.6547    0.0000 </r>
       <r>   28.5026    0.0000 </r>
       <r>   34.0397    0.0000 </r>
       <r>   38.4434    0.0000 </r>
       <r>   58.6869    0.0000 </r>
      </set>
      <set comment="kpoint 36">
       <r>    6.1941    1.0000 </r>
       <r>    6.7274    1.0000 </r>
       <r>   10.4216    1.0000 </r>
       <r>   10.9106    1.0000 </r>
       <r>   11.2045    1.0076 </r>
       <r>   15.0698   -0.0000 </r>
       <r>   22.5275    0.0000 </r>
       <r>   25.7269    0.0000 </r>
       <r>   27.6905    0.0000 </r>
       <r>   35.1909    0.0000 </r>
       <r>   39.8377    0.0000 </r>
       <r>   56.7903    0.0000 </r>
      </set>
      <set comment="kpoint 37">
       <r>    6.6012    1.0000 </r>
       <r>    7.0256    1.0000 </r>
       <r>    9.4822    1.0000 </r>
       <r>   10.5465    1.0000 </r>
       <r>   11.0789    1.0006 </r>
       <r>   16.7933   -0.0000 </r>
       <r>   21.6166    0.0000 </r>
       <r>   23.2303    0.0000 </r>
       <r>   28.8629    0.0000 </r>
       <r>   36.0544    0.0000 </r>
       <r>   44.2294    0.0000 </r>
       <r>   53.4779    0.0000 </r>
      </set>
      <set comment="kpoint 38">
       <r>    7.0471    1.0000 </r>
       <r>    7.4747    1.0000 </r>
       <r>    8.6952    1.0000 </r>
       <r>    9.9368    1.0000 </r>
       <r>   10.9584    1.0000 </r>
       <r>   16.6175   -0.0000 </r>
       <r>   19.2368    0.0000 </r>
       <r>   25.7279    0.0000 </r>
       <r>   30.9403    0.0000 </r>
       <r>   36.7874    0.0000 </r>
       <r>   48.7717    0.0000 </r>
       <r>   50.6544    0.0000 </r>
      </set>
      <set comment="kpoint 39">
       <r>    6.6545    1.0000 </r>
       <r>    8.1275    1.0000 </r>
       <r>    8.9060    1.0000 </r>
       <r>    9.3174    1.0000 </r>
       <r>   10.9272    1.0000 </r>
       <r>   14.4900   -0.0000 </r>
       <r>   18.7503    0.0000 </r>
       <r>   29.7868    0.0000 </r>
       <r>   33.5117    0.0000 </r>
       <r>   37.7250    0.0000 </r>
       <r>   45.4609    0.0000 </r>
       <r>   49.0602    0.0000 </r>
      </set>
      <set comment="kpoint 40">
       <r>    6.0734    1.0000 </r>
       <r>    8.6340    1.0000 </r>
       <r>    8.9230    1.0000 </r>
       <r>    9.6431    1.0000 </r>
       <r>   10.9895    1.0001 </r>
       <r>   12.2649   -0.0000 </r>
       <r>   19.1342    0.0000 </r>
       <r>   33.8041    0.0000 </r>
       <r>   36.3715    0.0000 </r>
       <r>   38.3119    0.0000 </r>
       <r>   43.3731    0.0000 </r>
       <r>   44.9970    0.0000 </r>
      </set>
      <set comment="kpoint 41">
       <r>    6.0379    1.0000 </r>
       <r>    6.6197    1.0000 </r>
       <r>   11.0248    1.0001 </r>
       <r>   11.0454    1.0003 </r>
       <r>   11.2149    1.0089 </r>
       <r>   14.2475   -0.0000 </r>
       <r>   22.4910    0.0000 </r>
       <r>   27.2216    0.0000 </r>
       <r>   28.0472    0.0000 </r>
       <r>   33.9855    0.0000 </r>
       <r>   38.3275    0.0000 </r>
       <r>   58.9818    0.0000 </r>
      </set>
      <set comment="kpoint 42">
       <r>    6.2355    1.0000 </r>
       <r>    6.8184    1.0000 </r>
       <r>   10.1691    1.0000 </r>
       <r>   10.8320    1.0000 </r>
       <r>   11.1126    1.0013 </r>
       <r>   13.8938   -0.0000 </r>
       <r>   24.2082    0.0000 </r>
       <r>   26.1445    0.0000 </r>
       <r>   28.1112    0.0000 </r>
       <r>   35.3472    0.0000 </r>
       <r>   39.9722    0.0000 </r>
       <r>   55.9528    0.0000 </r>
      </set>
      <set comment="kpoint 43">
       <r>    6.6383    1.0000 </r>
       <r>    7.2788    1.0000 </r>
       <r>    8.9858    1.0000 </r>
       <r>   10.1226    1.0000 </r>
       <r>   11.0788    1.0006 </r>
       <r>   13.7417   -0.0000 </r>
       <r>   22.9868    0.0000 </r>
       <r>   27.4079    0.0000 </r>
       <r>   29.9845    0.0000 </r>
       <r>   36.4659    0.0000 </r>
       <r>   44.6384    0.0000 </r>
       <r>   51.1895    0.0000 </r>
      </set>
      <set comment="kpoint 44">
       <r>    6.5293    1.0000 </r>
       <r>    8.0566    1.0000 </r>
       <r>    8.7053    1.0000 </r>
       <r>    9.4073    1.0000 </r>
       <r>   11.0340    1.0002 </r>
       <r>   13.2248   -0.0000 </r>
       <r>   20.6012    0.0000 </r>
       <r>   30.9713    0.0000 </r>
       <r>   32.6931    0.0000 </r>
       <r>   37.3983    0.0000 </r>
       <r>   46.2739    0.0000 </r>
       <r>   49.8015    0.0000 </r>
      </set>
      <set comment="kpoint 45">
       <r>    6.0644    1.0000 </r>
       <r>    6.8992    1.0000 </r>
       <r>   10.4091    1.0000 </r>
       <r>   10.6785    1.0000 </r>
       <r>   11.0150    1.0001 </r>
       <r>   11.7281    0.0797 </r>
       <r>   26.5725    0.0000 </r>
       <r>   28.4949    0.0000 </r>
       <r>   29.3774    0.0000 </r>
       <r>   34.2270    0.0000 </r>
       <r>   38.7342    0.0000 </r>
       <r>   57.8780    0.0000 </r>
      </set>
      <set comment="kpoint 46">
       <r>    6.0237    1.0000 </r>
       <r>    7.2363    1.0000 </r>
       <r>    9.2779    1.0000 </r>
       <r>   10.2730    1.0000 </r>
       <r>   10.7670    1.0000 </r>
       <r>   11.4810    0.9350 </r>
       <r>   27.6844    0.0000 </r>
       <r>   29.3908    0.0000 </r>
       <r>   30.4046    0.0000 </r>
       <r>   36.0440    0.0000 </r>
       <r>   40.8560    0.0000 </r>
       <r>   52.9914    0.0000 </r>
      </set>
      <set comment="kpoint 47">
       <r>    5.8539    1.0000 </r>
       <r>    7.7818    1.0000 </r>
       <r>    8.7274    1.0000 </r>
       <r>    9.5569    1.0000 </r>
       <r>   10.7198    1.0000 </r>
       <r>   11.4343    1.0055 </r>
       <r>   25.0740    0.0000 </r>
       <r>   31.7668    0.0000 </r>
       <r>   33.7061    0.0000 </r>
       <r>   37.7456    0.0000 </r>
       <r>   45.6529    0.0000 </r>
       <r>   48.1673    0.0000 </r>
      </set>
      <set comment="kpoint 48">
       <r>    5.1885    1.0000 </r>
       <r>    7.4697    1.0000 </r>
       <r>    9.3805    1.0000 </r>
       <r>    9.9708    1.0000 </r>
       <r>   10.2011    1.0000 </r>
       <r>   10.7362    1.0000 </r>
       <r>   30.7526    0.0000 </r>
       <r>   32.1465    0.0000 </r>
       <r>   32.3344    0.0000 </r>
       <r>   34.9774    0.0000 </r>
       <r>   40.2988    0.0000 </r>
       <r>   54.0281    0.0000 </r>
      </set>
      <set comment="kpoint 49">
       <r>    4.4801    1.0000 </r>
       <r>    7.8426    1.0000 </r>
       <r>    9.0974    1.0000 </r>
       <r>    9.5920    1.0000 </r>
       <r>    9.9966    1.0000 </r>
       <r>   10.6870    1.0000 </r>
       <r>   30.2730    0.0000 </r>
       <r>   32.5256    0.0000 </r>
       <r>   35.7772    0.0000 </r>
       <r>   37.7236    0.0000 </r>
       <r>   43.2008    0.0000 </r>
       <r>   49.3279    0.0000 </r>
      </set>
      <set comment="kpoint 50">
       <r>    3.2958    1.0000 </r>
       <r>    8.1391    1.0000 </r>
       <r>    9.2735    1.0000 </r>
       <r>    9.3094    1.0000 </r>
       <r>    9.7161    1.0000 </r>
       <r>   10.4452    1.0000 </r>
       <r>   33.6492    0.0000 </r>
       <r>   35.8520    0.0000 </r>
       <r>   35.8745    0.0000 </r>
       <r>   37.8180    0.0000 </r>
       <r>   44.3955    0.0000 </r>
       <r>   49.3920    0.0000 </r>
      </set>
      <set comment="kpoint 51">
       <r>    2.4942    1.0000 </r>
       <r>    8.5365    1.0000 </r>
       <r>    8.9783    1.0000 </r>
       <r>    8.9783    1.0000 </r>
       <r>   10.1463    1.0000 </r>
       <r>   10.1463    1.0000 </r>
       <r>   33.0297    0.0000 </r>
       <r>   37.7921    0.0000 </r>
       <r>   40.5607    0.0000 </r>
       <r>   40.5607    0.0000 </r>
       <r>   45.9294    0.0000 </r>
       <r>   46.8602    0.0000 </r>
      </set>
      <set comment="kpoint 52">
       <r>    3.2949    1.0000 </r>
       <r>    8.3175    1.0000 </r>
       <r>    9.0670    1.0000 </r>
       <r>    9.1642    1.0000 </r>
       <r>    9.8810    1.0000 </r>
       <r>   10.4444    1.0000 </r>
       <r>   31.5084    0.0000 </r>
       <r>   33.9041    0.0000 </r>
       <r>   40.5724    0.0000 </r>
       <r>   42.9024    0.0000 </r>
       <r>   43.3493    0.0000 </r>
       <r>   45.6522    0.0000 </r>
      </set>
      <set comment="kpoint 53">
       <r>    4.7131    1.0000 </r>
       <r>    8.0812    1.0000 </r>
       <r>    8.9328    1.0000 </r>
       <r>    9.4269    1.0000 </r>
       <r>    9.7730    1.0000 </r>
       <r>   11.0363    1.0002 </r>
       <r>   28.2592    0.0000 </r>
       <r>   30.6998    0.0000 </r>
       <r>   39.9342    0.0000 </r>
       <r>   41.8777    0.0000 </r>
       <r>   42.8519    0.0000 </r>
       <r>   45.8911    0.0000 </r>
      </set>
      <set comment="kpoint 54">
       <r>    6.0462    1.0000 </r>
       <r>    8.3241    1.0000 </r>
       <r>    8.6272    1.0000 </r>
       <r>    9.2604    1.0000 </r>
       <r>   10.2914    1.0000 </r>
       <r>   11.9923   -0.0102 </r>
       <r>   23.2698    0.0000 </r>
       <r>   30.3113    0.0000 </r>
       <r>   37.7871    0.0000 </r>
       <r>   38.8559    0.0000 </r>
       <r>   45.0169    0.0000 </r>
       <r>   45.4432    0.0000 </r>
      </set>
      <set comment="kpoint 55">
       <r>    6.4362    1.0000 </r>
       <r>    8.3689    1.0000 </r>
       <r>    9.0560    1.0000 </r>
       <r>    9.1572    1.0000 </r>
       <r>   10.8208    1.0000 </r>
       <r>   13.4738   -0.0000 </r>
       <r>   19.3411    0.0000 </r>
       <r>   30.6745    0.0000 </r>
       <r>   36.3628    0.0000 </r>
       <r>   36.6010    0.0000 </r>
       <r>   45.8803    0.0000 </r>
       <r>   46.2806    0.0000 </r>
      </set>
      <set comment="kpoint 56">
       <r>    6.4051    1.0000 </r>
       <r>    8.2846    1.0000 </r>
       <r>    9.0177    1.0000 </r>
       <r>    9.1941    1.0000 </r>
       <r>   11.0801    1.0006 </r>
       <r>   13.3483   -0.0000 </r>
       <r>   19.3166    0.0000 </r>
       <r>   31.7035    0.0000 </r>
       <r>   34.7443    0.0000 </r>
       <r>   36.3770    0.0000 </r>
       <r>   46.8140    0.0000 </r>
       <r>   46.9001    0.0000 </r>
      </set>
      <set comment="kpoint 57">
       <r>    5.9761    1.0000 </r>
       <r>    8.0674    1.0000 </r>
       <r>    8.7139    1.0000 </r>
       <r>    9.3309    1.0000 </r>
       <r>   10.9855    1.0000 </r>
       <r>   11.5142    0.8527 </r>
       <r>   23.2311    0.0000 </r>
       <r>   33.2039    0.0000 </r>
       <r>   34.1768    0.0000 </r>
       <r>   37.0336    0.0000 </r>
       <r>   47.3836    0.0000 </r>
       <r>   48.3561    0.0000 </r>
      </set>
      <set comment="kpoint 58">
       <r>    4.6833    1.0000 </r>
       <r>    7.9031    1.0000 </r>
       <r>    9.0109    1.0000 </r>
       <r>    9.4305    1.0000 </r>
       <r>   10.2889    1.0000 </r>
       <r>   10.6761    1.0000 </r>
       <r>   28.2545    0.0000 </r>
       <r>   34.5938    0.0000 </r>
       <r>   34.7210    0.0000 </r>
       <r>   38.1575    0.0000 </r>
       <r>   44.6221    0.0000 </r>
       <r>   48.2892    0.0000 </r>
      </set>
      <set comment="kpoint 59">
       <r>    3.7857    1.0000 </r>
       <r>    8.1762    1.0000 </r>
       <r>    9.1055    1.0000 </r>
       <r>    9.2213    1.0000 </r>
       <r>   10.0100    1.0000 </r>
       <r>   10.4743    1.0000 </r>
       <r>   29.7203    0.0000 </r>
       <r>   35.9867    0.0000 </r>
       <r>   36.5075    0.0000 </r>
       <r>   40.7329    0.0000 </r>
       <r>   44.6598    0.0000 </r>
       <r>   47.3996    0.0000 </r>
      </set>
      <set comment="kpoint 60">
       <r>    4.9147    1.0000 </r>
       <r>    7.9024    1.0000 </r>
       <r>    8.8936    1.0000 </r>
       <r>    9.5819    1.0000 </r>
       <r>    9.9759    1.0000 </r>
       <r>   11.0155    1.0001 </r>
       <r>   28.4458    0.0000 </r>
       <r>   30.8403    0.0000 </r>
       <r>   36.6927    0.0000 </r>
       <r>   40.0121    0.0000 </r>
       <r>   44.4963    0.0000 </r>
       <r>   46.8564    0.0000 </r>
      </set>
      <set comment="kpoint 61">
       <r>    6.2539    1.0000 </r>
       <r>    7.8022    1.0000 </r>
       <r>    8.4828    1.0000 </r>
       <r>    9.7831    1.0000 </r>
       <r>   10.1870    1.0000 </r>
       <r>   12.1376   -0.0006 </r>
       <r>   25.4545    0.0000 </r>
       <r>   28.0386    0.0000 </r>
       <r>   34.2291    0.0000 </r>
       <r>   41.4073    0.0000 </r>
       <r>   43.1324    0.0000 </r>
       <r>   48.4768    0.0000 </r>
      </set>
      <set comment="kpoint 62">
       <r>    6.8829    1.0000 </r>
       <r>    7.9719    1.0000 </r>
       <r>    8.4007    1.0000 </r>
       <r>    9.6048    1.0000 </r>
       <r>   10.7286    1.0000 </r>
       <r>   14.0078   -0.0000 </r>
       <r>   20.9460    0.0000 </r>
       <r>   28.1718    0.0000 </r>
       <r>   32.0829    0.0000 </r>
       <r>   39.9654    0.0000 </r>
       <r>   44.2570    0.0000 </r>
       <r>   51.3513    0.0000 </r>
      </set>
      <set comment="kpoint 63">
       <r>    6.9148    1.0000 </r>
       <r>    7.8490    1.0000 </r>
       <r>    8.6535    1.0000 </r>
       <r>    9.5583    1.0000 </r>
       <r>   10.9608    1.0000 </r>
       <r>   15.3046   -0.0000 </r>
       <r>   18.9047    0.0000 </r>
       <r>   28.9807    0.0000 </r>
       <r>   30.7233    0.0000 </r>
       <r>   39.1493    0.0000 </r>
       <r>   44.9036    0.0000 </r>
       <r>   52.0755    0.0000 </r>
      </set>
      <set comment="kpoint 64">
       <r>    6.6780    1.0000 </r>
       <r>    7.7958    1.0000 </r>
       <r>    8.4674    1.0000 </r>
       <r>    9.7110    1.0000 </r>
       <r>   10.8250    1.0000 </r>
       <r>   13.1384   -0.0000 </r>
       <r>   22.3282    0.0000 </r>
       <r>   29.2994    0.0000 </r>
       <r>   31.3705    0.0000 </r>
       <r>   39.1169    0.0000 </r>
       <r>   45.2177    0.0000 </r>
       <r>   49.3553    0.0000 </r>
      </set>
      <set comment="kpoint 65">
       <r>    5.7759    1.0000 </r>
       <r>    7.6421    1.0000 </r>
       <r>    8.7307    1.0000 </r>
       <r>    9.8778    1.0000 </r>
       <r>   10.2950    1.0000 </r>
       <r>   11.4840    0.9287 </r>
       <r>   27.1188    0.0000 </r>
       <r>   29.5107    0.0000 </r>
       <r>   33.5746    0.0000 </r>
       <r>   39.0662    0.0000 </r>
       <r>   43.6498    0.0000 </r>
       <r>   48.3011    0.0000 </r>
      </set>
      <set comment="kpoint 66">
       <r>    5.5625    1.0000 </r>
       <r>    7.6101    1.0000 </r>
       <r>    8.9218    1.0000 </r>
       <r>    9.6892    1.0000 </r>
       <r>   10.8665    1.0000 </r>
       <r>   10.8677    1.0000 </r>
       <r>   26.9167    0.0000 </r>
       <r>   32.6509    0.0000 </r>
       <r>   32.8461    0.0000 </r>
       <r>   36.4576    0.0000 </r>
       <r>   43.5533    0.0000 </r>
       <r>   50.6253    0.0000 </r>
      </set>
      <set comment="kpoint 67">
       <r>    6.3708    1.0000 </r>
       <r>    7.3917    1.0000 </r>
       <r>    8.7602    1.0000 </r>
       <r>   10.2029    1.0000 </r>
       <r>   10.6216    1.0000 </r>
       <r>   12.2568   -0.0000 </r>
       <r>   25.9570    0.0000 </r>
       <r>   28.2907    0.0000 </r>
       <r>   30.5208    0.0000 </r>
       <r>   38.3335    0.0000 </r>
       <r>   42.9921    0.0000 </r>
       <r>   49.6792    0.0000 </r>
      </set>
      <set comment="kpoint 68">
       <r>    6.9560    1.0000 </r>
       <r>    7.4497    1.0000 </r>
       <r>    8.4562    1.0000 </r>
       <r>   10.2681    1.0000 </r>
       <r>   10.8083    1.0000 </r>
       <r>   14.4587   -0.0000 </r>
       <r>   23.3630    0.0000 </r>
       <r>   26.0734    0.0000 </r>
       <r>   28.1364    0.0000 </r>
       <r>   40.4514    0.0000 </r>
       <r>   44.2654    0.0000 </r>
       <r>   48.7355    0.0000 </r>
      </set>
      <set comment="kpoint 69">
       <r>    7.2876    1.0000 </r>
       <r>    7.5220    1.0000 </r>
       <r>    8.3032    1.0000 </r>
       <r>   10.0132    1.0000 </r>
       <r>   10.9945    1.0001 </r>
       <r>   17.3129    0.0000 </r>
       <r>   19.5434    0.0000 </r>
       <r>   25.8487    0.0000 </r>
       <r>   27.3678    0.0000 </r>
       <r>   41.0567    0.0000 </r>
       <r>   45.2957    0.0000 </r>
       <r>   50.8525    0.0000 </r>
      </set>
      <set comment="kpoint 70">
       <r>    7.3082    1.0000 </r>
       <r>    7.7122    1.0000 </r>
       <r>    8.0325    1.0000 </r>
       <r>   10.0546    1.0000 </r>
       <r>   10.7908    1.0000 </r>
       <r>   15.5406   -0.0000 </r>
       <r>   21.8163    0.0000 </r>
       <r>   25.0866    0.0000 </r>
       <r>   28.8150    0.0000 </r>
       <r>   41.9968    0.0000 </r>
       <r>   43.9584    0.0000 </r>
       <r>   50.2392    0.0000 </r>
      </set>
      <set comment="kpoint 71">
       <r>    6.7921    1.0000 </r>
       <r>    7.6222    1.0000 </r>
       <r>    8.3333    1.0000 </r>
       <r>   10.0564    1.0000 </r>
       <r>   10.5140    1.0000 </r>
       <r>   13.0996   -0.0000 </r>
       <r>   24.3109    0.0000 </r>
       <r>   26.9862    0.0000 </r>
       <r>   31.0572    0.0000 </r>
       <r>   40.9226    0.0000 </r>
       <r>   43.6561    0.0000 </r>
       <r>   48.5628    0.0000 </r>
      </set>
      <set comment="kpoint 72">
       <r>    6.3860    1.0000 </r>
       <r>    7.0867    1.0000 </r>
       <r>    9.4521    1.0000 </r>
       <r>   10.2914    1.0000 </r>
       <r>   11.1259    1.0017 </r>
       <r>   12.9862   -0.0000 </r>
       <r>   24.7383    0.0000 </r>
       <r>   27.1061    0.0000 </r>
       <r>   30.1795    0.0000 </r>
       <r>   35.2378    0.0000 </r>
       <r>   42.1415    0.0000 </r>
       <r>   54.3660    0.0000 </r>
      </set>
      <set comment="kpoint 73">
       <r>    6.5304    1.0000 </r>
       <r>    7.0251    1.0000 </r>
       <r>    9.4156    1.0000 </r>
       <r>   10.6336    1.0000 </r>
       <r>   11.0724    1.0005 </r>
       <r>   14.9549   -0.0000 </r>
       <r>   24.0448    0.0000 </r>
       <r>   24.8377    0.0000 </r>
       <r>   27.0692    0.0000 </r>
       <r>   37.5024    0.0000 </r>
       <r>   42.3259    0.0000 </r>
       <r>   52.3594    0.0000 </r>
      </set>
      <set comment="kpoint 74">
       <r>    6.8046    1.0000 </r>
       <r>    7.2726    1.0000 </r>
       <r>    8.9114    1.0000 </r>
       <r>   10.3634    1.0000 </r>
       <r>   11.1983    1.0068 </r>
       <r>   17.6357    0.0000 </r>
       <r>   22.1175    0.0000 </r>
       <r>   23.1612    0.0000 </r>
       <r>   25.6372    0.0000 </r>
       <r>   39.9407    0.0000 </r>
       <r>   44.9728    0.0000 </r>
       <r>   49.7470    0.0000 </r>
      </set>
      <set comment="kpoint 75">
       <r>    7.1873    1.0000 </r>
       <r>    7.6182    1.0000 </r>
       <r>    8.2703    1.0000 </r>
       <r>   10.1036    1.0000 </r>
       <r>   11.0460    1.0003 </r>
       <r>   18.5403    0.0000 </r>
       <r>   19.6980    0.0000 </r>
       <r>   23.8316    0.0000 </r>
       <r>   26.9550    0.0000 </r>
       <r>   41.1672    0.0000 </r>
       <r>   46.3981    0.0000 </r>
       <r>   49.8630    0.0000 </r>
      </set>
      <set comment="kpoint 76">
       <r>    7.1840    1.0000 </r>
       <r>    7.6464    1.0000 </r>
       <r>    8.3522    1.0000 </r>
       <r>    9.8343    1.0000 </r>
       <r>   10.8961    1.0000 </r>
       <r>   15.5572   -0.0000 </r>
       <r>   20.0936    0.0000 </r>
       <r>   27.3258    0.0000 </r>
       <r>   29.1649    0.0000 </r>
       <r>   40.6841    0.0000 </r>
       <r>   44.4321    0.0000 </r>
       <r>   51.6905    0.0000 </r>
      </set>
      <set comment="kpoint 77">
       <r>    6.3394    1.0000 </r>
       <r>    6.8287    1.0000 </r>
       <r>   10.0726    1.0000 </r>
       <r>   10.7641    1.0000 </r>
       <r>   11.1332    1.0020 </r>
       <r>   15.7326   -0.0000 </r>
       <r>   22.4528    0.0000 </r>
       <r>   23.9987    0.0000 </r>
       <r>   28.9368    0.0000 </r>
       <r>   34.9599    0.0000 </r>
       <r>   41.6669    0.0000 </r>
       <r>   56.3062    0.0000 </r>
      </set>
      <set comment="kpoint 78">
       <r>    6.4747    1.0000 </r>
       <r>    6.9462    1.0000 </r>
       <r>    9.6526    1.0000 </r>
       <r>   10.6630    1.0000 </r>
       <r>   11.2007    1.0071 </r>
       <r>   16.2667   -0.0000 </r>
       <r>   22.5911    0.0000 </r>
       <r>   24.1273    0.0000 </r>
       <r>   26.6758    0.0000 </r>
       <r>   37.3419    0.0000 </r>
       <r>   42.2252    0.0000 </r>
       <r>   53.3013    0.0000 </r>
      </set>
      <set comment="kpoint 79">
       <r>    6.8851    1.0000 </r>
       <r>    7.3315    1.0000 </r>
       <r>    8.7217    1.0000 </r>
       <r>   10.3575    1.0000 </r>
       <r>   11.0529    1.0003 </r>
       <r>   16.1165   -0.0000 </r>
       <r>   22.6525    0.0000 </r>
       <r>   24.7891    0.0000 </r>
       <r>   26.1663    0.0000 </r>
       <r>   40.1202    0.0000 </r>
       <r>   44.7383    0.0000 </r>
       <r>   49.2453    0.0000 </r>
      </set>
      <set comment="kpoint 80">
       <r>    6.3815    1.0000 </r>
       <r>    6.9159    1.0000 </r>
       <r>    9.8457    1.0000 </r>
       <r>   10.5709    1.0000 </r>
       <r>   11.1579    1.0033 </r>
       <r>   14.4721   -0.0000 </r>
       <r>   23.7782    0.0000 </r>
       <r>   24.8245    0.0000 </r>
       <r>   29.3614    0.0000 </r>
       <r>   35.0528    0.0000 </r>
       <r>   41.8151    0.0000 </r>
       <r>   55.5674    0.0000 </r>
      </set>
      <set comment="kpoint 81">
       <r>    6.5617    1.0000 </r>
       <r>    7.1780    1.0000 </r>
       <r>    9.0549    1.0000 </r>
       <r>   10.4850    1.0000 </r>
       <r>   10.8715    1.0000 </r>
       <r>   13.4523   -0.0000 </r>
       <r>   24.9809    0.0000 </r>
       <r>   26.8672    0.0000 </r>
       <r>   28.0787    0.0000 </r>
       <r>   37.8122    0.0000 </r>
       <r>   42.5651    0.0000 </r>
       <r>   51.0433    0.0000 </r>
      </set>
      <set comment="kpoint 82">
       <r>    6.1706    1.0000 </r>
       <r>    7.3275    1.0000 </r>
       <r>    9.0652    1.0000 </r>
       <r>    9.9859    1.0000 </r>
       <r>   11.0242    1.0001 </r>
       <r>   11.7529    0.0319 </r>
       <r>   25.7381    0.0000 </r>
       <r>   29.9045    0.0000 </r>
       <r>   31.3618    0.0000 </r>
       <r>   35.6449    0.0000 </r>
       <r>   42.7141    0.0000 </r>
       <r>   52.9740    0.0000 </r>
      </set>
      <set comment="kpoint 83">
       <r>    3.9868    1.0000 </r>
       <r>    8.3760    1.0000 </r>
       <r>    9.0501    1.0000 </r>
       <r>    9.0501    1.0000 </r>
       <r>   10.2958    1.0000 </r>
       <r>   10.2958    1.0000 </r>
       <r>   27.6602    0.0000 </r>
       <r>   36.8753    0.0000 </r>
       <r>   39.7506    0.0000 </r>
       <r>   39.7506    0.0000 </r>
       <r>   45.5694    0.0000 </r>
       <r>   45.5694    0.0000 </r>
      </set>
      <set comment="kpoint 84">
       <r>    4.8504    1.0000 </r>
       <r>    8.2281    1.0000 </r>
       <r>    8.9447    1.0000 </r>
       <r>    9.1867    1.0000 </r>
       <r>   10.0860    1.0000 </r>
       <r>   10.9466    1.0000 </r>
       <r>   26.2021    0.0000 </r>
       <r>   33.0593    0.0000 </r>
       <r>   39.0009    0.0000 </r>
       <r>   42.0798    0.0000 </r>
       <r>   43.5516    0.0000 </r>
       <r>   43.8484    0.0000 </r>
      </set>
      <set comment="kpoint 85">
       <r>    6.1337    1.0000 </r>
       <r>    7.9962    1.0000 </r>
       <r>    8.5687    1.0000 </r>
       <r>    9.5378    1.0000 </r>
       <r>    9.9744    1.0000 </r>
       <r>   12.1023   -0.0013 </r>
       <r>   25.2722    0.0000 </r>
       <r>   27.9013    0.0000 </r>
       <r>   38.0853    0.0000 </r>
       <r>   38.6596    0.0000 </r>
       <r>   45.0055    0.0000 </r>
       <r>   47.3119    0.0000 </r>
      </set>
      <set comment="kpoint 86">
       <r>    7.0578    1.0000 </r>
       <r>    8.0617    1.0000 </r>
       <r>    8.1455    1.0000 </r>
       <r>    9.6745    1.0000 </r>
       <r>   10.3260    1.0000 </r>
       <r>   13.8818   -0.0000 </r>
       <r>   22.5707    0.0000 </r>
       <r>   25.6939    0.0000 </r>
       <r>   35.6021    0.0000 </r>
       <r>   36.7014    0.0000 </r>
       <r>   47.7628    0.0000 </r>
       <r>   48.9631    0.0000 </r>
      </set>
      <set comment="kpoint 87">
       <r>    7.0509    1.0000 </r>
       <r>    7.6974    1.0000 </r>
       <r>    8.6320    1.0000 </r>
       <r>    9.7211    1.0000 </r>
       <r>   10.8419    1.0000 </r>
       <r>   16.0766   -0.0000 </r>
       <r>   19.0216    0.0000 </r>
       <r>   26.3283    0.0000 </r>
       <r>   33.1744    0.0000 </r>
       <r>   35.8863    0.0000 </r>
       <r>   49.8352    0.0000 </r>
       <r>   49.8747    0.0000 </r>
      </set>
      <set comment="kpoint 88">
       <r>    6.7468    1.0000 </r>
       <r>    7.4818    1.0000 </r>
       <r>    8.8390    1.0000 </r>
       <r>    9.8435    1.0000 </r>
       <r>   11.1170    1.0014 </r>
       <r>   14.2486   -0.0000 </r>
       <r>   21.2055    0.0000 </r>
       <r>   27.8049    0.0000 </r>
       <r>   31.7005    0.0000 </r>
       <r>   35.6408    0.0000 </r>
       <r>   47.2714    0.0000 </r>
       <r>   51.1728    0.0000 </r>
      </set>
      <set comment="kpoint 89">
       <r>    5.3112    1.0000 </r>
       <r>    8.2673    1.0000 </r>
       <r>    8.8569    1.0000 </r>
       <r>    9.1595    1.0000 </r>
       <r>   10.7235    1.0000 </r>
       <r>   10.7991    1.0000 </r>
       <r>   24.5221    0.0000 </r>
       <r>   34.9505    0.0000 </r>
       <r>   35.8313    0.0000 </r>
       <r>   39.1262    0.0000 </r>
       <r>   44.9513    0.0000 </r>
       <r>   47.2915    0.0000 </r>
      </set>
      <set comment="kpoint 90">
       <r>    6.1913    1.0000 </r>
       <r>    8.0446    1.0000 </r>
       <r>    8.5550    1.0000 </r>
       <r>    9.4572    1.0000 </r>
       <r>   10.5630    1.0000 </r>
       <r>   12.0707   -0.0026 </r>
       <r>   23.4353    0.0000 </r>
       <r>   30.4342    0.0000 </r>
       <r>   34.3887    0.0000 </r>
       <r>   39.6927    0.0000 </r>
       <r>   44.3937    0.0000 </r>
       <r>   48.5819    0.0000 </r>
      </set>
      <set comment="kpoint 91">
       <r>    7.1479    1.0000 </r>
       <r>    7.8705    1.0000 </r>
       <r>    8.0516    1.0000 </r>
       <r>    9.8800    1.0000 </r>
       <r>   10.4912    1.0000 </r>
       <r>   14.0390   -0.0000 </r>
       <r>   22.7753    0.0000 </r>
       <r>   25.8174    0.0000 </r>
       <r>   31.8461    0.0000 </r>
       <r>   40.6245    0.0000 </r>
       <r>   44.3816    0.0000 </r>
       <r>   50.9170    0.0000 </r>
      </set>
      <set comment="kpoint 92">
       <r>    7.4394    1.0000 </r>
       <r>    7.4769    1.0000 </r>
       <r>    8.2696    1.0000 </r>
       <r>   10.0002    1.0000 </r>
       <r>   10.8018    1.0000 </r>
       <r>   16.7329   -0.0000 </r>
       <r>   20.3687    0.0000 </r>
       <r>   24.2778    0.0000 </r>
       <r>   29.7302    0.0000 </r>
       <r>   39.3395    0.0000 </r>
       <r>   46.8889    0.0000 </r>
       <r>   52.3136    0.0000 </r>
      </set>
      <set comment="kpoint 93">
       <r>    6.9707    1.0000 </r>
       <r>    7.3535    1.0000 </r>
       <r>    8.7200    1.0000 </r>
       <r>   10.1814    1.0000 </r>
       <r>   11.0319    1.0002 </r>
       <r>   16.3803   -0.0000 </r>
       <r>   20.7186    0.0000 </r>
       <r>   25.3056    0.0000 </r>
       <r>   28.2896    0.0000 </r>
       <r>   38.4905    0.0000 </r>
       <r>   46.7458    0.0000 </r>
       <r>   49.5724    0.0000 </r>
      </set>
      <set comment="kpoint 94">
       <r>    6.4754    1.0000 </r>
       <r>    7.7744    1.0000 </r>
       <r>    8.7051    1.0000 </r>
       <r>    9.5639    1.0000 </r>
       <r>   11.0961    1.0009 </r>
       <r>   12.7030   -0.0000 </r>
       <r>   22.1194    0.0000 </r>
       <r>   30.6082    0.0000 </r>
       <r>   32.7783    0.0000 </r>
       <r>   36.0545    0.0000 </r>
       <r>   47.6163    0.0000 </r>
       <r>   49.7551    0.0000 </r>
      </set>
      <set comment="kpoint 95">
       <r>    6.9302    1.0000 </r>
       <r>    7.5254    1.0000 </r>
       <r>    8.5521    1.0000 </r>
       <r>    9.9726    1.0000 </r>
       <r>   10.9700    1.0000 </r>
       <r>   14.6205   -0.0000 </r>
       <r>   21.4174    0.0000 </r>
       <r>   27.7366    0.0000 </r>
       <r>   29.1226    0.0000 </r>
       <r>   38.7281    0.0000 </r>
       <r>   46.0709    0.0000 </r>
       <r>   49.3192    0.0000 </r>
      </set>
      <set comment="kpoint 96">
       <r>    7.1666    1.0000 </r>
       <r>    7.7101    1.0000 </r>
       <r>    8.1463    1.0000 </r>
       <r>   10.1311    1.0000 </r>
       <r>   11.0454    1.0003 </r>
       <r>   17.3354    0.0000 </r>
       <r>   21.1038    0.0000 </r>
       <r>   24.4296    0.0000 </r>
       <r>   26.2005    0.0000 </r>
       <r>   42.8296    0.0000 </r>
       <r>   44.4186    0.0000 </r>
       <r>   49.2965    0.0000 </r>
      </set>
      <set comment="kpoint 97">
       <r>    7.0479    1.0000 </r>
       <r>    7.7050    1.0000 </r>
       <r>    8.2586    1.0000 </r>
       <r>   10.1427    1.0000 </r>
       <r>   11.1970    1.0067 </r>
       <r>   19.0927    0.0000 </r>
       <r>   20.6738    0.0000 </r>
       <r>   23.2462    0.0000 </r>
       <r>   24.9441    0.0000 </r>
       <r>   42.8390    0.0000 </r>
       <r>   45.9239    0.0000 </r>
       <r>   48.0010    0.0000 </r>
      </set>
      <set comment="kpoint 98">
       <r>    6.8309    1.0000 </r>
       <r>    7.2729    1.0000 </r>
       <r>    9.0214    1.0000 </r>
       <r>   10.1303    1.0000 </r>
       <r>   11.0502    1.0003 </r>
       <r>   16.0234   -0.0000 </r>
       <r>   20.4881    0.0000 </r>
       <r>   25.2029    0.0000 </r>
       <r>   30.9615    0.0000 </r>
       <r>   35.4388    0.0000 </r>
       <r>   47.0256    0.0000 </r>
       <r>   52.5081    0.0000 </r>
      </set>
      <set comment="kpoint 99">
       <r>    6.9253    1.0000 </r>
       <r>    7.2963    1.0000 </r>
       <r>    8.8468    1.0000 </r>
       <r>   10.2879    1.0000 </r>
       <r>   11.0538    1.0003 </r>
       <r>   18.0451    0.0000 </r>
       <r>   20.1840    0.0000 </r>
       <r>   23.3934    0.0000 </r>
       <r>   27.9519    0.0000 </r>
       <r>   38.3722    0.0000 </r>
       <r>   47.0558    0.0000 </r>
       <r>   49.9776    0.0000 </r>
      </set>
      <set comment="kpoint 100">
       <r>    6.8254    1.0000 </r>
       <r>    7.1826    1.0000 </r>
       <r>    9.1448    1.0000 </r>
       <r>   10.3541    1.0000 </r>
       <r>   10.9437    1.0000 </r>
       <r>   17.6733    0.0000 </r>
       <r>   19.9137    0.0000 </r>
       <r>   23.3392    0.0000 </r>
       <r>   30.5885    0.0000 </r>
       <r>   35.3624    0.0000 </r>
       <r>   46.9111    0.0000 </r>
       <r>   53.4433    0.0000 </r>
      </set>
      <set comment="kpoint 101">
       <r>    5.3980    1.0000 </r>
       <r>    8.9159    1.0000 </r>
       <r>    8.9159    1.0000 </r>
       <r>    8.9747    1.0000 </r>
       <r>   10.6936    1.0000 </r>
       <r>   10.6936    1.0000 </r>
       <r>   22.7076    0.0000 </r>
       <r>   35.7978    0.0000 </r>
       <r>   39.2360    0.0000 </r>
       <r>   39.2360    0.0000 </r>
       <r>   43.3750    0.0000 </r>
       <r>   43.3750    0.0000 </r>
      </set>
      <set comment="kpoint 102">
       <r>    5.9394    1.0000 </r>
       <r>    8.7134    1.0000 </r>
       <r>    8.9282    1.0000 </r>
       <r>    9.0191    1.0000 </r>
       <r>   10.6012    1.0000 </r>
       <r>   11.7626    0.0171 </r>
       <r>   21.4956    0.0000 </r>
       <r>   32.8091    0.0000 </r>
       <r>   37.4436    0.0000 </r>
[...]
       <r>    43.1373     0.2292    10.2307 </r>
       <r>    43.3476     0.1350    10.2591 </r>
       <r>    43.5579     0.1590    10.2925 </r>
       <r>    43.7682     0.2388    10.3428 </r>
       <r>    43.9786     0.1674    10.3780 </r>
       <r>    44.1889     0.1299    10.4053 </r>
       <r>    44.3992     0.4063    10.4907 </r>
       <r>    44.6096     0.3817    10.5710 </r>
       <r>    44.8199     0.2367    10.6208 </r>
       <r>    45.0302     0.4027    10.7055 </r>
       <r>    45.2405     0.2998    10.7685 </r>
       <r>    45.4509     0.1405    10.7981 </r>
       <r>    45.6612     0.1826    10.8365 </r>
       <r>    45.8715     0.2415    10.8873 </r>
       <r>    46.0818     0.2681    10.9437 </r>
       <r>    46.2922     0.1779    10.9811 </r>
       <r>    46.5025     0.0980    11.0017 </r>
       <r>    46.7128     0.1066    11.0241 </r>
       <r>    46.9231     0.2701    11.0809 </r>
       <r>    47.1335     0.2272    11.1287 </r>
       <r>    47.3438     0.1536    11.1610 </r>
       <r>    47.5541     0.2755    11.2190 </r>
       <r>    47.7644     0.1413    11.2487 </r>
       <r>    47.9748     0.0551    11.2603 </r>
       <r>    48.1851     0.1283    11.2872 </r>
       <r>    48.3954     0.1796    11.3250 </r>
       <r>    48.6057     0.1767    11.3622 </r>
       <r>    48.8161     0.1264    11.3888 </r>
       <r>    49.0264     0.0621    11.4018 </r>
       <r>    49.2367     0.1106    11.4251 </r>
       <r>    49.4471     0.2482    11.4773 </r>
       <r>    49.6574     0.2246    11.5245 </r>
       <r>    49.8677     0.3074    11.5892 </r>
       <r>    50.0780     0.1301    11.6166 </r>
       <r>    50.2884     0.0355    11.6240 </r>
       <r>    50.4987     0.0436    11.6332 </r>
       <r>    50.7090     0.1442    11.6635 </r>
       <r>    50.9193     0.1800    11.7014 </r>
       <r>    51.1297     0.1613    11.7353 </r>
       <r>    51.3400     0.1379    11.7643 </r>
       <r>    51.5503     0.0451    11.7738 </r>
       <r>    51.7606     0.0742    11.7894 </r>
       <r>    51.9710     0.0655    11.8032 </r>
       <r>    52.1813     0.0470    11.8130 </r>
       <r>    52.3916     0.0926    11.8325 </r>
       <r>    52.6019     0.0974    11.8530 </r>
       <r>    52.8123     0.0160    11.8564 </r>
       <r>    53.0226     0.0514    11.8672 </r>
       <r>    53.2329     0.0814    11.8843 </r>
       <r>    53.4433     0.0997    11.9053 </r>
       <r>    53.6536     0.0529    11.9164 </r>
       <r>    53.8639    -0.0012    11.9162 </r>
       <r>    54.0742     0.0179    11.9200 </r>
       <r>    54.2846     0.0145    11.9230 </r>
       <r>    54.4949     0.0297    11.9293 </r>
       <r>    54.7052     0.0459    11.9389 </r>
       <r>    54.9155     0.0064    11.9403 </r>
       <r>    55.1259    -0.0014    11.9400 </r>
       <r>    55.3362    -0.0009    11.9398 </r>
       <r>    55.5465     0.0123    11.9424 </r>
       <r>    55.7568     0.0164    11.9458 </r>
       <r>    55.9672     0.0320    11.9526 </r>
       <r>    56.1775     0.0312    11.9591 </r>
       <r>    56.3878     0.0408    11.9677 </r>
       <r>    56.5981     0.0115    11.9701 </r>
       <r>    56.8085     0.0324    11.9769 </r>
       <r>    57.0188     0.0260    11.9824 </r>
       <r>    57.2291    -0.0017    11.9820 </r>
       <r>    57.4394    -0.0003    11.9820 </r>
       <r>    57.6498    -0.0009    11.9818 </r>
       <r>    57.8601     0.0131    11.9845 </r>
       <r>    58.0704     0.0170    11.9881 </r>
       <r>    58.2808    -0.0006    11.9880 </r>
       <r>    58.4911    -0.0007    11.9879 </r>
       <r>    58.7014     0.0158    11.9912 </r>
       <r>    58.9117     0.0207    11.9955 </r>
       <r>    59.1221     0.0202    11.9998 </r>
       <r>    59.3324     0.0015    12.0001 </r>
       <r>    59.5427    -0.0005    12.0000 </r>
       <r>    59.7530    -0.0000    12.0000 </r>
       <r>    59.9634    -0.0000    12.0000 </r>
       <r>    60.1737    -0.0000    12.0000 </r>
       <r>    60.3840    -0.0000    12.0000 </r>
       <r>    60.5943     0.0000    12.0000 </r>
       <r>    60.8047     0.0000    12.0000 </r>
       <r>    61.0150     0.0000    12.0000 </r>
       <r>    61.2253     0.0000    12.0000 </r>
       <r>    61.4356     0.0000    12.0000 </r>
       <r>    61.6460     0.0000    12.0000 </r>
       <r>    61.8563     0.0000    12.0000 </r>
      </set>
      <set comment="spin 2">
       <r>    -1.2416     0.0000     0.0000 </r>
       <r>    -1.0312     0.0000     0.0000 </r>
       <r>    -0.8209     0.0000     0.0000 </r>
       <r>    -0.6106     0.0000     0.0000 </r>
       <r>    -0.4003     0.0000     0.0000 </r>
       <r>    -0.1899     0.0000     0.0000 </r>
       <r>     0.0204    -0.0000    -0.0000 </r>
       <r>     0.2307    -0.0000    -0.0000 </r>
       <r>     0.4410    -0.0000    -0.0000 </r>
       <r>     0.6514    -0.0000    -0.0000 </r>
       <r>     0.8617    -0.0000    -0.0000 </r>
       <r>     1.0720    -0.0000    -0.0000 </r>
       <r>     1.2823    -0.0002    -0.0000 </r>
       <r>     1.4927     0.0005     0.0001 </r>
       <r>     1.7030     0.0064     0.0014 </r>
       <r>     1.9133     0.0162     0.0048 </r>
       <r>     2.1237     0.0212     0.0093 </r>
       <r>     2.3340     0.0221     0.0139 </r>
       <r>     2.5443     0.0281     0.0198 </r>
       <r>     2.7546     0.0395     0.0281 </r>
       <r>     2.9650     0.0365     0.0358 </r>
       <r>     3.1753     0.0248     0.0410 </r>
       <r>     3.3856     0.0471     0.0509 </r>
       <r>     3.5959     0.0689     0.0654 </r>
       <r>     3.8063     0.0391     0.0737 </r>
       <r>     4.0166     0.0381     0.0817 </r>
       <r>     4.2269     0.0726     0.0969 </r>
       <r>     4.4372     0.0676     0.1111 </r>
       <r>     4.6476     0.0649     0.1248 </r>
       <r>     4.8579     0.0783     0.1413 </r>
       <r>     5.0682     0.0863     0.1594 </r>
       <r>     5.2785     0.0810     0.1765 </r>
       <r>     5.4889     0.0903     0.1955 </r>
       <r>     5.6992     0.1430     0.2256 </r>
       <r>     5.9095     0.1324     0.2534 </r>
       <r>     6.1199     0.1338     0.2815 </r>
       <r>     6.3302     0.2649     0.3373 </r>
       <r>     6.5405     0.4400     0.4298 </r>
       <r>     6.7508     0.3966     0.5132 </r>
       <r>     6.9612     0.4972     0.6178 </r>
       <r>     7.1715     0.4616     0.7149 </r>
       <r>     7.3818     0.6401     0.8495 </r>
       <r>     7.5921     0.7439     1.0060 </r>
       <r>     7.8025     0.7492     1.1636 </r>
       <r>     8.0128     0.7110     1.3131 </r>
       <r>     8.2231     0.6715     1.4543 </r>
       <r>     8.4334     0.6414     1.5892 </r>
       <r>     8.6438     0.6967     1.7358 </r>
       <r>     8.8541     0.8901     1.9230 </r>
       <r>     9.0644     0.9458     2.1219 </r>
       <r>     9.2747     0.9958     2.3314 </r>
       <r>     9.4851     1.1747     2.5784 </r>
       <r>     9.6954     1.1907     2.8289 </r>
       <r>     9.9057     1.1499     3.0707 </r>
       <r>    10.1161     0.8950     3.2590 </r>
       <r>    10.3264     0.7937     3.4259 </r>
       <r>    10.5367     0.9126     3.6179 </r>
       <r>    10.7470     1.0904     3.8472 </r>
       <r>    10.9574     1.0111     4.0598 </r>
       <r>    11.1677     0.8941     4.2479 </r>
       <r>    11.3780     0.8956     4.4363 </r>
       <r>    11.5883     1.1117     4.6701 </r>
       <r>    11.7987     1.5642     4.9991 </r>
       <r>    12.0090     1.0671     5.2235 </r>
       <r>    12.2193     0.4121     5.3102 </r>
       <r>    12.4296     0.0958     5.3304 </r>
       <r>    12.6400     0.1356     5.3589 </r>
       <r>    12.8503     0.2200     5.4051 </r>
       <r>    13.0606     0.1359     5.4337 </r>
       <r>    13.2709     0.1110     5.4571 </r>
       <r>    13.4813     0.1300     5.4844 </r>
       <r>    13.6916     0.1773     5.5217 </r>
       <r>    13.9019     0.1543     5.5542 </r>
       <r>    14.1122     0.0837     5.5718 </r>
       <r>    14.3226     0.1736     5.6083 </r>
       <r>    14.5329     0.1309     5.6358 </r>
       <r>    14.7432     0.0802     5.6527 </r>
       <r>    14.9536     0.1161     5.6771 </r>
       <r>    15.1639     0.1132     5.7009 </r>
       <r>    15.3742     0.1645     5.7355 </r>
       <r>    15.5845     0.1107     5.7588 </r>
       <r>    15.7949     0.1100     5.7819 </r>
       <r>    16.0052     0.1082     5.8047 </r>
       <r>    16.2155     0.0204     5.8090 </r>
       <r>    16.4258     0.0881     5.8275 </r>
       <r>    16.6362     0.1146     5.8516 </r>
       <r>    16.8465     0.1181     5.8764 </r>
       <r>    17.0568     0.1211     5.9019 </r>
       <r>    17.2671     0.0406     5.9104 </r>
       <r>    17.4775     0.0094     5.9124 </r>
       <r>    17.6878     0.0860     5.9305 </r>
       <r>    17.8981     0.0689     5.9450 </r>
       <r>    18.1084     0.0417     5.9538 </r>
       <r>    18.3188     0.0799     5.9706 </r>
       <r>    18.5291     0.0265     5.9762 </r>
       <r>    18.7394     0.0153     5.9794 </r>
       <r>    18.9498     0.0903     5.9984 </r>
       <r>    19.1601     0.1333     6.0264 </r>
       <r>    19.3704     0.1745     6.0631 </r>
       <r>    19.5807     0.2104     6.1074 </r>
       <r>    19.7911     0.1341     6.1356 </r>
       <r>    20.0014     0.1281     6.1625 </r>
       <r>    20.2117     0.1165     6.1870 </r>
       <r>    20.4220     0.1320     6.2148 </r>
       <r>    20.6324     0.1431     6.2449 </r>
       <r>    20.8427     0.1285     6.2719 </r>
       <r>    21.0530     0.1271     6.2987 </r>
       <r>    21.2633     0.0788     6.3152 </r>
       <r>    21.4737     0.0773     6.3315 </r>
       <r>    21.6840     0.1242     6.3576 </r>
       <r>    21.8943     0.1319     6.3853 </r>
       <r>    22.1046     0.0796     6.4021 </r>
       <r>    22.3150     0.1061     6.4244 </r>
       <r>    22.5253     0.1202     6.4497 </r>
       <r>    22.7356     0.1168     6.4743 </r>
       <r>    22.9459     0.1940     6.5151 </r>
       <r>    23.1563     0.1133     6.5389 </r>
       <r>    23.3666     0.1170     6.5635 </r>
       <r>    23.5769     0.2471     6.6155 </r>
       <r>    23.7873     0.1249     6.6417 </r>
       <r>    23.9976     0.0953     6.6618 </r>
       <r>    24.2079     0.2015     6.7042 </r>
       <r>    24.4182     0.2115     6.7487 </r>
       <r>    24.6286     0.1756     6.7856 </r>
       <r>    24.8389     0.0716     6.8006 </r>
       <r>    25.0492     0.2569     6.8547 </r>
       <r>    25.2595     0.2506     6.9074 </r>
       <r>    25.4699     0.1139     6.9313 </r>
       <r>    25.6802     0.0949     6.9513 </r>
       <r>    25.8905     0.1879     6.9908 </r>
       <r>    26.1008     0.1958     7.0320 </r>
       <r>    26.3112     0.2039     7.0749 </r>
       <r>    26.5215     0.1867     7.1142 </r>
       <r>    26.7318     0.1483     7.1453 </r>
       <r>    26.9421     0.1427     7.1754 </r>
       <r>    27.1525     0.2329     7.2244 </r>
       <r>    27.3628     0.2535     7.2777 </r>
       <r>    27.5731     0.1602     7.3114 </r>
       <r>    27.7835     0.1321     7.3392 </r>
       <r>    27.9938     0.1829     7.3776 </r>
       <r>    28.2041     0.2757     7.4356 </r>
       <r>    28.4144     0.2878     7.4961 </r>
       <r>    28.6248     0.1899     7.5361 </r>
       <r>    28.8351     0.0432     7.5452 </r>
       <r>    29.0454     0.1981     7.5868 </r>
       <r>    29.2557     0.2653     7.6426 </r>
       <r>    29.4661     0.2843     7.7024 </r>
       <r>    29.6764     0.1323     7.7302 </r>
       <r>    29.8867     0.1185     7.7552 </r>
       <r>    30.0970     0.2260     7.8027 </r>
       <r>    30.3074     0.1411     7.8324 </r>
       <r>    30.5177     0.1320     7.8601 </r>
       <r>    30.7280     0.2591     7.9146 </r>
       <r>    30.9383     0.2465     7.9665 </r>
       <r>    31.1487     0.2028     8.0091 </r>
       <r>    31.3590     0.1104     8.0323 </r>
       <r>    31.5693     0.1251     8.0586 </r>
       <r>    31.7797     0.2201     8.1049 </r>
       <r>    31.9900     0.1904     8.1450 </r>
       <r>    32.2003     0.0757     8.1609 </r>
       <r>    32.4106     0.1556     8.1936 </r>
       <r>    32.6210     0.0794     8.2103 </r>
       <r>    32.8313     0.2039     8.2532 </r>
       <r>    33.0416     0.2342     8.3025 </r>
       <r>    33.2519     0.2205     8.3489 </r>
       <r>    33.4623     0.0862     8.3670 </r>
       <r>    33.6726     0.0955     8.3871 </r>
       <r>    33.8829     0.1842     8.4258 </r>
       <r>    34.0932     0.1682     8.4612 </r>
       <r>    34.3036     0.1433     8.4913 </r>
       <r>    34.5139     0.1485     8.5226 </r>
       <r>    34.7242     0.2377     8.5726 </r>
       <r>    34.9345     0.1501     8.6042 </r>
       <r>    35.1449     0.1763     8.6412 </r>
       <r>    35.3552     0.1859     8.6803 </r>
       <r>    35.5655     0.1599     8.7140 </r>
       <r>    35.7758     0.2513     8.7668 </r>
       <r>    35.9862     0.2970     8.8293 </r>
       <r>    36.1965     0.2522     8.8823 </r>
       <r>    36.4068     0.1660     8.9172 </r>
       <r>    36.6172     0.2152     8.9625 </r>
       <r>    36.8275     0.2491     9.0149 </r>
       <r>    37.0378     0.2068     9.0584 </r>
       <r>    37.2481     0.1850     9.0973 </r>
       <r>    37.4585     0.1827     9.1357 </r>
       <r>    37.6688     0.2412     9.1865 </r>
       <r>    37.8791     0.4007     9.2707 </r>
       <r>    38.0894     0.2017     9.3131 </r>
       <r>    38.2998     0.1681     9.3485 </r>
       <r>    38.5101     0.2592     9.4030 </r>
       <r>    38.7204     0.1801     9.4409 </r>
       <r>    38.9307     0.1595     9.4744 </r>
       <r>    39.1411     0.2102     9.5186 </r>
       <r>    39.3514     0.3342     9.5889 </r>
       <r>    39.5617     0.3125     9.6547 </r>
       <r>    39.7720     0.1286     9.6817 </r>
       <r>    39.9824     0.2442     9.7331 </r>
       <r>    40.1927     0.2559     9.7869 </r>
       <r>    40.4030     0.0764     9.8029 </r>
       <r>    40.6134     0.1864     9.8422 </r>
       <r>    40.8237     0.1558     9.8749 </r>
       <r>    41.0340     0.1154     9.8992 </r>
       <r>    41.2443     0.1676     9.9344 </r>
       <r>    41.4547     0.1348     9.9628 </r>
       <r>    41.6650     0.1329     9.9908 </r>
       <r>    41.8753     0.1144    10.0148 </r>
       <r>    42.0856     0.1843    10.0536 </r>
       <r>    42.2960     0.1611    10.0875 </r>
       <r>    42.5063     0.1258    10.1139 </r>
       <r>    42.7166     0.0858    10.1320 </r>
       <r>    42.9269     0.2198    10.1782 </r>
       <r>    43.1373     0.2053    10.2214 </r>
       <r>    43.3476     0.1325    10.2493 </r>
       <r>    43.5579     0.1494    10.2807 </r>
       <r>    43.7682     0.2424    10.3317 </r>
       <r>    43.9786     0.2083    10.3755 </r>
       <r>    44.1889     0.0934    10.3951 </r>
       <r>    44.3992     0.3411    10.4669 </r>
       <r>    44.6096     0.4066    10.5524 </r>
       <r>    44.8199     0.2759    10.6104 </r>
       <r>    45.0302     0.3748    10.6892 </r>
       <r>    45.2405     0.3147    10.7554 </r>
       <r>    45.4509     0.1825    10.7938 </r>
       <r>    45.6612     0.1438    10.8241 </r>
       <r>    45.8715     0.2308    10.8726 </r>
       <r>    46.0818     0.3091    10.9376 </r>
       <r>    46.2922     0.1912    10.9778 </r>
       <r>    46.5025     0.1144    11.0019 </r>
       <r>    46.7128     0.0786    11.0184 </r>
       <r>    46.9231     0.2554    11.0722 </r>
       <r>    47.1335     0.2310    11.1207 </r>
       <r>    47.3438     0.1640    11.1552 </r>
       <r>    47.5541     0.2847    11.2151 </r>
       <r>    47.7644     0.1658    11.2500 </r>
       <r>    47.9748     0.0255    11.2554 </r>
       <r>    48.1851     0.1287    11.2824 </r>
       <r>    48.3954     0.1781    11.3199 </r>
       <r>    48.6057     0.1444    11.3502 </r>
       <r>    48.8161     0.1586    11.3836 </r>
       <r>    49.0264     0.0886    11.4022 </r>
       <r>    49.2367     0.0774    11.4185 </r>
       <r>    49.4471     0.2261    11.4661 </r>
       <r>    49.6574     0.2554    11.5198 </r>
       <r>    49.8677     0.3084    11.5847 </r>
       <r>    50.0780     0.1470    11.6156 </r>
       <r>    50.2884     0.0111    11.6179 </r>
       <r>    50.4987     0.0664    11.6319 </r>
       <r>    50.7090     0.1247    11.6581 </r>
       <r>    50.9193     0.1470    11.6890 </r>
       <r>    51.1297     0.2029    11.7317 </r>
       <r>    51.3400     0.1597    11.7653 </r>
       <r>    51.5503     0.0409    11.7739 </r>
       <r>    51.7606     0.0546    11.7854 </r>
       <r>    51.9710     0.0889    11.8041 </r>
       <r>    52.1813     0.0412    11.8127 </r>
       <r>    52.3916     0.0744    11.8284 </r>
       <r>    52.6019     0.1157    11.8527 </r>
       <r>    52.8123     0.0184    11.8566 </r>
       <r>    53.0226     0.0502    11.8671 </r>
       <r>    53.2329     0.0696    11.8818 </r>
       <r>    53.4433     0.1165    11.9063 </r>
       <r>    53.6536     0.0489    11.9166 </r>
       <r>    53.8639     0.0013    11.9168 </r>
       <r>    54.0742     0.0205    11.9212 </r>
       <r>    54.2846     0.0082    11.9229 </r>
       <r>    54.4949     0.0294    11.9291 </r>
       <r>    54.7052     0.0464    11.9388 </r>
       <r>    54.9155     0.0070    11.9403 </r>
       <r>    55.1259    -0.0014    11.9400 </r>
       <r>    55.3362    -0.0009    11.9398 </r>
       <r>    55.5465     0.0123    11.9424 </r>
       <r>    55.7568     0.0164    11.9458 </r>
       <r>    55.9672     0.0318    11.9525 </r>
       <r>    56.1775     0.0291    11.9586 </r>
       <r>    56.3878     0.0337    11.9657 </r>
       <r>    56.5981     0.0212    11.9702 </r>
       <r>    56.8085     0.0351    11.9776 </r>
       <r>    57.0188     0.0231    11.9824 </r>
       <r>    57.2291    -0.0018    11.9820 </r>
       <r>    57.4394    -0.0003    11.9820 </r>
       <r>    57.6498    -0.0009    11.9818 </r>
       <r>    57.8601     0.0132    11.9846 </r>
       <r>    58.0704     0.0169    11.9881 </r>
       <r>    58.2808    -0.0006    11.9880 </r>
       <r>    58.4911    -0.0008    11.9878 </r>
       <r>    58.7014     0.0151    11.9910 </r>
       <r>    58.9117     0.0209    11.9954 </r>
       <r>    59.1221     0.0206    11.9997 </r>
       <r>    59.3324     0.0018    12.0001 </r>
       <r>    59.5427    -0.0005    12.0000 </r>
       <r>    59.7530    -0.0000    12.0000 </r>
       <r>    59.9634    -0.0000    12.0000 </r>
       <r>    60.1737    -0.0000    12.0000 </r>
       <r>    60.3840    -0.0000    12.0000 </r>
       <r>    60.5943     0.0000    12.0000 </r>
       <r>    60.8047     0.0000    12.0000 </r>
       <r>    61.0150     0.0000    12.0000 </r>
       <r>    61.2253     0.0000    12.0000 </r>
       <r>    61.4356     0.0000    12.0000 </r>
       <r>    61.6460     0.0000    12.0000 </r>
       <r>    61.8563     0.0000    12.0000 </r>
      </set>
     </set>
    </array>
   </total>
  </dos>
 </calculation>
 <structure name="finalpos" >
  <crystal>
   <varray name="basis" >
    <v>       0.00000000       1.67500000       1.67500000 </v>
    <v>       1.67500000       0.00000000       1.67500000 </v>
    <v>       1.67500000       1.67500000       0.00000000 </v>
   </varray>
   <i name="volume">      9.39884375 </i>
   <varray name="rec_basis" >
    <v>      -0.29850746       0.29850746       0.29850746 </v>
    <v>       0.29850746      -0.29850746       0.29850746 </v>
    <v>       0.29850746       0.29850746      -0.29850746 </v>
   </varray>
  </crystal>
  <varray name="positions" >
   <v>       0.00000000       0.00000000       0.00000000 </v>
  </varray>
 </structure>
</modeling>
