   1   1   0   0
  0.9304812E+01  0.2294967E-09  0.2294967E-09  0.2294967E-09  0.5000000E-15
  1.000000000000000E-004
  CAR 
 bcc Fe                                  
     54.35747349     -3.94744542  301      8.17108099      1.00000000
     -3.947  0.0000E+00  0.0000E+00  0.0000E+00  0.0000E+00
     -3.753  0.0000E+00  0.0000E+00  0.0000E+00  0.0000E+00
     -3.559  0.0000E+00  0.0000E+00  0.0000E+00  0.0000E+00
     -3.364  0.0000E+00  0.0000E+00  0.0000E+00  0.0000E+00
     -3.170  0.0000E+00  0.0000E+00  0.0000E+00  0.0000E+00
     -2.976 -0.1886E-31  0.0000E+00 -0.3666E-32  0.0000E+00
     -2.781 -0.7865E-25 -0.2953E-32 -0.1528E-25 -0.5738E-33
     -2.587 -0.4875E-19 -0.1529E-25 -0.9475E-20 -0.2971E-26
     -2.393 -0.4321E-14 -0.1177E-19 -0.8398E-15 -0.2288E-20
     -2.198 -0.5711E-10 -0.1299E-14 -0.1110E-10 -0.2524E-15
     -2.004 -0.1072E-06 -0.2140E-10 -0.2085E-07 -0.4159E-11
     -1.810 -0.2689E-04 -0.5025E-07 -0.5246E-05 -0.9770E-08
     -1.615 -0.6992E-03 -0.1594E-04 -0.1411E-03 -0.3107E-05
     -1.421  0.2942E-02 -0.5557E-03  0.4306E-03 -0.1111E-03
     -1.227  0.2152E-01  0.1509E-02  0.4612E-02  0.1822E-03
     -1.032  0.7045E-02  0.2043E-01  0.5981E-02  0.4153E-02
     -0.838  0.1845E-01  0.9164E-02  0.9567E-02  0.5934E-02
     -0.644  0.1918E-01  0.1438E-01  0.1329E-01  0.8729E-02
     -0.449  0.3115E-01  0.2312E-01  0.1935E-01  0.1322E-01
     -0.255  0.8697E-01  0.1854E-01  0.3625E-01  0.1682E-01
     -0.060  0.1178E-01  0.8854E-01  0.3854E-01  0.3403E-01
      0.134 -0.6308E-02  0.2426E-01  0.3731E-01  0.3875E-01
      0.328  0.1458E-01 -0.5305E-02  0.4015E-01  0.3772E-01
      0.523  0.1059E+00 -0.9201E-03  0.6073E-01  0.3754E-01
      0.717  0.5457E-01  0.8430E-01  0.7133E-01  0.5392E-01
      0.911  0.8316E-01  0.7371E-01  0.8749E-01  0.6825E-01
      1.106  0.9127E-01  0.5898E-01  0.1052E+00  0.7971E-01
      1.300  0.5838E-01  0.7239E-01  0.1166E+00  0.9378E-01
      1.494 -0.9670E-02  0.8405E-01  0.1147E+00  0.1101E+00
      1.689  0.2415E-01  0.3431E-01  0.1194E+00  0.1168E+00
      1.883  0.2362E+00 -0.1068E-01  0.1653E+00  0.1147E+00
      2.077  0.3613E+00  0.3037E-01  0.2355E+00  0.1206E+00
      2.272  0.4493E+00  0.2060E+00  0.3228E+00  0.1606E+00
      2.466  0.3707E+00  0.1289E+00  0.3949E+00  0.1857E+00
      2.660  0.6326E+00  0.1232E+00  0.5178E+00  0.2096E+00
      2.855  0.7120E+00  0.2188E+00  0.6562E+00  0.2522E+00
      3.049  0.7863E+00  0.5327E-01  0.8090E+00  0.2625E+00
      3.243  0.7013E+00  0.1760E+00  0.9453E+00  0.2967E+00
      3.438  0.4131E+00  0.3104E+00  0.1026E+01  0.3571E+00
      3.632  0.4193E+00  0.5921E+00  0.1107E+01  0.4721E+00
      3.827  0.3797E+00  0.4310E+00  0.1181E+01  0.5559E+00
      4.021  0.1001E+01  0.4182E+00  0.1375E+01  0.6372E+00
      4.215  0.1337E+01  0.4247E+00  0.1635E+01  0.7197E+00
      4.410  0.6757E+00  0.7438E+00  0.1767E+01  0.8643E+00
      4.604  0.5038E+00  0.6487E+00  0.1865E+01  0.9904E+00
      4.798  0.8551E+00  0.2264E+00  0.2031E+01  0.1034E+01
      4.993  0.1456E+01  0.2630E+00  0.2314E+01  0.1085E+01
      5.187  0.1032E+01  0.4064E+00  0.2514E+01  0.1164E+01
      5.381  0.5998E+00  0.8003E+00  0.2631E+01  0.1320E+01
      5.576  0.3527E+00  0.1236E+01  0.2699E+01  0.1560E+01
      5.770  0.2170E+00  0.8575E+00  0.2742E+01  0.1727E+01
      5.964  0.6089E+00  0.6662E+00  0.2860E+01  0.1856E+01
      6.159  0.5521E+00  0.9490E+00  0.2967E+01  0.2041E+01
      6.353  0.1863E+00  0.1008E+01  0.3003E+01  0.2237E+01
      6.547  0.3908E+00  0.8333E+00  0.3079E+01  0.2399E+01
      6.742  0.1003E+01  0.8805E+00  0.3274E+01  0.2570E+01
      6.936  0.1161E+01  0.7848E+00  0.3500E+01  0.2722E+01
      7.130  0.1359E+01  0.3571E+00  0.3764E+01  0.2792E+01
      7.325  0.1611E+01  0.1227E+00  0.4077E+01  0.2816E+01
      7.519  0.1800E+01  0.2946E+00  0.4427E+01  0.2873E+01
      7.714  0.1094E+01  0.4127E+00  0.4639E+01  0.2953E+01
      7.908  0.3826E+00  0.1930E+00  0.4714E+01  0.2991E+01
      8.102  0.8236E+00  0.3015E+00  0.4874E+01  0.3049E+01
      8.297  0.7766E+00  0.1790E+00  0.5025E+01  0.3084E+01
      8.491  0.4704E+00  0.4285E+00  0.5116E+01  0.3167E+01
      8.685  0.3885E+00  0.8602E+00  0.5192E+01  0.3334E+01
      8.880  0.2957E+00  0.6547E+00  0.5249E+01  0.3462E+01
      9.074  0.3289E+00  0.6735E+00  0.5313E+01  0.3592E+01
      9.268  0.1359E+00  0.1077E+01  0.5340E+01  0.3802E+01
      9.463  0.5392E-01  0.1035E+01  0.5350E+01  0.4003E+01
      9.657  0.4887E-01  0.1083E+01  0.5359E+01  0.4214E+01
      9.851  0.1238E+00  0.1634E+01  0.5384E+01  0.4531E+01
     10.046  0.3554E+00  0.1671E+01  0.5453E+01  0.4856E+01
     10.240  0.9872E-01  0.8792E+00  0.5472E+01  0.5027E+01
     10.434  0.1071E+00  0.6732E+00  0.5493E+01  0.5158E+01
     10.629  0.9572E-01  0.4048E+00  0.5511E+01  0.5236E+01
     10.823  0.7305E-01  0.2159E+00  0.5525E+01  0.5278E+01
     11.017  0.1218E-02  0.2792E+00  0.5526E+01  0.5333E+01
     11.212  0.7327E-01  0.1429E+00  0.5540E+01  0.5360E+01
     11.406  0.2322E+00  0.1128E+00  0.5585E+01  0.5382E+01
     11.601  0.1855E+00  0.3642E+00  0.5621E+01  0.5453E+01
     11.795  0.4388E-01  0.1340E+00  0.5630E+01  0.5479E+01
     11.989  0.1708E+00  0.1020E+00  0.5663E+01  0.5499E+01
     12.184  0.8684E-01  0.8894E-01  0.5680E+01  0.5516E+01
     12.378  0.1102E+00  0.7798E-01  0.5701E+01  0.5531E+01
     12.572  0.8231E-01  0.1392E+00  0.5717E+01  0.5558E+01
     12.767  0.8871E-02  0.1469E+00  0.5719E+01  0.5587E+01
     12.961  0.1114E+00  0.1667E+00  0.5740E+01  0.5619E+01
     13.155  0.1547E+00  0.1560E+00  0.5771E+01  0.5650E+01
     13.350  0.8012E-01  0.1089E+00  0.5786E+01  0.5671E+01
     13.544  0.2008E+00  0.6095E-01  0.5825E+01  0.5683E+01
     13.738  0.1041E+00  0.1271E+00  0.5845E+01  0.5707E+01
     13.933 -0.5822E-02  0.7350E-01  0.5844E+01  0.5722E+01
     14.127  0.3476E-01  0.4603E-01  0.5851E+01  0.5731E+01
     14.321  0.2500E-01  0.1854E+00  0.5856E+01  0.5767E+01
     14.516 -0.3667E-02  0.1855E+00  0.5855E+01  0.5803E+01
     14.710  0.1318E+00  0.1907E+00  0.5881E+01  0.5840E+01
     14.904  0.1212E+00  0.2642E-01  0.5904E+01  0.5845E+01
     15.099  0.4166E-01  0.1388E-01  0.5912E+01  0.5848E+01
     15.293  0.7781E-01  0.4096E-01  0.5928E+01  0.5856E+01
     15.488  0.1165E-02 -0.3180E-02  0.5928E+01  0.5855E+01
     15.682  0.1290E-01  0.3709E-01  0.5930E+01  0.5862E+01
     15.876  0.8467E-01  0.1734E+00  0.5947E+01  0.5896E+01
     16.071  0.5972E-01  0.5825E-01  0.5958E+01  0.5907E+01
     16.265  0.9555E-01  0.7744E-01  0.5977E+01  0.5922E+01
     16.459  0.6870E-01  0.4352E-01  0.5990E+01  0.5931E+01
     16.654  0.1146E-01  0.8209E-01  0.5992E+01  0.5947E+01
     16.848 -0.2403E-02  0.3176E-01  0.5992E+01  0.5953E+01
     17.042 -0.5950E-03  0.6928E-01  0.5992E+01  0.5966E+01
     17.237 -0.8013E-02  0.5448E-01  0.5990E+01  0.5977E+01
     17.431  0.4144E-01  0.4737E-01  0.5998E+01  0.5986E+01
     17.625  0.2364E+00  0.3357E-01  0.6044E+01  0.5993E+01
     17.820  0.1912E+00 -0.2233E-02  0.6082E+01  0.5992E+01
     18.014  0.3390E-01 -0.5831E-03  0.6088E+01  0.5992E+01
     18.208  0.1974E+00 -0.2721E-02  0.6126E+01  0.5991E+01
     18.403  0.4283E+00  0.4190E-02  0.6210E+01  0.5992E+01
     18.597  0.3070E+00  0.9311E-01  0.6269E+01  0.6010E+01
     18.791  0.2516E+00  0.2530E+00  0.6318E+01  0.6060E+01
     18.986  0.1620E+00  0.1948E+00  0.6350E+01  0.6097E+01
     19.180  0.3762E-01  0.1102E+00  0.6357E+01  0.6119E+01
     19.375 -0.8077E-02  0.3459E+00  0.6355E+01  0.6186E+01
     19.569 -0.1563E-02  0.4807E+00  0.6355E+01  0.6279E+01
     19.763  0.1345E+00  0.2760E+00  0.6381E+01  0.6333E+01
     19.958  0.3441E+00  0.1038E+00  0.6448E+01  0.6353E+01
     20.152  0.2326E+00  0.1998E-01  0.6493E+01  0.6357E+01
     20.346  0.9373E-01  0.3054E-01  0.6512E+01  0.6363E+01
     20.541  0.3569E+00  0.1171E+00  0.6581E+01  0.6386E+01
     20.735  0.2700E+00  0.1886E+00  0.6633E+01  0.6423E+01
     20.929  0.7090E-01  0.2567E+00  0.6647E+01  0.6472E+01
     21.124  0.2543E-01  0.1970E+00  0.6652E+01  0.6511E+01
     21.318  0.1236E+00  0.2634E+00  0.6676E+01  0.6562E+01
     21.512  0.9846E-01  0.3009E+00  0.6695E+01  0.6620E+01
     21.707  0.1629E+00  0.1582E+00  0.6727E+01  0.6651E+01
     21.901  0.2306E+00  0.7226E-01  0.6772E+01  0.6665E+01
     22.095  0.4275E+00  0.6950E-01  0.6855E+01  0.6679E+01
     22.290  0.3871E+00  0.1833E+00  0.6930E+01  0.6714E+01
     22.484  0.5079E-01  0.1508E+00  0.6940E+01  0.6744E+01
     22.678 -0.1105E-01  0.2360E+00  0.6938E+01  0.6789E+01
     22.873  0.2856E-01  0.3744E+00  0.6943E+01  0.6862E+01
     23.067  0.2258E-01  0.2775E+00  0.6948E+01  0.6916E+01
     23.262  0.1324E+00  0.1160E+00  0.6974E+01  0.6939E+01
     23.456  0.3175E+00  0.1578E-01  0.7035E+01  0.6942E+01
     23.650  0.1273E+00  0.3176E-01  0.7060E+01  0.6948E+01
     23.845  0.7353E-01  0.5368E-01  0.7074E+01  0.6958E+01
     24.039  0.2253E+00  0.2625E+00  0.7118E+01  0.7009E+01
     24.233  0.2388E+00  0.2388E+00  0.7164E+01  0.7056E+01
     24.428  0.3457E+00  0.7225E-01  0.7232E+01  0.7070E+01
     24.622  0.3088E+00  0.1175E+00  0.7292E+01  0.7093E+01
     24.816  0.1143E+00  0.2383E+00  0.7314E+01  0.7139E+01
     25.011  0.6052E-01  0.3917E+00  0.7326E+01  0.7215E+01
     25.205  0.1673E-01  0.3896E+00  0.7329E+01  0.7291E+01
     25.399  0.2253E+00  0.4918E-01  0.7373E+01  0.7300E+01
     25.594  0.1329E+00  0.7399E-01  0.7399E+01  0.7315E+01
     25.788  0.1408E+00  0.6690E-01  0.7426E+01  0.7328E+01
     25.982  0.2047E+00  0.2309E+00  0.7466E+01  0.7373E+01
     26.177  0.1005E+00  0.1594E+00  0.7485E+01  0.7404E+01
     26.371  0.3279E+00  0.1374E+00  0.7549E+01  0.7430E+01
     26.565  0.1383E+00  0.1739E+00  0.7576E+01  0.7464E+01
     26.760  0.4952E-02  0.1641E+00  0.7577E+01  0.7496E+01
     26.954  0.9802E-01  0.2513E+00  0.7596E+01  0.7545E+01
     27.149  0.1847E+00  0.1094E+00  0.7632E+01  0.7566E+01
     27.343  0.8596E-01  0.3567E-01  0.7648E+01  0.7573E+01
     27.537  0.1404E+00  0.9710E-01  0.7676E+01  0.7592E+01
     27.732  0.4250E+00  0.1127E+00  0.7758E+01  0.7614E+01
     27.926  0.3529E+00  0.1909E+00  0.7827E+01  0.7651E+01
     28.120  0.3198E+00  0.2924E+00  0.7889E+01  0.7708E+01
     28.315  0.1846E+00  0.3511E+00  0.7925E+01  0.7776E+01
     28.509  0.2323E+00  0.3786E+00  0.7970E+01  0.7850E+01
     28.703  0.2765E+00  0.3060E+00  0.8024E+01  0.7909E+01
     28.898  0.3099E+00  0.1660E+00  0.8084E+01  0.7941E+01
     29.092  0.2399E+00  0.2330E+00  0.8131E+01  0.7987E+01
     29.286  0.2159E+00  0.3570E+00  0.8173E+01  0.8056E+01
     29.481  0.2204E+00  0.2952E+00  0.8215E+01  0.8113E+01
     29.675  0.9483E-01  0.2566E+00  0.8234E+01  0.8163E+01
     29.869  0.1605E+00  0.1325E+00  0.8265E+01  0.8189E+01
     30.064  0.1405E-01  0.1374E+00  0.8268E+01  0.8216E+01
     30.258  0.1550E+00  0.8573E-01  0.8298E+01  0.8232E+01
     30.452  0.2616E+00  0.1695E+00  0.8349E+01  0.8265E+01
     30.647  0.3978E-01  0.1125E+00  0.8357E+01  0.8287E+01
     30.841  0.2906E+00  0.2619E+00  0.8413E+01  0.8338E+01
     31.036  0.6601E+00  0.8900E-01  0.8541E+01  0.8355E+01
     31.230  0.2358E+00  0.2430E+00  0.8587E+01  0.8403E+01
     31.424  0.1733E+00  0.5507E+00  0.8621E+01  0.8510E+01
     31.619  0.3417E+00  0.3754E+00  0.8687E+01  0.8583E+01
     31.813  0.1945E+00  0.1649E+00  0.8725E+01  0.8615E+01
     32.007  0.6204E-01  0.3123E+00  0.8737E+01  0.8675E+01
     32.202  0.8010E-01  0.2362E+00  0.8753E+01  0.8721E+01
     32.396  0.2509E+00  0.1439E-01  0.8801E+01  0.8724E+01
     32.590  0.1104E+00  0.1686E-01  0.8823E+01  0.8727E+01
     32.785  0.5662E-01  0.2237E+00  0.8834E+01  0.8771E+01
     32.979  0.2640E+00  0.2668E+00  0.8885E+01  0.8823E+01
     33.173  0.1439E+00  0.1034E+00  0.8913E+01  0.8843E+01
     33.368  0.2461E+00  0.1338E+00  0.8961E+01  0.8869E+01
     33.562  0.3276E+00  0.9475E-01  0.9025E+01  0.8887E+01
     33.756  0.1122E+00  0.3804E+00  0.9046E+01  0.8961E+01
     33.951  0.1113E+00  0.4488E+00  0.9068E+01  0.9048E+01
     34.145  0.1152E+00  0.3850E-01  0.9090E+01  0.9056E+01
     34.339  0.6309E-01  0.5676E-01  0.9103E+01  0.9067E+01
     34.534  0.3391E-02  0.1332E+00  0.9103E+01  0.9093E+01
     34.728  0.1997E+00  0.5261E-01  0.9142E+01  0.9103E+01
     34.923  0.4325E+00  0.1078E+00  0.9226E+01  0.9124E+01
     35.117  0.9684E-01  0.2850E+00  0.9245E+01  0.9179E+01
     35.311  0.3012E-01  0.2879E+00  0.9251E+01  0.9235E+01
     35.506  0.9174E-01  0.6451E-01  0.9269E+01  0.9248E+01
     35.700  0.6582E-01  0.1162E+00  0.9282E+01  0.9270E+01
     35.894  0.1091E+00  0.4470E-01  0.9303E+01  0.9279E+01
     36.089  0.2074E+00 -0.1110E-01  0.9343E+01  0.9277E+01
     36.283  0.4620E+00  0.1900E-01  0.9433E+01  0.9281E+01
     36.477  0.8619E+00  0.2574E+00  0.9600E+01  0.9331E+01
     36.672  0.3123E+00  0.8136E+00  0.9661E+01  0.9489E+01
     36.866  0.2481E-01  0.5476E+00  0.9666E+01  0.9595E+01
     37.060  0.1044E+00  0.2750E+00  0.9686E+01  0.9649E+01
     37.255  0.9304E-01  0.5272E-01  0.9704E+01  0.9659E+01
     37.449  0.6401E-02  0.3372E-01  0.9705E+01  0.9665E+01
     37.643  0.3178E-01  0.7683E-01  0.9712E+01  0.9680E+01
     37.838  0.1891E+00  0.9547E-01  0.9748E+01  0.9699E+01
     38.032  0.1930E+00  0.1564E+00  0.9786E+01  0.9729E+01
     38.226  0.2875E-01  0.8809E-01  0.9792E+01  0.9746E+01
     38.421  0.1864E+00  0.1054E+00  0.9828E+01  0.9767E+01
     38.615  0.4819E+00  0.3312E+00  0.9921E+01  0.9831E+01
     38.809  0.1067E+00  0.3667E+00  0.9942E+01  0.9902E+01
     39.004  0.6294E-01  0.7126E-01  0.9954E+01  0.9916E+01
     39.198  0.3957E-01 -0.1836E-01  0.9962E+01  0.9913E+01
     39.393  0.8942E-01  0.6060E-01  0.9979E+01  0.9925E+01
     39.587  0.2116E+00  0.1707E+00  0.1002E+02  0.9958E+01
     39.781  0.3389E+00  0.1921E+00  0.1009E+02  0.9995E+01
     39.976  0.3718E+00  0.2895E+00  0.1016E+02  0.1005E+02
     40.170  0.5736E+00  0.1624E+00  0.1027E+02  0.1008E+02
     40.364  0.2215E+00  0.3356E+00  0.1031E+02  0.1015E+02
     40.559  0.1460E+00  0.4009E+00  0.1034E+02  0.1023E+02
     40.753  0.3217E+00  0.4381E+00  0.1040E+02  0.1031E+02
     40.947  0.1270E+00  0.1702E+00  0.1043E+02  0.1034E+02
     41.142  0.2197E+00  0.6007E-01  0.1047E+02  0.1036E+02
     41.336  0.1562E+00  0.3254E+00  0.1050E+02  0.1042E+02
     41.530  0.2818E+00  0.2609E+00  0.1056E+02  0.1047E+02
     41.725  0.2409E+00  0.4102E-02  0.1060E+02  0.1047E+02
     41.919  0.2196E+00  0.1678E+00  0.1065E+02  0.1050E+02
     42.113  0.1485E+00  0.3815E+00  0.1067E+02  0.1058E+02
     42.308  0.1274E+00  0.3587E+00  0.1070E+02  0.1065E+02
     42.502  0.3148E+00  0.2297E+00  0.1076E+02  0.1069E+02
     42.696  0.1361E+00  0.1469E+00  0.1079E+02  0.1072E+02
     42.891  0.2413E-02  0.2688E+00  0.1079E+02  0.1077E+02
     43.085  0.8874E-01  0.7577E-01  0.1081E+02  0.1079E+02
     43.280  0.3936E+00  0.1415E-01  0.1088E+02  0.1079E+02
     43.474  0.4478E+00  0.7253E-01  0.1097E+02  0.1080E+02
     43.668  0.2109E+00  0.3052E+00  0.1101E+02  0.1086E+02
     43.863  0.1890E+00  0.6035E+00  0.1105E+02  0.1098E+02
     44.057  0.4167E+00  0.1436E+00  0.1113E+02  0.1101E+02
     44.251  0.1657E+00  0.8068E-01  0.1116E+02  0.1102E+02
     44.446  0.1295E-01  0.4960E+00  0.1116E+02  0.1112E+02
     44.640  0.3223E+00  0.2390E+00  0.1122E+02  0.1117E+02
     44.834  0.2874E+00  0.9440E-01  0.1128E+02  0.1119E+02
     45.029  0.2292E+00  0.1619E+00  0.1133E+02  0.1122E+02
     45.223  0.2126E+00  0.2261E+00  0.1137E+02  0.1126E+02
     45.417  0.2444E+00  0.3271E+00  0.1141E+02  0.1132E+02
     45.612  0.1540E+00  0.1591E+00  0.1144E+02  0.1136E+02
     45.806  0.1632E+00  0.1939E+00  0.1148E+02  0.1139E+02
     46.000  0.4847E+00  0.2009E+00  0.1157E+02  0.1143E+02
     46.195  0.2458E+00  0.1398E+00  0.1162E+02  0.1146E+02
     46.389  0.8259E-01  0.2948E+00  0.1163E+02  0.1152E+02
     46.583  0.9563E-01  0.3943E+00  0.1165E+02  0.1159E+02
     46.778  0.3451E-01  0.2764E+00  0.1166E+02  0.1165E+02
     46.972  0.1590E+00  0.6450E-01  0.1169E+02  0.1166E+02
     47.167  0.6520E-01  0.7998E-01  0.1170E+02  0.1168E+02
     47.361  0.5599E-01  0.6586E-01  0.1171E+02  0.1169E+02
     47.555  0.1428E+00  0.1232E+00  0.1174E+02  0.1171E+02
     47.750  0.4368E-01  0.1754E+00  0.1175E+02  0.1175E+02
     47.944  0.4323E-01  0.2742E-01  0.1176E+02  0.1175E+02
     48.138  0.1785E+00 -0.6689E-02  0.1179E+02  0.1175E+02
     48.333  0.8320E-01 -0.9853E-02  0.1181E+02  0.1175E+02
     48.527  0.2277E+00  0.5691E-01  0.1185E+02  0.1176E+02
     48.721  0.1351E+00  0.2906E+00  0.1188E+02  0.1182E+02
     48.916  0.6382E-01  0.1815E+00  0.1189E+02  0.1185E+02
     49.110  0.8451E-01  0.1165E+00  0.1191E+02  0.1187E+02
     49.304 -0.9250E-04  0.1080E+00  0.1191E+02  0.1189E+02
     49.499  0.1453E-01  0.7301E-01  0.1191E+02  0.1191E+02
     49.693  0.2582E-01 -0.2795E-02  0.1192E+02  0.1191E+02
     49.887  0.6812E-03  0.1987E-01  0.1192E+02  0.1191E+02
     50.082 -0.6544E-02  0.2168E-01  0.1191E+02  0.1192E+02
     50.276  0.2859E-01 -0.8932E-03  0.1192E+02  0.1192E+02
     50.470  0.1752E+00 -0.5327E-02  0.1195E+02  0.1191E+02
     50.665  0.5724E-01  0.3319E-01  0.1197E+02  0.1192E+02
     50.859 -0.8382E-02  0.1486E+00  0.1196E+02  0.1195E+02
     51.054  0.1073E-01  0.1004E+00  0.1197E+02  0.1197E+02
     51.248  0.2237E-01  0.2626E-02  0.1197E+02  0.1197E+02
     51.442  0.3512E-01 -0.5667E-02  0.1198E+02  0.1197E+02
     51.637  0.9159E-01  0.5051E-01  0.1199E+02  0.1198E+02
     51.831  0.3015E-01  0.1000E+00  0.1200E+02  0.1200E+02
     52.025 -0.3906E-02  0.1093E-01  0.1200E+02  0.1200E+02
     52.220 -0.3282E-03 -0.2976E-02  0.1200E+02  0.1200E+02
     52.414 -0.2294E-05 -0.1096E-03  0.1200E+02  0.1200E+02
     52.608 -0.2074E-08 -0.4316E-06  0.1200E+02  0.1200E+02
     52.803 -0.2635E-12 -0.2290E-09  0.1200E+02  0.1200E+02
     52.997  0.0000E+00 -0.1729E-13  0.1200E+02  0.1200E+02
     53.191  0.0000E+00  0.0000E+00  0.1200E+02  0.1200E+02
     53.386  0.0000E+00  0.0000E+00  0.1200E+02  0.1200E+02
     53.580  0.0000E+00  0.0000E+00  0.1200E+02  0.1200E+02
     53.774  0.0000E+00  0.0000E+00  0.1200E+02  0.1200E+02
     53.969  0.0000E+00  0.0000E+00  0.1200E+02  0.1200E+02
     54.163  0.0000E+00  0.0000E+00  0.1200E+02  0.1200E+02
     54.357  0.0000E+00  0.0000E+00  0.1200E+02  0.1200E+02
