fcc Au                                  
   4.30000000000000     
     0.000000    0.438060    0.438060
     0.438060    0.000000    0.438060
     0.438060    0.438060   -0.000000
   Au
     1
Direct
  0.000000  0.000000  0.000000
 
   36   36   36
  96.912      95.042      89.848      82.379      73.837      65.110      56.572      48.209      39.939      31.879    
  24.408      18.009      13.038      9.5494      7.2838      5.7999      4.8532      4.3400      4.1790      4.3400    
  4.8532      5.7999      7.2838      9.5494      13.038      18.009      24.408      31.879      39.939      48.209    
  56.572      65.110      73.837      82.379      89.848      95.042      95.042      91.514      85.207      77.267    
  68.740      60.234      51.895      43.647      35.506      27.742      20.815      15.167      11.008      8.2204    
  6.4210      5.2321      4.5231      4.1973      4.1973      4.5231      5.2321      6.4210      8.2204      11.008    
  15.167      20.815      27.742      35.506      43.647      51.895      60.234      68.740      77.267      85.207    
  91.514      95.042      89.848      85.207      78.483      70.695      62.596      54.508      46.449      38.412    
  30.581      23.362      17.229      12.504      9.2075      7.0630      5.6433      4.7393      4.2500      4.0966    
  4.2500      4.7393      5.6433      7.0630      9.2075      12.504      17.229      23.362      30.581      38.412    
  46.449      54.508      62.595      70.695      78.483      85.207      89.848      91.514      82.379      77.267    
  70.695      63.415      55.869      48.199      40.439      32.739      25.453      19.048      13.913      10.185    
  7.6983      6.0625      4.9758      4.3304      4.0343      4.0343      4.3304      4.9758      6.0625      7.6982    
  10.185      13.913      19.048      25.453      32.739      40.439      48.199      55.869      63.415      70.695    
  77.267      82.379      85.207      85.207      73.837      68.740      62.596      55.869      48.795      41.481    
  34.087      26.934      20.469      15.108      11.072      8.2945      6.4610      5.2156      4.4283      4.0036    
  3.8706      4.0037      4.4283      5.2156      6.4610      8.2944      11.072      15.108      20.469      26.934    
  34.087      41.481      48.795      55.869      62.595      68.740      73.837      77.267      78.483      77.267    
  65.110      60.234      54.508      48.199      41.481      34.544      27.701      21.371      15.975      11.781    
  8.8047      6.8092      5.4392      4.5318      3.9957      3.7503      3.7503      3.9957      4.5318      5.4392    
  6.8092      8.8047      11.781      15.975      21.371      27.701      34.544      41.481      48.199      54.508    
  60.234      65.110      68.740      70.695      70.695      68.740      56.572      51.895      46.449      40.439    
  34.087      27.701      21.680      16.430      12.240      9.1793      7.0819      5.6273      4.6283      4.0016    
  3.6642      3.5585      3.6642      4.0016      4.6283      5.6273      7.0819      9.1793      12.240      16.430    
  21.680      27.701      34.087      40.439      46.450      51.895      56.572      60.234      62.595      63.415    
  62.595      60.234      48.209      43.647      38.412      32.739      26.934      21.371      16.430      12.399    
  9.3779      7.2569      5.7631      4.7065      4.0132      3.6043      3.4168      3.4168      3.6044      4.0132    
  4.7065      5.7631      7.2569      9.3779      12.399      16.430      21.371      26.934      32.739      38.412    
  43.647      48.209      51.895      54.508      55.869      55.869      54.508      51.895      39.939      35.506    
  30.581      25.453      20.469      15.975      12.240      9.3779      7.3173      5.8343      4.7573      4.0244    
  3.5650      3.3166      3.2385      3.3166      3.5650      4.0244      4.7573      5.8343      7.3173      9.3779    
  12.240      15.975      20.469      25.453      30.580      35.506      39.939      43.647      46.450      48.199    
  48.795      48.199      46.449      43.647      31.879      27.742      23.362      19.048      15.108      11.781    
  9.1793      7.2569      5.8343      4.7749      4.0311      3.5425      3.2521      3.1178      3.1178      3.2521    
  3.5425      4.0310      4.7749      5.8343      7.2569      9.1793      11.781      15.108      19.048      23.362    
  27.742      31.879      35.506      38.412      40.439      41.481      41.481      40.439      38.412      35.506    
  24.408      20.815      17.229      13.913      11.072      8.8047      7.0819      5.7631      4.7573      4.0311    
  3.5352      3.2204      3.0477      2.9928      3.0477      3.2204      3.5352      4.0310      4.7573      5.7631    
  7.0819      8.8047      11.072      13.913      17.229      20.815      24.408      27.742      30.580      32.739    
  34.087      34.544      34.087      32.739      30.581      27.742      18.009      15.167      12.504      10.185    
  8.2945      6.8092      5.6273      4.7065      4.0244      3.5425      3.2204      3.0246      2.9324      2.9324    
  3.0246      3.2204      3.5425      4.0244      4.7065      5.6273      6.8092      8.2945      10.185      12.504    
  15.167      18.009      20.815      23.362      25.453      26.934      27.701      27.701      26.934      25.453    
  23.362      20.815      13.038      11.008      9.2075      7.6983      6.4610      5.4392      4.6283      4.0132    
  3.5650      3.2521      3.0477      2.9324      2.8952      2.9324      3.0477      3.2521      3.5650      4.0132    
  4.6283      5.4392      6.4610      7.6983      9.2075      11.008      13.038      15.167      17.229      19.048    
  20.469      21.371      21.680      21.371      20.469      19.048      17.229      15.167      9.5494      8.2204    
  7.0630      6.0625      5.2156      4.5318      4.0016      3.6043      3.3166      3.1178      2.9928      2.9324    
  2.9324      2.9928      3.1178      3.3166      3.6044      4.0016      4.5318      5.2156      6.0626      7.0630    
  8.2204      9.5495      11.008      12.504      13.913      15.108      15.975      16.430      16.430      15.975    
  15.108      13.913      12.504      11.008      7.2838      6.4210      5.6433      4.9758      4.4283      3.9957    
  3.6642      3.4168      3.2385      3.1178      3.0477      3.0246      3.0477      3.1178      3.2385      3.4169    
  3.6642      3.9957      4.4283      4.9758      5.6433      6.4210      7.2838      8.2204      9.2075      10.185    
  11.072      11.781      12.240      12.399      12.240      11.781      11.072      10.185      9.2075      8.2204    
  5.7999      5.2321      4.7393      4.3304      4.0036      3.7503      3.5585      3.4168      3.3166      3.2521    
  3.2204      3.2204      3.2521      3.3166      3.4169      3.5585      3.7503      4.0036      4.3304      4.7393    
  5.2321      5.7999      6.4210      7.0630      7.6983      8.2945      8.8047      9.1793      9.3779      9.3779    
  9.1793      8.8047      8.2944      7.6982      7.0630      6.4210      4.8532      4.5231      4.2500      4.0343    
  3.8706      3.7503      3.6642      3.6044      3.5650      3.5425      3.5352      3.5425      3.5650      3.6044    
  3.6642      3.7503      3.8706      4.0343      4.2500      4.5231      4.8532      5.2321      5.6433      6.0626    
  6.4610      6.8092      7.0819      7.2569      7.3173      7.2569      7.0819      6.8092      6.4610      6.0625    
  5.6433      5.2321      4.3400      4.1973      4.0966      4.0343      4.0037      3.9957      4.0016      4.0132    
  4.0244      4.0310      4.0310      4.0244      4.0132      4.0016      3.9957      4.0036      4.0343      4.0965    
  4.1973      4.3400      4.5231      4.7393      4.9758      5.2156      5.4392      5.6273      5.7631      5.8343    
  5.8343      5.7631      5.6273      5.4392      5.2156      4.9758      4.7393      4.5231      4.1790      4.1973    
  4.2500      4.3304      4.4283      4.5318      4.6283      4.7065      4.7573      4.7749      4.7573      4.7065    
  4.6283      4.5318      4.4283      4.3304      4.2500      4.1973      4.1789      4.1973      4.2500      4.3304    
  4.4283      4.5318      4.6283      4.7065      4.7573      4.7749      4.7573      4.7065      4.6283      4.5318    
  4.4283      4.3304      4.2500      4.1973      4.3400      4.5231      4.7393      4.9758      5.2156      5.4392    
  5.6273      5.7631      5.8343      5.8343      5.7631      5.6273      5.4392      5.2156      4.9758      4.7393    
  4.5231      4.3400      4.1973      4.0965      4.0343      4.0036      3.9957      4.0016      4.0132      4.0244    
  4.0310      4.0310      4.0244      4.0132      4.0016      3.9957      4.0037      4.0343      4.0966      4.1973    
  4.8532      5.2321      5.6433      6.0625      6.4610      6.8092      7.0819      7.2569      7.3173      7.2569    
  7.0819      6.8092      6.4610      6.0626      5.6433      5.2321      4.8532      4.5231      4.2500      4.0343    
  3.8706      3.7503      3.6642      3.6044      3.5650      3.5425      3.5352      3.5425      3.5650      3.6044    
  3.6642      3.7503      3.8706      4.0343      4.2500      4.5231      5.7999      6.4210      7.0630      7.6982    
  8.2944      8.8047      9.1793      9.3779      9.3779      9.1793      8.8047      8.2945      7.6983      7.0630    
  6.4210      5.7999      5.2321      4.7393      4.3304      4.0036      3.7503      3.5585      3.4169      3.3166    
  3.2521      3.2204      3.2204      3.2521      3.3166      3.4168      3.5585      3.7503      4.0036      4.3304    
  4.7393      5.2321      7.2838      8.2204      9.2075      10.185      11.072      11.781      12.240      12.399    
  12.240      11.781      11.072      10.185      9.2075      8.2204      7.2838      6.4210      5.6433      4.9758    
  4.4283      3.9957      3.6642      3.4169      3.2385      3.1178      3.0477      3.0246      3.0477      3.1178    
  3.2385      3.4168      3.6642      3.9957      4.4283      4.9758      5.6433      6.4210      9.5494      11.008    
  12.504      13.913      15.108      15.975      16.430      16.430      15.975      15.108      13.913      12.504    
  11.008      9.5495      8.2204      7.0630      6.0626      5.2156      4.5318      4.0016      3.6044      3.3166    
  3.1178      2.9928      2.9324      2.9324      2.9928      3.1178      3.3166      3.6043      4.0016      4.5318    
  5.2156      6.0625      7.0630      8.2204      13.038      15.167      17.229      19.048      20.469      21.371    
  21.680      21.371      20.469      19.048      17.229      15.167      13.038      11.008      9.2075      7.6983    
  6.4610      5.4392      4.6283      4.0132      3.5650      3.2521      3.0477      2.9324      2.8952      2.9324    
  3.0477      3.2521      3.5650      4.0132      4.6283      5.4392      6.4610      7.6983      9.2075      11.008    
  18.009      20.815      23.362      25.453      26.934      27.701      27.701      26.934      25.453      23.362    
  20.815      18.009      15.167      12.504      10.185      8.2945      6.8092      5.6273      4.7065      4.0244    
  3.5425      3.2204      3.0246      2.9324      2.9324      3.0246      3.2204      3.5425      4.0244      4.7065    
  5.6273      6.8092      8.2945      10.185      12.504      15.167      24.408      27.742      30.581      32.739    
  34.087      34.544      34.087      32.739      30.580      27.742      24.408      20.815      17.229      13.913    
  11.072      8.8047      7.0819      5.7631      4.7573      4.0310      3.5352      3.2204      3.0477      2.9928    
  3.0477      3.2204      3.5352      4.0311      4.7573      5.7631      7.0819      8.8047      11.072      13.913    
  17.229      20.815      31.879      35.506      38.412      40.439      41.481      41.481      40.439      38.412    
  35.506      31.879      27.742      23.362      19.048      15.108      11.781      9.1793      7.2569      5.8343    
  4.7749      4.0310      3.5425      3.2521      3.1178      3.1178      3.2521      3.5425      4.0311      4.7749    
  5.8343      7.2569      9.1793      11.781      15.108      19.048      23.362      27.742      39.939      43.647    
  46.449      48.199      48.795      48.199      46.450      43.647      39.939      35.506      30.580      25.453    
  20.469      15.975      12.240      9.3779      7.3173      5.8343      4.7573      4.0244      3.5650      3.3166    
  3.2385      3.3166      3.5650      4.0244      4.7573      5.8343      7.3173      9.3779      12.240      15.975    
  20.469      25.453      30.581      35.506      48.209      51.895      54.508      55.869      55.869      54.508    
  51.895      48.209      43.647      38.412      32.739      26.934      21.371      16.430      12.399      9.3779    
  7.2569      5.7631      4.7065      4.0132      3.6044      3.4168      3.4168      3.6043      4.0132      4.7065    
  5.7631      7.2569      9.3779      12.399      16.430      21.371      26.934      32.739      38.412      43.647    
  56.572      60.234      62.595      63.415      62.595      60.234      56.572      51.895      46.450      40.439    
  34.087      27.701      21.680      16.430      12.240      9.1793      7.0819      5.6273      4.6283      4.0016    
  3.6642      3.5585      3.6642      4.0016      4.6283      5.6273      7.0819      9.1793      12.240      16.430    
  21.680      27.701      34.087      40.439      46.449      51.895      65.110      68.740      70.695      70.695    
  68.740      65.110      60.234      54.508      48.199      41.481      34.544      27.701      21.371      15.975    
  11.781      8.8047      6.8092      5.4392      4.5318      3.9957      3.7503      3.7503      3.9957      4.5318    
  5.4392      6.8092      8.8047      11.781      15.975      21.371      27.701      34.544      41.481      48.199    
  54.508      60.234      73.837      77.267      78.483      77.267      73.837      68.740      62.595      55.869    
  48.795      41.481      34.087      26.934      20.469      15.108      11.072      8.2944      6.4610      5.2156    
  4.4283      4.0037      3.8706      4.0036      4.4283      5.2156      6.4610      8.2945      11.072      15.108    
  20.469      26.934      34.087      41.481      48.795      55.869      62.596      68.740      82.379      85.207    
  85.207      82.379      77.267      70.695      63.415      55.869      48.199      40.439      32.739      25.453    
  19.048      13.913      10.185      7.6982      6.0625      4.9758      4.3304      4.0343      4.0343      4.3304    
  4.9758      6.0625      7.6983      10.185      13.913      19.048      25.453      32.739      40.439      48.199    
  55.869      63.415      70.695      77.267      89.848      91.514      89.848      85.207      78.483      70.695    
  62.595      54.508      46.449      38.412      30.581      23.362      17.229      12.504      9.2075      7.0630    
  5.6433      4.7393      4.2500      4.0966      4.2500      4.7393      5.6433      7.0630      9.2075      12.504    
  17.229      23.362      30.581      38.412      46.449      54.508      62.596      70.695      78.483      85.207    
  95.042      95.042      91.514      85.207      77.267      68.740      60.234      51.895      43.647      35.506    
  27.742      20.815      15.167      11.008      8.2204      6.4210      5.2321      4.5231      4.1973      4.1973    
  4.5231      5.2321      6.4210      8.2204      11.008      15.167      20.815      27.742      35.506      43.647    
  51.895      60.234      68.740      77.267      85.207      91.514      95.042      91.514      85.207      77.267    
  68.740      60.234      51.895      43.647      35.506      27.742      20.815      15.167      11.008      8.2204    
  6.4210      5.2321      4.5231      4.1973      4.1973      4.5231      5.2321      6.4210      8.2204      11.008    
  15.167      20.815      27.742      35.506      43.647      51.895      60.234      68.740      77.267      85.207    
  91.514      95.042      91.514      86.688      79.714      71.675      63.369      55.137      46.985      38.880    
  30.983      23.690      17.477      12.675      9.3191      7.1366      5.6967      4.7791      4.2822      4.1263    
  4.2822      4.7791      5.6968      7.1366      9.3191      12.675      17.477      23.690      30.983      38.880    
  46.985      55.136      63.369      71.675      79.714      86.688      91.514      93.248      85.207      79.714    
  72.708      65.034      57.190      49.317      41.414      33.587      26.160      19.598      14.307      10.447    
  7.8674      6.1818      5.0631      4.3976      4.0923      4.0923      4.3977      5.0631      6.1818      7.8674    
  10.447      14.307      19.598      26.160      33.587      41.414      49.317      57.190      65.034      72.708    
  79.714      85.207      88.259      88.259      77.267      71.675      65.034      57.896      50.520      42.987    
  35.403      28.049      21.356      15.762      11.516      8.5819      6.6565      5.3574      4.5340      4.0895    
  3.9502      4.0895      4.5340      5.3574      6.6565      8.5818      11.516      15.762      21.356      28.049    
  35.403      42.987      50.520      57.895      65.034      71.675      77.267      81.065      82.418      81.065    
  68.740      63.369      57.190      50.520      43.520      36.336      29.231      22.609      16.907      12.429    
  9.2278      7.0892      5.6407      4.6787      4.1095      3.8487      3.8487      4.1095      4.6787      5.6407    
  7.0892      9.2277      12.429      16.907      22.609      29.231      36.336      43.520      50.520      57.190    
  63.369      68.740      72.801      75.011      75.011      72.801      60.234      55.137      49.317      42.987    
  36.336      29.633      23.260      17.638      13.095      9.7453      7.4526      5.8905      4.8173      4.1426    
  3.7793      3.6655      3.7793      4.1426      4.8173      5.8905      7.4526      9.7453      13.095      17.638    
  23.260      29.633      36.336      42.987      49.317      55.137      60.234      64.304      66.967      67.898    
  66.967      64.304      51.895      46.985      41.414      35.403      29.231      23.260      17.889      13.446    
  10.081      7.7171      6.0861      4.9359      4.1796      3.7336      3.5292      3.5292      3.7336      4.1796    
  4.9360      6.0861      7.7171      10.081      13.446      17.889      23.260      29.231      35.403      41.414    
  46.985      51.895      55.925      58.826      60.355      60.355      58.826      55.925      43.647      38.880    
  33.587      28.049      22.609      17.638      13.446      10.197      7.8567      6.2106      5.0225      4.2122    
  3.7046      3.4308      3.3448      3.4308      3.7046      4.2122      5.0225      6.2106      7.8567      10.197    
  13.446      17.638      22.609      28.049      33.587      38.880      43.647      47.664      50.728      52.660    
  53.321      52.660      50.728      47.663      35.506      30.983      26.160      21.356      16.907      13.095    
  10.081      7.8567      6.2533      5.0681      4.2343      3.6876      3.3638      3.2146      3.2146      3.3638    
  3.6876      4.2343      5.0681      6.2533      7.8567      10.081      13.095      16.907      21.356      26.160    
  30.983      35.506      39.463      42.639      44.863      46.009      46.009      44.863      42.639      39.463    
  27.742      23.690      19.598      15.762      12.429      9.7453      7.7171      6.2106      5.0681      4.2420    
  3.6797      3.3247      3.1310      3.0697      3.1310      3.3247      3.6797      4.2420      5.0681      6.2106    
  7.7171      9.7453      12.429      15.762      19.598      23.690      27.742      31.469      34.627      37.024    
  38.520      39.028      38.520      37.024      34.627      31.469      20.815      17.477      14.307      11.516    
  9.2278      7.4526      6.0861      5.0225      4.2343      3.6797      3.3118      3.0901      2.9864      2.9863    
  3.0901      3.3118      3.6797      4.2343      5.0225      6.0861      7.4526      9.2278      11.516      14.307    
  17.477      20.815      24.071      27.001      29.391      31.077      31.948      31.948      31.077      29.391    
  27.001      24.072      15.167      12.675      10.447      8.5819      7.0892      5.8905      4.9359      4.2122    
  3.6876      3.3247      3.0901      2.9591      2.9171      2.9591      3.0901      3.3247      3.6876      4.2122    
  4.9360      5.8905      7.0893      8.5819      10.447      12.675      15.167      17.754      20.231      22.398    
  24.078      25.141      25.504      25.141      24.078      22.398      20.231      17.754      11.008      9.3191    
  7.8674      6.6565      5.6407      4.8173      4.1796      3.7046      3.3638      3.1310      2.9864      2.9171    
  2.9171      2.9864      3.1310      3.3638      3.7046      4.1796      4.8173      5.6407      6.6565      7.8675    
  9.3191      11.008      12.860      14.745      16.506      17.989      19.058      19.618      19.618      19.058    
  17.989      16.506      14.745      12.860      8.2204      7.1366      6.1818      5.3574      4.6787      4.1426    
  3.7336      3.4308      3.2146      3.0697      2.9863      2.9591      2.9864      3.0697      3.2146      3.4308    
  3.7336      4.1426      4.6787      5.3574      6.1818      7.1367      8.2204      9.4333      10.725      12.005    
  13.161      14.083      14.676      14.881      14.676      14.083      13.161      12.005      10.725      9.4333    
  6.4210      5.6967      5.0631      4.5340      4.1095      3.7793      3.5292      3.3448      3.2146      3.1310    
  3.0901      3.0901      3.1310      3.2146      3.3448      3.5292      3.7793      4.1095      4.5340      5.0631    
  5.6968      6.4210      7.2076      8.0380      8.8841      9.6889      10.381      10.889      11.159      11.159    
  10.889      10.381      9.6889      8.8841      8.0380      7.2075      5.2321      4.7791      4.3976      4.0895    
  3.8487      3.6655      3.5292      3.4308      3.3638      3.3247      3.3118      3.3247      3.3638      3.4308    
  3.5292      3.6655      3.8487      4.0895      4.3976      4.7791      5.2321      5.7448      6.2941      6.8481    
  7.3758      7.8470      8.2233      8.4672      8.5517      8.4672      8.2233      7.8470      7.3758      6.8481    
  6.2940      5.7447      4.5231      4.2822      4.0923      3.9502      3.8487      3.7793      3.7336      3.7046    
  3.6876      3.6797      3.6797      3.6876      3.7046      3.7336      3.7793      3.8487      3.9501      4.0923    
  4.2822      4.5231      4.8121      5.1392      5.4872      5.8333      6.1518      6.4172      6.6077      6.7073    
  6.7073      6.6077      6.4172      6.1517      5.8333      5.4872      5.1392      4.8120      4.1973      4.1263    
  4.0923      4.0895      4.1095      4.1426      4.1796      4.2122      4.2343      4.2420      4.2343      4.2122    
  4.1796      4.1426      4.1095      4.0895      4.0923      4.1263      4.1973      4.3068      4.4514      4.6228    
  4.8082      4.9917      5.1568      5.2877      5.3718      5.4007      5.3718      5.2877      5.1568      4.9917    
  4.8082      4.6228      4.4514      4.3068      4.1973      4.2822      4.3977      4.5340      4.6787      4.8173    
  4.9360      5.0225      5.0681      5.0681      5.0225      4.9360      4.8173      4.6787      4.5340      4.3976    
  4.2822      4.1973      4.1483      4.1357      4.1557      4.2008      4.2610      4.3257      4.3845      4.4290    
  4.4528      4.4528      4.4290      4.3846      4.3257      4.2610      4.2008      4.1557      4.1357      4.1483    
  4.5231      4.7791      5.0631      5.3574      5.6407      5.8905      6.0861      6.2106      6.2533      6.2106    
  6.0861      5.8905      5.6407      5.3574      5.0631      4.7791      4.5231      4.3068      4.1357      4.0093    
  3.9225      3.8674      3.8355      3.8189      3.8113      3.8083      3.8076      3.8083      3.8113      3.8189    
  3.8355      3.8674      3.9225      4.0093      4.1357      4.3068      5.2321      5.6968      6.1818      6.6565    
  7.0892      7.4526      7.7171      7.8567      7.8567      7.7171      7.4526      7.0893      6.6565      6.1818    
  5.6968      5.2321      4.8121      4.4514      4.1557      3.9225      3.7441      3.6111      3.5142      3.4465    
  3.4033      3.3821      3.3821      3.4033      3.4465      3.5142      3.6111      3.7441      3.9225      4.1557    
  4.4514      4.8120      6.4210      7.1366      7.8674      8.5818      9.2277      9.7453      10.081      10.197    
  10.081      9.7453      9.2278      8.5819      7.8675      7.1367      6.4210      5.7448      5.1392      4.6228    
  4.2008      3.8674      3.6111      3.4187      3.2789      3.1834      3.1276      3.1092      3.1276      3.1834    
  3.2788      3.4187      3.6111      3.8674      4.2008      4.6228      5.1391      5.7447      8.2204      9.3191    
  10.447      11.516      12.429      13.095      13.446      13.446      13.095      12.429      11.516      10.447    
  9.3191      8.2204      7.2076      6.2941      5.4872      4.8082      4.2610      3.8355      3.5142      3.2789    
  3.1141      3.0093      2.9582      2.9582      3.0092      3.1141      3.2789      3.5142      3.8355      4.2610    
  4.8082      5.4872      6.2940      7.2075      11.008      12.675      14.307      15.762      16.907      17.638    
  17.889      17.638      16.907      15.762      14.307      12.675      11.008      9.4333      8.0380      6.8481    
  5.8333      4.9917      4.3257      3.8189      3.4465      3.1834      3.0093      2.9100      2.8777      2.9100    
  3.0093      3.1834      3.4465      3.8189      4.3257      4.9917      5.8333      6.8481      8.0380      9.4333    
  15.167      17.477      19.598      21.356      22.609      23.260      23.260      22.609      21.356      19.598    
  17.477      15.167      12.860      10.725      8.8841      7.3758      6.1518      5.1568      4.3845      3.8113    
  3.4033      3.1276      2.9582      2.8777      2.8777      2.9582      3.1276      3.4033      3.8113      4.3845    
  5.1568      6.1517      7.3758      8.8841      10.725      12.860      20.815      23.690      26.160      28.049    
  29.231      29.633      29.231      28.049      26.160      23.690      20.815      17.754      14.745      12.005    
  9.6889      7.8470      6.4172      5.2877      4.4290      3.8083      3.3821      3.1092      2.9582      2.9100    
  2.9582      3.1092      3.3821      3.8084      4.4290      5.2877      6.4172      7.8470      9.6889      12.005    
  14.745      17.754      27.742      30.983      33.587      35.403      36.336      36.336      35.403      33.587    
  30.983      27.742      24.071      20.231      16.506      13.161      10.381      8.2233      6.6077      5.3718    
  4.4528      3.8076      3.3821      3.1276      3.0092      3.0093      3.1276      3.3821      3.8076      4.4528    
  5.3718      6.6076      8.2233      10.381      13.161      16.506      20.231      24.072      35.506      38.880    
  41.414      42.987      43.520      42.987      41.414      38.880      35.506      31.469      27.001      22.398    
  17.989      14.083      10.889      8.4672      6.7073      5.4007      4.4528      3.8083      3.4033      3.1834    
  3.1141      3.1834      3.4033      3.8084      4.4528      5.4007      6.7073      8.4671      10.889      14.083    
  17.989      22.398      27.001      31.469      43.647      46.985      49.317      50.520      50.520      49.317    
  46.985      43.647      39.463      34.627      29.391      24.078      19.058      14.676      11.159      8.5517    
  6.7073      5.3718      4.4290      3.8113      3.4465      3.2788      3.2789      3.4465      3.8113      4.4290    
  5.3718      6.7073      8.5517      11.159      14.676      19.058      24.078      29.391      34.627      39.463    
  51.895      55.136      57.190      57.895      57.190      55.137      51.895      47.664      42.639      37.024    
  31.077      25.141      19.618      14.881      11.159      8.4672      6.6077      5.2877      4.3846      3.8189    
  3.5142      3.4187      3.5142      3.8189      4.3845      5.2877      6.6076      8.4671      11.159      14.881    
  19.618      25.141      31.077      37.024      42.639      47.663      60.234      63.369      65.034      65.034    
  63.369      60.234      55.925      50.728      44.863      38.520      31.948      25.504      19.618      14.676    
  10.889      8.2233      6.4172      5.1568      4.3257      3.8355      3.6111      3.6111      3.8355      4.3257    
  5.1568      6.4172      8.2233      10.889      14.676      19.618      25.504      31.948      38.520      44.863    
  50.728      55.925      68.740      71.675      72.708      71.675      68.740      64.304      58.826      52.660    
  46.009      39.028      31.948      25.141      19.058      14.083      10.381      7.8470      6.1517      4.9917    
  4.2610      3.8674      3.7441      3.8674      4.2610      4.9917      6.1517      7.8470      10.381      14.083    
  19.058      25.141      31.948      39.028      46.009      52.660      58.826      64.304      77.267      79.714    