fcc Au                                  
   4.30000000000000     
    -0.000000    0.471808    0.471808
     0.471808    0.000000    0.471808
     0.471808    0.471808    0.000000
   Au
     1
Direct
  0.000000  0.000000 -0.000000
 
   36   36   36
 0.80821264689E+02 0.79432576542E+02 0.75540660990E+02 0.69853071981E+02 0.63226849177E+02
 0.56362895444E+02 0.49628687491E+02 0.43078940480E+02 0.36630343311E+02 0.30267804747E+02
 0.24159156352E+02 0.18625399829E+02 0.14003944496E+02 0.10496220394E+02 0.80832468134E+01
 0.65408655183E+01 0.55597231372E+01 0.50053089950E+01 0.48274798264E+01 0.50053089950E+01
 0.55597231372E+01 0.65408655183E+01 0.80832468134E+01 0.10496220394E+02 0.14003944496E+02
 0.18625399829E+02 0.24159156352E+02 0.30267804747E+02 0.36630343311E+02 0.43078940480E+02
 0.49628687491E+02 0.56362895444E+02 0.63226849177E+02 0.69853071981E+02 0.75540660990E+02
 0.79432576542E+02 0.79432576542E+02 0.76794331864E+02 0.72018954384E+02 0.65901338527E+02
 0.59224785433E+02 0.52513680677E+02 0.45958356220E+02 0.39523399468E+02 0.33149597253E+02
 0.26919522678E+02 0.21095807940E+02 0.16027416729E+02 0.11994965069E+02 0.90880926411E+01
 0.71736149394E+01 0.59575863611E+01 0.52047746688E+01 0.48476792807E+01 0.48476831550E+01
 0.52047837329E+01 0.59575943992E+01 0.71736156686E+01 0.90880834657E+01 0.11994948868E+02
 0.16027400507E+02 0.21095798774E+02 0.26919522928E+02 0.33149601551E+02 0.39523395392E+02
 0.45958328892E+02 0.52513619612E+02 0.59224690706E+02 0.65901223337E+02 0.72018842455E+02
 0.76794250287E+02 0.79432546657E+02 0.75540660990E+02 0.72018954384E+02 0.66845226346E+02
 0.60762942005E+02 0.54377200597E+02 0.48005774555E+02 0.41705904966E+02 0.35433443248E+02
 0.29222156592E+02 0.23274204818E+02 0.17919063743E+02 0.13480244191E+02 0.10135528203E+02
 0.78457965674E+01 0.63779478815E+01 0.54361831277E+01 0.49054202731E+01 0.47354082530E+01
 0.49054329463E+01 0.54362001802E+01 0.63779574525E+01 0.78457901326E+01 0.10135505855E+02
 0.13480215206E+02 0.17919041709E+02 0.23274199469E+02 0.29222166441E+02 0.35433453114E+02
 0.41705890419E+02 0.48005712091E+02 0.54377079406E+02 0.60762772054E+02 0.66845038680E+02
 0.72018792706E+02 0.75540567332E+02 0.76794250287E+02 0.69853071981E+02 0.65901338527E+02
 0.60762942005E+02 0.55023799189E+02 0.49074943184E+02 0.43069219555E+02 0.37017997914E+02
 0.30949720390E+02 0.25025153261E+02 0.19542374872E+02 0.14837980014E+02 0.11150618664E+02
 0.85249458822E+01 0.68000158677E+01 0.56842502164E+01 0.49926744950E+01 0.46659139331E+01
 0.46659224655E+01 0.49926947744E+01 0.56842692708E+01 0.68000204331E+01 0.85249302006E+01
 0.11150588409E+02 0.14837949905E+02 0.19542360727E+02 0.25025162270E+02 0.30949744599E+02
 0.37018014777E+02 0.43069200213E+02 0.49074865416E+02 0.55023659462E+02 0.60762760956E+02
 0.65901156766E+02 0.69852937207E+02 0.72018792706E+02 0.72018842455E+02 0.63226849177E+02
 0.59224785433E+02 0.54377200597E+02 0.49074943184E+02 0.43533598274E+02 0.37830089148E+02
 0.32019549126E+02 0.26247644946E+02 0.20784444280E+02 0.15960993573E+02 0.12050281270E+02
 0.91622257490E+01 0.72059148021E+01 0.59303626328E+01 0.50977114398E+01 0.46319753862E+01
 0.44832987802E+01 0.46319910208E+01 0.50977334781E+01 0.59303776817E+01 0.72059128123E+01
 0.91622060003E+01 0.12050253545E+02 0.15960973581E+02 0.20784445315E+02 0.26247669822E+02
 0.32019586582E+02 0.37830117006E+02 0.43533592496E+02 0.49074889080E+02 0.54377101132E+02
 0.59224662605E+02 0.63226737319E+02 0.65901156766E+02 0.66845038680E+02 0.65901223337E+02
 0.56362895444E+02 0.52513680677E+02 0.48005774555E+02 0.43069219555E+02 0.37830089148E+02
 0.32381760788E+02 0.26875312506E+02 0.21562812137E+02 0.16761235172E+02 0.12756576311E+02
 0.97027721752E+01 0.75686683644E+01 0.61551279432E+01 0.52070758542E+01 0.46237686124E+01
 0.43498473310E+01 0.43498540851E+01 0.46237852715E+01 0.52070934737E+01 0.61551369134E+01
 0.75686635807E+01 0.97027561062E+01 0.12756558351E+02 0.16761227440E+02 0.21562823638E+02
 0.26875344412E+02 0.32381805166E+02 0.37830131897E+02 0.43069246343E+02 0.48005777121E+02
 0.52513660603E+02 0.56362863615E+02 0.59224662605E+02 0.60762760956E+02 0.60762772054E+02
 0.59224690706E+02 0.49628687491E+02 0.45958356220E+02 0.41705904966E+02 0.37017997914E+02
 0.32019549126E+02 0.26875312506E+02 0.21827785977E+02 0.17177106479E+02 0.13207084705E+02
 0.10095756804E+02 0.78571709887E+01 0.63415710738E+01 0.53075749633E+01 0.46309700370E+01
 0.42558961593E+01 0.41366147129E+01 0.42559031888E+01 0.46309810537E+01 0.53075851724E+01
 0.63415759909E+01 0.78571684556E+01 0.10095748161E+02 0.13207074665E+02 0.17177101754E+02
 0.21827793171E+02 0.26875336031E+02 0.32019589825E+02 0.37018052774E+02 0.41705967869E+02
 0.45958419362E+02 0.49628742942E+02 0.52513660603E+02 0.54377101132E+02 0.55023659462E+02
 0.54377079406E+02 0.52513619612E+02 0.43078940480E+02 0.39523399468E+02 0.35433443248E+02
 0.30949720390E+02 0.26247644946E+02 0.21562812137E+02 0.17177106479E+02 0.13361829159E+02
 0.10302600243E+02 0.80432809787E+01 0.64759142240E+01 0.53878715268E+01 0.46444258166E+01
 0.41921980910E+01 0.39809455561E+01 0.39809454992E+01 0.41921984607E+01 0.46444277028E+01
 0.53878753328E+01 0.64759185989E+01 0.80432828037E+01 0.10302596033E+02 0.13361817426E+02
 0.17177089917E+02 0.21562798330E+02 0.26247644787E+02 0.30949744396E+02 0.35433497010E+02
 0.39523480079E+02 0.43079035625E+02 0.45958419362E+02 0.48005777121E+02 0.49074889080E+02
 0.49074865416E+02 0.48005712091E+02 0.45958328892E+02 0.36630343311E+02 0.33149597253E+02
 0.29222156592E+02 0.25025153261E+02 0.20784444280E+02 0.16761235172E+02 0.13207084705E+02
 0.10302600243E+02 0.81076142790E+01 0.65464664459E+01 0.54394887660E+01 0.46571382725E+01
 0.41514271599E+01 0.38726848648E+01 0.37841962824E+01 0.38726780616E+01 0.41514178756E+01
 0.46571324194E+01 0.54394899006E+01 0.65464728649E+01 0.81076189743E+01 0.10302594105E+02
 0.13207061640E+02 0.16761196631E+02 0.20784400728E+02 0.25025121371E+02 0.29222152907E+02
 0.33149630853E+02 0.36630410693E+02 0.39523480079E+02 0.41705967869E+02 0.43069246343E+02
 0.43533592496E+02 0.43069200213E+02 0.41705890419E+02 0.39523395392E+02 0.30267804747E+02
 0.26919522678E+02 0.23274204818E+02 0.19542374872E+02 0.15960993573E+02 0.12756576311E+02
 0.10095756804E+02 0.80432809787E+01 0.65464664459E+01 0.54572683975E+01 0.46645798394E+01
 0.41287025123E+01 0.38043016005E+01 0.36528377066E+01 0.36528315091E+01 0.38042864124E+01
 0.41286866280E+01 0.46645716771E+01 0.54572713653E+01 0.65464761852E+01 0.80432866170E+01
 0.10095745881E+02 0.12756541167E+02 0.15960936112E+02 0.19542307229E+02 0.23274145258E+02
 0.26919488307E+02 0.30267804178E+02 0.33149630853E+02 0.35433497010E+02 0.37018052774E+02
 0.37830131897E+02 0.37830117006E+02 0.37018014777E+02 0.35433453114E+02 0.33149601551E+02
 0.24159156352E+02 0.21095807940E+02 0.17919063743E+02 0.14837980014E+02 0.12050281270E+02
 0.97027721752E+01 0.78571709887E+01 0.64759142240E+01 0.54394887660E+01 0.46645798394E+01
 0.41213964465E+01 0.37711662141E+01 0.35776038235E+01 0.35159728026E+01 0.35775913319E+01
 0.37711476701E+01 0.41213813840E+01 0.46645758190E+01 0.54394970569E+01 0.64759283874E+01
 0.78571791664E+01 0.97027621381E+01 0.12050245960E+02 0.14837921036E+02 0.17918991172E+02
 0.21095736494E+02 0.24159099629E+02 0.26919488307E+02 0.29222152907E+02 0.30949744396E+02
 0.32019589825E+02 0.32381805166E+02 0.32019586582E+02 0.30949744599E+02 0.29222166441E+02
 0.26919522928E+02 0.18625399829E+02 0.16027416729E+02 0.13480244191E+02 0.11150618664E+02
 0.91622257490E+01 0.75686683644E+01 0.63415710738E+01 0.53878715268E+01 0.46571382725E+01
 0.41287025123E+01 0.37711662141E+01 0.35531069058E+01 0.34504759709E+01 0.34504709658E+01
 0.35530943984E+01 0.37711525913E+01 0.41286951211E+01 0.46571419855E+01 0.53878862712E+01
 0.63415913846E+01 0.75686851472E+01 0.91622295098E+01 0.11150602881E+02 0.13480207508E+02
 0.16027363209E+02 0.18625337367E+02 0.21095736494E+02 0.23274145258E+02 0.25025121371E+02
 0.26247644787E+02 0.26875336031E+02 0.26875344412E+02 0.26247669822E+02 0.25025162270E+02
 0.23274199469E+02 0.21095798774E+02 0.14003944496E+02 0.11994965069E+02 0.10135528203E+02
 0.85249458822E+01 0.72059148021E+01 0.61551279432E+01 0.53075749633E+01 0.46444258166E+01
 0.41514271599E+01 0.38043016005E+01 0.35776038235E+01 0.34504759709E+01 0.34096114975E+01
 0.34504725679E+01 0.35775987453E+01 0.38042979099E+01 0.41514284883E+01 0.46444353037E+01
 0.53075940929E+01 0.61551555842E+01 0.72059468207E+01 0.85249756161E+01 0.10135547866E+02
 0.11994967830E+02 0.14003926683E+02 0.16027363209E+02 0.17918991172E+02 0.19542307229E+02
 0.20784400728E+02 0.21562798330E+02 0.21827793171E+02 0.21562823638E+02 0.20784445315E+02
 0.19542360727E+02 0.17919041709E+02 0.16027400507E+02 0.10496220394E+02 0.90880926411E+01
 0.78457965674E+01 0.68000158677E+01 0.59303626328E+01 0.52070758542E+01 0.46309700370E+01
 0.41921980910E+01 0.38726848648E+01 0.36528377066E+01 0.35159728026E+01 0.34504709658E+01
 0.34504725679E+01 0.35159766956E+01 0.36528418996E+01 0.38726880894E+01 0.41922015374E+01
 0.46309778492E+01 0.52070937915E+01 0.59303952724E+01 0.68000635876E+01 0.78458538564E+01
 0.90881488385E+01 0.10496262920E+02 0.11994967830E+02 0.13480207508E+02 0.14837921036E+02
 0.15960936112E+02 0.16761196631E+02 0.17177089917E+02 0.17177101754E+02 0.16761227440E+02
 0.15960973581E+02 0.14837949905E+02 0.13480215206E+02 0.11994948868E+02 0.80832468134E+01
 0.71736149394E+01 0.63779478815E+01 0.56842502164E+01 0.50977114398E+01 0.46237686124E+01
 0.42558961593E+01 0.39809455561E+01 0.37841962824E+01 0.36528315091E+01 0.35775913319E+01
 0.35530943984E+01 0.35775987453E+01 0.36528418996E+01 0.37842034774E+01 0.39809456292E+01
 0.42558905637E+01 0.46237646790E+01 0.50977197157E+01 0.56842796921E+01 0.63780012846E+01
 0.71736863876E+01 0.80833231343E+01 0.90881488385E+01 0.10135547866E+02 0.11150602881E+02
 0.12050245960E+02 0.12756541167E+02 0.13207061640E+02 0.13361817426E+02 0.13207074665E+02
 0.12756558351E+02 0.12050253545E+02 0.11150588409E+02 0.10135505855E+02 0.90880834657E+01
 0.65408655183E+01 0.59575863611E+01 0.54361831277E+01 0.49926744950E+01 0.46319753862E+01
 0.43498473310E+01 0.41366147129E+01 0.39809454992E+01 0.38726780616E+01 0.38042864124E+01
 0.37711476701E+01 0.37711525913E+01 0.38042979099E+01 0.38726880894E+01 0.39809456292E+01
 0.41366010243E+01 0.43498233550E+01 0.46319515566E+01 0.49926641933E+01 0.54361970302E+01
 0.59576276390E+01 0.65409280979E+01 0.71736863876E+01 0.78458538564E+01 0.85249756161E+01
 0.91622295098E+01 0.97027621381E+01 0.10095745881E+02 0.10302594105E+02 0.10302596033E+02
 0.10095748161E+02 0.97027561062E+01 0.91622060003E+01 0.85249302006E+01 0.78457901326E+01
 0.71736156686E+01 0.55597231372E+01 0.52047746688E+01 0.49054202731E+01 0.46659139331E+01
 0.44832987802E+01 0.43498540851E+01 0.42559031888E+01 0.41921984607E+01 0.41514178756E+01
 0.41286866280E+01 0.41213813840E+01 0.41286951211E+01 0.41514284883E+01 0.41922015374E+01
 0.42558905637E+01 0.43498233550E+01 0.44832551204E+01 0.46658686084E+01 0.49053864756E+01
 0.52047624964E+01 0.55597358751E+01 0.59576276390E+01 0.63780012846E+01 0.68000635876E+01
 0.72059468207E+01 0.75686851472E+01 0.78571791664E+01 0.80432866170E+01 0.81076189743E+01
 0.80432828037E+01 0.78571684556E+01 0.75686635807E+01 0.72059128123E+01 0.68000204331E+01
 0.63779574525E+01 0.59575943992E+01 0.50053089950E+01 0.48476792807E+01 0.47354082530E+01
 0.46659224655E+01 0.46319910208E+01 0.46237852715E+01 0.46309810537E+01 0.46444277028E+01
 0.46571324194E+01 0.46645716771E+01 0.46645758190E+01 0.46571419855E+01 0.46444353037E+01
 0.46309778492E+01 0.46237646790E+01 0.46319515566E+01 0.46658686084E+01 0.47353490559E+01
 0.48476253636E+01 0.50052691602E+01 0.52047624964E+01 0.54361970302E+01 0.56842796921E+01
 0.59303952724E+01 0.61551555842E+01 0.63415913846E+01 0.64759283874E+01 0.65464761852E+01
 0.65464728649E+01 0.64759185989E+01 0.63415759909E+01 0.61551369134E+01 0.59303776817E+01
 0.56842692708E+01 0.54362001802E+01 0.52047837329E+01 0.48274798264E+01 0.48476831550E+01
 0.49054329463E+01 0.49926947744E+01 0.50977334781E+01 0.52070934737E+01 0.53075851724E+01
 0.53878753328E+01 0.54394899006E+01 0.54572713653E+01 0.54394970569E+01 0.53878862712E+01
 0.53075940929E+01 0.52070937915E+01 0.50977197157E+01 0.49926641933E+01 0.49053864756E+01
 0.48476253636E+01 0.48274179379E+01 0.48476253636E+01 0.49053864756E+01 0.49926641933E+01
 0.50977197157E+01 0.52070937915E+01 0.53075940929E+01 0.53878862712E+01 0.54394970569E+01
 0.54572713653E+01 0.54394899006E+01 0.53878753328E+01 0.53075851724E+01 0.52070934737E+01
 0.50977334781E+01 0.49926947744E+01 0.49054329463E+01 0.48476831550E+01 0.50053089950E+01
 0.52047837329E+01 0.54362001802E+01 0.56842692708E+01 0.59303776817E+01 0.61551369134E+01
 0.63415759909E+01 0.64759185989E+01 0.65464728649E+01 0.65464761852E+01 0.64759283874E+01
 0.63415913846E+01 0.61551555842E+01 0.59303952724E+01 0.56842796921E+01 0.54361970302E+01
 0.52047624964E+01 0.50052691602E+01 0.48476253636E+01 0.47353490559E+01 0.46658686084E+01
 0.46319515566E+01 0.46237646790E+01 0.46309778492E+01 0.46444353037E+01 0.46571419855E+01
 0.46645758190E+01 0.46645716771E+01 0.46571324194E+01 0.46444277028E+01 0.46309810537E+01
 0.46237852715E+01 0.46319910208E+01 0.46659224655E+01 0.47354082530E+01 0.48476792807E+01
 0.55597231372E+01 0.59575943992E+01 0.63779574525E+01 0.68000204331E+01 0.72059128123E+01
 0.75686635807E+01 0.78571684556E+01 0.80432828037E+01 0.81076189743E+01 0.80432866170E+01
 0.78571791664E+01 0.75686851472E+01 0.72059468207E+01 0.68000635876E+01 0.63780012846E+01
 0.59576276390E+01 0.55597358751E+01 0.52047624964E+01 0.49053864756E+01 0.46658686084E+01
 0.44832551204E+01 0.43498233550E+01 0.42558905637E+01 0.41922015374E+01 0.41514284883E+01
 0.41286951211E+01 0.41213813840E+01 0.41286866280E+01 0.41514178756E+01 0.41921984607E+01
 0.42559031888E+01 0.43498540851E+01 0.44832987802E+01 0.46659139331E+01 0.49054202731E+01
 0.52047746688E+01 0.65408655183E+01 0.71736156686E+01 0.78457901326E+01 0.85249302006E+01
 0.91622060003E+01 0.97027561062E+01 0.10095748161E+02 0.10302596033E+02 0.10302594105E+02
 0.10095745881E+02 0.97027621381E+01 0.91622295098E+01 0.85249756161E+01 0.78458538564E+01
 0.71736863876E+01 0.65409280979E+01 0.59576276390E+01 0.54361970302E+01 0.49926641933E+01
 0.46319515566E+01 0.43498233550E+01 0.41366010243E+01 0.39809456292E+01 0.38726880894E+01
 0.38042979099E+01 0.37711525913E+01 0.37711476701E+01 0.38042864124E+01 0.38726780616E+01
 0.39809454992E+01 0.41366147129E+01 0.43498473310E+01 0.46319753862E+01 0.49926744950E+01
 0.54361831277E+01 0.59575863611E+01 0.80832468134E+01 0.90880834657E+01 0.10135505855E+02
 0.11150588409E+02 0.12050253545E+02 0.12756558351E+02 0.13207074665E+02 0.13361817426E+02
 0.13207061640E+02 0.12756541167E+02 0.12050245960E+02 0.11150602881E+02 0.10135547866E+02
 0.90881488385E+01 0.80833231343E+01 0.71736863876E+01 0.63780012846E+01 0.56842796921E+01
 0.50977197157E+01 0.46237646790E+01 0.42558905637E+01 0.39809456292E+01 0.37842034774E+01
 0.36528418996E+01 0.35775987453E+01 0.35530943984E+01 0.35775913319E+01 0.36528315091E+01
 0.37841962824E+01 0.39809455561E+01 0.42558961593E+01 0.46237686124E+01 0.50977114398E+01
 0.56842502164E+01 0.63779478815E+01 0.71736149394E+01 0.10496220394E+02 0.11994948868E+02
 0.13480215206E+02 0.14837949905E+02 0.15960973581E+02 0.16761227440E+02 0.17177101754E+02
 0.17177089917E+02 0.16761196631E+02 0.15960936112E+02 0.14837921036E+02 0.13480207508E+02
 0.11994967830E+02 0.10496262920E+02 0.90881488385E+01 0.78458538564E+01 0.68000635876E+01
 0.59303952724E+01 0.52070937915E+01 0.46309778492E+01 0.41922015374E+01 0.38726880894E+01
 0.36528418996E+01 0.35159766956E+01 0.34504725679E+01 0.34504709658E+01 0.35159728026E+01
 0.36528377066E+01 0.38726848648E+01 0.41921980910E+01 0.46309700370E+01 0.52070758542E+01
 0.59303626328E+01 0.68000158677E+01 0.78457965674E+01 0.90880926411E+01 0.14003944496E+02
 0.16027400507E+02 0.17919041709E+02 0.19542360727E+02 0.20784445315E+02 0.21562823638E+02
 0.21827793171E+02 0.21562798330E+02 0.20784400728E+02 0.19542307229E+02 0.17918991172E+02
 0.16027363209E+02 0.14003926683E+02 0.11994967830E+02 0.10135547866E+02 0.85249756161E+01
 0.72059468207E+01 0.61551555842E+01 0.53075940929E+01 0.46444353037E+01 0.41514284883E+01
 0.38042979099E+01 0.35775987453E+01 0.34504725679E+01 0.34096114975E+01 0.34504759709E+01
 0.35776038235E+01 0.38043016005E+01 0.41514271599E+01 0.46444258166E+01 0.53075749633E+01
 0.61551279432E+01 0.72059148021E+01 0.85249458822E+01 0.10135528203E+02 0.11994965069E+02
 0.18625399829E+02 0.21095798774E+02 0.23274199469E+02 0.25025162270E+02 0.26247669822E+02
 0.26875344412E+02 0.26875336031E+02 0.26247644787E+02 0.25025121371E+02 0.23274145258E+02
 0.21095736494E+02 0.18625337367E+02 0.16027363209E+02 0.13480207508E+02 0.11150602881E+02
 0.91622295098E+01 0.75686851472E+01 0.63415913846E+01 0.53878862712E+01 0.46571419855E+01
 0.41286951211E+01 0.37711525913E+01 0.35530943984E+01 0.34504709658E+01 0.34504759709E+01
 0.35531069058E+01 0.37711662141E+01 0.41287025123E+01 0.46571382725E+01 0.53878715268E+01
 0.63415710738E+01 0.75686683644E+01 0.91622257490E+01 0.11150618664E+02 0.13480244191E+02
 0.16027416729E+02 0.24159156352E+02 0.26919522928E+02 0.29222166441E+02 0.30949744599E+02
 0.32019586582E+02 0.32381805166E+02 0.32019589825E+02 0.30949744396E+02 0.29222152907E+02
 0.26919488307E+02 0.24159099629E+02 0.21095736494E+02 0.17918991172E+02 0.14837921036E+02
 0.12050245960E+02 0.97027621381E+01 0.78571791664E+01 0.64759283874E+01 0.54394970569E+01
 0.46645758190E+01 0.41213813840E+01 0.37711476701E+01 0.35775913319E+01 0.35159728026E+01
 0.35776038235E+01 0.37711662141E+01 0.41213964465E+01 0.46645798394E+01 0.54394887660E+01
 0.64759142240E+01 0.78571709887E+01 0.97027721752E+01 0.12050281270E+02 0.14837980014E+02
 0.17919063743E+02 0.21095807940E+02 0.30267804747E+02 0.33149601551E+02 0.35433453114E+02
 0.37018014777E+02 0.37830117006E+02 0.37830131897E+02 0.37018052774E+02 0.35433497010E+02
 0.33149630853E+02 0.30267804178E+02 0.26919488307E+02 0.23274145258E+02 0.19542307229E+02
 0.15960936112E+02 0.12756541167E+02 0.10095745881E+02 0.80432866170E+01 0.65464761852E+01
 0.54572713653E+01 0.46645716771E+01 0.41286866280E+01 0.38042864124E+01 0.36528315091E+01
 0.36528377066E+01 0.38043016005E+01 0.41287025123E+01 0.46645798394E+01 0.54572683975E+01
 0.65464664459E+01 0.80432809787E+01 0.10095756804E+02 0.12756576311E+02 0.15960993573E+02
 0.19542374872E+02 0.23274204818E+02 0.26919522678E+02 0.36630343311E+02 0.39523395392E+02
 0.41705890419E+02 0.43069200213E+02 0.43533592496E+02 0.43069246343E+02 0.41705967869E+02
 0.39523480079E+02 0.36630410693E+02 0.33149630853E+02 0.29222152907E+02 0.25025121371E+02
 0.20784400728E+02 0.16761196631E+02 0.13207061640E+02 0.10302594105E+02 0.81076189743E+01
 0.65464728649E+01 0.54394899006E+01 0.46571324194E+01 0.41514178756E+01 0.38726780616E+01
 0.37841962824E+01 0.38726848648E+01 0.41514271599E+01 0.46571382725E+01 0.54394887660E+01
 0.65464664459E+01 0.81076142790E+01 0.10302600243E+02 0.13207084705E+02 0.16761235172E+02
 0.20784444280E+02 0.25025153261E+02 0.29222156592E+02 0.33149597253E+02 0.43078940480E+02
 0.45958328892E+02 0.48005712091E+02 0.49074865416E+02 0.49074889080E+02 0.48005777121E+02
 0.45958419362E+02 0.43079035625E+02 0.39523480079E+02 0.35433497010E+02 0.30949744396E+02
 0.26247644787E+02 0.21562798330E+02 0.17177089917E+02 0.13361817426E+02 0.10302596033E+02
 0.80432828037E+01 0.64759185989E+01 0.53878753328E+01 0.46444277028E+01 0.41921984607E+01
 0.39809454992E+01 0.39809455561E+01 0.41921980910E+01 0.46444258166E+01 0.53878715268E+01
 0.64759142240E+01 0.80432809787E+01 0.10302600243E+02 0.13361829159E+02 0.17177106479E+02
 0.21562812137E+02 0.26247644946E+02 0.30949720390E+02 0.35433443248E+02 0.39523399468E+02
 0.49628687491E+02 0.52513619612E+02 0.54377079406E+02 0.55023659462E+02 0.54377101132E+02
 0.52513660603E+02 0.49628742942E+02 0.45958419362E+02 0.41705967869E+02 0.37018052774E+02
 0.32019589825E+02 0.26875336031E+02 0.21827793171E+02 0.17177101754E+02 0.13207074665E+02
 0.10095748161E+02 0.78571684556E+01 0.63415759909E+01 0.53075851724E+01 0.46309810537E+01
 0.42559031888E+01 0.41366147129E+01 0.42558961593E+01 0.46309700370E+01 0.53075749633E+01
 0.63415710738E+01 0.78571709887E+01 0.10095756804E+02 0.13207084705E+02 0.17177106479E+02
 0.21827785977E+02 0.26875312506E+02 0.32019549126E+02 0.37017997914E+02 0.41705904966E+02
 0.45958356220E+02 0.56362895444E+02 0.59224690706E+02 0.60762772054E+02 0.60762760956E+02
 0.59224662605E+02 0.56362863615E+02 0.52513660603E+02 0.48005777121E+02 0.43069246343E+02
 0.37830131897E+02 0.32381805166E+02 0.26875344412E+02 0.21562823638E+02 0.16761227440E+02
 0.12756558351E+02 0.97027561062E+01 0.75686635807E+01 0.61551369134E+01 0.52070934737E+01
 0.46237852715E+01 0.43498540851E+01 0.43498473310E+01 0.46237686124E+01 0.52070758542E+01
 0.61551279432E+01 0.75686683644E+01 0.97027721752E+01 0.12756576311E+02 0.16761235172E+02
 0.21562812137E+02 0.26875312506E+02 0.32381760788E+02 0.37830089148E+02 0.43069219555E+02
 0.48005774555E+02 0.52513680677E+02 0.63226849177E+02 0.65901223337E+02 0.66845038680E+02
 0.65901156766E+02 0.63226737319E+02 0.59224662605E+02 0.54377101132E+02 0.49074889080E+02
 0.43533592496E+02 0.37830117006E+02 0.32019586582E+02 0.26247669822E+02 0.20784445315E+02
 0.15960973581E+02 0.12050253545E+02 0.91622060003E+01 0.72059128123E+01 0.59303776817E+01
 0.50977334781E+01 0.46319910208E+01 0.44832987802E+01 0.46319753862E+01 0.50977114398E+01
 0.59303626328E+01 0.72059148021E+01 0.91622257490E+01 0.12050281270E+02 0.15960993573E+02
 0.20784444280E+02 0.26247644946E+02 0.32019549126E+02 0.37830089148E+02 0.43533598274E+02
 0.49074943184E+02 0.54377200597E+02 0.59224785433E+02 0.69853071981E+02 0.72018842455E+02
 0.72018792706E+02 0.69852937207E+02 0.65901156766E+02 0.60762760956E+02 0.55023659462E+02
 0.49074865416E+02 0.43069200213E+02 0.37018014777E+02 0.30949744599E+02 0.25025162270E+02
 0.19542360727E+02 0.14837949905E+02 0.11150588409E+02 0.85249302006E+01 0.68000204331E+01
 0.56842692708E+01 0.49926947744E+01 0.46659224655E+01 0.46659139331E+01 0.49926744950E+01
 0.56842502164E+01 0.68000158677E+01 0.85249458822E+01 0.11150618664E+02 0.14837980014E+02
 0.19542374872E+02 0.25025153261E+02 0.30949720390E+02 0.37017997914E+02 0.43069219555E+02
 0.49074943184E+02 0.55023799189E+02 0.60762942005E+02 0.65901338527E+02 0.75540660990E+02
 0.76794250287E+02 0.75540567332E+02 0.72018792706E+02 0.66845038680E+02 0.60762772054E+02
 0.54377079406E+02 0.48005712091E+02 0.41705890419E+02 0.35433453114E+02 0.29222166441E+02
 0.23274199469E+02 0.17919041709E+02 0.13480215206E+02 0.10135505855E+02 0.78457901326E+01
 0.63779574525E+01 0.54362001802E+01 0.49054329463E+01 0.47354082530E+01 0.49054202731E+01
 0.54361831277E+01 0.63779478815E+01 0.78457965674E+01 0.10135528203E+02 0.13480244191E+02
 0.17919063743E+02 0.23274204818E+02 0.29222156592E+02 0.35433443248E+02 0.41705904966E+02
 0.48005774555E+02 0.54377200597E+02 0.60762942005E+02 0.66845226346E+02 0.72018954384E+02
 0.79432576542E+02 0.79432546657E+02 0.76794250287E+02 0.72018842455E+02 0.65901223337E+02
 0.59224690706E+02 0.52513619612E+02 0.45958328892E+02 0.39523395392E+02 0.33149601551E+02
 0.26919522928E+02 0.21095798774E+02 0.16027400507E+02 0.11994948868E+02 0.90880834657E+01
 0.71736156686E+01 0.59575943992E+01 0.52047837329E+01 0.48476831550E+01 0.48476792807E+01
 0.52047746688E+01 0.59575863611E+01 0.71736149394E+01 0.90880926411E+01 0.11994965069E+02
 0.16027416729E+02 0.21095807940E+02 0.26919522678E+02 0.33149597253E+02 0.39523399468E+02
 0.45958356220E+02 0.52513680677E+02 0.59224785433E+02 0.65901338527E+02 0.72018954384E+02
 0.76794331864E+02 0.79432576542E+02 0.76794331864E+02 0.72018954384E+02 0.65901338527E+02
 0.59224785433E+02 0.52513680677E+02 0.45958356220E+02 0.39523399468E+02 0.33149597253E+02
 0.26919522678E+02 0.21095807940E+02 0.16027416729E+02 0.11994965069E+02 0.90880926411E+01
 0.71736149394E+01 0.59575863611E+01 0.52047746688E+01 0.48476792807E+01 0.48476831550E+01
 0.52047837329E+01 0.59575943992E+01 0.71736156686E+01 0.90880834657E+01 0.11994948868E+02
 0.16027400507E+02 0.21095798774E+02 0.26919522928E+02 0.33149601551E+02 0.39523395392E+02
 0.45958328892E+02 0.52513619612E+02 0.59224690706E+02 0.65901223337E+02 0.72018842455E+02
 0.76794250287E+02 0.79432546657E+02 0.76794331864E+02 0.73146689513E+02 0.67798517212E+02
 0.61532418225E+02 0.54986642614E+02 0.48496329586E+02 0.42118038373E+02 0.35794060688E+02
 0.29540876288E+02 0.23548001261E+02 0.18141022736E+02 0.13647410570E+02 0.10252648423E+02
 0.79245702712E+01 0.64335216754E+01 0.54793838024E+01 0.49411339704E+01 0.47686451754E+01
 0.49411475114E+01 0.54794019178E+01 0.64335315635E+01 0.79245627792E+01 0.10252623745E+02
 0.13647378799E+02 0.18140998507E+02 0.23547994836E+02 0.29540885579E+02 0.35794068666E+02
 0.42118018077E+02 0.48496255361E+02 0.54986503045E+02 0.61532224954E+02 0.67798305150E+02
 0.73146507448E+02 0.76794226582E+02 0.78093901626E+02 0.72018954384E+02 0.67798517212E+02
 0.62341860947E+02 0.56300279149E+02 0.50109010555E+02 0.43933300292E+02 0.37768798594E+02
 0.31614343328E+02 0.25603860585E+02 0.20022537081E+02 0.15210007327E+02 0.11418169573E+02
 0.87065004947E+01 0.69236688582E+01 0.57773736933E+01 0.50667012291E+01 0.47304760054E+01
 0.47304857984E+01 0.50667243410E+01 0.57773948746E+01 0.69236726315E+01 0.87064803716E+01
 0.11418132576E+02 0.15209970924E+02 0.20022519533E+02 0.25603869284E+02 0.31614367213E+02
 0.37768809219E+02 0.43933262280E+02 0.50108897586E+02 0.56300088631E+02 0.62341620453E+02
 0.67798278942E+02 0.72018778927E+02 0.74339067592E+02 0.74339132162E+02 0.65901338527E+02
 0.61532418225E+02 0.56300279149E+02 0.50663748947E+02 0.44870549198E+02 0.38990791886E+02
 0.33047338768E+02 0.27149486192E+02 0.21544921939E+02 0.16563545425E+02 0.12494061300E+02
 0.94680190660E+01 0.74113810383E+01 0.60791092933E+01 0.52128627277E+01 0.47271388653E+01
 0.45719128609E+01 0.47271583212E+01 0.52128895436E+01 0.60791260814E+01 0.74113751227E+01
 0.94679902928E+01 0.12494023216E+02 0.16563518665E+02 0.21544922708E+02 0.27149515487E+02
 0.33047378129E+02 0.38990808658E+02 0.44870509911E+02 0.50663635315E+02 0.56300099524E+02
 0.61532208834E+02 0.65901153042E+02 0.68841660673E+02 0.69882962124E+02 0.68841769609E+02
 0.59224785433E+02 0.54986642614E+02 0.50109010555E+02 0.44870549198E+02 0.39404728346E+02
 0.33779134663E+02 0.28106926740E+02 0.22612194772E+02 0.17606371634E+02 0.13391336564E+02
 0.10147415910E+02 0.78671019279E+01 0.63632439339E+01 0.53652605362E+01 0.47491133079E+01
 0.44592209917E+01 0.44592306110E+01 0.47491365590E+01 0.53652836601E+01 0.63632526283E+01
 0.78670895542E+01 0.10147387938E+02 0.13391308677E+02 0.17606362064E+02 0.22612214399E+02
 0.28106971871E+02 0.33779186380E+02 0.39404759375E+02 0.44870535681E+02 0.50108943601E+02
 0.54986534275E+02 0.59224666020E+02 0.62416260824E+02 0.64144609787E+02 0.64144644627E+02
 0.62416353440E+02 0.52513680677E+02 0.48496329586E+02 0.43933300292E+02 0.38990791886E+02
 0.33779134663E+02 0.28431006181E+02 0.23161324854E+02 0.18262797900E+02 0.14034642006E+02
 0.10684042107E+02 0.82539351130E+01 0.66119337680E+01 0.55088213420E+01 0.47854095374E+01
 0.43833286387E+01 0.42553216864E+01 0.43833418799E+01 0.47854289275E+01 0.55088363702E+01
 0.66119360533E+01 0.82539230912E+01 0.10684022493E+02 0.14034627192E+02 0.18262800384E+02
 0.23161351271E+02 0.28431053743E+02 0.33779191780E+02 0.38990842792E+02 0.43933331645E+02
 0.48496336066E+02 0.52513667017E+02 0.55727491105E+02 0.57829640456E+02 0.58563720357E+02
 0.57829655772E+02 0.55727512598E+02 0.45958356220E+02 0.42118038373E+02 0.37768798594E+02
 0.33047338768E+02 0.28106926740E+02 0.23161324854E+02 0.18486743977E+02 0.14370200736E+02
 0.11027860191E+02 0.85357958594E+01 0.68076527404E+01 0.56297036577E+01 0.48254365652E+01
 0.43346722995E+01 0.41051139532E+01 0.41051174322E+01 0.43346812112E+01 0.48254469613E+01
 0.56297108083E+01 0.68076531640E+01 0.85357889711E+01 0.11027848948E+02 0.14370191034E+02
 0.18486743007E+02 0.23161338974E+02 0.28106959549E+02 0.33047389954E+02 0.37768863821E+02
 0.42118110138E+02 0.45958425333E+02 0.49123373531E+02 0.51408506567E+02 0.52613972470E+02
 0.52613959304E+02 0.51408468824E+02 0.49123316262E+02 0.39523399468E+02 0.35794060688E+02
 0.31614343328E+02 0.27149486192E+02 0.22612194772E+02 0.18262797900E+02 0.14370200736E+02
 0.11146233909E+02 0.86844328112E+01 0.69333119142E+01 0.57167260451E+01 0.48603591104E+01
 0.43049881385E+01 0.39985265532E+01 0.39012215573E+01 0.39985255595E+01 0.43049874444E+01
 0.48603601546E+01 0.57167288639E+01 0.69333142767E+01 0.86844308327E+01 0.11146224154E+02
 0.14370182928E+02 0.18262776816E+02 0.22612180058E+02 0.27149489656E+02 0.31614374444E+02
 0.35794122005E+02 0.39523483930E+02 0.42658673516E+02 0.45054400126E+02 0.46567122769E+02
 0.47085513218E+02 0.46567078028E+02 0.45054322270E+02 0.42658581927E+02 0.33149597253E+02
 0.29540876288E+02 0.25603860585E+02 0.21544921939E+02 0.17606371634E+02 0.14034642006E+02
 0.11027860191E+02 0.86844328112E+01 0.69766726999E+01 0.57621838624E+01 0.48838050451E+01
 0.42882302714E+01 0.39275407966E+01 0.37592371275E+01 0.37592329541E+01 0.39275307669E+01
 0.42882203343E+01 0.48838008688E+01 0.57621869395E+01 0.69766785394E+01 0.86844324677E+01
 0.11027844686E+02 0.14034607623E+02 0.17606323414E+02 0.21544873344E+02 0.25603828987E+02
 0.29540875922E+02 0.33149632612E+02 0.36264338112E+02 0.38748240579E+02 0.40484123477E+02
 0.41378783670E+02 0.41378762795E+02 0.40484068134E+02 0.38748169803E+02 0.36264275413E+02
 0.26919522678E+02 0.23548001261E+02 0.20022537081E+02 0.16563545425E+02 0.13391336564E+02
 0.10684042107E+02 0.85357958594E+01 0.69333119142E+01 0.57621838624E+01 0.48920281568E+01