   1   1   1   0
  0.1987675E+02  0.3040559E-09  0.3040559E-09  0.3040559E-09  0.5000000E-15
  1.000000000000000E-004
  CAR 
 fcc Au                                  
     37.73520644     -6.23871026  301      5.78724227      1.00000000
     -6.239  0.0000E+00  0.0000E+00
     -6.092  0.0000E+00  0.0000E+00
     -5.946 -0.3074E-34 -0.4507E-35
     -5.799 -0.4449E-29 -0.6521E-30
     -5.652 -0.2179E-24 -0.3195E-25
     -5.506 -0.3607E-20 -0.5288E-21
     -5.359 -0.1948E-16 -0.2856E-17
     -5.213 -0.3610E-13 -0.5294E-14
     -5.066 -0.2217E-10 -0.3255E-11
     -4.919 -0.4444E-08 -0.6546E-09
     -4.773 -0.2808E-06 -0.4181E-07
     -4.626 -0.5096E-05 -0.7888E-06
     -4.480 -0.1712E-04 -0.3298E-05
     -4.333  0.6725E-04  0.6559E-05
     -4.187  0.3102E-03  0.5202E-04
     -4.040  0.7158E-03  0.1569E-03
     -3.893  0.1055E-02  0.3116E-03
     -3.747  0.1065E-02  0.4677E-03
     -3.600  0.1187E-02  0.6416E-03
     -3.454  0.1595E-02  0.8754E-03
     -3.307  0.2123E-02  0.1187E-02
     -3.161  0.1791E-02  0.1449E-02
     -3.014  0.1309E-02  0.1641E-02
     -2.867  0.2358E-02  0.1987E-02
     -2.721  0.3439E-02  0.2491E-02
     -2.574  0.2727E-02  0.2890E-02
     -2.428  0.2152E-02  0.3206E-02
     -2.281  0.3615E-02  0.3736E-02
     -2.134  0.3877E-02  0.4304E-02
     -1.988  0.3902E-02  0.4876E-02
     -1.841  0.5789E-02  0.5725E-02
     -1.695  0.9228E-02  0.7077E-02
     -1.548  0.1171E-01  0.8794E-02
     -1.402  0.1338E-01  0.1076E-01
     -1.255  0.2000E-01  0.1369E-01
     -1.108  0.2502E-01  0.1735E-01
     -0.962  0.3148E-01  0.2197E-01
     -0.815  0.3536E-01  0.2715E-01
     -0.669  0.3559E-01  0.3237E-01
     -0.522  0.3393E-01  0.3734E-01
     -0.376  0.2971E-01  0.4170E-01
     -0.229  0.3058E-01  0.4618E-01
     -0.082  0.2447E-01  0.4977E-01
      0.064  0.2316E-01  0.5316E-01
      0.211  0.3221E-01  0.5788E-01
      0.357  0.3581E-01  0.6313E-01
      0.504  0.3686E-01  0.6853E-01
      0.651  0.3505E-01  0.7367E-01
      0.797  0.4044E-01  0.7960E-01
      0.944  0.4328E-01  0.8594E-01
      1.090  0.4309E-01  0.9226E-01
      1.237  0.5224E-01  0.9992E-01
      1.383  0.6332E-01  0.1092E+00
      1.530  0.5101E-01  0.1167E+00
      1.677  0.3492E-01  0.1218E+00
      1.823  0.2789E-01  0.1259E+00
      1.970  0.3071E-01  0.1304E+00
      2.116  0.3212E-01  0.1351E+00
      2.263  0.3722E-01  0.1405E+00
      2.409  0.4341E-01  0.1469E+00
      2.556  0.3732E-01  0.1524E+00
      2.703  0.3303E-01  0.1572E+00
      2.849  0.3951E-01  0.1630E+00
      2.996  0.3075E-01  0.1675E+00
      3.142  0.2649E-01  0.1714E+00
      3.289  0.3425E-01  0.1764E+00
      3.436  0.3150E-01  0.1810E+00
      3.582  0.3883E-01  0.1867E+00
      3.729  0.5051E-01  0.1941E+00
      3.875  0.4936E-01  0.2014E+00
      4.022  0.3664E-01  0.2067E+00
      4.168  0.2390E-01  0.2102E+00
      4.315  0.1359E-01  0.2122E+00
      4.462  0.3022E-02  0.2127E+00
      4.608  0.4822E-03  0.2128E+00
      4.755  0.4303E-02  0.2134E+00
      4.901  0.9325E-02  0.2147E+00
      5.048  0.7851E-02  0.2159E+00
      5.195  0.4335E-02  0.2165E+00
      5.341  0.2974E-02  0.2170E+00
      5.488  0.6377E-02  0.2179E+00
      5.634  0.8617E-02  0.2192E+00
      5.781  0.5495E-02  0.2200E+00
      5.927  0.3822E-02  0.2205E+00
      6.074  0.4331E-02  0.2212E+00
      6.221  0.3534E-02  0.2217E+00
      6.367  0.7088E-02  0.2227E+00
      6.514  0.8155E-02  0.2239E+00
      6.660  0.5942E-02  0.2248E+00
      6.807  0.6166E-02  0.2257E+00
      6.953  0.4837E-02  0.2264E+00
      7.100  0.3265E-02  0.2269E+00
      7.247  0.3851E-02  0.2274E+00
      7.393  0.5306E-02  0.2282E+00
      7.540  0.7297E-02  0.2293E+00
      7.686  0.7094E-02  0.2303E+00
      7.833  0.4813E-02  0.2310E+00
      7.980  0.3256E-02  0.2315E+00
      8.126  0.2958E-02  0.2320E+00
      8.273  0.6520E-02  0.2329E+00
      8.419  0.6255E-02  0.2338E+00
      8.566  0.4232E-02  0.2344E+00
      8.712  0.4391E-02  0.2351E+00
      8.859  0.2894E-02  0.2355E+00
      9.006  0.7101E-02  0.2366E+00
      9.152  0.1280E-01  0.2384E+00
      9.299  0.9381E-02  0.2398E+00
      9.445  0.2784E-02  0.2402E+00
      9.592  0.3361E-02  0.2407E+00
      9.738  0.7349E-02  0.2418E+00
      9.885  0.8268E-02  0.2430E+00
     10.032  0.7178E-02  0.2440E+00
     10.178  0.5806E-02  0.2449E+00
     10.325  0.4252E-02  0.2455E+00
     10.471  0.3112E-02  0.2460E+00
     10.618  0.3523E-02  0.2465E+00
     10.765  0.8110E-02  0.2477E+00
     10.911  0.8952E-02  0.2490E+00
     11.058  0.6732E-02  0.2500E+00
     11.204  0.5486E-02  0.2508E+00
     11.351  0.5616E-02  0.2516E+00
     11.497  0.6869E-02  0.2526E+00
     11.644  0.9071E-02  0.2539E+00
     11.791  0.8144E-02  0.2551E+00
     11.937  0.6770E-02  0.2561E+00
     12.084  0.6825E-02  0.2571E+00
     12.230  0.4059E-02  0.2577E+00
     12.377  0.3396E-02  0.2582E+00
     12.523  0.7437E-02  0.2593E+00
     12.670  0.9963E-02  0.2608E+00
     12.817  0.4425E-02  0.2614E+00
     12.963  0.8111E-03  0.2615E+00
     13.110  0.3480E-02  0.2621E+00
     13.256  0.8133E-02  0.2632E+00
     13.403  0.6649E-02  0.2642E+00
     13.550  0.6096E-02  0.2651E+00
     13.696  0.9717E-02  0.2665E+00
     13.843  0.9148E-02  0.2679E+00
     13.989  0.1095E-01  0.2695E+00
     14.136  0.1014E-01  0.2710E+00
     14.282  0.2887E-02  0.2714E+00
     14.429 -0.2908E-03  0.2714E+00
     14.576  0.3900E-02  0.2719E+00
     14.722  0.1007E-01  0.2734E+00
     14.869  0.8199E-02  0.2746E+00
     15.015  0.5074E-02  0.2753E+00
     15.162  0.6471E-02  0.2763E+00
     15.309  0.1059E-01  0.2778E+00
     15.455  0.9881E-02  0.2793E+00
     15.602  0.7140E-02  0.2803E+00
     15.748  0.9059E-02  0.2817E+00
     15.895  0.8606E-02  0.2829E+00
     16.041  0.7893E-02  0.2841E+00
     16.188  0.9646E-02  0.2855E+00
     16.335  0.8833E-02  0.2868E+00
     16.481  0.8132E-02  0.2880E+00
     16.628  0.1291E-01  0.2899E+00
     16.774  0.1453E-01  0.2920E+00
     16.921  0.5740E-02  0.2929E+00
     17.067  0.4160E-02  0.2935E+00
     17.214  0.7321E-02  0.2945E+00
     17.361  0.9652E-02  0.2959E+00
     17.507  0.1346E-01  0.2979E+00
     17.654  0.1472E-01  0.3001E+00
     17.800  0.1522E-01  0.3023E+00
     17.947  0.1107E-01  0.3039E+00
     18.094  0.4117E-02  0.3045E+00
     18.240  0.3685E-02  0.3051E+00
     18.387  0.7657E-02  0.3062E+00
     18.533  0.1197E-01  0.3080E+00
     18.680  0.9623E-02  0.3094E+00
     18.826  0.9213E-02  0.3107E+00
     18.973  0.1046E-01  0.3122E+00
     19.120  0.9667E-02  0.3137E+00
     19.266  0.8488E-02  0.3149E+00
     19.413  0.1254E-01  0.3167E+00
     19.559  0.1080E-01  0.3183E+00
     19.706  0.7217E-02  0.3194E+00
     19.852  0.9598E-02  0.3208E+00
     19.999  0.1200E-01  0.3226E+00
     20.146  0.9756E-02  0.3240E+00
     20.292  0.8375E-02  0.3252E+00
     20.439  0.1424E-01  0.3273E+00
     20.585  0.1174E-01  0.3290E+00
     20.732  0.6507E-02  0.3300E+00
     20.879  0.8085E-02  0.3312E+00
     21.025  0.1311E-01  0.3331E+00
     21.172  0.1296E-01  0.3350E+00
     21.318  0.9989E-02  0.3364E+00
     21.465  0.1148E-01  0.3381E+00
     21.611  0.1556E-01  0.3404E+00
     21.758  0.1322E-01  0.3423E+00
     21.905  0.1071E-01  0.3439E+00
     22.051  0.1001E-01  0.3454E+00
     22.198  0.8501E-02  0.3466E+00
     22.344  0.9582E-02  0.3480E+00
     22.491  0.8062E-02  0.3492E+00
     22.637  0.5714E-02  0.3501E+00
     22.784  0.7396E-02  0.3511E+00
     22.931  0.1033E-01  0.3527E+00
     23.077  0.1451E-01  0.3548E+00
     23.224  0.2143E-01  0.3579E+00
     23.370  0.1635E-01  0.3603E+00
     23.517  0.1167E-01  0.3620E+00
     23.664  0.1254E-01  0.3639E+00
     23.810  0.1332E-01  0.3658E+00
     23.957  0.1671E-01  0.3683E+00
     24.103  0.2005E-01  0.3712E+00
     24.250  0.1625E-01  0.3736E+00
     24.396  0.1556E-01  0.3759E+00
     24.543  0.1608E-01  0.3782E+00
     24.690  0.1038E-01  0.3797E+00
     24.836  0.7950E-02  0.3809E+00
     24.983  0.1081E-01  0.3825E+00
     25.129  0.1570E-01  0.3848E+00
     25.276  0.1818E-01  0.3875E+00
     25.423  0.1557E-01  0.3897E+00
     25.569  0.1134E-01  0.3914E+00
     25.716  0.7052E-02  0.3924E+00
     25.862  0.6747E-02  0.3934E+00
     26.009  0.1126E-01  0.3951E+00
     26.155  0.1112E-01  0.3967E+00
     26.302  0.1289E-01  0.3986E+00
     26.449  0.1213E-01  0.4004E+00
     26.595  0.6693E-02  0.4014E+00
     26.742  0.4678E-02  0.4020E+00
     26.888  0.4488E-02  0.4027E+00
     27.035  0.7638E-02  0.4038E+00
     27.181  0.1068E-01  0.4054E+00
     27.328  0.9407E-02  0.4068E+00
     27.475  0.9069E-02  0.4081E+00
     27.621  0.7603E-02  0.4092E+00
     27.768  0.4129E-02  0.4098E+00
     27.914  0.6060E-02  0.4107E+00
     28.061  0.6001E-02  0.4116E+00
     28.208  0.6966E-02  0.4126E+00
     28.354  0.1101E-01  0.4142E+00
     28.501  0.7409E-02  0.4153E+00
     28.647  0.8421E-02  0.4165E+00
     28.794  0.1618E-01  0.4189E+00
     28.940  0.1131E-01  0.4206E+00
     29.087  0.7621E-02  0.4217E+00
     29.234  0.4723E-02  0.4224E+00
     29.380  0.8500E-03  0.4225E+00
     29.527  0.6199E-02  0.4234E+00
     29.673  0.1338E-01  0.4254E+00
     29.820  0.1223E-01  0.4272E+00
     29.966  0.8982E-02  0.4285E+00
     30.113  0.9609E-02  0.4299E+00
     30.260  0.1162E-01  0.4316E+00
     30.406  0.1506E-01  0.4338E+00
     30.553  0.1963E-01  0.4367E+00
     30.699  0.1412E-01  0.4387E+00
     30.846  0.1316E-01  0.4407E+00
     30.993  0.1336E-01  0.4426E+00
     31.139  0.1063E-01  0.4442E+00
     31.286  0.1017E-01  0.4457E+00
     31.432  0.1251E-01  0.4475E+00
     31.579  0.1325E-01  0.4495E+00
     31.725  0.1594E-01  0.4518E+00
     31.872  0.1455E-01  0.4539E+00
     32.019  0.1244E-01  0.4558E+00
     32.165  0.1551E-01  0.4580E+00
     32.312  0.1939E-01  0.4609E+00
     32.458  0.1590E-01  0.4632E+00
     32.605  0.1049E-01  0.4647E+00
     32.751  0.1059E-01  0.4663E+00
     32.898  0.1129E-01  0.4679E+00
     33.045  0.7582E-02  0.4691E+00
     33.191  0.7217E-02  0.4701E+00
     33.338  0.1261E-01  0.4720E+00
     33.484  0.1256E-01  0.4738E+00
     33.631  0.6504E-02  0.4748E+00
     33.778  0.3833E-02  0.4753E+00
     33.924  0.2859E-02  0.4757E+00
     34.071  0.2104E-02  0.4760E+00
     34.217  0.3248E-02  0.4765E+00
     34.364  0.4482E-02  0.4772E+00
     34.510  0.4245E-02  0.4778E+00
     34.657  0.3731E-02  0.4783E+00
     34.804  0.4621E-02  0.4790E+00
     34.950  0.1990E-02  0.4793E+00
     35.097 -0.1529E-03  0.4793E+00
     35.243 -0.1258E-03  0.4793E+00
     35.390  0.4706E-03  0.4793E+00
     35.537  0.1164E-02  0.4795E+00
     35.683  0.1688E-02  0.4798E+00
     35.830  0.1438E-02  0.4800E+00
     35.976  0.2819E-03  0.4800E+00
     36.123 -0.7140E-04  0.4800E+00
     36.269 -0.1769E-04  0.4800E+00
     36.416 -0.9037E-06  0.4800E+00
     36.563 -0.1379E-07  0.4800E+00
     36.709 -0.6762E-10  0.4800E+00
     36.856 -0.1092E-12  0.4800E+00
     37.002 -0.5890E-16  0.4800E+00
     37.149  0.0000E+00  0.4800E+00
     37.295  0.0000E+00  0.4800E+00
     37.442  0.0000E+00  0.4800E+00
     37.589  0.0000E+00  0.4800E+00
     37.735  0.0000E+00  0.4800E+00
     37.73520644     -6.23871026  301      5.78724227      1.00000000
     -6.239  0.0000E+00  0.0000E+00  0.0000E+00
     -6.092  0.0000E+00  0.0000E+00  0.0000E+00
     -5.946 -0.1059E-32 -0.7548E-35 -0.1613E-36
     -5.799 -0.1533E-27 -0.1092E-29 -0.2335E-31
     -5.652 -0.7509E-23 -0.5351E-25 -0.1144E-26
     -5.506 -0.1243E-18 -0.8856E-21 -0.1893E-22
     -5.359 -0.6712E-15 -0.4783E-17 -0.1022E-18
     -5.213 -0.1244E-11 -0.8862E-14 -0.1894E-15
     -5.066 -0.7639E-09 -0.5444E-11 -0.1164E-12
     -4.919 -0.1531E-06 -0.1092E-08 -0.2340E-10
     -4.773 -0.9673E-05 -0.6933E-07 -0.1503E-08
     -4.626 -0.1755E-03 -0.1302E-05 -0.3055E-07
     -4.480 -0.5878E-03 -0.6184E-05 -0.2394E-06
     -4.333  0.2338E-02 -0.3832E-05 -0.1227E-05
     -4.187  0.1069E-01  0.7037E-04  0.6058E-07
     -4.040  0.2434E-01  0.4935E-03  0.2217E-04
     -3.893  0.3558E-01  0.1006E-02  0.7419E-04
     -3.747  0.3546E-01  0.1409E-02  0.1736E-03
     -3.600  0.3892E-01  0.2072E-02  0.3124E-03
     -3.454  0.5149E-01  0.3452E-02  0.6370E-03
     -3.307  0.6754E-01  0.5282E-02  0.1282E-02
     -3.161  0.5635E-01  0.4736E-02  0.1574E-02
     -3.014  0.4020E-01  0.4035E-02  0.1676E-02
     -2.867  0.7070E-01  0.8397E-02  0.3758E-02
     -2.721  0.1015E+00  0.1288E-01  0.6852E-02
     -2.574  0.7919E-01  0.1061E-01  0.6605E-02
     -2.428  0.6002E-01  0.8960E-02  0.7766E-02
     -2.281  0.9751E-01  0.1571E-01  0.1654E-01
     -2.134  0.1012E+00  0.1705E-01  0.2165E-01
     -1.988  0.9765E-01  0.1841E-01  0.2540E-01
     -1.841  0.1334E+00  0.2515E-01  0.5627E-01
     -1.695  0.1767E+00  0.3016E-01  0.1509E+00
     -1.548  0.1879E+00  0.2908E-01  0.2512E+00
     -1.402  0.1788E+00  0.3114E-01  0.3320E+00
     -1.255  0.2319E+00  0.4886E-01  0.5312E+00
     -1.108  0.2366E+00  0.5581E-01  0.7370E+00
     -0.962  0.2176E+00  0.5836E-01  0.1050E+01
     -0.815  0.1946E+00  0.5941E-01  0.1257E+01
     -0.669  0.1620E+00  0.6200E-01  0.1311E+01
     -0.522  0.1176E+00  0.5746E-01  0.1301E+01
     -0.376  0.8603E-01  0.5963E-01  0.1148E+01
     -0.229  0.6077E-01  0.6494E-01  0.1212E+01
     -0.082  0.2876E-01  0.5764E-01  0.9868E+00
      0.064  0.1564E-01  0.6398E-01  0.9370E+00
      0.211  0.1848E-01  0.9332E-01  0.1304E+01
      0.357  0.1816E-01  0.9478E-01  0.1468E+01
      0.504  0.1994E-01  0.8407E-01  0.1536E+01
      0.651  0.2492E-01  0.6951E-01  0.1479E+01
      0.797  0.3496E-01  0.9199E-01  0.1692E+01
      0.944  0.4348E-01  0.1099E+00  0.1796E+01
      1.090  0.4656E-01  0.9465E-01  0.1812E+01
      1.237  0.4379E-01  0.1108E+00  0.2229E+01
      1.383  0.4755E-01  0.1474E+00  0.2699E+01
      1.530  0.4890E-01  0.1296E+00  0.2148E+01
      1.677  0.3694E-01  0.8276E-01  0.1478E+01
      1.823  0.2014E-01  0.6769E-01  0.1190E+01
      1.970  0.2072E-01  0.8671E-01  0.1295E+01
      2.116  0.2379E-01  0.7853E-01  0.1373E+01
      2.263  0.2704E-01  0.7955E-01  0.1614E+01
      2.409  0.2862E-01  0.7791E-01  0.1912E+01
      2.556  0.1849E-01  0.4347E-01  0.1688E+01
      2.703  0.1339E-01  0.4499E-01  0.1493E+01
      2.849  0.2130E-01  0.6667E-01  0.1766E+01
      2.996  0.1938E-01  0.5032E-01  0.1377E+01
      3.142  0.9774E-02  0.2783E-01  0.1223E+01
      3.289  0.1252E-01  0.3612E-01  0.1584E+01
      3.436  0.1731E-01  0.3664E-01  0.1447E+01
      3.582  0.1666E-01  0.2743E-01  0.1823E+01
      3.729  0.1589E-01  0.2326E-01  0.2402E+01
      3.875  0.8610E-02  0.1506E-01  0.2373E+01
      4.022  0.1045E-01  0.1549E-01  0.1753E+01
      4.168  0.3613E-01  0.3823E-01  0.1068E+01
      4.315  0.4394E-01  0.4790E-01  0.5388E+00
      4.462  0.1766E-01  0.2231E-01  0.9223E-01
      4.608  0.3829E-02  0.5375E-02  0.1064E-01
      4.755  0.2320E-01  0.2117E-01  0.1507E+00
      4.901  0.5408E-01  0.4650E-01  0.3218E+00
      5.048  0.5014E-01  0.4917E-01  0.2506E+00
      5.195  0.2640E-01  0.4746E-01  0.1082E+00
      5.341  0.1167E-01  0.4596E-01  0.6003E-01
      5.488  0.4058E-01  0.6550E-01  0.1634E+00
      5.634  0.6800E-01  0.7118E-01  0.2339E+00
      5.781  0.4848E-01  0.3917E-01  0.1533E+00
      5.927  0.3275E-01  0.3166E-01  0.1010E+00
      6.074  0.3021E-01  0.5002E-01  0.1005E+00
      6.221  0.2513E-01  0.4301E-01  0.7795E-01
      6.367  0.6455E-01  0.7611E-01  0.1559E+00
      6.514  0.7708E-01  0.8476E-01  0.1795E+00
      6.660  0.4390E-01  0.7635E-01  0.1218E+00
      6.807  0.3922E-01  0.9535E-01  0.1113E+00
      6.953  0.4051E-01  0.6803E-01  0.8842E-01
      7.100  0.3744E-01  0.3385E-01  0.6541E-01
      7.247  0.5327E-01  0.3243E-01  0.7522E-01
      7.393  0.6249E-01  0.5867E-01  0.9564E-01
      7.540  0.6582E-01  0.1024E+00  0.1240E+00
      7.686  0.5978E-01  0.1102E+00  0.1123E+00
      7.833  0.4811E-01  0.6802E-01  0.7829E-01
      7.980  0.3731E-01  0.3930E-01  0.5503E-01
      8.126  0.3567E-01  0.3726E-01  0.4434E-01
      8.273  0.7865E-01  0.8588E-01  0.9450E-01
      8.419  0.8121E-01  0.7772E-01  0.9065E-01
      8.566  0.6225E-01  0.4641E-01  0.6279E-01
      8.712  0.5158E-01  0.6279E-01  0.6025E-01
      8.859  0.3344E-01  0.4517E-01  0.3448E-01
      9.006  0.1612E+00  0.3672E-01  0.9513E-01
      9.152  0.2805E+00  0.6924E-01  0.1829E+00
      9.299  0.1814E+00  0.7300E-01  0.1318E+00
      9.445  0.5517E-01  0.2493E-01  0.3101E-01
      9.592  0.5895E-01  0.3925E-01  0.3046E-01
      9.738  0.1193E+00  0.8573E-01  0.8425E-01
      9.885  0.1453E+00  0.8367E-01  0.1025E+00
     10.032  0.1115E+00  0.8035E-01  0.9398E-01
     10.178  0.9893E-01  0.6316E-01  0.6563E-01
     10.325  0.7067E-01  0.5343E-01  0.3918E-01
     10.471  0.2111E-01  0.6252E-01  0.3133E-01
     10.618  0.3150E-01  0.6345E-01  0.3669E-01
     10.765  0.1050E+00  0.1201E+00  0.8497E-01
     10.911  0.1352E+00  0.1207E+00  0.8542E-01
     11.058  0.9312E-01  0.9525E-01  0.6741E-01
     11.204  0.7111E-01  0.8382E-01  0.5507E-01
     11.351  0.1125E+00  0.6398E-01  0.4060E-01
     11.497  0.1120E+00  0.9152E-01  0.5977E-01
     11.644  0.1189E+00  0.1417E+00  0.8129E-01
     11.791  0.1259E+00  0.1176E+00  0.6500E-01
     11.937  0.9224E-01  0.9777E-01  0.7115E-01
     12.084  0.8352E-01  0.1011E+00  0.7694E-01
     12.230  0.5597E-01  0.5849E-01  0.3764E-01
     12.377  0.5128E-01  0.5041E-01  0.2266E-01
     12.523  0.9721E-01  0.1146E+00  0.6175E-01
     12.670  0.1381E+00  0.1538E+00  0.7296E-01
     12.817  0.7248E-01  0.6672E-01  0.2171E-01
     12.963  0.3936E-02  0.2039E-01  0.5230E-02
     13.110  0.3220E-01  0.6751E-01  0.2790E-01
     13.256  0.1161E+00  0.1226E+00  0.5934E-01
     13.403  0.9277E-01  0.9711E-01  0.5396E-01
     13.550  0.6526E-01  0.9769E-01  0.6353E-01
     13.696  0.9462E-01  0.1582E+00  0.1068E+00
     13.843  0.7396E-01  0.1687E+00  0.8948E-01
     13.989  0.7881E-01  0.2180E+00  0.9530E-01
     14.136  0.9054E-01  0.1838E+00  0.8626E-01
     14.282  0.3479E-01  0.4550E-01  0.2087E-01
     14.429 -0.8191E-03 -0.7437E-02 -0.2666E-02
     14.576  0.1577E-01  0.7956E-01  0.4089E-01
     14.722  0.4162E-01  0.2121E+00  0.1008E+00
     14.869  0.5207E-01  0.1631E+00  0.7431E-01
     15.015  0.6355E-01  0.8493E-01  0.2902E-01
     15.162  0.7370E-01  0.1120E+00  0.3619E-01
     15.309  0.6984E-01  0.2108E+00  0.8498E-01
     15.455  0.3818E-01  0.2076E+00  0.9931E-01
     15.602  0.2027E-01  0.1504E+00  0.8419E-01
     15.748  0.3057E-01  0.1834E+00  0.1049E+00
     15.895  0.2658E-01  0.1690E+00  0.9096E-01
     16.041  0.2672E-01  0.1551E+00  0.7537E-01
     16.188  0.4277E-01  0.1933E+00  0.7807E-01
     16.335  0.4345E-01  0.1853E+00  0.4993E-01
     16.481  0.4586E-01  0.1705E+00  0.4724E-01
     16.628  0.4001E-01  0.2716E+00  0.1202E+00
     16.774  0.2350E-01  0.3106E+00  0.1490E+00
     16.921  0.6279E-02  0.1225E+00  0.5865E-01
     17.067  0.6749E-02  0.9000E-01  0.3914E-01
     17.214  0.2185E-01  0.1532E+00  0.6803E-01
     17.361  0.3224E-01  0.1851E+00  0.9385E-01
     17.507  0.3732E-01  0.2686E+00  0.1168E+00
     17.654  0.3842E-01  0.3059E+00  0.1223E+00
     17.800  0.3483E-01  0.3183E+00  0.1397E+00
     17.947  0.2945E-01  0.2238E+00  0.1064E+00
     18.094  0.1241E-01  0.7396E-01  0.4597E-01
     18.240  0.1026E-01  0.7182E-01  0.3778E-01
     18.387  0.1261E-01  0.1599E+00  0.7097E-01
     18.533  0.1520E-01  0.2397E+00  0.1160E+00
     18.680  0.1901E-01  0.1788E+00  0.8691E-01
     18.826  0.2278E-01  0.1732E+00  0.7920E-01
     18.973  0.1734E-01  0.2086E+00  0.1030E+00
     19.120  0.2000E-01  0.1961E+00  0.8798E-01
     19.266  0.1729E-01  0.1727E+00  0.7137E-01
     19.413  0.1943E-01  0.2408E+00  0.1160E+00
     19.559  0.1654E-01  0.2056E+00  0.1010E+00
     19.706  0.1022E-01  0.1278E+00  0.7077E-01
     19.852  0.1501E-01  0.1651E+00  0.9010E-01
     19.999  0.2148E-01  0.1885E+00  0.1194E+00
     20.146  0.1706E-01  0.1476E+00  0.9592E-01
     20.292  0.1025E-01  0.1345E+00  0.7041E-01
     20.439  0.1064E-01  0.2110E+00  0.1183E+00
     20.585  0.8092E-02  0.1438E+00  0.8119E-01
     20.732  0.2370E-02  0.5666E-01  0.2621E-01
     20.879  0.1471E-02  0.9964E-01  0.4647E-01
     21.025  0.7527E-02  0.1883E+00  0.1030E+00
     21.172  0.1102E-01  0.1804E+00  0.9964E-01
     21.318  0.9305E-02  0.1236E+00  0.6866E-01
     21.465  0.1535E-01  0.1186E+00  0.9510E-01
     21.611  0.2014E-01  0.1625E+00  0.1139E+00
     21.758  0.1185E-01  0.1575E+00  0.8307E-01
     21.905  0.5613E-02  0.1023E+00  0.6955E-01
     22.051  0.5634E-02  0.6874E-01  0.6227E-01
     22.198  0.6617E-02  0.7876E-01  0.4438E-01
     22.344  0.7998E-02  0.1130E+00  0.4659E-01
     22.491  0.6808E-02  0.7832E-01  0.3777E-01
     22.637  0.4976E-02  0.4429E-01  0.2393E-01
     22.784  0.6843E-02  0.6406E-01  0.3762E-01
     22.931  0.1027E-01  0.1286E+00  0.5489E-01
     23.077  0.2044E-01  0.2346E+00  0.7624E-01
     23.224  0.3461E-01  0.3156E+00  0.1286E+00
     23.370  0.3171E-01  0.1972E+00  0.1108E+00
     23.517  0.2578E-01  0.1322E+00  0.8134E-01
     23.664  0.1727E-01  0.1658E+00  0.8039E-01
     23.810  0.1487E-01  0.1704E+00  0.1040E+00
     23.957  0.2708E-01  0.1955E+00  0.1360E+00
     24.103  0.4857E-01  0.2156E+00  0.1682E+00
     24.250  0.4903E-01  0.1532E+00  0.1512E+00
     24.396  0.3445E-01  0.1548E+00  0.1381E+00
     24.543  0.1515E-01  0.2064E+00  0.1014E+00
     24.690  0.4434E-02  0.1488E+00  0.5022E-01
     24.836  0.6522E-02  0.1226E+00  0.4413E-01
     24.983  0.1283E-01  0.1800E+00  0.6949E-01
     25.129  0.1606E-01  0.2258E+00  0.1063E+00
     25.276  0.1705E-01  0.2037E+00  0.1242E+00
     25.423  0.1823E-01  0.1469E+00  0.1259E+00
     25.569  0.2155E-01  0.9856E-01  0.1122E+00
     25.716  0.1650E-01  0.5138E-01  0.9670E-01
     25.862  0.5008E-02  0.6080E-01  0.9767E-01
     26.009  0.4460E-02  0.1120E+00  0.1147E+00
     26.155  0.4126E-02  0.1111E+00  0.1023E+00
     26.302  0.9013E-02  0.1378E+00  0.1237E+00
     26.449  0.1666E-01  0.1556E+00  0.9462E-01
     26.595  0.9102E-02  0.8388E-01  0.4023E-01
     26.742  0.3309E-02  0.4143E-01  0.3392E-01
     26.888  0.5808E-02  0.3481E-01  0.4352E-01
     27.035  0.1393E-01  0.5674E-01  0.8905E-01
     27.181  0.2222E-01  0.7069E-01  0.1365E+00
     27.328  0.1637E-01  0.6348E-01  0.1180E+00
     27.475  0.7076E-02  0.1073E+00  0.5944E-01
     27.621  0.8167E-02  0.1117E+00  0.2939E-01
     27.768  0.7370E-02  0.7453E-01  0.1838E-01
     27.914  0.1269E-01  0.1167E+00  0.2395E-01
     28.061  0.1275E-01  0.1129E+00  0.2734E-01
     28.208  0.4594E-02  0.7492E-01  0.4968E-01
     28.354  0.3858E-02  0.1108E+00  0.6839E-01
     28.501  0.4142E-02  0.7513E-01  0.4773E-01
     28.647  0.1574E-01  0.8096E-01  0.6727E-01
     28.794  0.3223E-01  0.1364E+00  0.1387E+00
     28.940  0.1661E-01  0.9023E-01  0.9518E-01
     29.087  0.2219E-02  0.5665E-01  0.6000E-01
     29.234  0.5531E-03  0.2757E-01  0.3764E-01
     29.380  0.1944E-03  0.1384E-02  0.4787E-02
     29.527  0.1985E-02  0.3927E-01  0.4988E-01
     29.673  0.2930E-02  0.8904E-01  0.1293E+00
     29.820  0.2079E-02  0.6835E-01  0.1405E+00
     29.966  0.3729E-02  0.5020E-01  0.1009E+00
     30.113  0.6035E-02  0.4182E-01  0.9225E-01
     30.260  0.7282E-02  0.3138E-01  0.1099E+00
     30.406  0.1455E-01  0.4587E-01  0.1780E+00
     30.553  0.1835E-01  0.5549E-01  0.2706E+00
     30.699  0.9626E-02  0.5253E-01  0.1904E+00
     30.846  0.5597E-02  0.5242E-01  0.1910E+00
     30.993  0.4154E-02  0.4463E-01  0.2251E+00
     31.139  0.3867E-02  0.4592E-01  0.1806E+00
     31.286  0.5589E-02  0.3667E-01  0.1447E+00
     31.432  0.6073E-02  0.3313E-01  0.1770E+00
     31.579  0.3667E-02  0.4297E-01  0.1718E+00
     31.725  0.3985E-02  0.5590E-01  0.1922E+00
     31.872  0.9814E-02  0.3733E-01  0.1706E+00
     32.019  0.1693E-01  0.2053E-01  0.1585E+00
     32.165  0.2671E-01  0.2034E-01  0.2163E+00
     32.312  0.3362E-01  0.3778E-01  0.2371E+00
     32.458  0.2617E-01  0.5070E-01  0.1740E+00
     32.605  0.1401E-01  0.4009E-01  0.1183E+00
     32.751  0.1299E-01  0.1859E-01  0.1292E+00
     32.898  0.1250E-01  0.1046E-01  0.1293E+00
     33.045  0.1028E-01  0.9928E-02  0.7688E-01
     33.191  0.8173E-02  0.1584E-01  0.6747E-01
     33.338  0.1253E-01  0.2610E-01  0.1033E+00
     33.484  0.1203E-01  0.2060E-01  0.8943E-01
     33.631  0.4460E-02  0.7699E-02  0.4863E-01
     33.778  0.3267E-02  0.5222E-02  0.3998E-01
     33.924  0.8679E-02  0.1005E-01  0.3260E-01
     34.071  0.8834E-02  0.1097E-01  0.1828E-01
     34.217  0.8204E-02  0.1259E-01  0.1782E-01
     34.364  0.4525E-02  0.7705E-02  0.2488E-01
     34.510  0.3669E-03  0.1442E-02  0.2254E-01
     34.657 -0.3053E-04  0.8102E-03  0.1266E-01
     34.804  0.2059E-03  0.1968E-02  0.1105E-01
     34.950  0.7277E-04  0.9752E-03  0.4312E-02
     35.097 -0.1126E-04 -0.4636E-04 -0.4027E-03
     35.243 -0.3962E-05 -0.5310E-04 -0.2709E-03
     35.390 -0.2295E-06 -0.1823E-04  0.1404E-03
     35.537 -0.3918E-08  0.1220E-04  0.8130E-03
     35.683 -0.2103E-10  0.3188E-03  0.2668E-02
     35.830  0.1634E-11  0.5136E-03  0.3011E-02
     35.976  0.5345E-12  0.1537E-03  0.7106E-03
     36.123 -0.7591E-13 -0.2348E-04 -0.1429E-03
     36.269 -0.2717E-13 -0.7966E-05 -0.4025E-04
     36.416 -0.1517E-14 -0.4400E-06 -0.2129E-05
     36.563 -0.2405E-16 -0.6946E-08 -0.3300E-07
     36.709 -0.1201E-18 -0.3460E-10 -0.1630E-09
     36.856 -0.1955E-21 -0.5627E-13 -0.2640E-12
     37.002 -0.1057E-24 -0.3041E-16 -0.1426E-15
     37.149  0.0000E+00  0.0000E+00  0.0000E+00
     37.295  0.0000E+00  0.0000E+00  0.0000E+00
     37.442  0.0000E+00  0.0000E+00  0.0000E+00
     37.589  0.0000E+00  0.0000E+00  0.0000E+00
     37.735  0.0000E+00  0.0000E+00  0.0000E+00
