    1    1   50    1
  0.1987675E+02  0.3040559E-09  0.3040559E-09  0.3040559E-09  0.5000000E-15
  1.000000000000000E-004
  CAR 
 fcc Au                                  
     11    110     12
 
  0.5000000E-01  0.5000000E-01  0.5000000E-01  0.2000000E-02
    1       -4.238710   1.000000
    2        0.962812   1.000000
    3        1.024492   1.000000
    4        1.024492   1.000000
    5        2.575638   1.000000
    6        2.575638   1.000000
    7       21.247075   0.000000
    8       24.426592   0.000000
    9       25.202595   0.000000
   10       25.202595   0.000000
   11       30.067973   0.000000
   12       33.163942   0.000000
 
  0.1500000E+00  0.5000000E-01  0.5000000E-01  0.6000000E-02
    1       -3.776487   1.000000
    2        0.805545   1.000000
    3        1.167718   1.000000
    4        1.200924   1.000000
    5        2.422755   1.000000
    6        2.627733   1.000000
    7       21.590425   0.000000
    8       22.458997   0.000000
    9       24.843299   0.000000
   10       26.141095   0.000000
   11       29.532943   0.000000
   12       32.186008   0.000000
 
  0.2500000E+00  0.5000000E-01  0.5000000E-01  0.6000000E-02
    1       -2.777678   1.000000
    2        0.684949   1.000000
    3        1.324091   1.000000
    4        1.347290   1.000000
    5        2.432618   1.000000
    6        2.849744   1.000000
    7       18.581944   0.000000
    8       22.206718   0.000000
    9       25.042951   0.000000
   10       27.446559   0.000000
   11       27.499219   0.000000
   12       29.969887   0.000000
 
  0.3500000E+00  0.5000000E-01  0.5000000E-01  0.6000000E-02
    1       -1.889040   1.000000
    2        1.139392   1.000000
    3        1.228622   1.000000
    4        1.369354   1.000000
    5        2.937485   1.000000
    6        3.436388   1.000000
    7       14.538505   0.000000
    8       21.513542   0.000000
    9       24.085434   0.000000
   10       26.311690   0.000000
   11       28.680748   0.000000
   12       29.788333   0.000000
 
  0.4500000E+00  0.5000000E-01  0.5000000E-01  0.6000000E-02
    1       -1.671332   1.000000
    2        0.983758   1.000000
    3        1.055959   1.000000
    4        2.906853   1.000000
    5        3.553726   1.000000
    6        4.324311   1.000000
    7       10.727664  -0.000000
    8       20.732757   0.000000
    9       23.135464   0.000000
   10       24.257363   0.000000
   11       30.493579   0.000000
   12       30.777817   0.000000
 
 -0.4500000E+00  0.5000000E-01  0.5000000E-01  0.6000000E-02
    1       -1.667582   1.000000
    2        0.915352   1.000000
    3        1.015381   1.000000
    4        3.338495   1.000000
    5        3.846762   1.000000
    6        5.183683   1.000085
    7        9.056232  -0.000000
    8       20.519453   0.000000
    9       23.187297   0.000000
   10       23.308153   0.000000
   11       31.002407   0.000000
   12       31.079943   0.000000
 
 -0.3500000E+00  0.5000000E-01  0.5000000E-01  0.6000000E-02
    1       -1.696670   1.000000
    2        1.015230   1.000000
    3        1.128944   1.000000
    4        2.327818   1.000000
    5        3.637910   1.000000
    6        3.760430   1.000000
    7       11.911635   0.000000
    8       20.972596   0.000000
    9       23.613381   0.000000
   10       24.453891   0.000000
   11       30.442217   0.000000
   12       30.584858   0.000000
 
 -0.2500000E+00  0.5000000E-01  0.5000000E-01  0.6000000E-02
    1       -2.112537   1.000000
    2        0.941243   1.000000
    3        1.244010   1.000000
    4        1.306514   1.000000
    5        2.843621   1.000000
    6        3.119070   1.000000
    7       15.896656   0.000000
    8       21.894533   0.000000
    9       24.587030   0.000000
   10       26.443812   0.000000
   11       28.354748   0.000000
   12       30.166247   0.000000
 
 -0.1500000E+00  0.5000000E-01  0.5000000E-01  0.6000000E-02
    1       -3.144456   1.000000
    2        0.673769   1.000000
    3        1.315998   1.000000
    4        1.329456   1.000000
    5        2.387577   1.000000
    6        2.721374   1.000000
    7       19.867404   0.000000
    8       22.299668   0.000000
    9       25.048178   0.000000
   10       26.593024   0.000000
   11       28.243727   0.000000
   12       30.837811   0.000000
 
 -0.5000000E-01  0.5000000E-01  0.5000000E-01  0.6000000E-02
    1       -4.003598   1.000000
    2        0.851726   1.000000
    3        1.122840   1.000000
    4        1.128771   1.000000
    5        2.447186   1.000000
    6        2.634943   1.000000
    7       21.494511   0.000000
    8       23.505828   0.000000
    9       24.952052   0.000000
   10       25.328501   0.000000
   11       30.688976   0.000000
   12       32.388924   0.000000
 
  0.1500000E+00  0.1500000E+00  0.5000000E-01  0.6000000E-02
    1       -3.547074   1.000000
    2        0.630021   1.000000
    3        1.329871   1.000000
    4        1.333819   1.000000
    5        2.222186   1.000000
    6        2.749289   1.000000
    7       21.894609   0.000000
    8       22.632765   0.000000
    9       24.297200   0.000000
   10       24.923919   0.000000
   11       29.944374   0.000000
   12       31.619894   0.000000
 
  0.2500000E+00  0.1500000E+00  0.5000000E-01  0.1200000E-01
    1       -2.716756   1.000000
    2        0.376569   1.000000
    3        1.430330   1.000000
    4        1.619512   1.000000
    5        2.168416   1.000000
    6        2.977591   1.000000
    7       20.125278   0.000000
    8       21.926586   0.000000
    9       23.902350   0.000000
   10       25.159105   0.000000
   11       27.916207   0.000000
   12       30.789073   0.000000
 
  0.3500000E+00  0.1500000E+00  0.5000000E-01  0.1200000E-01
    1       -1.699749   1.000000
    2        0.464483   1.000000
    3        1.120057   1.000000
    4        1.629223   1.000000
    5        2.847508   1.000000
    6        3.574559   1.000000
    7       16.128050   0.000000
    8       21.385574   0.000000
    9       22.839496   0.000000
   10       25.043773   0.000000
   11       28.696478   0.000000
   12       30.485567   0.000000
 
  0.4500000E+00  0.1500000E+00  0.5000000E-01  0.1200000E-01
    1       -1.314810   1.000000
    2        0.809560   1.000000
    3        1.359610   1.000000
    4        1.521956   1.000000
    5        3.619176   1.000000
    6        4.771407   1.000000
    7       12.105509   0.000000
    8       20.869586   0.000000
    9       21.583347   0.000000
   10       23.737515   0.000000
   11       30.504642   0.000000
   12       31.629428   0.000000
 
 -0.4500000E+00  0.1500000E+00  0.5000000E-01  0.1200000E-01
    1       -1.294324   1.000000
    2        0.677425   1.000000
    3        1.321735   1.000000
    4        2.271504   1.000000
    5        3.798108   1.000000
    6        6.650891  -0.000000
    7        9.037326  -0.000000
    8       20.398913   0.000000
    9       21.236921   0.000000
   10       22.955295   0.000000
   11       30.984046   0.000000
   12       32.035382   0.000000
 
 -0.3500000E+00  0.1500000E+00  0.5000000E-01  0.1200000E-01
    1       -1.276636   1.000000
    2        0.760312   1.000000
    3        1.347826   1.000000
    4        1.934968   1.000000
    5        3.469906   1.000000
    6        5.484866   1.027119
    7       10.955177  -0.000000
    8       20.100870   0.000000
    9       21.659374   0.000000
   10       23.911623   0.000000
   11       30.142728   0.000000
   12       31.686379   0.000000
 
 -0.2500000E+00  0.1500000E+00  0.5000000E-01  0.1200000E-01
    1       -1.456699   1.000000
    2        0.752823   1.000000
    3        1.068843   1.000000
    4        1.541628   1.000000
    5        2.756834   1.000000
    6        4.127103   1.000000
    7       14.782951   0.000000
    8       20.370329   0.000000
    9       22.764689   0.000000
   10       25.917158   0.000000
   11       28.292120   0.000000
   12       30.790022   0.000000
 
 -0.1500000E+00  0.1500000E+00  0.5000000E-01  0.1200000E-01
    1       -2.357084   1.000000
    2        0.421667   1.000000
    3        1.321672   1.000000
    4        1.643116   1.000000
    5        2.163025   1.000000
    6        3.246859   1.000000
    7       18.721598   0.000000
    8       21.009326   0.000000
    9       24.472333   0.000000
   10       25.485034   0.000000
   11       29.003289   0.000000
   12       29.655201   0.000000
 
 -0.5000000E-01  0.1500000E+00  0.5000000E-01  0.1200000E-01
    1       -3.335950   1.000000
    2        0.634904   1.000000
    3        1.331978   1.000000
    4        1.342662   1.000000
    5        2.263906   1.000000
    6        2.759234   1.000000
    7       21.109449   0.000000
    8       22.058105   0.000000
    9       24.407452   0.000000
   10       26.234480   0.000000
   11       28.612329   0.000000
   12       31.634604   0.000000
 
  0.2500000E+00  0.2500000E+00  0.5000000E-01  0.6000000E-02
    1       -2.163944   1.000000
    2        0.010438   1.000000
    3        1.587082   1.000000
    4        2.012467   1.000000
    5        2.210049   1.000000
    6        3.102447   1.000000
    7       20.595396   0.000000
    8       21.732902   0.000000
    9       22.803031   0.000000
   10       23.691853   0.000000
   11       24.962143   0.000000
   12       32.263702   0.000000
 
  0.3500000E+00  0.2500000E+00  0.5000000E-01  0.1200000E-01
    1       -1.360467   1.000000
    2       -0.219849   1.000000
    3        1.321600   1.000000
    4        2.370606   1.000000
    5        2.885762   1.000000
    6        3.596876   1.000000
    7       17.858126   0.000000
    8       19.820553   0.000000
    9       21.454321   0.000000
   10       24.162535   0.000000
   11       25.553543   0.000000
   12       32.323512   0.000000
 
  0.4500000E+00  0.2500000E+00  0.5000000E-01  0.1200000E-01
    1       -0.893640   1.000000
    2        0.045241   1.000000
    3        1.068642   1.000000
    4        2.233418   1.000000
    5        3.709659   1.000000
    6        5.049948   1.000001
    7       13.751383   0.000000
    8       19.134838   0.000000
    9       19.707274   0.000000
   10       23.771605   0.000000
   11       28.773884   0.000000
   12       32.281961   0.000000
 
 -0.4500000E+00  0.2500000E+00  0.5000000E-01  0.1200000E-01
    1       -0.773376   1.000000
    2        0.313915   1.000000
    3        1.275191   1.000000
    4        2.028228   1.000000
    5        3.834367   1.000000
    6        7.533240  -0.000000
    7       10.135492  -0.000000
    8       17.835789   0.000000
    9       19.778546   0.000000
   10       23.347328   0.000000
   11       31.368397   0.000000
   12       32.956151   0.000000
 
 -0.3500000E+00  0.2500000E+00  0.5000000E-01  0.1200000E-01
    1       -0.597491   1.000000
    2        0.381269   1.000000
    3        1.295686   1.000000
    4        1.920531   1.000000
    5        3.422701   1.000000
    6        7.371365  -0.000000
    7       10.676479  -0.000000
    8       16.740635   0.000000
    9       20.985071   0.000000
   10       23.527725   0.000000
   11       30.515440   0.000000
   12       32.887819   0.000000
 
 -0.2500000E+00  0.2500000E+00  0.5000000E-01  0.1200000E-01
    1       -0.512783   1.000000
    2        0.460046   1.000000
    3        0.722499   1.000000
    4        2.003529   1.000000
    5        2.714544   1.000000
    6        5.561636   1.033820
    7       14.091438   0.000000
    8       16.663086   0.000000
    9       22.222847   0.000000
   10       25.010626   0.000000
   11       28.306681   0.000000
   12       32.705378   0.000000
 
 -0.1500000E+00  0.2500000E+00  0.5000000E-01  0.1200000E-01
    1       -1.298141   1.000000
    2        0.341365   1.000000
    3        1.041131   1.000000
    4        1.878114   1.000000
    5        2.305285   1.000000
    6        4.219861   1.000000
    7       16.241384   0.000000
    8       18.921773   0.000000
    9       23.236856   0.000000
   10       26.317512   0.000000
   11       27.416979   0.000000
   12       31.335824   0.000000
 
 -0.5000000E-01  0.2500000E+00  0.5000000E-01  0.1200000E-01
    1       -2.272808   1.000000
    2        0.606166   1.000000
    3        1.293911   1.000000
    4        1.446170   1.000000
    5        2.497261   1.000000
    6        3.172273   1.000000
    7       17.340844   0.000000
    8       21.935662   0.000000
    9       24.064188   0.000000
   10       26.491315   0.000000
   11       28.286080   0.000000
   12       29.708377   0.000000
 
  0.3500000E+00  0.3500000E+00  0.5000000E-01  0.6000000E-02
    1       -1.222348   1.000000
    2       -0.608341   1.000000
    3        2.222266   1.000000
    4        2.916447   1.000000
    5        3.352883   1.000000
    6        3.529743   1.000000
    7       17.794268   0.000000
    8       18.793450   0.000000
    9       19.063435   0.000000
   10       23.019142   0.000000
   11       24.935438   0.000000
   12       34.750195   0.000000
 
  0.4500000E+00  0.3500000E+00  0.5000000E-01  0.1200000E-01
    1       -1.076445   1.000000
    2       -0.719682   1.000000
    3        2.273541   1.000000
    4        3.223948   1.000000
    5        3.724139   1.000000
    6        5.097567   1.000006
    7       14.956738   0.000000
    8       17.089845   0.000000
    9       17.711229   0.000000
   10       24.044066   0.000000
   11       25.949223   0.000000
   12       34.317861   0.000000
 
 -0.4500000E+00  0.3500000E+00  0.5000000E-01  0.1200000E-01
    1       -0.905552   1.000000
    2       -0.398582   1.000000
    3        1.907358   1.000000
    4        2.911311   1.000000
    5        3.935594   1.000000
    6        7.760341  -0.000000
    7       11.703708   0.000000
    8       15.348261   0.000000
    9       17.825827   0.000000
   10       24.253055   0.000000
   11       28.709719   0.000000
   12       33.301927   0.000000
 
 -0.3500000E+00  0.3500000E+00  0.5000000E-01  0.1200000E-01
    1       -0.605551   1.000000
    2        0.121606   1.000000
    3        1.347942   1.000000
    4        2.570697   1.000000
    5        3.601505   1.000000
    6        8.992507  -0.000000
    7       11.129544  -0.000000
    8       13.666372   0.000000
    9       19.179984   0.000000
   10       24.005646   0.000000
   11       31.875836   0.000000
   12       32.306044   0.000000
 
 -0.2500000E+00  0.3500000E+00  0.5000000E-01  0.1200000E-01
    1       -0.314344   1.000000
    2        0.424496   1.000000
    3        0.840028   1.000000
    4        2.201342   1.000000
    5        3.176448   1.000000
    6        7.197785  -0.000000
    7       12.548541   0.000000
    8       14.668114   0.000000
    9       20.988274   0.000000
   10       23.901874   0.000000
   11       30.184025   0.000000
   12       33.137797   0.000000
 
 -0.1500000E+00  0.3500000E+00  0.5000000E-01  0.1200000E-01
    1       -0.910165   1.000000
    2        0.657715   1.000000
    3        1.163798   1.000000
    4        1.689459   1.000000
    5        3.087655   1.000000
    6        5.542134   1.035458
    7       12.489580   0.000000
    8       18.409154   0.000000
    9       21.950637   0.000000
   10       24.485557   0.000000
   11       29.138587   0.000000
   12       32.160752   0.000000
 
 -0.5000000E-01  0.3500000E+00  0.5000000E-01  0.1200000E-01
    1       -1.616698   1.000000
    2        1.017836   1.000000
    3        1.272657   1.000000
    4        1.523803   1.000000
    5        3.223735   1.000000
    6        3.946505   1.000000
    7       13.276117   0.000000
    8       21.202595   0.000000
    9       22.872420   0.000000
   10       25.157552   0.000000
   11       29.537006   0.000000
   12       30.535351   0.000000
 
  0.4500000E+00  0.4500000E+00  0.5000000E-01  0.6000000E-02
    1       -1.344967   1.000000
    2       -1.016467   1.000000
    3        3.618492   1.000000
    4        3.620639   1.000000
    5        3.968036   1.000000
    6        5.576745   1.029751
    7       13.575216   0.000000
    8       16.346522   0.000000
    9       16.680891   0.000000
   10       23.350601   0.000000
   11       25.744008   0.000000
   12       35.638945   0.000000
 
 -0.4500000E+00  0.4500000E+00  0.5000000E-01  0.1200000E-01
    1       -1.270058   1.000000
    2       -0.964858   1.000000
    3        3.221475   1.000000
    4        3.570975   1.000000
    5        4.119942   1.000000
    6        7.620679  -0.000000
    7       11.690563   0.000000
    8       15.304987   0.000000
    9       16.274674   0.000000
   10       24.299754   0.000000
   11       26.306927   0.000000
   12       34.756932   0.000000
 
 -0.3500000E+00  0.4500000E+00  0.5000000E-01  0.1200000E-01
    1       -0.960945   1.000000
    2       -0.491594   1.000000
    3        2.204510   1.000000
    4        3.086403   1.000000
    5        3.932266   1.000000
    6        9.205696  -0.000000
    7       10.813498  -0.000000
    8       14.018973   0.000000
    9       17.473565   0.000000
   10       24.447646   0.000000
   11       28.716177   0.000000
   12       33.464269   0.000000
 
 -0.2500000E+00  0.4500000E+00  0.5000000E-01  0.1200000E-01
    1       -0.640038   1.000000
    2        0.170181   1.000000
    3        1.303646   1.000000
    4        2.342179   1.000000
    5        3.729253   1.000000
    6        9.086646  -0.000000
    7        9.623160  -0.000000
    8       15.682879   0.000000
    9       19.379263   0.000000
   10       23.728586   0.000000
   11       31.592478   0.000000
   12       32.666259   0.000000
 
 -0.1500000E+00  0.4500000E+00  0.5000000E-01  0.1200000E-01
    1       -0.966789   1.000000
    2        0.499544   1.000000
    3        1.594495   1.000000
    4        1.792744   1.000000
    5        3.667725   1.000000
    6        7.494016  -0.000000
    7        9.189049  -0.000000
    8       18.786601   0.000000
    9       20.994535   0.000000
   10       23.086700   0.000000
   11       30.867740   0.000000
   12       32.509546   0.000000
 
 -0.5000000E-01  0.4500000E+00  0.5000000E-01  0.1200000E-01
    1       -1.535219   1.000000
    2        0.853418   1.000000
    3        1.134661   1.000000
    4        2.702016   1.000000
    5        3.752164   1.000000
    6        5.357312   1.004786
    7        9.743459  -0.000000
    8       20.656544   0.000000
    9       22.315073   0.000000
   10       23.474999   0.000000
   11       30.833620   0.000000
   12       31.356116   0.000000
 
 -0.4500000E+00 -0.4500000E+00  0.5000000E-01  0.6000000E-02
    1       -1.421908   1.000000
    2       -1.103133   1.000000
    3        3.741059   1.000000
    4        3.915767   1.000000
    5        4.133081   1.000000
    6        6.796562  -0.000000
    7       11.928206   0.000000
    8       15.831424   0.000000
    9       16.199931   0.000000
   10       23.483355   0.000000
   11       25.911930   0.000000
   12       35.434799   0.000000
 
 -0.3500000E+00 -0.4500000E+00  0.5000000E-01  0.1200000E-01
    1       -1.190392   1.000000
    2       -0.881316   1.000000
    3        2.848402   1.000000
    4        3.502952   1.000000
    5        3.960048   1.000000
    6        6.383634  -0.000103
    7       13.208715   0.000000
    8       15.910570   0.000000
    9       16.747737   0.000000
   10       24.186296   0.000000
   11       26.182994   0.000000
   12       34.700076   0.000000
 
 -0.2500000E+00 -0.4500000E+00  0.5000000E-01  0.1200000E-01
    1       -0.846657   1.000000
    2       -0.211058   1.000000
    3        1.463734   1.000000
    4        2.596265   1.000000
    5        3.884293   1.000000
    6        6.301308  -0.000841
    7       12.662287   0.000000
    8       17.269039   0.000000
    9       18.525090   0.000000
   10       23.966671   0.000000
   11       28.723486   0.000000
   12       32.916006   0.000000
 
 -0.1500000E+00 -0.4500000E+00  0.5000000E-01  0.1200000E-01
    1       -1.016276   1.000000
    2        0.550489   1.000000
    3        1.306204   1.000000
    4        1.725997   1.000000
    5        3.817626   1.000000
    6        6.010269  -0.033319
    7       11.041834  -0.000000
    8       19.896881   0.000000
    9       20.338460   0.000000
   10       23.172560   0.000000
   11       31.062149   0.000000
   12       32.734004   0.000000
 
 -0.3500000E+00 -0.3500000E+00  0.5000000E-01  0.6000000E-02
    1       -1.236112   1.000000
    2       -0.848048   1.000000
    3        3.023966   1.000000
    4        3.337337   1.000000
    5        3.744804   1.000000
    6        4.276346   1.000000
    7       15.763379   0.000000
    8       17.358882   0.000000
    9       17.578045   0.000000
   10       23.154567   0.000000
   11       25.412692   0.000000
   12       35.735206   0.000000
 
 -0.2500000E+00 -0.3500000E+00  0.5000000E-01  0.1200000E-01
    1       -1.058590   1.000000
    2       -0.493041   1.000000
    3        1.661899   1.000000
    4        2.809068   1.000000
    5        3.387005   1.000000
    6        4.142774   1.000000
    7       16.501045   0.000000
    8       18.468933   0.000000
    9       19.378829   0.000000
   10       24.009120   0.000000
   11       25.659744   0.000000
   12       33.437033   0.000000
 
 -0.1500000E+00 -0.3500000E+00  0.5000000E-01  0.1200000E-01
    1       -1.184669   1.000000
    2        0.287725   1.000000
    3        0.952715   1.000000
    4        1.897265   1.000000
    5        3.349886   1.000000
    6        4.133490   1.000000
    7       14.924888   0.000000
    8       20.398688   0.000000
    9       21.463777   0.000000
   10       23.983406   0.000000
   11       28.814388   0.000000
   12       31.443526   0.000000
 
 -0.2500000E+00 -0.2500000E+00  0.5000000E-01  0.6000000E-02
    1       -1.519382   1.000000
    2       -0.314674   1.000000
    3        1.671892   1.000000
    4        2.452973   1.000000
    5        2.705978   1.000000
    6        3.314286   1.000000
    7       19.326699   0.000000
    8       20.219225   0.000000
    9       21.406724   0.000000
   10       23.172440   0.000000
   11       24.380157   0.000000
   12       33.370455   0.000000
 
 -0.1500000E+00 -0.2500000E+00  0.5000000E-01  0.1200000E-01
    1       -1.998271   1.000000
    2        0.079362   1.000000
    3        1.345566   1.000000
    4        1.966766   1.000000
    5        2.405783   1.000000
    6        3.252989   1.000000
    7       19.061146   0.000000
    8       21.092682   0.000000
    9       23.204019   0.000000
   10       24.309273   0.000000
   11       26.372445   0.000000
   12       31.292050   0.000000
 
 -0.1500000E+00 -0.1500000E+00  0.5000000E-01  0.6000000E-02
    1       -2.905178   1.000000
    2        0.336793   1.000000
    3        1.577443   1.000000
    4        1.631962   1.000000
    5        2.013853   1.000000
    6        2.909069   1.000000
    7       21.566454   0.000000
    8       22.648927   0.000000
    9       23.167963   0.000000
   10       24.142609   0.000000
   11       27.603792   0.000000
   12       31.606073   0.000000
 
  0.1500000E+00  0.1500000E+00  0.1500000E+00  0.2000000E-02
    1       -3.560990   1.000000
    2        0.789508   1.000000
    3        1.218903   1.000000
    4        1.218903   1.000000
    5        2.528190   1.000000
    6        2.528190   1.000000
    7       20.955651   0.000000
    8       22.177505   0.000000
    9       25.842376   0.000000
   10       25.842376   0.000000
   11       29.109315   0.000000
   12       31.534219   0.000000
 
  0.2500000E+00  0.1500000E+00  0.1500000E+00  0.6000000E-02
    1       -2.928041   1.000000
    2        0.578094   1.000000
    3        1.350203   1.000000
    4        1.431972   1.000000
    5        2.207326   1.000000
    6        2.924699   1.000000
    7       19.894328   0.000000
    8       21.677856   0.000000
    9       24.523448   0.000000
   10       26.758052   0.000000
   11       27.886977   0.000000
   12       31.024626   0.000000
 
  0.3500000E+00  0.1500000E+00  0.1500000E+00  0.6000000E-02
    1       -1.863435   1.000000
    2        0.417477   1.000000
    3        1.238729   1.000000
    4        1.724183   1.000000
    5        2.113670   1.000000
    6        3.685426   1.000000
    7       17.430800   0.000000
    8       20.009004   0.000000
    9       24.170294   0.000000
   10       25.927358   0.000000
   11       28.367920   0.000000
   12       30.357882   0.000000
 
  0.4500000E+00  0.1500000E+00  0.1500000E+00  0.6000000E-02
    1       -1.189554   1.000000
    2        0.810203   1.000000
    3        1.186607   1.000000
    4        1.514070   1.000000
    5        2.807739   1.000000
    6        4.766872   1.000000
    7       13.571817   0.000000
    8       19.364710   0.000000
    9       22.572752   0.000000
   10       25.445826   0.000000
   11       28.363186   0.000000
   12       31.470403   0.000000
 
 -0.4500000E+00  0.1500000E+00  0.1500000E+00  0.6000000E-02
    1       -1.161230   1.000000
    2        0.662985   1.000000
    3        1.399586   1.000000
    4        2.041715   1.000000
    5        3.517155   1.000000
    6        6.371797  -0.000143
    7        9.980202  -0.000000
    8       19.374269   0.000000
    9       21.916678   0.000000
   10       23.086619   0.000000
   11       30.672540   0.000000
   12       31.715773   0.000000
 
 -0.3500000E+00  0.1500000E+00  0.1500000E+00  0.6000000E-02
    1       -1.201187   1.000000
    2        0.635034   1.000000
    3        1.450160   1.000000
    4        1.867376   1.000000
    5        3.879078   1.000000
    6        6.338591  -0.000341
    7        9.808384  -0.000000
    8       20.107356   0.000000
    9       21.787687   0.000000
   10       22.170277   0.000000
   11       31.687100   0.000000
   12       31.907894   0.000000
 
 -0.2500000E+00  0.1500000E+00  0.1500000E+00  0.6000000E-02
    1       -1.280083   1.000000
    2        0.736319   1.000000
    3        0.973743   1.000000
    4        1.617559   1.000000
    5        3.725402   1.000000
    6        4.217948   1.000000
    7       13.437253   0.000000
    8       21.266909   0.000000
    9       21.630187   0.000000
   10       23.197172   0.000000
   11       30.624916   0.000000
   12       31.575453   0.000000
 
 -0.1500000E+00  0.1500000E+00  0.1500000E+00  0.6000000E-02
    1       -1.891365   1.000000
    2        0.212072   1.000000
    3        1.246624   1.000000
    4        1.755937   1.000000
    5        2.769248   1.000000
    6        3.257444   1.000000
    7       17.594085   0.000000
    8       22.247875   0.000000
    9       22.455009   0.000000
   10       24.387398   0.000000
   11       27.494294   0.000000
   12       31.542256   0.000000
 
  0.2500000E+00  0.2500000E+00  0.1500000E+00  0.6000000E-02
    1       -2.562352   1.000000
    2        0.463836   1.000000
    3        1.370645   1.000000
    4        1.507252   1.000000
    5        2.397909   1.000000
    6        2.975115   1.000000
    7       18.744599   0.000000
    8       22.463960   0.000000
    9       23.758663   0.000000
   10       25.949412   0.000000
   11       27.827898   0.000000
   12       30.921491   0.000000
 
  0.3500000E+00  0.2500000E+00  0.1500000E+00  0.1200000E-01
    1       -1.692134   1.000000
    2        0.202082   1.000000
    3        1.144339   1.000000
    4        1.935811   1.000000
    5        2.379220   1.000000
    6        3.663590   1.000000
    7       17.572313   0.000000
    8       20.038552   0.000000
    9       23.285414   0.000000
   10       25.282572   0.000000
   11       27.955021   0.000000
   12       30.302202   0.000000
 
  0.4500000E+00  0.2500000E+00  0.1500000E+00  0.1200000E-01
    1       -0.756570   1.000000
    2        0.225702   1.000000
    3        0.740335   1.000000
    4        2.168891   1.000000
    5        2.697715   1.000000
    6        4.864014   1.000000
    7       15.136054   0.000000
    8       17.789175   0.000000
    9       21.791000   0.000000
   10       26.041594   0.000000
   11       27.518348   0.000000
   12       31.913254   0.000000
 
 -0.4500000E+00  0.2500000E+00  0.1500000E+00  0.1200000E-01
    1       -0.623671   1.000000
    2        0.403997   1.000000
    3        1.055132   1.000000
    4        1.966346   1.000000
    5        3.413302   1.000000
    6        6.558265  -0.000000
    7       11.539753   0.000000
    8       17.533651   0.000000
    9       20.396951   0.000000
   10       24.541389   0.000000
   11       29.602472   0.000000
   12       33.258199   0.000000
 
 -0.3500000E+00  0.2500000E+00  0.1500000E+00  0.1200000E-01
    1       -0.695072   1.000000
    2        0.310487   1.000000
    3        1.398088   1.000000
    4        1.896863   1.000000
    5        3.715358   1.000000
    6        8.237974  -0.000000
    7        9.204896  -0.000000
    8       18.155621   0.000000
    9       19.356155   0.000000
   10       24.022112   0.000000
   11       30.500449   0.000000
   12       33.741309   0.000000
 
 -0.2500000E+00  0.2500000E+00  0.1500000E+00  0.1200000E-01
    1       -0.744783   1.000000
    2        0.404547   1.000000
    3        0.814613   1.000000
    4        2.097332   1.000000
    5        3.541878   1.000000
    6        5.797755   0.455585
    7       12.552065   0.000000
    8       18.410957   0.000000
    9       19.956727   0.000000
   10       24.505941   0.000000
   11       29.562104   0.000000
   12       32.331834   0.000000
 
 -0.1500000E+00  0.2500000E+00  0.1500000E+00  0.1200000E-01
    1       -1.078266   1.000000
    2       -0.033974   1.000000
    3        0.967471   1.000000
    4        2.298756   1.000000
    5        2.801195   1.000000
    6        4.190646   1.000000
    7       16.402875   0.000000
    8       18.882782   0.000000
    9       21.557637   0.000000
   10       25.283880   0.000000
   11       27.077023   0.000000