       N       E                     dE             d eps       ncg     rms          rms(c)
DAV:   1     0.444948892612E+02    0.44495E+02   -0.39777E+03  3012   0.527E+02
DAV:   2    -0.376123329863E+01   -0.48256E+02   -0.43832E+02  2952   0.170E+02
DAV:   3    -0.447322111407E+01   -0.71199E+00   -0.71130E+00  3216   0.221E+01
DAV:   4    -0.447549081111E+01   -0.22697E-02   -0.22696E-02  3088   0.131E+00
DAV:   5    -0.447551227460E+01   -0.21463E-04   -0.21463E-04  3252   0.124E-01    0.303E+00
DAV:   6    -0.418204548027E+01    0.29347E+00   -0.99442E-01  3136   0.100E+01    0.690E-01
DAV:   7    -0.416897696369E+01    0.13069E-01   -0.27399E-02  3216   0.125E+00    0.330E-01
DAV:   8    -0.416516477196E+01    0.38122E-02   -0.18711E-03  3056   0.524E-01    0.154E-02
DAV:   9    -0.416516582846E+01   -0.10565E-05   -0.16284E-05  1676   0.284E-02
   1 F= -.41651658E+01 E0= -.41654415E+01  d E =-.416517E+01
       N       E                     dE             d eps       ncg     rms          rms(c)
DAV:   1    -0.221072791988E+02   -0.17942E+02   -0.37001E+02  3000   0.229E+02    0.235E+01
DAV:   2    -0.514080053735E+01    0.16966E+02   -0.30602E+01  2964   0.656E+01    0.677E+00
DAV:   3    -0.373771615506E+01    0.14031E+01   -0.53964E+00  3148   0.255E+01    0.183E+00
DAV:   4    -0.375276101016E+01   -0.15045E-01   -0.24037E-01  3020   0.518E+00    0.401E-01
DAV:   5    -0.375136685026E+01    0.13942E-02   -0.22204E-02  3392   0.158E+00    0.813E-02
DAV:   6    -0.375122967295E+01    0.13718E-03   -0.34329E-04  3036   0.170E-01    0.171E-02
DAV:   7    -0.375123013010E+01   -0.45715E-06   -0.50184E-06  1728   0.173E-02
   2 F= -.37512301E+01 E0= -.37511213E+01  d E =0.413936E+00
       N       E                     dE             d eps       ncg     rms          rms(c)
DAV:   1    -0.100724673373E+02   -0.63212E+01   -0.12396E+02  2916   0.147E+02    0.130E+01
DAV:   2    -0.478614980322E+01    0.52863E+01   -0.15567E+01  3072   0.487E+01    0.300E+00
DAV:   3    -0.444019141107E+01    0.34596E+00   -0.14387E+00  3288   0.121E+01    0.896E-01
DAV:   4    -0.442196204393E+01    0.18229E-01   -0.43028E-02  2908   0.248E+00    0.278E-01
DAV:   5    -0.442016000255E+01    0.18020E-02   -0.86952E-03  3020   0.475E-01    0.399E-02
DAV:   6    -0.442026877735E+01   -0.10877E-03   -0.20149E-04  2976   0.140E-01    0.129E-02
DAV:   7    -0.442027812059E+01   -0.93432E-05   -0.78386E-06  1516   0.242E-02
   3 F= -.44202781E+01 E0= -.44205793E+01  d E =-.255112E+00
       N       E                     dE             d eps       ncg     rms          rms(c)
DAV:   1    -0.442114151262E+01   -0.87274E-03   -0.10398E-02  2980   0.131E+00    0.125E-01
DAV:   2    -0.442065799386E+01    0.48352E-03   -0.14731E-03  2796   0.440E-01    0.241E-02
DAV:   3    -0.442063954607E+01    0.18448E-04   -0.75342E-05  1368   0.843E-02
   4 F= -.44206395E+01 E0= -.44209408E+01  d E =-.361425E-03
       N       E                     dE             d eps       ncg     rms          rms(c)
DAV:   1    -0.442579864932E+01   -0.51407E-02   -0.94269E-02  2992   0.395E+00    0.377E-01
DAV:   2    -0.442139599208E+01    0.44027E-02   -0.13292E-02  3060   0.132E+00    0.734E-02
DAV:   3    -0.442122532649E+01    0.17067E-03   -0.71901E-04  2404   0.258E-01    0.241E-02
DAV:   4    -0.442122040516E+01    0.49213E-05   -0.38971E-05  1632   0.555E-02
   5 F= -.44212204E+01 E0= -.44215201E+01  d E =-.942285E-03
