 vasp.5.4.4.18Apr17-6-g9f103f2a35 (build May 18 2018 14:42:58) complex          
  
 executed on             LinuxIFC date 2020.06.30  13:42:04
 running on    4 total cores
 distrk:  each k-point on    4 cores,    1 groups
 distr:  one band on NCORES_PER_BAND=   1 cores,    4 groups


--------------------------------------------------------------------------------------------------------


 INCAR:
 POTCAR:   PAW Au 04Feb1998                       
 POTCAR:   PAW Au 04Feb1998                       
   VRHFIN =Au: s1d10                                                            
   LEXCH  = CA                                                                  
   EATOM  =   929.4667 eV,   68.3139 Ry                                         
                                                                                
   TITEL  = PAW Au 04Feb1998                                                    
   LULTRA =        F    use ultrasoft PP ?                                      
   IUNSCR =        1    unscreen: 0-lin 1-nonlin 2-no                           
   RPACOR =    2.330    partial core radius                                     
   POMASS =  196.966; ZVAL   =   11.000    mass and valenz                      
   RCORE  =    2.500    outmost cutoff radius                                   
   RWIGS  =    2.840; RWIGS  =    1.503    wigner-seitz radius (au A)           
   ENMAX  =  229.869; ENMIN  =  172.402 eV                                      
   RCLOC  =    1.964    cutoff for local pot                                    
   LCOR   =        T    correct aug charges                                     
   LPAW   =        T    paw PP                                                  
   EAUG   =  356.670                                                            
   DEXC   =    -.020                                                            
   RMAX   =    3.041    core radius for proj-oper                               
   RDEP   =    2.598    core radius for depl-charge                             
   QCUT   =   -4.110; QGAM   =    8.221    optimization parameters              
                                                                                
   Description                                                                  
     l     E      TYP  RCUT    TYP  RCUT                                        
     2   .000     23  2.500                                                     
     2   .000     23  2.500                                                     
     0   .000     23  2.500                                                     
     0   .000     23  2.500                                                     
     1  -.200     23  2.500                                                     
     1   .000     23  2.500                                                     
     3   .000      7   .000                                                     
  local pseudopotential read in
  partial core-charges read in
  atomic valenz-charges read in
  non local Contribution for L=           2  read in
    real space projection operators read in
  non local Contribution for L=           2  read in
    real space projection operators read in
  non local Contribution for L=           0  read in
    real space projection operators read in
  non local Contribution for L=           0  read in
    real space projection operators read in
  non local Contribution for L=           1  read in
    real space projection operators read in
  non local Contribution for L=           1  read in
    real space projection operators read in
    PAW grid and wavefunctions read in
 
   number of l-projection  operators is LMAX  =           6
   number of lm-projection operators is LMMAX =          18
 
 PAW Au 04Feb1998                       :
 energy of atom  1       EATOM= -929.4667
 kinetic energy error for atom=    0.0453 (will be added to EATOM!!)
 
 
 POSCAR: Au bulk FCC                             
  positions in direct lattice
  No initial velocities read in
 exchange correlation table for  LEXCH =        2
   RHO(1)=    0.500       N(1)  =     2000
   RHO(2)=  100.500       N(2)  =     4000
 


--------------------------------------------------------------------------------------------------------


 ion  position               nearest neighbor table
   1  0.000  0.000  0.000-
 
  LATTYP: Found a face centered cubic cell.
 ALAT       =     4.3000000000
  
  Lattice vectors:
  
 A1 = (   0.0000000000,   2.1500000000,   2.1500000000)
 A2 = (   2.1500000000,   0.0000000000,   2.1500000000)
 A3 = (   2.1500000000,   2.1500000000,   0.0000000000)


Analysis of symmetry for initial positions (statically):
=====================================================================
 Subroutine PRICEL returns:
 Original cell was already a primitive cell.
 

 Routine SETGRP: Setting up the symmetry group for a 
 face centered cubic supercell.


 Subroutine GETGRP returns: Found 48 space group operations
 (whereof 48 operations were pure point group operations)
 out of a pool of 48 trial point group operations.


The static configuration has the point symmetry O_h .


Analysis of symmetry for dynamics (positions and initial velocities):
=====================================================================
 Subroutine PRICEL returns:
 Original cell was already a primitive cell.
 

 Routine SETGRP: Setting up the symmetry group for a 
 face centered cubic supercell.


 Subroutine GETGRP returns: Found 48 space group operations
 (whereof 48 operations were pure point group operations)
 out of a pool of 48 trial point group operations.


The dynamic configuration has the point symmetry O_h .


 Subroutine INISYM returns: Found 48 space group operations
 (whereof 48 operations are pure point group operations),
 and found     1 'primitive' translations

 
 
 KPOINTS: 10x10x10                                

Automatic generation of k-mesh.
Space group operators:
 irot       det(A)        alpha          n_x          n_y          n_z        tau_x        tau_y        tau_z
    1     1.000000     0.000000     1.000000     0.000000     0.000000     0.000000     0.000000     0.000000
    2    -1.000000     0.000000     1.000000     0.000000     0.000000     0.000000     0.000000     0.000000
    3     1.000000   120.000000    -0.577350    -0.577350    -0.577350     0.000000     0.000000     0.000000
    4    -1.000000   120.000000    -0.577350    -0.577350    -0.577350     0.000000     0.000000     0.000000
    5     1.000000   120.000000     0.577350     0.577350     0.577350     0.000000     0.000000     0.000000
    6    -1.000000   120.000000     0.577350     0.577350     0.577350     0.000000     0.000000     0.000000
    7     1.000000    90.000000     0.000000     0.000000    -1.000000     0.000000     0.000000     0.000000
    8    -1.000000    90.000000     0.000000     0.000000    -1.000000     0.000000     0.000000     0.000000
    9     1.000000   180.000000     0.000000     0.707107     0.707107     0.000000     0.000000     0.000000
   10    -1.000000   180.000000     0.000000     0.707107     0.707107     0.000000     0.000000     0.000000
   11     1.000000    90.000000     0.000000     1.000000     0.000000     0.000000     0.000000     0.000000
   12    -1.000000    90.000000     0.000000     1.000000     0.000000     0.000000     0.000000     0.000000
   13     1.000000   180.000000     0.000000     0.000000     1.000000     0.000000     0.000000     0.000000
   14    -1.000000   180.000000     0.000000     0.000000     1.000000     0.000000     0.000000     0.000000
   15     1.000000   120.000000    -0.577350     0.577350     0.577350     0.000000     0.000000     0.000000
   16    -1.000000   120.000000    -0.577350     0.577350     0.577350     0.000000     0.000000     0.000000
   17     1.000000   120.000000    -0.577350     0.577350    -0.577350     0.000000     0.000000     0.000000
   18    -1.000000   120.000000    -0.577350     0.577350    -0.577350     0.000000     0.000000     0.000000
   19     1.000000    90.000000     0.000000     0.000000     1.000000     0.000000     0.000000     0.000000
   20    -1.000000    90.000000     0.000000     0.000000     1.000000     0.000000     0.000000     0.000000
   21     1.000000    90.000000    -1.000000     0.000000     0.000000     0.000000     0.000000     0.000000
   22    -1.000000    90.000000    -1.000000     0.000000     0.000000     0.000000     0.000000     0.000000
   23     1.000000   180.000000     0.707107     0.000000     0.707107     0.000000     0.000000     0.000000
   24    -1.000000   180.000000     0.707107     0.000000     0.707107     0.000000     0.000000     0.000000
   25     1.000000   120.000000     0.577350    -0.577350     0.577350     0.000000     0.000000     0.000000
   26    -1.000000   120.000000     0.577350    -0.577350     0.577350     0.000000     0.000000     0.000000
   27     1.000000   120.000000    -0.577350    -0.577350     0.577350     0.000000     0.000000     0.000000
   28    -1.000000   120.000000    -0.577350    -0.577350     0.577350     0.000000     0.000000     0.000000
   29     1.000000   180.000000     1.000000     0.000000     0.000000     0.000000     0.000000     0.000000
   30    -1.000000   180.000000     1.000000     0.000000     0.000000     0.000000     0.000000     0.000000
   31     1.000000    90.000000     0.000000    -1.000000     0.000000     0.000000     0.000000     0.000000
   32    -1.000000    90.000000     0.000000    -1.000000     0.000000     0.000000     0.000000     0.000000
   33     1.000000   180.000000     0.707107     0.707107     0.000000     0.000000     0.000000     0.000000
   34    -1.000000   180.000000     0.707107     0.707107     0.000000     0.000000     0.000000     0.000000
   35     1.000000    90.000000     1.000000     0.000000     0.000000     0.000000     0.000000     0.000000
   36    -1.000000    90.000000     1.000000     0.000000     0.000000     0.000000     0.000000     0.000000
   37     1.000000   120.000000     0.577350    -0.577350    -0.577350     0.000000     0.000000     0.000000
   38    -1.000000   120.000000     0.577350    -0.577350    -0.577350     0.000000     0.000000     0.000000
   39     1.000000   180.000000     0.000000     1.000000     0.000000     0.000000     0.000000     0.000000
   40    -1.000000   180.000000     0.000000     1.000000     0.000000     0.000000     0.000000     0.000000
   41     1.000000   120.000000     0.577350     0.577350    -0.577350     0.000000     0.000000     0.000000
   42    -1.000000   120.000000     0.577350     0.577350    -0.577350     0.000000     0.000000     0.000000
   43     1.000000   180.000000     0.000000    -0.707107     0.707107     0.000000     0.000000     0.000000
   44    -1.000000   180.000000     0.000000    -0.707107     0.707107     0.000000     0.000000     0.000000
   45     1.000000   180.000000     0.707107    -0.707107     0.000000     0.000000     0.000000     0.000000
   46    -1.000000   180.000000     0.707107    -0.707107     0.000000     0.000000     0.000000     0.000000
   47     1.000000   180.000000     0.707107     0.000000    -0.707107     0.000000     0.000000     0.000000
   48    -1.000000   180.000000     0.707107     0.000000    -0.707107     0.000000     0.000000     0.000000
 
 Subroutine IBZKPT returns following result:
 ===========================================
 
 Found    110 irreducible k-points:
 
 Following reciprocal coordinates:
            Coordinates               Weight
  0.050000  0.050000  0.050000     96.000000
  0.150000  0.050000  0.050000    288.000000
  0.250000  0.050000  0.050000    288.000000
  0.350000  0.050000  0.050000    288.000000
  0.450000  0.050000  0.050000    288.000000
 -0.450000  0.050000  0.050000    288.000000
 -0.350000  0.050000  0.050000    288.000000
 -0.250000  0.050000  0.050000    288.000000
 -0.150000  0.050000  0.050000    288.000000
 -0.050000  0.050000  0.050000    288.000000
  0.150000  0.150000  0.050000    288.000000
  0.250000  0.150000  0.050000    576.000000
  0.350000  0.150000  0.050000    576.000000
  0.450000  0.150000  0.050000    576.000000
 -0.450000  0.150000  0.050000    576.000000
 -0.350000  0.150000  0.050000    576.000000
 -0.250000  0.150000  0.050000    576.000000
 -0.150000  0.150000  0.050000    576.000000
 -0.050000  0.150000  0.050000    576.000000
  0.250000  0.250000  0.050000    288.000000
  0.350000  0.250000  0.050000    576.000000
  0.450000  0.250000  0.050000    576.000000
 -0.450000  0.250000  0.050000    576.000000
 -0.350000  0.250000  0.050000    576.000000
 -0.250000  0.250000  0.050000    576.000000
 -0.150000  0.250000  0.050000    576.000000
 -0.050000  0.250000  0.050000    576.000000
  0.350000  0.350000  0.050000    288.000000
  0.450000  0.350000  0.050000    576.000000
 -0.450000  0.350000  0.050000    576.000000
 -0.350000  0.350000  0.050000    576.000000
 -0.250000  0.350000  0.050000    576.000000
 -0.150000  0.350000  0.050000    576.000000
 -0.050000  0.350000  0.050000    576.000000
  0.450000  0.450000  0.050000    288.000000
 -0.450000  0.450000  0.050000    576.000000
 -0.350000  0.450000  0.050000    576.000000
 -0.250000  0.450000  0.050000    576.000000
 -0.150000  0.450000  0.050000    576.000000
 -0.050000  0.450000  0.050000    576.000000
 -0.450000 -0.450000  0.050000    288.000000
 -0.350000 -0.450000  0.050000    576.000000
 -0.250000 -0.450000  0.050000    576.000000
 -0.150000 -0.450000  0.050000    576.000000
 -0.350000 -0.350000  0.050000    288.000000
 -0.250000 -0.350000  0.050000    576.000000
 -0.150000 -0.350000  0.050000    576.000000
 -0.250000 -0.250000  0.050000    288.000000
 -0.150000 -0.250000  0.050000    576.000000
 -0.150000 -0.150000  0.050000    288.000000
  0.150000  0.150000  0.150000     96.000000
  0.250000  0.150000  0.150000    288.000000
  0.350000  0.150000  0.150000    288.000000
  0.450000  0.150000  0.150000    288.000000
 -0.450000  0.150000  0.150000    288.000000
 -0.350000  0.150000  0.150000    288.000000
 -0.250000  0.150000  0.150000    288.000000
 -0.150000  0.150000  0.150000    288.000000
  0.250000  0.250000  0.150000    288.000000
  0.350000  0.250000  0.150000    576.000000
  0.450000  0.250000  0.150000    576.000000
 -0.450000  0.250000  0.150000    576.000000
 -0.350000  0.250000  0.150000    576.000000
 -0.250000  0.250000  0.150000    576.000000
 -0.150000  0.250000  0.150000    576.000000
  0.350000  0.350000  0.150000    288.000000
  0.450000  0.350000  0.150000    576.000000
 -0.450000  0.350000  0.150000    576.000000
 -0.350000  0.350000  0.150000    576.000000
 -0.250000  0.350000  0.150000    576.000000
 -0.150000  0.350000  0.150000    576.000000
  0.450000  0.450000  0.150000    288.000000
 -0.450000  0.450000  0.150000    576.000000
 -0.350000  0.450000  0.150000    576.000000
 -0.250000  0.450000  0.150000    576.000000
 -0.150000  0.450000  0.150000    576.000000
 -0.450000 -0.450000  0.150000    288.000000
 -0.350000 -0.450000  0.150000    576.000000
 -0.250000 -0.450000  0.150000    576.000000
 -0.350000 -0.350000  0.150000    288.000000
 -0.250000 -0.350000  0.150000    576.000000
 -0.250000 -0.250000  0.150000    288.000000
  0.250000  0.250000  0.250000     96.000000
  0.350000  0.250000  0.250000    288.000000
  0.450000  0.250000  0.250000    288.000000
 -0.450000  0.250000  0.250000    288.000000
 -0.350000  0.250000  0.250000    288.000000
 -0.250000  0.250000  0.250000    288.000000
  0.350000  0.350000  0.250000    288.000000
  0.450000  0.350000  0.250000    576.000000
 -0.450000  0.350000  0.250000    576.000000
 -0.350000  0.350000  0.250000    576.000000
 -0.250000  0.350000  0.250000    576.000000
  0.450000  0.450000  0.250000    288.000000
 -0.450000  0.450000  0.250000    576.000000
 -0.350000  0.450000  0.250000    576.000000
 -0.250000  0.450000  0.250000    576.000000
 -0.450000 -0.450000  0.250000    288.000000
 -0.350000 -0.450000  0.250000    576.000000
 -0.350000 -0.350000  0.250000    288.000000
  0.350000  0.350000  0.350000     96.000000
  0.450000  0.350000  0.350000    288.000000
 -0.450000  0.350000  0.350000    288.000000
 -0.350000  0.350000  0.350000    288.000000
  0.450000  0.450000  0.350000    288.000000
 -0.450000  0.450000  0.350000    576.000000
 -0.350000  0.450000  0.350000    576.000000
 -0.450000 -0.450000  0.350000    288.000000
  0.450000  0.450000  0.450000     96.000000
 -0.450000  0.450000  0.450000    288.000000
 
 Following cartesian coordinates:
            Coordinates               Weight
  0.050000  0.050000  0.050000     96.000000
 -0.050000  0.150000  0.150000    288.000000
 -0.150000  0.250000  0.250000    288.000000
 -0.250000  0.350000  0.350000    288.000000
 -0.350000  0.450000  0.450000    288.000000
  0.550000 -0.450000 -0.450000    288.000000
  0.450000 -0.350000 -0.350000    288.000000
  0.350000 -0.250000 -0.250000    288.000000
  0.250000 -0.150000 -0.150000    288.000000
  0.150000 -0.050000 -0.050000    288.000000
  0.050000  0.050000  0.250000    288.000000
 -0.050000  0.150000  0.350000    576.000000
 -0.150000  0.250000  0.450000    576.000000
 -0.250000  0.350000  0.550000    576.000000
  0.650000 -0.550000 -0.350000    576.000000
  0.550000 -0.450000 -0.250000    576.000000
  0.450000 -0.350000 -0.150000    576.000000
  0.350000 -0.250000 -0.050000    576.000000
  0.250000 -0.150000  0.050000    576.000000
  0.050000  0.050000  0.450000    288.000000
 -0.050000  0.150000  0.550000    576.000000
 -0.150000  0.250000  0.650000    576.000000
  0.750000 -0.650000 -0.250000    576.000000
  0.650000 -0.550000 -0.150000    576.000000
  0.550000 -0.450000 -0.050000    576.000000
  0.450000 -0.350000  0.050000    576.000000
  0.350000 -0.250000  0.150000    576.000000
  0.050000  0.050000  0.650000    288.000000
 -0.050000  0.150000  0.750000    576.000000
  0.850000 -0.750000 -0.150000    576.000000
  0.750000 -0.650000 -0.050000    576.000000
  0.650000 -0.550000  0.050000    576.000000
  0.550000 -0.450000  0.150000    576.000000
  0.450000 -0.350000  0.250000    576.000000
  0.050000  0.050000  0.850000    288.000000
  0.950000 -0.850000 -0.050000    576.000000
  0.850000 -0.750000  0.050000    576.000000
  0.750000 -0.650000  0.150000    576.000000
  0.650000 -0.550000  0.250000    576.000000
  0.550000 -0.450000  0.350000    576.000000
  0.050000  0.050000 -0.950000    288.000000
 -0.050000  0.150000 -0.850000    576.000000
 -0.150000  0.250000 -0.750000    576.000000
 -0.250000  0.350000 -0.650000    576.000000
  0.050000  0.050000 -0.750000    288.000000
 -0.050000  0.150000 -0.650000    576.000000
 -0.150000  0.250000 -0.550000    576.000000
  0.050000  0.050000 -0.550000    288.000000
 -0.050000  0.150000 -0.450000    576.000000
  0.050000  0.050000 -0.350000    288.000000
  0.150000  0.150000  0.150000     96.000000
  0.050000  0.250000  0.250000    288.000000
 -0.050000  0.350000  0.350000    288.000000
 -0.150000  0.450000  0.450000    288.000000
  0.750000 -0.450000 -0.450000    288.000000
  0.650000 -0.350000 -0.350000    288.000000
  0.550000 -0.250000 -0.250000    288.000000
  0.450000 -0.150000 -0.150000    288.000000
  0.150000  0.150000  0.350000    288.000000
  0.050000  0.250000  0.450000    576.000000
 -0.050000  0.350000  0.550000    576.000000
  0.850000 -0.550000 -0.350000    576.000000
  0.750000 -0.450000 -0.250000    576.000000
  0.650000 -0.350000 -0.150000    576.000000
  0.550000 -0.250000 -0.050000    576.000000
  0.150000  0.150000  0.550000    288.000000
  0.050000  0.250000  0.650000    576.000000
  0.950000 -0.650000 -0.250000    576.000000
  0.850000 -0.550000 -0.150000    576.000000
  0.750000 -0.450000 -0.050000    576.000000
  0.650000 -0.350000  0.050000    576.000000
  0.150000  0.150000  0.750000    288.000000
  1.050000 -0.750000 -0.150000    576.000000
  0.950000 -0.650000 -0.050000    576.000000
  0.850000 -0.550000  0.050000    576.000000
  0.750000 -0.450000  0.150000    576.000000
  0.150000  0.150000 -1.050000    288.000000
  0.050000  0.250000 -0.950000    576.000000
 -0.050000  0.350000 -0.850000    576.000000
  0.150000  0.150000 -0.850000    288.000000
  0.050000  0.250000 -0.750000    576.000000
  0.150000  0.150000 -0.650000    288.000000
  0.250000  0.250000  0.250000     96.000000
  0.150000  0.350000  0.350000    288.000000
  0.050000  0.450000  0.450000    288.000000
  0.950000 -0.450000 -0.450000    288.000000
  0.850000 -0.350000 -0.350000    288.000000
  0.750000 -0.250000 -0.250000    288.000000
  0.250000  0.250000  0.450000    288.000000
  0.150000  0.350000  0.550000    576.000000
  1.050000 -0.550000 -0.350000    576.000000
  0.950000 -0.450000 -0.250000    576.000000
  0.850000 -0.350000 -0.150000    576.000000
  0.250000  0.250000  0.650000    288.000000
  1.150000 -0.650000 -0.250000    576.000000
  1.050000 -0.550000 -0.150000    576.000000
  0.950000 -0.450000 -0.050000    576.000000
  0.250000  0.250000 -1.150000    288.000000
  0.150000  0.350000 -1.050000    576.000000
  0.250000  0.250000 -0.950000    288.000000
  0.350000  0.350000  0.350000     96.000000
  0.250000  0.450000  0.450000    288.000000
  1.150000 -0.450000 -0.450000    288.000000
  1.050000 -0.350000 -0.350000    288.000000
  0.350000  0.350000  0.550000    288.000000
  1.250000 -0.550000 -0.350000    576.000000
  1.150000 -0.450000 -0.250000    576.000000
  0.350000  0.350000 -1.250000    288.000000
  0.450000  0.450000  0.450000     96.000000
  1.350000 -0.450000 -0.450000    288.000000
 


--------------------------------------------------------------------------------------------------------




 Dimension of arrays:
   k-points           NKPTS =    110   k-points in BZ     NKDIM =    110   number of bands    NBANDS=     12
   number of dos      NEDOS =    301   number of ions     NIONS =      1
   non local maximal  LDIM  =      6   non local SUM 2l+1 LMDIM =     18
   total plane-waves  NPLWV =   5832
   max r-space proj   IRMAX =      1   max aug-charges    IRDMAX=  18140
   dimension x,y,z NGX =    18 NGY =   18 NGZ =   18
   dimension x,y,z NGXF=    36 NGYF=   36 NGZF=   36
   support grid    NGXF=    36 NGYF=   36 NGZF=   36
   ions per type =               1
   NGX,Y,Z   is equivalent  to a cutoff of   9.84,  9.84,  9.84 a.u.
   NGXF,Y,Z  is equivalent  to a cutoff of  19.68, 19.68, 19.68 a.u.

 SYSTEM =  fcc Au                                  
 POSCAR =  Au bulk FCC                             

 Startparameter for this run:
   NWRITE =      2    write-flag & timer
   PREC   = accura    normal or accurate (medium, high low for compatibility)
   ISTART =      0    job   : 0-new  1-cont  2-samecut
   ICHARG =      2    charge: 1-file 2-atom 10-const
   ISPIN  =      1    spin polarized calculation?
   LNONCOLLINEAR =      F non collinear calculations
   LSORBIT =      F    spin-orbit coupling
   INIWAV =      1    electr: 0-lowe 1-rand  2-diag
   LASPH  =      F    aspherical Exc in radial PAW
   METAGGA=      F    non-selfconsistent MetaGGA calc.

 Electronic Relaxation 1
   ENCUT  =  300.0 eV  22.05 Ry    4.70 a.u.   4.29  4.29  4.29*2*pi/ulx,y,z
   ENINI  =  300.0     initial cutoff
   ENAUG  =  356.7 eV  augmentation charge cutoff
   NELM   =     60;   NELMIN=  2; NELMDL= -5     # of ELM steps 
   EDIFF  = 0.1E-03   stopping-criterion for ELM
   LREAL  =      F    real-space projection
   NLSPLINE    = F    spline interpolate recip. space projectors
   LCOMPAT=      F    compatible to vasp.4.4
   GGA_COMPAT  = T    GGA compatible to vasp.4.4-vasp.4.6
   LMAXPAW     = -100 max onsite density
   LMAXMIX     =    2 max onsite mixed and CHGCAR
   VOSKOWN=      0    Vosko Wilk Nusair interpolation
   ROPT   =    0.00000
 Ionic relaxation
   EDIFFG = 0.1E-02   stopping-criterion for IOM
   NSW    =     50    number of steps for IOM
   NBLOCK =      1;   KBLOCK =     50    inner block; outer block 
   IBRION =      2    ionic relax: 0-MD 1-quasi-New 2-CG
   NFREE  =      1    steps in history (QN), initial steepest desc. (CG)
   ISIF   =      3    stress and relaxation
   IWAVPR =     11    prediction:  0-non 1-charg 2-wave 3-comb
   ISYM   =      2    0-nonsym 1-usesym 2-fastsym
   LCORR  =      T    Harris-Foulkes like correction to forces

   POTIM  = 0.5000    time-step for ionic-motion
   TEIN   =    0.0    initial temperature
   TEBEG  =    0.0;   TEEND  =   0.0 temperature during run
   SMASS  =  -3.00    Nose mass-parameter (am)
   estimated Nose-frequenzy (Omega)   =  0.10E-29 period in steps =****** mass=  -0.211E-27a.u.
   SCALEE = 1.0000    scale energy and forces
   NPACO  =    256;   APACO  = 16.0  distance and # of slots for P.C.
   PSTRESS=    0.0 pullay stress

  Mass of Ions in am
   POMASS = 196.97
  Ionic Valenz
   ZVAL   =  11.00
  Atomic Wigner-Seitz radii
   RWIGS  =   1.50
  virtual crystal weights 
   VCA    =   1.00
   NELECT =      11.0000    total number of electrons
   NUPDOWN=      -1.0000    fix difference up-down

 DOS related values:
   EMIN   =  10.00;   EMAX   =-10.00  energy-range for DOS
   EFERMI =   0.00
   ISMEAR =     1;   SIGMA  =   0.20  broadening in eV -4-tet -1-fermi 0-gaus

 Electronic relaxation 2 (details)
   IALGO  =     38    algorithm
   LDIAG  =      T    sub-space diagonalisation (order eigenvalues)
   LSUBROT=      F    optimize rotation matrix (better conditioning)
   TURBO    =      0    0=normal 1=particle mesh
   IRESTART =      0    0=no restart 2=restart with 2 vectors
   NREBOOT  =      0    no. of reboots
   NMIN     =      0    reboot dimension
   EREF     =   0.00    reference energy to select bands
   IMIX   =      4    mixing-type and parameters
     AMIX     =   0.40;   BMIX     =  1.00
     AMIX_MAG =   1.60;   BMIX_MAG =  1.00
     AMIN     =   0.10
     WC   =   100.;   INIMIX=   1;  MIXPRE=   1;  MAXMIX= -45

 Intra band minimization:
   WEIMIN = 0.0010     energy-eigenvalue tresh-hold
   EBREAK =  0.21E-05  absolut break condition
   DEPER  =   0.30     relativ break condition  

   TIME   =   0.40     timestep for ELM

  volume/ion in A,a.u.               =      19.88       134.13
  Fermi-wavevector in a.u.,A,eV,Ry     =   1.344076  2.539936 24.579485  1.806541
  Thomas-Fermi vector in A             =   2.472099
 
 Write flags
   LWAVE        =      T    write WAVECAR
   LDOWNSAMPLE  =      F    k-point downsampling of WAVECAR
   LCHARG       =      T    write CHGCAR
   LVTOT        =      F    write LOCPOT, total local potential
   LVHAR        =      F    write LOCPOT, Hartree potential only
   LELF         =      F    write electronic localiz. function (ELF)
   LORBIT       =      0    0 simple, 1 ext, 2 COOP (PROOUT), +10 PAW based schemes


 Dipole corrections
   LMONO  =      F    monopole corrections only (constant potential shift)
   LDIPOL =      F    correct potential (dipole corrections)
   IDIPOL =      0    1-x, 2-y, 3-z, 4-all directions 
   EPSILON=  1.0000000 bulk dielectric constant

 Exchange correlation treatment:
   GGA     =    --    GGA type
   LEXCH   =     2    internal setting for exchange type
   VOSKOWN=      0    Vosko Wilk Nusair interpolation
   LHFCALC =     F    Hartree Fock is set to
   LHFONE  =     F    Hartree Fock one center treatment
   AEXX    =    0.0000 exact exchange contribution

 Linear response parameters
   LEPSILON=     F    determine dielectric tensor
   LRPA    =     F    only Hartree local field effects (RPA)
   LNABLA  =     F    use nabla operator in PAW spheres
   LVEL    =     F    velocity operator in full k-point grid
   LINTERFAST=   F  fast interpolation
   KINTER  =     0    interpolate to denser k-point grid
   CSHIFT  =0.1000    complex shift for real part using Kramers Kronig
   OMEGAMAX=  -1.0    maximum frequency
   DEG_THRESHOLD= 0.2000000E-02 threshold for treating states as degnerate
   RTIME   =   -0.100 relaxation time in fs
  (WPLASMAI=    0.000 imaginary part of plasma frequency in eV, 0.658/RTIME)
   DFIELD  = 0.0000000 0.0000000 0.0000000 field for delta impulse in time
 
 Orbital magnetization related:
   ORBITALMAG=     F  switch on orbital magnetization
   LCHIMAG   =     F  perturbation theory with respect to B field
   DQ        =  0.001000  dq finite difference perturbation B field
   LLRAUG    =     F  two centre corrections for induced B field



--------------------------------------------------------------------------------------------------------


 conjugate gradient relaxation of ions
 charge density and potential will be updated during run
 non-spin polarized calculation
 Variant of blocked Davidson
 Davidson routine will perform the subspace rotation
 perform sub-space diagonalisation
    after iterative eigenvector-optimisation
 modified Broyden-mixing scheme, WC =      100.0
 initial mixing is a Kerker type mixing with AMIX =  0.4000 and BMIX =      1.0000
 Hartree-type preconditioning will be used
 using additional bands            6
 reciprocal scheme for non local part
 use partial core corrections
 calculate Harris-corrections to forces 
   (improved forces if not selfconsistent)
 use of overlap-Matrix (Vanderbilt PP)
 Methfessel and Paxton  Order N= 1 SIGMA  =   0.20


--------------------------------------------------------------------------------------------------------


  energy-cutoff  :      300.00
  volume of cell :       19.88
      direct lattice vectors                 reciprocal lattice vectors
     0.000000000  2.150000000  2.150000000    -0.232558140  0.232558140  0.232558140
     2.150000000  0.000000000  2.150000000     0.232558140 -0.232558140  0.232558140
     2.150000000  2.150000000  0.000000000     0.232558140  0.232558140 -0.232558140

  length of vectors
     3.040559159  3.040559159  3.040559159     0.402802513  0.402802513  0.402802513


 
 k-points in units of 2pi/SCALE and weight: 10x10x10                                
   0.05000000  0.05000000  0.05000000       0.002
  -0.05000000  0.15000000  0.15000000       0.006
  -0.15000000  0.25000000  0.25000000       0.006
  -0.25000000  0.35000000  0.35000000       0.006
  -0.35000000  0.45000000  0.45000000       0.006
   0.55000000 -0.45000000 -0.45000000       0.006
   0.45000000 -0.35000000 -0.35000000       0.006
   0.35000000 -0.25000000 -0.25000000       0.006
   0.25000000 -0.15000000 -0.15000000       0.006
   0.15000000 -0.05000000 -0.05000000       0.006
   0.05000000  0.05000000  0.25000000       0.006
  -0.05000000  0.15000000  0.35000000       0.012
  -0.15000000  0.25000000  0.45000000       0.012
  -0.25000000  0.35000000  0.55000000       0.012
   0.65000000 -0.55000000 -0.35000000       0.012
   0.55000000 -0.45000000 -0.25000000       0.012
   0.45000000 -0.35000000 -0.15000000       0.012
   0.35000000 -0.25000000 -0.05000000       0.012
   0.25000000 -0.15000000  0.05000000       0.012
   0.05000000  0.05000000  0.45000000       0.006
  -0.05000000  0.15000000  0.55000000       0.012
  -0.15000000  0.25000000  0.65000000       0.012
   0.75000000 -0.65000000 -0.25000000       0.012
   0.65000000 -0.55000000 -0.15000000       0.012
   0.55000000 -0.45000000 -0.05000000       0.012
   0.45000000 -0.35000000  0.05000000       0.012
   0.35000000 -0.25000000  0.15000000       0.012
   0.05000000  0.05000000  0.65000000       0.006
  -0.05000000  0.15000000  0.75000000       0.012
   0.85000000 -0.75000000 -0.15000000       0.012
   0.75000000 -0.65000000 -0.05000000       0.012
   0.65000000 -0.55000000  0.05000000       0.012
   0.55000000 -0.45000000  0.15000000       0.012
   0.45000000 -0.35000000  0.25000000       0.012
   0.05000000  0.05000000  0.85000000       0.006
   0.95000000 -0.85000000 -0.05000000       0.012
   0.85000000 -0.75000000  0.05000000       0.012
   0.75000000 -0.65000000  0.15000000       0.012
   0.65000000 -0.55000000  0.25000000       0.012
   0.55000000 -0.45000000  0.35000000       0.012
   0.05000000  0.05000000 -0.95000000       0.006
  -0.05000000  0.15000000 -0.85000000       0.012
  -0.15000000  0.25000000 -0.75000000       0.012
  -0.25000000  0.35000000 -0.65000000       0.012
   0.05000000  0.05000000 -0.75000000       0.006
  -0.05000000  0.15000000 -0.65000000       0.012
  -0.15000000  0.25000000 -0.55000000       0.012
   0.05000000  0.05000000 -0.55000000       0.006
  -0.05000000  0.15000000 -0.45000000       0.012
   0.05000000  0.05000000 -0.35000000       0.006
   0.15000000  0.15000000  0.15000000       0.002
   0.05000000  0.25000000  0.25000000       0.006
  -0.05000000  0.35000000  0.35000000       0.006
  -0.15000000  0.45000000  0.45000000       0.006
   0.75000000 -0.45000000 -0.45000000       0.006
   0.65000000 -0.35000000 -0.35000000       0.006
   0.55000000 -0.25000000 -0.25000000       0.006
   0.45000000 -0.15000000 -0.15000000       0.006
   0.15000000  0.15000000  0.35000000       0.006
   0.05000000  0.25000000  0.45000000       0.012
  -0.05000000  0.35000000  0.55000000       0.012
   0.85000000 -0.55000000 -0.35000000       0.012
   0.75000000 -0.45000000 -0.25000000       0.012
   0.65000000 -0.35000000 -0.15000000       0.012
   0.55000000 -0.25000000 -0.05000000       0.012
   0.15000000  0.15000000  0.55000000       0.006
   0.05000000  0.25000000  0.65000000       0.012
   0.95000000 -0.65000000 -0.25000000       0.012
   0.85000000 -0.55000000 -0.15000000       0.012
   0.75000000 -0.45000000 -0.05000000       0.012
   0.65000000 -0.35000000  0.05000000       0.012
   0.15000000  0.15000000  0.75000000       0.006
   1.05000000 -0.75000000 -0.15000000       0.012
   0.95000000 -0.65000000 -0.05000000       0.012
   0.85000000 -0.55000000  0.05000000       0.012
   0.75000000 -0.45000000  0.15000000       0.012
   0.15000000  0.15000000 -1.05000000       0.006
   0.05000000  0.25000000 -0.95000000       0.012
  -0.05000000  0.35000000 -0.85000000       0.012
   0.15000000  0.15000000 -0.85000000       0.006
   0.05000000  0.25000000 -0.75000000       0.012
   0.15000000  0.15000000 -0.65000000       0.006
   0.25000000  0.25000000  0.25000000       0.002
   0.15000000  0.35000000  0.35000000       0.006
   0.05000000  0.45000000  0.45000000       0.006
   0.95000000 -0.45000000 -0.45000000       0.006
   0.85000000 -0.35000000 -0.35000000       0.006
   0.75000000 -0.25000000 -0.25000000       0.006
   0.25000000  0.25000000  0.45000000       0.006
   0.15000000  0.35000000  0.55000000       0.012
   1.05000000 -0.55000000 -0.35000000       0.012
   0.95000000 -0.45000000 -0.25000000       0.012
   0.85000000 -0.35000000 -0.15000000       0.012
   0.25000000  0.25000000  0.65000000       0.006
   1.15000000 -0.65000000 -0.25000000       0.012
   1.05000000 -0.55000000 -0.15000000       0.012
   0.95000000 -0.45000000 -0.05000000       0.012
   0.25000000  0.25000000 -1.15000000       0.006
   0.15000000  0.35000000 -1.05000000       0.012
   0.25000000  0.25000000 -0.95000000       0.006
   0.35000000  0.35000000  0.35000000       0.002
   0.25000000  0.45000000  0.45000000       0.006
   1.15000000 -0.45000000 -0.45000000       0.006
   1.05000000 -0.35000000 -0.35000000       0.006
   0.35000000  0.35000000  0.55000000       0.006
   1.25000000 -0.55000000 -0.35000000       0.012
   1.15000000 -0.45000000 -0.25000000       0.012
   0.35000000  0.35000000 -1.25000000       0.006
   0.45000000  0.45000000  0.45000000       0.002
   1.35000000 -0.45000000 -0.45000000       0.006
 
 k-points in reciprocal lattice and weights: 10x10x10                                
   0.05000000  0.05000000  0.05000000       0.002
   0.15000000  0.05000000  0.05000000       0.006
   0.25000000  0.05000000  0.05000000       0.006
   0.35000000  0.05000000  0.05000000       0.006
   0.45000000  0.05000000  0.05000000       0.006
  -0.45000000  0.05000000  0.05000000       0.006
  -0.35000000  0.05000000  0.05000000       0.006
  -0.25000000  0.05000000  0.05000000       0.006
  -0.15000000  0.05000000  0.05000000       0.006
  -0.05000000  0.05000000  0.05000000       0.006
   0.15000000  0.15000000  0.05000000       0.006
   0.25000000  0.15000000  0.05000000       0.012
   0.35000000  0.15000000  0.05000000       0.012
   0.45000000  0.15000000  0.05000000       0.012
  -0.45000000  0.15000000  0.05000000       0.012
  -0.35000000  0.15000000  0.05000000       0.012
  -0.25000000  0.15000000  0.05000000       0.012
  -0.15000000  0.15000000  0.05000000       0.012
  -0.05000000  0.15000000  0.05000000       0.012
   0.25000000  0.25000000  0.05000000       0.006
   0.35000000  0.25000000  0.05000000       0.012
   0.45000000  0.25000000  0.05000000       0.012
  -0.45000000  0.25000000  0.05000000       0.012
  -0.35000000  0.25000000  0.05000000       0.012
  -0.25000000  0.25000000  0.05000000       0.012
  -0.15000000  0.25000000  0.05000000       0.012
  -0.05000000  0.25000000  0.05000000       0.012
   0.35000000  0.35000000  0.05000000       0.006
   0.45000000  0.35000000  0.05000000       0.012
  -0.45000000  0.35000000  0.05000000       0.012
  -0.35000000  0.35000000  0.05000000       0.012
  -0.25000000  0.35000000  0.05000000       0.012
  -0.15000000  0.35000000  0.05000000       0.012
  -0.05000000  0.35000000  0.05000000       0.012
   0.45000000  0.45000000  0.05000000       0.006
  -0.45000000  0.45000000  0.05000000       0.012
  -0.35000000  0.45000000  0.05000000       0.012
  -0.25000000  0.45000000  0.05000000       0.012
  -0.15000000  0.45000000  0.05000000       0.012
  -0.05000000  0.45000000  0.05000000       0.012
  -0.45000000 -0.45000000  0.05000000       0.006
  -0.35000000 -0.45000000  0.05000000       0.012
  -0.25000000 -0.45000000  0.05000000       0.012
  -0.15000000 -0.45000000  0.05000000       0.012
  -0.35000000 -0.35000000  0.05000000       0.006
  -0.25000000 -0.35000000  0.05000000       0.012
  -0.15000000 -0.35000000  0.05000000       0.012
  -0.25000000 -0.25000000  0.05000000       0.006
  -0.15000000 -0.25000000  0.05000000       0.012
  -0.15000000 -0.15000000  0.05000000       0.006
   0.15000000  0.15000000  0.15000000       0.002
   0.25000000  0.15000000  0.15000000       0.006
   0.35000000  0.15000000  0.15000000       0.006
   0.45000000  0.15000000  0.15000000       0.006
  -0.45000000  0.15000000  0.15000000       0.006
  -0.35000000  0.15000000  0.15000000       0.006
  -0.25000000  0.15000000  0.15000000       0.006
  -0.15000000  0.15000000  0.15000000       0.006
   0.25000000  0.25000000  0.15000000       0.006
   0.35000000  0.25000000  0.15000000       0.012
   0.45000000  0.25000000  0.15000000       0.012
  -0.45000000  0.25000000  0.15000000       0.012
  -0.35000000  0.25000000  0.15000000       0.012
  -0.25000000  0.25000000  0.15000000       0.012
  -0.15000000  0.25000000  0.15000000       0.012
   0.35000000  0.35000000  0.15000000       0.006
   0.45000000  0.35000000  0.15000000       0.012
  -0.45000000  0.35000000  0.15000000       0.012
  -0.35000000  0.35000000  0.15000000       0.012
  -0.25000000  0.35000000  0.15000000       0.012
  -0.15000000  0.35000000  0.15000000       0.012
   0.45000000  0.45000000  0.15000000       0.006
  -0.45000000  0.45000000  0.15000000       0.012
  -0.35000000  0.45000000  0.15000000       0.012
  -0.25000000  0.45000000  0.15000000       0.012
  -0.15000000  0.45000000  0.15000000       0.012
  -0.45000000 -0.45000000  0.15000000       0.006
  -0.35000000 -0.45000000  0.15000000       0.012
  -0.25000000 -0.45000000  0.15000000       0.012
  -0.35000000 -0.35000000  0.15000000       0.006
  -0.25000000 -0.35000000  0.15000000       0.012
  -0.25000000 -0.25000000  0.15000000       0.006
   0.25000000  0.25000000  0.25000000       0.002
   0.35000000  0.25000000  0.25000000       0.006
   0.45000000  0.25000000  0.25000000       0.006
  -0.45000000  0.25000000  0.25000000       0.006
  -0.35000000  0.25000000  0.25000000       0.006
  -0.25000000  0.25000000  0.25000000       0.006
   0.35000000  0.35000000  0.25000000       0.006
   0.45000000  0.35000000  0.25000000       0.012
  -0.45000000  0.35000000  0.25000000       0.012
  -0.35000000  0.35000000  0.25000000       0.012
  -0.25000000  0.35000000  0.25000000       0.012
   0.45000000  0.45000000  0.25000000       0.006
  -0.45000000  0.45000000  0.25000000       0.012
  -0.35000000  0.45000000  0.25000000       0.012
  -0.25000000  0.45000000  0.25000000       0.012
  -0.45000000 -0.45000000  0.25000000       0.006
  -0.35000000 -0.45000000  0.25000000       0.012
  -0.35000000 -0.35000000  0.25000000       0.006
   0.35000000  0.35000000  0.35000000       0.002
   0.45000000  0.35000000  0.35000000       0.006
  -0.45000000  0.35000000  0.35000000       0.006
  -0.35000000  0.35000000  0.35000000       0.006
   0.45000000  0.45000000  0.35000000       0.006
  -0.45000000  0.45000000  0.35000000       0.012
  -0.35000000  0.45000000  0.35000000       0.012
  -0.45000000 -0.45000000  0.35000000       0.006
   0.45000000  0.45000000  0.45000000       0.002
  -0.45000000  0.45000000  0.45000000       0.006
 
 position of ions in fractional coordinates (direct lattice) 
   0.00000000  0.00000000  0.00000000
 
 position of ions in cartesian coordinates  (Angst):
   0.00000000  0.00000000  0.00000000
 


--------------------------------------------------------------------------------------------------------


 k-point  1 :   0.0500 0.0500 0.0500  plane waves:     256
 k-point  2 :   0.1500 0.0500 0.0500  plane waves:     243
 k-point  3 :   0.2500 0.0500 0.0500  plane waves:     238
 k-point  4 :   0.3500 0.0500 0.0500  plane waves:     234
 k-point  5 :   0.4500 0.0500 0.0500  plane waves:     235
 k-point  6 :  -0.4500 0.0500 0.0500  plane waves:     235
 k-point  7 :  -0.3500 0.0500 0.0500  plane waves:     233
 k-point  8 :  -0.2500 0.0500 0.0500  plane waves:     235
 k-point  9 :  -0.1500 0.0500 0.0500  plane waves:     234
 k-point 10 :  -0.0500 0.0500 0.0500  plane waves:     249
 k-point 11 :   0.1500 0.1500 0.0500  plane waves:     237
 k-point 12 :   0.2500 0.1500 0.0500  plane waves:     235
 k-point 13 :   0.3500 0.1500 0.0500  plane waves:     232
 k-point 14 :   0.4500 0.1500 0.0500  plane waves:     234
 k-point 15 :  -0.4500 0.1500 0.0500  plane waves:     238
 k-point 16 :  -0.3500 0.1500 0.0500  plane waves:     237
 k-point 17 :  -0.2500 0.1500 0.0500  plane waves:     235
 k-point 18 :  -0.1500 0.1500 0.0500  plane waves:     232
 k-point 19 :  -0.0500 0.1500 0.0500  plane waves:     238
 k-point 20 :   0.2500 0.2500 0.0500  plane waves:     232
 k-point 21 :   0.3500 0.2500 0.0500  plane waves:     229
 k-point 22 :   0.4500 0.2500 0.0500  plane waves:     234
 k-point 23 :  -0.4500 0.2500 0.0500  plane waves:     237
 k-point 24 :  -0.3500 0.2500 0.0500  plane waves:     237
 k-point 25 :  -0.2500 0.2500 0.0500  plane waves:     235
 k-point 26 :  -0.1500 0.2500 0.0500  plane waves:     232
 k-point 27 :  -0.0500 0.2500 0.0500  plane waves:     234
 k-point 28 :   0.3500 0.3500 0.0500  plane waves:     228
 k-point 29 :   0.4500 0.3500 0.0500  plane waves:     232
 k-point 30 :  -0.4500 0.3500 0.0500  plane waves:     231
 k-point 31 :  -0.3500 0.3500 0.0500  plane waves:     232
 k-point 32 :  -0.2500 0.3500 0.0500  plane waves:     233
 k-point 33 :  -0.1500 0.3500 0.0500  plane waves:     238
 k-point 34 :  -0.0500 0.3500 0.0500  plane waves:     238
 k-point 35 :   0.4500 0.4500 0.0500  plane waves:     232
 k-point 36 :  -0.4500 0.4500 0.0500  plane waves:     231
 k-point 37 :  -0.3500 0.4500 0.0500  plane waves:     230
 k-point 38 :  -0.2500 0.4500 0.0500  plane waves:     233
 k-point 39 :  -0.1500 0.4500 0.0500  plane waves:     238
 k-point 40 :  -0.0500 0.4500 0.0500  plane waves:     237
 k-point 41 :  -0.4500-0.4500 0.0500  plane waves:     226
 k-point 42 :  -0.3500-0.4500 0.0500  plane waves:     234
 k-point 43 :  -0.2500-0.4500 0.0500  plane waves:     233
 k-point 44 :  -0.1500-0.4500 0.0500  plane waves:     237
 k-point 45 :  -0.3500-0.3500 0.0500  plane waves:     232
 k-point 46 :  -0.2500-0.3500 0.0500  plane waves:     230
 k-point 47 :  -0.1500-0.3500 0.0500  plane waves:     234
 k-point 48 :  -0.2500-0.2500 0.0500  plane waves:     228
 k-point 49 :  -0.1500-0.2500 0.0500  plane waves:     233
 k-point 50 :  -0.1500-0.1500 0.0500  plane waves:     239
 k-point 51 :   0.1500 0.1500 0.1500  plane waves:     238
 k-point 52 :   0.2500 0.1500 0.1500  plane waves:     239
 k-point 53 :   0.3500 0.1500 0.1500  plane waves:     234
 k-point 54 :   0.4500 0.1500 0.1500  plane waves:     234
 k-point 55 :  -0.4500 0.1500 0.1500  plane waves:     240
 k-point 56 :  -0.3500 0.1500 0.1500  plane waves:     239
 k-point 57 :  -0.2500 0.1500 0.1500  plane waves:     236
 k-point 58 :  -0.1500 0.1500 0.1500  plane waves:     235
 k-point 59 :   0.2500 0.2500 0.1500  plane waves:     234
 k-point 60 :   0.3500 0.2500 0.1500  plane waves:     232
 k-point 61 :   0.4500 0.2500 0.1500  plane waves:     234
 k-point 62 :  -0.4500 0.2500 0.1500  plane waves:     237
 k-point 63 :  -0.3500 0.2500 0.1500  plane waves:     237
 k-point 64 :  -0.2500 0.2500 0.1500  plane waves:     235
 k-point 65 :  -0.1500 0.2500 0.1500  plane waves:     232
 k-point 66 :   0.3500 0.3500 0.1500  plane waves:     233
 k-point 67 :   0.4500 0.3500 0.1500  plane waves:     232
 k-point 68 :  -0.4500 0.3500 0.1500  plane waves:     235
 k-point 69 :  -0.3500 0.3500 0.1500  plane waves:     235
 k-point 70 :  -0.2500 0.3500 0.1500  plane waves:     236
 k-point 71 :  -0.1500 0.3500 0.1500  plane waves:     235
 k-point 72 :   0.4500 0.4500 0.1500  plane waves:     235
 k-point 73 :  -0.4500 0.4500 0.1500  plane waves:     234
 k-point 74 :  -0.3500 0.4500 0.1500  plane waves:     234
 k-point 75 :  -0.2500 0.4500 0.1500  plane waves:     233
 k-point 76 :  -0.1500 0.4500 0.1500  plane waves:     235
 k-point 77 :  -0.4500-0.4500 0.1500  plane waves:     231
 k-point 78 :  -0.3500-0.4500 0.1500  plane waves:     234
 k-point 79 :  -0.2500-0.4500 0.1500  plane waves:     234
 k-point 80 :  -0.3500-0.3500 0.1500  plane waves:     235
 k-point 81 :  -0.2500-0.3500 0.1500  plane waves:     232
 k-point 82 :  -0.2500-0.2500 0.1500  plane waves:     233
 k-point 83 :   0.2500 0.2500 0.2500  plane waves:     238
 k-point 84 :   0.3500 0.2500 0.2500  plane waves:     237
 k-point 85 :   0.4500 0.2500 0.2500  plane waves:     235
 k-point 86 :  -0.4500 0.2500 0.2500  plane waves:     236
 k-point 87 :  -0.3500 0.2500 0.2500  plane waves:     236
 k-point 88 :  -0.2500 0.2500 0.2500  plane waves:     236
 k-point 89 :   0.3500 0.3500 0.2500  plane waves:     235
 k-point 90 :   0.4500 0.3500 0.2500  plane waves:     235
 k-point 91 :  -0.4500 0.3500 0.2500  plane waves:     236
 k-point 92 :  -0.3500 0.3500 0.2500  plane waves:     234
 k-point 93 :  -0.2500 0.3500 0.2500  plane waves:     235
 k-point 94 :   0.4500 0.4500 0.2500  plane waves:     236
 k-point 95 :  -0.4500 0.4500 0.2500  plane waves:     235
 k-point 96 :  -0.3500 0.4500 0.2500  plane waves:     236
 k-point 97 :  -0.2500 0.4500 0.2500  plane waves:     233
 k-point 98 :  -0.4500-0.4500 0.2500  plane waves:     234
 k-point 99 :  -0.3500-0.4500 0.2500  plane waves:     231
 k-point ** :  -0.3500-0.3500 0.2500  plane waves:     227
 k-point ** :   0.3500 0.3500 0.3500  plane waves:     232
 k-point ** :   0.4500 0.3500 0.3500  plane waves:     240
 k-point ** :  -0.4500 0.3500 0.3500  plane waves:     238
 k-point ** :  -0.3500 0.3500 0.3500  plane waves:     233
 k-point ** :   0.4500 0.4500 0.3500  plane waves:     239
 k-point ** :  -0.4500 0.4500 0.3500  plane waves:     238
 k-point ** :  -0.3500 0.4500 0.3500  plane waves:     235
 k-point ** :  -0.4500-0.4500 0.3500  plane waves:     239
 k-point ** :   0.4500 0.4500 0.4500  plane waves:     235
 k-point ** :  -0.4500 0.4500 0.4500  plane waves:     235

 maximum and minimum number of plane-waves per node :       256      226

 maximum number of plane-waves:       256
 maximum index in each direction: 
   IXMAX=    4   IYMAX=    4   IZMAX=    4
   IXMIN=   -4   IYMIN=   -4   IZMIN=   -4


 serial   3D FFT for wavefunctions
 parallel 3D FFT for charge:
    minimum data exchange during FFTs selected (reduces bandwidth)


 total amount of memory used by VASP MPI-rank0    37479. kBytes
=======================================================================

   base      :      30000. kBytes
   nonl-proj :       4059. kBytes
   fftplans  :        829. kBytes
   grid      :       1119. kBytes
   one-center:         15. kBytes
   wavefun   :       1457. kBytes
 
     INWAV:  cpu time    0.0000: real time    0.0000
 Broyden mixing: mesh for mixing (old mesh)
   NGX =  9   NGY =  9   NGZ =  9
  (NGX  = 36   NGY  = 36   NGZ  = 36)
  gives a total of    729 points

 initial charge density was supplied:
 charge density of overlapping atoms calculated
 number of electron      11.0000000 magnetization 
 keeping initial charge density in first step


--------------------------------------------------------------------------------------------------------


 Maximum index for augmentation-charges         4395 (set IRDMAX)


--------------------------------------------------------------------------------------------------------


 First call to EWALD:  gamma=   0.654
 Maximum number of real-space cells 3x 3x 3
 Maximum number of reciprocal cells 3x 3x 3

    FEWALD:  cpu time    0.0105: real time    0.0104


--------------------------------------- Iteration      1(   1)  ---------------------------------------


    POTLOK:  cpu time    0.0039: real time    0.0238
    SETDIJ:  cpu time    0.0029: real time    0.0029
     EDDAV:  cpu time    0.6373: real time    0.6435
       DOS:  cpu time    0.0014: real time    0.0015
    --------------------------------------------
      LOOP:  cpu time    0.6457: real time    0.6717

 eigenvalue-minimisations  :  3012
 total energy-change (2. order) : 0.4449489E+02  (-0.3977693E+03)
 number of electron      11.0000000 magnetization 
 augmentation part       11.0000000 magnetization 

 Free energy of the ion-electron system (eV)
  ---------------------------------------------------
  alpha Z        PSCENC =        92.46377501
  Ewald energy   TEWEN  =      -928.90065159
  -Hartree energ DENC   =      -143.19178377
  -exchange      EXHF   =         0.00000000
  -V(xc)+E(xc)   XCENC  =        15.88289883
  PAW double counting   =       746.10209728     -725.46159323
  entropy T*S    EENTRO =        -0.00058447
  eigenvalues    EBANDS =        58.17931930
  atomic energy  EATOM  =       929.42141189
  Solvation  Ediel_sol  =         0.00000000
  ---------------------------------------------------
  free energy    TOTEN  =        44.49488926 eV

  energy without entropy =       44.49547373  energy(sigma->0) =       44.49508408


--------------------------------------------------------------------------------------------------------




--------------------------------------- Iteration      1(   2)  ---------------------------------------


     EDDAV:  cpu time    0.5833: real time    0.5912
       DOS:  cpu time    0.0013: real time    0.0013
    --------------------------------------------
      LOOP:  cpu time    0.5846: real time    0.5925

 eigenvalue-minimisations  :  2952
 total energy-change (2. order) :-0.4825612E+02  (-0.4383191E+02)
 number of electron      11.0000000 magnetization 
 augmentation part       11.0000000 magnetization 

 Free energy of the ion-electron system (eV)
  ---------------------------------------------------
  alpha Z        PSCENC =        92.46377501
  Ewald energy   TEWEN  =      -928.90065159
  -Hartree energ DENC   =      -143.19178377
  -exchange      EXHF   =         0.00000000
  -V(xc)+E(xc)   XCENC  =        15.88289883
  PAW double counting   =       746.10209728     -725.46159323
  entropy T*S    EENTRO =         0.00027994
  eigenvalues    EBANDS =         9.92233233
  atomic energy  EATOM  =       929.42141189
  Solvation  Ediel_sol  =         0.00000000
  ---------------------------------------------------
  free energy    TOTEN  =        -3.76123330 eV

  energy without entropy =       -3.76151324  energy(sigma->0) =       -3.76132661


--------------------------------------------------------------------------------------------------------




--------------------------------------- Iteration      1(   3)  ---------------------------------------


     EDDAV:  cpu time    0.6025: real time    0.6078
       DOS:  cpu time    0.0014: real time    0.0014
    --------------------------------------------
      LOOP:  cpu time    0.6039: real time    0.6091

 eigenvalue-minimisations  :  3216
 total energy-change (2. order) :-0.7119878E+00  (-0.7112953E+00)
 number of electron      11.0000000 magnetization 
 augmentation part       11.0000000 magnetization 

 Free energy of the ion-electron system (eV)
  ---------------------------------------------------
  alpha Z        PSCENC =        92.46377501
  Ewald energy   TEWEN  =      -928.90065159
  -Hartree energ DENC   =      -143.19178377
  -exchange      EXHF   =         0.00000000
  -V(xc)+E(xc)   XCENC  =        15.88289883
  PAW double counting   =       746.10209728     -725.46159323
  entropy T*S    EENTRO =         0.00074140
  eigenvalues    EBANDS =         9.20988306
  atomic energy  EATOM  =       929.42141189
  Solvation  Ediel_sol  =         0.00000000
  ---------------------------------------------------
  free energy    TOTEN  =        -4.47322111 eV

  energy without entropy =       -4.47396251  energy(sigma->0) =       -4.47346825


--------------------------------------------------------------------------------------------------------




--------------------------------------- Iteration      1(   4)  ---------------------------------------


     EDDAV:  cpu time    0.6060: real time    0.6116
       DOS:  cpu time    0.0014: real time    0.0014
    --------------------------------------------
      LOOP:  cpu time    0.6073: real time    0.6130

 eigenvalue-minimisations  :  3088
 total energy-change (2. order) :-0.2269697E-02  (-0.2269574E-02)
 number of electron      11.0000000 magnetization 
 augmentation part       11.0000000 magnetization 

 Free energy of the ion-electron system (eV)
  ---------------------------------------------------
  alpha Z        PSCENC =        92.46377501
  Ewald energy   TEWEN  =      -928.90065159
  -Hartree energ DENC   =      -143.19178377
  -exchange      EXHF   =         0.00000000
  -V(xc)+E(xc)   XCENC  =        15.88289883
  PAW double counting   =       746.10209728     -725.46159323
  entropy T*S    EENTRO =         0.00074282
  eigenvalues    EBANDS =         9.20761194
  atomic energy  EATOM  =       929.42141189
  Solvation  Ediel_sol  =         0.00000000
  ---------------------------------------------------
  free energy    TOTEN  =        -4.47549081 eV

  energy without entropy =       -4.47623363  energy(sigma->0) =       -4.47573842


--------------------------------------------------------------------------------------------------------




--------------------------------------- Iteration      1(   5)  ---------------------------------------


     EDDAV:  cpu time    0.5968: real time    0.6020
       DOS:  cpu time    0.0013: real time    0.0013
    CHARGE:  cpu time    0.0349: real time    0.0350
    MIXING:  cpu time    0.0005: real time    0.0005
    --------------------------------------------
      LOOP:  cpu time    0.6336: real time    0.6388

 eigenvalue-minimisations  :  3252
 total energy-change (2. order) :-0.2146349E-04  (-0.2146325E-04)
 number of electron      11.0000000 magnetization 
 augmentation part        3.8431071 magnetization 

 Broyden mixing:
  rms(total) = 0.30258E+00    rms(broyden)= 0.30252E+00
  rms(prec ) = 0.12496E+01
  weight for this iteration     100.00

 Free energy of the ion-electron system (eV)
  ---------------------------------------------------
  alpha Z        PSCENC =        92.46377501
  Ewald energy   TEWEN  =      -928.90065159
  -Hartree energ DENC   =      -143.19178377
  -exchange      EXHF   =         0.00000000
  -V(xc)+E(xc)   XCENC  =        15.88289883
  PAW double counting   =       746.10209728     -725.46159323
  entropy T*S    EENTRO =         0.00074284
  eigenvalues    EBANDS =         9.20759046
  atomic energy  EATOM  =       929.42141189
  Solvation  Ediel_sol  =         0.00000000
  ---------------------------------------------------
  free energy    TOTEN  =        -4.47551227 eV

  energy without entropy =       -4.47625511  energy(sigma->0) =       -4.47575989


--------------------------------------------------------------------------------------------------------




--------------------------------------- Iteration      1(   6)  ---------------------------------------


    POTLOK:  cpu time    0.0030: real time    0.0031
    SETDIJ:  cpu time    0.0018: real time    0.0018
     EDDAV:  cpu time    0.6068: real time    0.6123
       DOS:  cpu time    0.0015: real time    0.0015
    CHARGE:  cpu time    0.0379: real time    0.0379
    MIXING:  cpu time    0.0006: real time    0.0006
    --------------------------------------------
      LOOP:  cpu time    0.6516: real time    0.6572

 eigenvalue-minimisations  :  3136
 total energy-change (2. order) : 0.2934668E+00  (-0.9944216E-01)
 number of electron      11.0000000 magnetization 
 augmentation part        4.0106556 magnetization 

 Broyden mixing:
  rms(total) = 0.68958E-01    rms(broyden)= 0.68935E-01
  rms(prec ) = 0.23574E+00
  weight for this iteration     100.00

 eigenvalues of (default mixing * dielectric matrix)
  average eigenvalue GAMMA=   1.1133
  1.1133

 Free energy of the ion-electron system (eV)
  ---------------------------------------------------
  alpha Z        PSCENC =        92.46377501
  Ewald energy   TEWEN  =      -928.90065159
  -Hartree energ DENC   =      -134.58868898
  -exchange      EXHF   =         0.00000000
  -V(xc)+E(xc)   XCENC  =        15.45034054
  PAW double counting   =       730.85055230     -711.17119951
  entropy T*S    EENTRO =         0.00087108
  eigenvalues    EBANDS =         2.29154377
  atomic energy  EATOM  =       929.42141189
  Solvation  Ediel_sol  =         0.00000000
  ---------------------------------------------------
  free energy    TOTEN  =        -4.18204548 eV

  energy without entropy =       -4.18291656  energy(sigma->0) =       -4.18233584


--------------------------------------------------------------------------------------------------------




--------------------------------------- Iteration      1(   7)  ---------------------------------------


    POTLOK:  cpu time    0.0031: real time    0.0031
    SETDIJ:  cpu time    0.0018: real time    0.0018
     EDDAV:  cpu time    0.6378: real time    0.6435
       DOS:  cpu time    0.0013: real time    0.0013
    CHARGE:  cpu time    0.0362: real time    0.0363
    MIXING:  cpu time    0.0005: real time    0.0005
    --------------------------------------------
      LOOP:  cpu time    0.6808: real time    0.6866

 eigenvalue-minimisations  :  3216
 total energy-change (2. order) : 0.1306852E-01  (-0.2739934E-02)
 number of electron      11.0000000 magnetization 
 augmentation part        4.0324127 magnetization 

 Broyden mixing:
  rms(total) = 0.33026E-01    rms(broyden)= 0.33021E-01
  rms(prec ) = 0.75748E-01
  weight for this iteration     100.00

 eigenvalues of (default mixing * dielectric matrix)
  average eigenvalue GAMMA=   1.7135
  1.1193  2.3077

 Free energy of the ion-electron system (eV)
  ---------------------------------------------------
  alpha Z        PSCENC =        92.46377501
  Ewald energy   TEWEN  =      -928.90065159
  -Hartree energ DENC   =      -132.87601717
  -exchange      EXHF   =         0.00000000
  -V(xc)+E(xc)   XCENC  =        15.35715840
  PAW double counting   =       729.92708629     -710.76810628
  entropy T*S    EENTRO =         0.00083839
  eigenvalues    EBANDS =         1.20552810
  atomic energy  EATOM  =       929.42141189
  Solvation  Ediel_sol  =         0.00000000
  ---------------------------------------------------
  free energy    TOTEN  =        -4.16897696 eV

  energy without entropy =       -4.16981536  energy(sigma->0) =       -4.16925643


--------------------------------------------------------------------------------------------------------




--------------------------------------- Iteration      1(   8)  ---------------------------------------


    POTLOK:  cpu time    0.0030: real time    0.0030
    SETDIJ:  cpu time    0.0017: real time    0.0017
     EDDAV:  cpu time    0.5750: real time    0.5798
       DOS:  cpu time    0.0014: real time    0.0014
    CHARGE:  cpu time    0.0353: real time    0.0354
    MIXING:  cpu time    0.0010: real time    0.0005
    --------------------------------------------
      LOOP:  cpu time    0.6173: real time    0.6219

 eigenvalue-minimisations  :  3056
 total energy-change (2. order) : 0.3812192E-02  (-0.1871068E-03)
 number of electron      11.0000000 magnetization 
 augmentation part        4.0316789 magnetization 

 Broyden mixing:
  rms(total) = 0.15424E-02    rms(broyden)= 0.15400E-02
  rms(prec ) = 0.39365E-02
  weight for this iteration     100.00

 eigenvalues of (default mixing * dielectric matrix)
  average eigenvalue GAMMA=   1.6285
  1.1346  1.3031  2.4479

 Free energy of the ion-electron system (eV)
  ---------------------------------------------------
  alpha Z        PSCENC =        92.46377501
  Ewald energy   TEWEN  =      -928.90065159
  -Hartree energ DENC   =      -132.16061313
  -exchange      EXHF   =         0.00000000
  -V(xc)+E(xc)   XCENC  =        15.31252727
  PAW double counting   =       732.44066667     -713.77836918
  entropy T*S    EENTRO =         0.00082749
  eigenvalues    EBANDS =         1.03526081
  atomic energy  EATOM  =       929.42141189
  Solvation  Ediel_sol  =         0.00000000
  ---------------------------------------------------
  free energy    TOTEN  =        -4.16516477 eV

  energy without entropy =       -4.16599226  energy(sigma->0) =       -4.16544060


--------------------------------------------------------------------------------------------------------




--------------------------------------- Iteration      1(   9)  ---------------------------------------


    POTLOK:  cpu time    0.0026: real time    0.0031
    SETDIJ:  cpu time    0.0017: real time    0.0017
     EDDAV:  cpu time    0.4159: real time    0.4207
       DOS:  cpu time    0.0014: real time    0.0014
    --------------------------------------------
      LOOP:  cpu time    0.4217: real time    0.4269

 eigenvalue-minimisations  :  1676
 total energy-change (2. order) :-0.1056505E-05  (-0.1628381E-05)
 number of electron      11.0000000 magnetization 
 augmentation part        4.0316789 magnetization 

 Free energy of the ion-electron system (eV)
  ---------------------------------------------------
  alpha Z        PSCENC =        92.46377501
  Ewald energy   TEWEN  =      -928.90065159
  -Hartree energ DENC   =      -132.12199065
  -exchange      EXHF   =         0.00000000
  -V(xc)+E(xc)   XCENC  =        15.31032382
  PAW double counting   =       733.05750396     -714.40286991
  entropy T*S    EENTRO =         0.00082711
  eigenvalues    EBANDS =         1.00650453
  atomic energy  EATOM  =       929.42141189
  Solvation  Ediel_sol  =         0.00000000
  ---------------------------------------------------
  free energy    TOTEN  =        -4.16516583 eV

  energy without entropy =       -4.16599294  energy(sigma->0) =       -4.16544153


--------------------------------------------------------------------------------------------------------




 average (electrostatic) potential at core
  the test charge radii are     1.2098
  (the norm of the test charge is              1.0000)
       1 -47.1795
 
 
 
 E-fermi :   3.6206     XC(G=0): -12.1106     alpha+bet : -8.8234


 k-point     1 :       0.0500    0.0500    0.0500
  band No.  band energies     occupation 
      1      -4.6502      2.00000
      2      -0.2955      2.00000
      3      -0.2509      2.00000
      4      -0.2509      2.00000
      5       0.8901      2.00000
      6       0.8901      2.00000
      7      18.9601      0.00000
      8      21.1338      0.00000
      9      21.8500      0.00000
     10      21.8500      0.00000
     11      26.3438      0.00000
     12      28.3579      0.00000

 k-point     2 :       0.1500    0.0500    0.0500
  band No.  band energies     occupation 
      1      -4.2538      2.00000
      2      -0.4051      2.00000
      3      -0.1425      2.00000
      4      -0.1161      2.00000
      5       0.7840      2.00000
      6       0.9316      2.00000
      7      18.7217      0.00000
      8      19.4783      0.00000
      9      21.3003      0.00000
     10      22.6060      0.00000
     11      25.3338      0.00000
     12      27.8326      0.00000

 k-point     3 :       0.2500    0.0500    0.0500
  band No.  band energies     occupation 
      1      -3.3834      2.00000
      2      -0.4758      2.00000
      3      -0.0191      2.00000
      4      -0.0057      2.00000
      5       0.7992      2.00000
      6       1.1028      2.00000
      7      15.1940      0.00000
      8      19.3966      0.00000
      9      21.1917      0.00000
     10      23.2178      0.00000
     11      23.9251      0.00000
     12      25.7850      0.00000

 k-point     4 :       0.3500    0.0500    0.0500
  band No.  band energies     occupation 
      1      -2.5708      2.00000
      2      -0.1510      2.00000
      3      -0.0902      2.00000
      4       0.1133      2.00000
      5       1.1717      2.00000
      6       1.5485      2.00000
      7      11.3420      0.00000
      8      18.8782      0.00000
      9      20.1994      0.00000
     10      21.9803      0.00000
     11      24.9107      0.00000
     12      25.7101      0.00000

 k-point     5 :       0.4500    0.0500    0.0500
  band No.  band energies     occupation 
      1      -2.3456      2.00000
      2      -0.2693      2.00000
      3      -0.2169      2.00000
      4       1.3373      2.00000
      5       1.6165      2.00000
      6       2.4525      2.00000
      7       7.7920     -0.00000
      8      18.3476      0.00000
      9      19.4087      0.00000
     10      20.3840      0.00000
     11      26.1622      0.00000
     12      26.2519      0.00000

 k-point     6 :      -0.4500    0.0500    0.0500
  band No.  band energies     occupation 
      1      -2.3339      2.00000
      2      -0.3194      2.00000
      3      -0.2469      2.00000
      4       1.5589      2.00000
      5       1.8247      2.00000
      6       3.5623      1.47057
      7       6.0893     -0.00000
      8      18.2213      0.00000
      9      19.4590      0.00000
     10      19.5986      0.00000
     11      26.4620      0.00000
     12      26.5036      0.00000

 k-point     7 :      -0.3500    0.0500    0.0500
  band No.  band energies     occupation 
      1      -2.3760      2.00000
      2      -0.2460      2.00000
      3      -0.1632      2.00000
      4       0.9031      2.00000
      5       1.6755      2.00000
      6       1.9060      2.00000
      7       8.9059     -0.00000
      8      18.5956      0.00000
      9      19.7534      0.00000
     10      20.4619      0.00000
     11      26.1049      0.00000
     12      26.4033      0.00000

 k-point     8 :      -0.2500    0.0500    0.0500
  band No.  band energies     occupation 
      1      -2.7814      2.00000
      2      -0.2557      2.00000
      3      -0.0674      2.00000
      4      -0.0335      2.00000
      5       1.1128      2.00000
      6       1.3000      2.00000
      7      12.6134      0.00000
      8      19.3126      0.00000
      9      20.4803      0.00000
     10      22.1001      0.00000
     11      24.5916      0.00000
     12      26.3491      0.00000

 k-point     9 :      -0.1500    0.0500    0.0500
  band No.  band energies     occupation 
      1      -3.7058      2.00000
      2      -0.4929      2.00000
      3      -0.0276      2.00000
      4      -0.0192      2.00000
      5       0.7651      2.00000
      6       1.0043      2.00000
      7      16.4716      0.00000
      8      19.6814      0.00000
      9      21.1104      0.00000
     10      22.9004      0.00000
     11      24.1329      0.00000
     12      26.8768      0.00000

 k-point    10 :      -0.0500    0.0500    0.0500
  band No.  band energies     occupation 
      1      -4.4490      2.00000
      2      -0.3749      2.00000
      3      -0.1760      2.00000
      4      -0.1716      2.00000
      5       0.8001      2.00000
      6       0.9342      2.00000
      7      19.0673      0.00000
      8      20.2489      0.00000
      9      21.4299      0.00000
     10      21.8983      0.00000
     11      26.4236      0.00000
     12      27.8092      0.00000

 k-point    11 :       0.1500    0.1500    0.0500
  band No.  band energies     occupation 
      1      -4.0565      2.00000
      2      -0.5354      2.00000
      3      -0.0184      2.00000
      4      -0.0159      2.00000
      5       0.6426      2.00000
      6       1.0190      2.00000
      7      18.9554      0.00000
      8      19.6214      0.00000
      9      20.5668      0.00000
     10      21.4174      0.00000
     11      25.0992      0.00000
     12      27.5382      0.00000

 k-point    12 :       0.2500    0.1500    0.0500
  band No.  band energies     occupation 
      1      -3.3357      2.00000
      2      -0.7173      2.00000
      3       0.0643      2.00000
      4       0.1995      2.00000
      5       0.6129      2.00000
      6       1.1918      2.00000
      7      16.6815      0.00000
      8      18.4775      0.00000
      9      20.6610      0.00000
     10      21.7895      0.00000
     11      23.0729      0.00000
     12      26.8192      0.00000

 k-point    13 :       0.3500    0.1500    0.0500
  band No.  band energies     occupation 
      1      -2.4289      2.00000
      2      -0.6308      2.00000
      3      -0.1574      2.00000
      4       0.2099      2.00000
      5       1.1284      2.00000
      6       1.6546      2.00000
      7      12.8313      0.00000
      8      17.8667      0.00000
      9      19.6937      0.00000
     10      20.9977      0.00000
     11      24.6041      0.00000
     12      26.5453      0.00000

 k-point    14 :       0.4500    0.1500    0.0500
  band No.  band energies     occupation 
      1      -2.0597      2.00000
      2      -0.3852      2.00000
      3       0.0414      2.00000
      4       0.1932      2.00000
      5       1.6739      2.00000
      6       2.7234      2.00000
      7       9.1351      0.00000
      8      17.5483      0.00000
      9      18.3154      0.00000
     10      20.0073      0.00000
     11      26.4069      0.00000
     12      27.2914      0.00000

 k-point    15 :      -0.4500    0.1500    0.0500
  band No.  band energies     occupation 
      1      -2.0305      2.00000
      2      -0.4832      2.00000
      3      -0.0153      2.00000
      4       0.7983      2.00000
      5       1.7912      2.00000
      6       4.6530     -0.00000
      7       6.1406     -0.00000
      8      17.2021      0.00000
      9      17.8404      0.00000
     10      19.5855      0.00000
     11      26.5261      0.00000
     12      27.7119      0.00000

 k-point    16 :      -0.3500    0.1500    0.0500
  band No.  band energies     occupation 
      1      -2.0233      2.00000
      2      -0.4243      2.00000
      3       0.0048      2.00000
      4       0.5578      2.00000
      5       1.5628      2.00000
      6       3.3566      2.06848
      7       8.0613     -0.00000
      8      16.7136      0.00000
      9      18.6210      0.00000
     10      20.1930      0.00000
     11      25.9955      0.00000
     12      27.2982      0.00000

 k-point    17 :      -0.2500    0.1500    0.0500
  band No.  band energies     occupation 
      1      -2.2089      2.00000
      2      -0.4120      2.00000
      3      -0.1719      2.00000
      4       0.1483      2.00000
      5       1.0491      2.00000
      6       2.0957      2.00000
      7      11.5854      0.00000
      8      16.8523      0.00000
      9      19.7594      0.00000
     10      21.7761      0.00000
     11      24.5948      0.00000
     12      26.4756      0.00000

 k-point    18 :      -0.1500    0.1500    0.0500
  band No.  band energies     occupation 
      1      -3.0214      2.00000
      2      -0.6782      2.00000
      3      -0.0115      2.00000
      4       0.2165      2.00000
      5       0.6071      2.00000
      6       1.3997      2.00000
      7      15.3254      0.00000
      8      17.4469      0.00000
      9      21.2958      0.00000
     10      22.1967      0.00000
     11      24.2198      0.00000
     12      25.6054      0.00000

 k-point    19 :      -0.0500    0.1500    0.0500
  band No.  band energies     occupation 
      1      -3.8738      2.00000
      2      -0.5279      2.00000
      3      -0.0152      2.00000
      4      -0.0096      2.00000
      5       0.6735      2.00000
      6       1.0298      2.00000
      7      17.7557      0.00000
      8      19.1231      0.00000
      9      20.9482      0.00000
     10      22.6413      0.00000
     11      24.3918      0.00000
     12      26.9914      0.00000

 k-point    20 :       0.2500    0.2500    0.0500
  band No.  band energies     occupation 
      1      -2.8459      2.00000
      2      -0.9915      2.00000
      3       0.1935      2.00000
      4       0.4949      2.00000
      5       0.6504      2.00000
      6       1.2797      2.00000
      7      17.0182      0.00000
      8      18.0427      0.00000
      9      19.6556      0.00000
     10      20.0172      0.00000
     11      20.6339      0.00000
     12      28.5123      0.00000

 k-point    21 :       0.3500    0.2500    0.0500
  band No.  band energies     occupation 
      1      -2.1232      2.00000
      2      -1.1615      2.00000
      3       0.0054      2.00000
      4       0.7636      2.00000
      5       1.1667      2.00000
      6       1.6695      2.00000
      7      14.4269      0.00000
      8      16.2909      0.00000
      9      17.8558      0.00000
     10      20.3674      0.00000
     11      21.7847      0.00000
     12      28.4598      0.00000

 k-point    22 :       0.4500    0.2500    0.0500
  band No.  band energies     occupation 
      1      -1.6990      2.00000
      2      -0.9369      2.00000
      3      -0.1795      2.00000
      4       0.6652      2.00000
      5       1.7355      2.00000
      6       2.9356      2.00001
      7      10.7228      0.00000
      8      15.5834      0.00000
      9      16.3083      0.00000
     10      20.1951      0.00000
     11      24.6606      0.00000
     12      28.1322      0.00000

 k-point    23 :      -0.4500    0.2500    0.0500
  band No.  band energies     occupation 
      1      -1.6011      2.00000
      2      -0.7250      2.00000
      3       0.0015      2.00000
      4       0.5163      2.00000
      5       1.8181      2.00000
      6       5.0954     -0.00000
      7       7.4830     -0.00000
      8      14.3728      0.00000
      9      16.3768      0.00000
     10      20.0114      0.00000
     11      27.2377      0.00000
     12      28.2904      0.00000

 k-point    24 :      -0.3500    0.2500    0.0500
  band No.  band energies     occupation 
      1      -1.4704      2.00000
      2      -0.6820      2.00000
      3       0.0385      2.00000
      4       0.4363      2.00000
      5       1.5249      2.00000
      6       4.9505     -0.00000
      7       7.8883     -0.00000
      8      13.4100      0.00000
      9      17.4628      0.00000
     10      20.2165      0.00000
     11      26.5996      0.00000
     12      28.7783      0.00000

 k-point    25 :      -0.2500    0.2500    0.0500
  band No.  band energies     occupation 
      1      -1.4181      2.00000
      2      -0.6396      2.00000
      3      -0.4083      2.00000
      4       0.5015      2.00000
      5       1.0116      2.00000
      6       3.2833      2.03832
      7      10.9882      0.00000
      8      13.3050      0.00000
      9      18.8642      0.00000
     10      21.2048      0.00000
     11      24.8996      0.00000
     12      28.4204      0.00000

 k-point    26 :      -0.1500    0.2500    0.0500
  band No.  band energies     occupation 
      1      -2.0935      2.00000
      2      -0.7306      2.00000
      3      -0.2034      2.00000
      4       0.3994      2.00000
      5       0.7138      2.00000
      6       2.1579      2.00000
      7      12.9626      0.00000
      8      15.3615      0.00000
      9      20.0994      0.00000
     10      22.5588      0.00000
     11      23.5539      0.00000
     12      26.8734      0.00000

 k-point    27 :      -0.0500    0.2500    0.0500
  band No.  band energies     occupation 
      1      -2.9376      2.00000
      2      -0.5292      2.00000
      3      -0.0336      2.00000
      4       0.0703      2.00000
      5       0.8545      2.00000
      6       1.3438      2.00000
      7      13.9807      0.00000
      8      18.7661      0.00000
      9      20.5368      0.00000
     10      22.6203      0.00000
     11      24.0416      0.00000
     12      25.8447      0.00000

 k-point    28 :       0.3500    0.3500    0.0500
  band No.  band energies     occupation 
      1      -1.9601      2.00000
      2      -1.4568      2.00000
      3       0.7431      2.00000
      4       1.1625      2.00000
      5       1.5626      2.00000
      6       1.5931      2.00000
      7      14.2534      0.00000
      8      15.5139      0.00000
      9      15.5276      0.00000
     10      19.3463      0.00000
     11      21.1147      0.00000
     12      30.8400      0.00000

 k-point    29 :       0.4500    0.3500    0.0500
  band No.  band energies     occupation 
      1      -1.8140      2.00000
      2      -1.5399      2.00000
      3       0.7577      2.00000
      4       1.3949      2.00000
      5       1.7466      2.00000
      6       3.0545      2.00047
      7      11.6923      0.00000
      8      13.8731      0.00000
      9      14.5367      0.00000
     10      20.1846      0.00000
     11      21.9585      0.00000
     12      30.2808      0.00000

 k-point    30 :      -0.4500    0.3500    0.0500
  band No.  band energies     occupation 
      1      -1.6779      2.00000
      2      -1.2780      2.00000
      3       0.4795      2.00000
      4       1.1655      2.00000
      5       1.8911      2.00000
      6       5.3224     -0.00000
      7       8.9387     -0.00000
      8      12.1002      0.00000
      9      14.6725      0.00000
     10      20.4458      0.00000
     11      24.4818      0.00000
     12      29.2976      0.00000

 k-point    31 :      -0.3500    0.3500    0.0500
  band No.  band energies     occupation 
      1      -1.4537      2.00000
      2      -0.8627      2.00000
      3       0.0540      2.00000
      4       0.9169      2.00000
      5       1.6533      2.00000
      6       6.3475     -0.00000
      7       8.4477     -0.00000
      8      10.5479      0.00000
      9      15.7820      0.00000
     10      20.4131      0.00000
     11      27.6299      0.00000
     12      28.1809      0.00000

 k-point    32 :      -0.2500    0.3500    0.0500
  band No.  band energies     occupation 
      1      -1.2469      2.00000
      2      -0.6312      2.00000
      3      -0.3255      2.00000
      4       0.6470      2.00000
      5       1.3467      2.00000
      6       4.7579     -0.00000
      7       9.5820      0.00000
      8      11.5200      0.00000
      9      17.3936      0.00000
     10      20.4803      0.00000
     11      26.5502      0.00000
     12      29.1089      0.00000

 k-point    33 :      -0.1500    0.3500    0.0500
  band No.  band energies     occupation 
      1      -1.7321      2.00000
      2      -0.4968      2.00000
[...]
     11      30.1485      0.00000
     12      32.1225      0.00000

 k-point    94 :       0.4500    0.4500    0.2500
  band No.  band energies     occupation 
      1      -0.9833      2.00000
      2       0.3972      2.00000
      3       1.0911      2.00000
      4       1.8981      2.00000
      5       3.8935      2.00000
      6       5.4190      2.02578
      7      12.3027      0.00000
      8      19.6788      0.00000
      9      20.4739      0.00000
     10      22.8473      0.00000
     11      30.7639      0.00000
     12      32.3269      0.00000

 k-point    95 :      -0.4500    0.4500    0.2500
  band No.  band energies     occupation 
      1      -0.6045      2.00000
      2       0.1188      2.00000
      3       1.0053      2.00000
      4       2.4205      2.00000
      5       3.7458      2.00000
      6       7.0858     -0.00000
      7      11.6263      0.00000
      8      17.1149      0.00000
      9      18.4402      0.00000
     10      24.7400      0.00000
     11      29.8661      0.00000
     12      32.3282      0.00000

 k-point    96 :      -0.3500    0.4500    0.2500
  band No.  band energies     occupation 
      1      -0.2191      2.00000
      2       0.1851      2.00000
      3       0.6530      2.00000
      4       2.5361      2.00000
      5       3.8895      2.00000
      6       8.9335     -0.00000
      7      11.9972      0.00000
      8      13.8905      0.00000
      9      16.7305      0.00000
     10      27.4035      0.00000
     11      29.0572      0.00000
     12      32.4560      0.00000

 k-point    97 :      -0.2500    0.4500    0.2500
  band No.  band energies     occupation 
      1      -0.3453      2.00000
      2       0.1921      2.00000
      3       0.8158      2.00000
      4       2.4903      2.00000
      5       4.1141      2.00000
      6      10.2186     -0.00000
      7      11.6590      0.00000
      8      13.0193      0.00000
      9      15.7425      0.00000
     10      28.1768      0.00000
     11      29.6819      0.00000
     12      31.1237      0.00000

 k-point    98 :      -0.4500   -0.4500    0.2500
  band No.  band energies     occupation 
      1      -0.8206      2.00000
      2      -0.0938      2.00000
      3       1.6429      2.00000
      4       2.5804      2.00000
      5       3.8589      2.00000
      6       8.4260     -0.00000
      7      10.5517     -0.00000
      8      15.4427      0.00000
      9      19.0017      0.00000
     10      23.4978      0.00000
     11      30.4347      0.00000
     12      33.3614      0.00000

 k-point    99 :      -0.3500   -0.4500    0.2500
  band No.  band energies     occupation 
      1      -0.6456      2.00000
      2      -0.1322      2.00000
      3       1.4876      2.00000
      4       2.7348      2.00000
      5       3.8987      2.00000
      6       9.8118     -0.00000
      7      10.7150     -0.00000
      8      13.6467      0.00000
      9      17.3530      0.00000
     10      25.3839      0.00000
     11      30.4231      0.00000
     12      31.8554      0.00000

 k-point   100 :      -0.3500   -0.3500    0.2500
  band No.  band energies     occupation 
      1      -0.8383      2.00000
      2      -0.1867      2.00000
      3       1.8445      2.00000
      4       2.8458      2.00000
      5       3.7337      2.00000
      6       9.6383     -0.00000
      7      10.3721     -0.00000
      8      13.7043      0.00000
      9      18.7078      0.00000
     10      23.7386      0.00000
     11      30.3829      0.00000
     12      33.5516      0.00000

 k-point   101 :       0.3500    0.3500    0.3500
  band No.  band energies     occupation 
      1      -1.8321      2.00000
      2       1.1248      2.00000
      3       1.1248      2.00000
      4       2.0128      2.00000
      5       3.3259      2.00000
      6       3.3259      2.00000
      7      13.1616      0.00000
      8      21.1972      0.00000
      9      24.8863      0.00000
     10      24.8863      0.00000
     11      30.0850      0.00000
     12      30.1162      0.00000

 k-point   102 :       0.4500    0.3500    0.3500
  band No.  band energies     occupation 
      1      -1.4821      2.00000
      2       0.9357      2.00000
      3       1.2386      2.00000
      4       1.9368      2.00000
      5       3.2133      2.00000
      6       4.5979      2.00000
      7      12.0481      0.00000
      8      20.6689      0.00000
      9      22.3072      0.00000
     10      24.8924      0.00000
     11      29.5208      0.00000
     12      30.9679      0.00000

 k-point   103 :      -0.4500    0.3500    0.3500
  band No.  band energies     occupation 
      1      -0.7642      2.00000
      2       0.5500      2.00000
      3       1.3772      2.00000
      4       1.7077      2.00000
      5       3.1899      2.00000
      6       6.3603     -0.00039
      7      11.5152      0.00000
      8      17.4993      0.00000
      9      22.4094      0.00000
     10      23.1393      0.00000
     11      29.9934      0.00000
     12      32.1680      0.00000

 k-point   104 :      -0.3500    0.3500    0.3500
  band No.  band energies     occupation 
      1      -0.4939      2.00000
      2       0.3668      2.00000
      3       1.1157      2.00000
      4       2.3485      2.00000
      5       3.3425      2.00000
      6       8.0285     -0.00000
      7      11.8592      0.00000
      8      13.9855      0.00000
      9      20.7974      0.00000
     10      23.1440      0.00000
     11      31.7203      0.00000
     12      32.8567      0.00000

 k-point   105 :       0.4500    0.4500    0.3500
  band No.  band energies     occupation 
      1      -1.4815      2.00000
      2       0.8438      2.00000
      3       1.2400      2.00000
      4       2.1475      2.00000
      5       3.8315      2.00000
      6       4.8928      2.00000
      7      10.7892     -0.00000
      8      20.8597      0.00000
      9      22.5712      0.00000
     10      23.0763      0.00000
     11      31.1270      0.00000
     12      31.4251      0.00000

 k-point   106 :      -0.4500    0.4500    0.3500
  band No.  band energies     occupation 
      1      -1.0071      2.00000
      2       0.5313      2.00000
      3       1.5363      2.00000
      4       1.7463      2.00000
      5       3.6789      2.00000
      6       6.7125     -0.00000
      7       9.9994     -0.00000
      8      19.4925      0.00000
      9      20.3753      0.00000
     10      23.6082      0.00000
     11      30.4631      0.00000
     12      32.7560      0.00000

 k-point   107 :      -0.3500    0.4500    0.3500
  band No.  band energies     occupation 
      1      -0.4024      2.00000
      2       0.1812      2.00000
      3       1.1111      2.00000
      4       2.1870      2.00000
      5       3.6350      2.00000
      6       8.6036     -0.00000
      7      10.0032     -0.00000
      8      16.0982      0.00000
      9      19.0397      0.00000
     10      24.6565      0.00000
     11      30.3926      0.00000
     12      34.4003      0.00000

 k-point   108 :      -0.4500   -0.4500    0.3500
  band No.  band energies     occupation 
      1      -0.8926      2.00000
      2       0.4425      2.00000
      3       1.5846      2.00000
      4       1.7400      2.00000
      5       3.7784      2.00000
      6       7.9552     -0.00000
      7       9.0382     -0.00000
      8      18.2507      0.00000
      9      21.2555      0.00000
     10      22.3767      0.00000
     11      31.9682      0.00000
     12      32.2069      0.00000

 k-point   109 :       0.4500    0.4500    0.4500
  band No.  band energies     occupation 
      1      -1.7349      2.00000
      2       0.9797      2.00000
      3       0.9797      2.00000
      4       3.7767      2.00000
      5       3.7767      2.00000
      6       4.1491      2.00000
      7       9.6961     -0.00000
      8      20.5319      0.00000
      9      23.6967      0.00000
     10      23.6967      0.00000
     11      30.8120      0.00000
     12      30.8120      0.00000

 k-point   110 :      -0.4500    0.4500    0.4500
  band No.  band energies     occupation 
      1      -1.4724      2.00000
      2       0.7997      2.00000
      3       1.1597      2.00000
      4       2.7156      2.00000
      5       3.7536      2.00000
      6       6.0602     -0.06596
      7       9.0592     -0.00000
      8      20.5013      0.00000
      9      22.0942      0.00000
     10      23.1172      0.00000
     11      31.1268      0.00000
     12      31.3115      0.00000


--------------------------------------------------------------------------------------------------------


 soft charge-density along one line, spin component           1
         0         1         2         3         4         5         6         7         8         9
 total charge-density along one line
 
 pseudopotential strength for first ion, spin component:           1
 -9.721   0.000   0.000   0.000   0.000   0.000   0.000   0.000  -0.000   0.000  -0.108   0.000  -0.000   0.000  -0.000   0.000
  0.000   0.000  -9.721   0.000  -0.000   0.000   0.000   0.000   0.000   0.000  -0.000   0.000  -0.108   0.000   0.000   0.000
  0.000   0.000  -0.000   0.000  -9.702   0.000  -0.000   0.000   0.000   0.000  -0.000   0.000   0.000   0.000  -0.110   0.000
  0.000   0.000   0.000   0.000  -0.000   0.000  -9.721   0.000  -0.000   0.000  -0.000   0.000  -0.000   0.000   0.000   0.000
 -0.000   0.000   0.000   0.000   0.000   0.000  -0.000   0.000  -9.702   0.000   0.000   0.000  -0.000   0.000  -0.000   0.000
 -0.108   0.000  -0.000   0.000  -0.000   0.000  -0.000   0.000   0.000   0.000   0.285   0.000   0.000   0.000   0.000   0.000
 -0.000   0.000  -0.108   0.000   0.000   0.000  -0.000   0.000  -0.000   0.000   0.000   0.000   0.285   0.000  -0.000   0.000
 -0.000   0.000   0.000   0.000  -0.110   0.000   0.000   0.000  -0.000   0.000   0.000   0.000  -0.000   0.000   0.285   0.000
 -0.000   0.000  -0.000   0.000   0.000   0.000  -0.108   0.000   0.000   0.000   0.000   0.000   0.000   0.000  -0.000   0.000
  0.000   0.000  -0.000   0.000  -0.000   0.000   0.000   0.000  -0.110   0.000  -0.000   0.000   0.000   0.000   0.000   0.000
  0.000   0.000   0.000   0.000   0.000   0.000   0.000   0.000   0.000   0.000   0.000   0.000   0.000   0.000  -0.000   0.000
 -0.000   0.000  -0.000   0.000  -0.000   0.000  -0.000   0.000  -0.000   0.000   0.000   0.000   0.000   0.000   0.000   0.000
 -0.000   0.000  -0.000   0.000  -0.000   0.000  -0.000   0.000  -0.000   0.000   0.000   0.000   0.000   0.000   0.000   0.000
 -0.000   0.000   0.000   0.000  -0.000   0.000  -0.000   0.000  -0.000   0.000   0.000   0.000  -0.000   0.000   0.000   0.000
  0.000   0.000  -0.000   0.000   0.000   0.000  -0.000   0.000  -0.000   0.000  -0.000   0.000   0.000   0.000  -0.000   0.000
  0.000   0.000   0.000   0.000   0.000   0.000   0.000   0.000   0.000   0.000  -0.000   0.000  -0.000   0.000  -0.000   0.000
  0.000   0.000  -0.000   0.000   0.000   0.000   0.000   0.000   0.000   0.000  -0.000   0.000   0.000   0.000  -0.000   0.000
 -0.000   0.000   0.000   0.000  -0.000   0.000   0.000   0.000   0.000   0.000   0.000   0.000  -0.000   0.000   0.000   0.000
 total augmentation occupancy for first ion, spin component:           1
  1.904   0.000   0.000   0.000  -0.000  -0.027  -0.000   0.000  -0.000  -0.000   0.000   0.000   0.000   0.000   0.000   0.000
  0.000   1.904   0.000   0.000  -0.000  -0.000  -0.027   0.000   0.000   0.000   0.000   0.000   0.000   0.000   0.000   0.000
 -0.000   0.000   1.953   0.000   0.000   0.000  -0.000  -0.076   0.000   0.000   0.000   0.000   0.000   0.000   0.000   0.000
  0.000  -0.000   0.000   1.904   0.000   0.000  -0.000  -0.000  -0.027  -0.000   0.000  -0.000   0.000   0.000   0.000   0.000
  0.000  -0.000   0.000   0.000   1.953   0.000   0.000   0.000  -0.000  -0.076   0.000  -0.000   0.000   0.000   0.000   0.000
 -0.027  -0.000   0.000   0.000  -0.000   0.241   0.000   0.000   0.000  -0.000   0.000  -0.000   0.000   0.000   0.000   0.000
 -0.000  -0.027  -0.000  -0.000   0.000   0.000   0.241  -0.000   0.000  -0.000  -0.000  -0.000   0.000   0.000   0.000   0.000
  0.000  -0.000  -0.076  -0.000   0.000   0.000  -0.000   0.191   0.000   0.000  -0.000   0.000   0.000   0.000   0.000   0.000
  0.000   0.000  -0.000  -0.027  -0.000   0.000  -0.000   0.000   0.241  -0.000   0.000  -0.000   0.000   0.000   0.000   0.000
 -0.000   0.000   0.000   0.000  -0.076  -0.000   0.000   0.000   0.000   0.191   0.000   0.000   0.000   0.000   0.000   0.000
  0.000   0.000   0.000  -0.000   0.000   0.000  -0.000  -0.000   0.000   0.000   1.089  -0.398   0.000   0.000   0.000   0.000
  0.000   0.000   0.000  -0.000   0.000   0.000   0.000   0.000   0.000   0.000  -0.398   0.267   0.000   0.000   0.000   0.000
  0.000   0.000   0.000   0.000   0.000   0.000   0.000   0.000   0.000   0.000   0.000   0.000   0.174   0.000   0.000  -0.013
  0.000   0.000   0.000   0.000   0.000   0.000   0.000   0.000   0.000   0.000   0.000   0.000   0.000   0.174  -0.000   0.000
  0.000   0.000   0.000   0.000   0.000   0.000   0.000   0.000   0.000   0.000   0.000   0.000   0.000  -0.000   0.174  -0.000
  0.000   0.000   0.000   0.000   0.000   0.000   0.000   0.000   0.000   0.000   0.000   0.000  -0.013   0.000  -0.000   0.001
  0.000   0.000   0.000   0.000   0.000   0.000   0.000   0.000   0.000   0.000   0.000   0.000  -0.000  -0.013  -0.000  -0.000
  0.000   0.000   0.000   0.000   0.000   0.000   0.000   0.000   0.000   0.000   0.000   0.000   0.000   0.000  -0.013  -0.000


------------------------ aborting loop because EDIFF is reached ----------------------------------------


    CHARGE:  cpu time    0.0427: real time    0.0428
    FORLOC:  cpu time    0.0000: real time    0.0005
    FORNL :  cpu time    0.0174: real time    0.0178
    STRESS:  cpu time    0.1126: real time    0.1129
    FORCOR:  cpu time    0.0030: real time    0.0030
    FORHAR:  cpu time    0.0023: real time    0.0023
    MIXING:  cpu time    0.0005: real time    0.0005
    OFIELD:  cpu time    0.0001: real time    0.0001

  FORCE on cell =-STRESS in cart. coord.  units (eV):
  Direction    XX          YY          ZZ          XY          YZ          ZX
  --------------------------------------------------------------------------------------
  Alpha Z   110.04864   110.04864   110.04864
  Ewald    -328.13486  -328.13486  -328.13486    -0.00000     0.00000    -0.00000
  Hartree    36.38184    36.38184    36.38184     0.00000     0.00000     0.00000
  E(xc)     -49.13337   -49.13337   -49.13337    -0.00000    -0.00000    -0.00000
  Local      82.91245    82.91245    82.91245     0.00000     0.00000     0.00000
  n-local   -48.77835   -45.90763   -49.66387     0.59821    -0.65968     0.01483
  augment    42.44164    42.44164    42.44164    -0.00000    -0.00000    -0.00000
  Kinetic   153.56982   152.44799   154.63722    -0.39173     0.19547     0.01299
  Fock        0.00000     0.00000     0.00000     0.00000     0.00000     0.00000
  -------------------------------------------------------------------------------------
  Total      -0.04860    -0.04860    -0.04860     0.00000    -0.00000    -0.00000
  in kB      -4.66292    -4.66292    -4.66292     0.00000    -0.00000    -0.00000
  external pressure =       -4.66 kB  Pullay stress =        0.00 kB


 VOLUME and BASIS-vectors are now :
 -----------------------------------------------------------------------------
  energy-cutoff  :      300.00
  volume of cell :       16.70
      direct lattice vectors                 reciprocal lattice vectors
    -0.000000000  2.028776053  2.028776053    -0.246454013  0.246454013  0.246454013
     2.028776053  0.000000000  2.028776053     0.246454013 -0.246454013  0.246454013
     2.028776053  2.028776053  0.000000000     0.246454013  0.246454013 -0.246454013

  length of vectors
     2.869122609  2.869122609  2.869122609     0.426870872  0.426870872  0.426870872


 FORCES acting on ions
    electron-ion (+dipol)            ewald-force                    non-local-force                 convergence-correction
 -----------------------------------------------------------------------------------------------
   0.795E-14 -.420E-14 0.906E-14   0.485E-15 0.144E-15 -.371E-14   0.000E+00 0.000E+00 -.276E-25   -.179E-14 0.376E-14 0.143E-13
 -----------------------------------------------------------------------------------------------
   0.795E-14 -.420E-14 0.906E-14   0.485E-15 0.144E-15 -.371E-14   0.000E+00 0.000E+00 -.276E-25   -.179E-14 0.376E-14 0.143E-13
 
 
 POSITION                                       TOTAL-FORCE (eV/Angst)
 -----------------------------------------------------------------------------------
     -0.00000     -0.00000      0.00000         0.000000      0.000000      0.000000
 -----------------------------------------------------------------------------------
    total drift:                                0.000000     -0.000000      0.000000


--------------------------------------------------------------------------------------------------------



  FREE ENERGIE OF THE ION-ELECTRON SYSTEM (eV)
  ---------------------------------------------------
  free  energy   TOTEN  =        -4.42122041 eV

  energy  without entropy=       -4.42211956  energy(sigma->0) =       -4.42152012
 
 d Force = 0.0000000E+00[ 0.000E+00, 0.000E+00]  d Energy = 0.5808591E-03-0.581E-03
 d Force = 0.0000000E+00[ 0.000E+00, 0.000E+00]  d Ewald  = 0.1992182E+01-0.199E+01


--------------------------------------------------------------------------------------------------------


    POTLOK:  cpu time    0.0057: real time    0.0057


--------------------------------------------------------------------------------------------------------




--------------------------------------------------------------------------------------------------------


  
 reached required accuracy - stopping structural energy minimisation
 writing wavefunctions
     LOOP+:  cpu time    2.9187: real time    2.9508
    4ORBIT:  cpu time    0.0000: real time    0.0000

volume of typ            1:    85.2 %
 
total charge     
 
# of ion       s       p       d       tot
------------------------------------------
    1        0.600   0.470   8.863   9.933
 
orbital moment (x)
 
# of ion     s             p             d             tot
-----------------------------------------------------------------
    1     0.000000E+00  0.587441E-09 -0.205952E-09  0.381489E-09
 
orbital moment (y)
 
# of ion     s             p             d             tot
-----------------------------------------------------------------
    1     0.000000E+00  0.599667E-09 -0.656689E-10  0.533999E-09
 
orbital moment (z)
 
# of ion     s             p             d             tot
-----------------------------------------------------------------
    1     0.000000E+00  0.121357E-10  0.227664E-10  0.349021E-10
 

 total amount of memory used by VASP MPI-rank0    37479. kBytes
=======================================================================

   base      :      30000. kBytes
   nonl-proj :       4059. kBytes
   fftplans  :        829. kBytes
   grid      :       1119. kBytes
   one-center:         15. kBytes
   wavefun   :       1457. kBytes
 
  
  
 General timing and accounting informations for this job:
 ========================================================
  
                  Total CPU time used (sec):       21.570
                            User time (sec):       20.336
                          System time (sec):        1.234
                         Elapsed time (sec):       22.215
  
                   Maximum memory used (kb):       63384.
                   Average memory used (kb):           0.
  
                          Minor page faults:        62092
                          Major page faults:            2
                 Voluntary context switches:         5544
