PROCAR new format
# of k-points:  110         # of bands:   12         # of ions:    1

 k-point     1 :    0.05000000 0.05000000 0.05000000     weight = 0.00200000

band     1 # energy   -4.23871026 # occ.  2.00000000
 
ion      s      p      d    tot
    1  0.689  0.005  0.000  0.694
 
band     2 # energy    0.96281206 # occ.  2.00000000
 
ion      s      p      d    tot
    1  0.000  0.001  0.945  0.946
 
band     3 # energy    1.02449216 # occ.  2.00000000
 
ion      s      p      d    tot
    1  0.000  0.000  0.948  0.948
 
band     4 # energy    1.02449216 # occ.  2.00000000
 
ion      s      p      d    tot
    1  0.000  0.000  0.948  0.948
 
band     5 # energy    2.57563816 # occ.  2.00000000
 
ion      s      p      d    tot
    1  0.000  0.000  0.968  0.968
 
band     6 # energy    2.57563816 # occ.  2.00000000
 
ion      s      p      d    tot
    1  0.000  0.000  0.968  0.968
 
band     7 # energy   21.24707497 # occ.  0.00000000
 
ion      s      p      d    tot
    1  0.000  0.000  0.011  0.011
 
band     8 # energy   24.42659230 # occ.  0.00000000
 
ion      s      p      d    tot
    1  0.014  0.206  0.013  0.233
 
band     9 # energy   25.20259473 # occ.  0.00000000
 
ion      s      p      d    tot
    1  0.000  0.222  0.008  0.231
 
band    10 # energy   25.20259473 # occ.  0.00000000
 
ion      s      p      d    tot
    1  0.000  0.222  0.008  0.231
 
band    11 # energy   30.06797316 # occ.  0.00000000
 
ion      s      p      d    tot
    1  0.046  0.055  0.013  0.114
 
band    12 # energy   33.16394207 # occ.  0.00000000
 
ion      s      p      d    tot
    1  0.010  0.146  0.398  0.554
 

 k-point     2 :    0.15000000 0.05000000 0.05000000     weight = 0.00600000

band     1 # energy   -3.77648651 # occ.  2.00000000
 
ion      s      p      d    tot
    1  0.662  0.029  0.004  0.696
 
band     2 # energy    0.80554474 # occ.  2.00000000
 
ion      s      p      d    tot
    1  0.000  0.006  0.930  0.937
 
band     3 # energy    1.16771833 # occ.  2.00000000
 
ion      s      p      d    tot
    1  0.000  0.000  0.948  0.948
 
band     4 # energy    1.20092424 # occ.  2.00000000
 
ion      s      p      d    tot
    1  0.001  0.005  0.941  0.947
 
band     5 # energy    2.42275548 # occ.  2.00000000
 
ion      s      p      d    tot
    1  0.000  0.000  0.961  0.961
 
band     6 # energy    2.62773337 # occ.  2.00000000
 
ion      s      p      d    tot
    1  0.000  0.000  0.965  0.966
 
band     7 # energy   21.59042454 # occ.  0.00000000
 
ion      s      p      d    tot
    1  0.005  0.043  0.094  0.141
 
band     8 # energy   22.45899678 # occ.  0.00000000
 
ion      s      p      d    tot
    1  0.043  0.174  0.032  0.250
 
band     9 # energy   24.84329947 # occ.  0.00000000
 
ion      s      p      d    tot
    1  0.000  0.286  0.055  0.342
 
band    10 # energy   26.14109459 # occ.  0.00000000
 
ion      s      p      d    tot
    1  0.000  0.215  0.039  0.254
 
band    11 # energy   29.53294328 # occ.  0.00000000
 
ion      s      p      d    tot
    1  0.002  0.292  0.148  0.443
 
band    12 # energy   32.18600826 # occ.  0.00000000
 
ion      s      p      d    tot
    1  0.001  0.168  0.237  0.406
 

 k-point     3 :    0.25000000 0.05000000 0.05000000     weight = 0.00600000

band     1 # energy   -2.77767828 # occ.  2.00000000
 
ion      s      p      d    tot
    1  0.581  0.069  0.061  0.711
 
band     2 # energy    0.68494944 # occ.  2.00000000
 
ion      s      p      d    tot
    1  0.017  0.038  0.853  0.909
 
band     3 # energy    1.32409099 # occ.  2.00000000
 
ion      s      p      d    tot
    1  0.002  0.008  0.932  0.942
 
band     4 # energy    1.34728966 # occ.  2.00000000
 
ion      s      p      d    tot
    1  0.000  0.001  0.946  0.947
 
band     5 # energy    2.43261791 # occ.  2.00000000
 
ion      s      p      d    tot
    1  0.000  0.001  0.953  0.955
 
band     6 # energy    2.84974391 # occ.  2.00000000
 
ion      s      p      d    tot
    1  0.003  0.004  0.954  0.961
 
band     7 # energy   18.58194411 # occ.  0.00000000
 
ion      s      p      d    tot
    1  0.104  0.285  0.163  0.552
 
band     8 # energy   22.20671832 # occ.  0.00000000
 
ion      s      p      d    tot
    1  0.003  0.030  0.107  0.140
 
band     9 # energy   25.04295072 # occ.  0.00000000
 
ion      s      p      d    tot
    1  0.003  0.387  0.115  0.506
 
band    10 # energy   27.44655913 # occ.  0.00000000
 
ion      s      p      d    tot
    1  0.000  0.326  0.123  0.449
 
band    11 # energy   27.49921948 # occ.  0.00000000
 
ion      s      p      d    tot
    1  0.022  0.197  0.038  0.257
 
band    12 # energy   29.96988709 # occ.  0.00000000
 
ion      s      p      d    tot
    1  0.000  0.226  0.220  0.446
 

 k-point     4 :    0.35000000 0.05000000 0.05000000     weight = 0.00600000

band     1 # energy   -1.88903975 # occ.  2.00000000
 
ion      s      p      d    tot
    1  0.386  0.051  0.344  0.781
 
band     2 # energy    1.13939194 # occ.  2.00000000
 
ion      s      p      d    tot
    1  0.014  0.019  0.895  0.929
 
band     3 # energy    1.22862225 # occ.  2.00000000
 
ion      s      p      d    tot
    1  0.000  0.000  0.942  0.942
 
band     4 # energy    1.36935377 # occ.  2.00000000
 
ion      s      p      d    tot
    1  0.092  0.151  0.589  0.832
 
band     5 # energy    2.93748522 # occ.  2.00000000
 
ion      s      p      d    tot
    1  0.000  0.003  0.956  0.959
 
band     6 # energy    3.43638815 # occ.  2.00000000
 
ion      s      p      d    tot
    1  0.016  0.016  0.925  0.957
 
band     7 # energy   14.53850490 # occ.  0.00000000
 
ion      s      p      d    tot
    1  0.200  0.296  0.208  0.704
 
band     8 # energy   21.51354196 # occ.  0.00000000
 
ion      s      p      d    tot
    1  0.000  0.038  0.069  0.108
 
band     9 # energy   24.08543371 # occ.  0.00000000
 
ion      s      p      d    tot
    1  0.010  0.482  0.100  0.592
 
band    10 # energy   26.31169032 # occ.  0.00000000
 
ion      s      p      d    tot
    1  0.000  0.531  0.087  0.619
 
band    11 # energy   28.68074808 # occ.  0.00000000
 
ion      s      p      d    tot
    1  0.028  0.073  0.137  0.238
 
band    12 # energy   29.78833302 # occ.  0.00000000
 
ion      s      p      d    tot
    1  0.000  0.005  0.357  0.362
 

 k-point     5 :    0.45000000 0.05000000 0.05000000     weight = 0.00600000

band     1 # energy   -1.67133159 # occ.  2.00000000
 
ion      s      p      d    tot
    1  0.235  0.011  0.596  0.842
 
band     2 # energy    0.98375761 # occ.  2.00000000
 
ion      s      p      d    tot
    1  0.000  0.002  0.934  0.936
 
band     3 # energy    1.05595919 # occ.  2.00000000
 
ion      s      p      d    tot
    1  0.000  0.000  0.938  0.938
 
band     4 # energy    2.90685293 # occ.  2.00000000
 
ion      s      p      d    tot
    1  0.063  0.242  0.501  0.806
 
band     5 # energy    3.55372596 # occ.  2.00000000
 
ion      s      p      d    tot
    1  0.000  0.001  0.968  0.969
 
band     6 # energy    4.32431076 # occ.  2.00000000
 
ion      s      p      d    tot
    1  0.065  0.164  0.641  0.870
 
band     7 # energy   10.72766358 # occ. -0.00000000
 
ion      s      p      d    tot
    1  0.344  0.182  0.281  0.807
 
band     8 # energy   20.73275724 # occ.  0.00000000
 
ion      s      p      d    tot
    1  0.000  0.028  0.027  0.055
 
band     9 # energy   23.13546410 # occ.  0.00000000
 
ion      s      p      d    tot
    1  0.009  0.501  0.046  0.556
 
band    10 # energy   24.25736304 # occ.  0.00000000
 
ion      s      p      d    tot
    1  0.000  0.513  0.030  0.543
 
band    11 # energy   30.49357935 # occ.  0.00000000
 
ion      s      p      d    tot
    1  0.017  0.010  0.389  0.416
 
band    12 # energy   30.77781663 # occ.  0.00000000
 
ion      s      p      d    tot
    1  0.000  0.006  0.521  0.527
 

 k-point     6 :   -0.45000000 0.05000000 0.05000000     weight = 0.00600000

band     1 # energy   -1.66758187 # occ.  2.00000000
 
ion      s      p      d    tot
    1  0.206  0.004  0.644  0.853
 
band     2 # energy    0.91535173 # occ.  2.00000000
 
ion      s      p      d    tot
    1  0.000  0.001  0.933  0.934
 
band     3 # energy    1.01538139 # occ.  2.00000000
 
ion      s      p      d    tot
    1  0.000  0.001  0.937  0.937
 
band     4 # energy    3.33849503 # occ.  2.00000000
 
ion      s      p      d    tot
    1  0.002  0.141  0.742  0.885
 
band     5 # energy    3.84676212 # occ.  2.00000000
 
ion      s      p      d    tot
    1  0.000  0.000  0.977  0.977
 
band     6 # energy    5.18368313 # occ.  2.00016904
 
ion      s      p      d    tot
    1  0.010  0.454  0.249  0.713
 
band     7 # energy    9.05623250 # occ. -0.00000000
 
ion      s      p      d    tot
    1  0.488  0.017  0.381  0.886
 
band     8 # energy   20.51945299 # occ.  0.00000000
 
ion      s      p      d    tot
    1  0.000  0.024  0.016  0.040
 
band     9 # energy   23.18729732 # occ.  0.00000000
 
ion      s      p      d    tot
    1  0.010  0.501  0.029  0.539
 
band    10 # energy   23.30815332 # occ.  0.00000000
 
ion      s      p      d    tot
    1  0.000  0.515  0.016  0.531
 
band    11 # energy   31.00240748 # occ.  0.00000000
 
ion      s      p      d    tot
    1  0.000  0.001  0.523  0.524
 
band    12 # energy   31.07994345 # occ.  0.00000000
 
ion      s      p      d    tot
    1  0.002  0.001  0.534  0.537
 

 k-point     7 :   -0.35000000 0.05000000 0.05000000     weight = 0.00600000

band     1 # energy   -1.69666957 # occ.  2.00000000
 
ion      s      p      d    tot
    1  0.268  0.020  0.541  0.828
 
band     2 # energy    1.01522955 # occ.  2.00000000
 
ion      s      p      d    tot
    1  0.000  0.000  0.936  0.936
 
band     3 # energy    1.12894432 # occ.  2.00000000
 
ion      s      p      d    tot
    1  0.000  0.002  0.938  0.940
 
band     4 # energy    2.32781751 # occ.  2.00000000
 
ion      s      p      d    tot
    1  0.099  0.232  0.465  0.796
 
band     5 # energy    3.63791026 # occ.  2.00000000
 
ion      s      p      d    tot
    1  0.000  0.001  0.971  0.972
 
band     6 # energy    3.76043006 # occ.  2.00000000
 
ion      s      p      d    tot
    1  0.053  0.094  0.760  0.907
 
band     7 # energy   11.91163502 # occ.  0.00000000
 
ion      s      p      d    tot
    1  0.287  0.238  0.247  0.773
 
band     8 # energy   20.97259610 # occ.  0.00000000
 
ion      s      p      d    tot
    1  0.000  0.025  0.030  0.055
 
band     9 # energy   23.61338061 # occ.  0.00000000
 
ion      s      p      d    tot
    1  0.000  0.515  0.064  0.579
 
band    10 # energy   24.45389083 # occ.  0.00000000
 
ion      s      p      d    tot
    1  0.013  0.491  0.066  0.570
 
band    11 # energy   30.44221706 # occ.  0.00000000
 
ion      s      p      d    tot
    1  0.006  0.036  0.396  0.439
 
band    12 # energy   30.58485819 # occ.  0.00000000
 
ion      s      p      d    tot
    1  0.000  0.002  0.369  0.371
 

 k-point     8 :   -0.25000000 0.05000000 0.05000000     weight = 0.00600000

band     1 # energy   -2.11253709 # occ.  2.00000000
 
ion      s      p      d    tot
    1  0.461  0.066  0.224  0.751
 
band     2 # energy    0.94124315 # occ.  2.00000000
 
ion      s      p      d    tot
    1  0.066  0.099  0.701  0.866
 
band     3 # energy    1.24400975 # occ.  2.00000000
 
ion      s      p      d    tot
    1  0.005  0.013  0.915  0.932
 
band     4 # energy    1.30651365 # occ.  2.00000000
 
ion      s      p      d    tot
    1  0.000  0.003  0.940  0.944
 
band     5 # energy    2.84362126 # occ.  2.00000000
 
ion      s      p      d    tot
    1  0.012  0.013  0.925  0.950
 
band     6 # energy    3.11907029 # occ.  2.00000000
 
ion      s      p      d    tot
    1  0.000  0.002  0.962  0.964
 
band     7 # energy   15.89665621 # occ.  0.00000000
 
ion      s      p      d    tot
    1  0.164  0.305  0.194  0.662
 
band     8 # energy   21.89453264 # occ.  0.00000000
 
ion      s      p      d    tot
    1  0.000  0.022  0.075  0.098
 
band     9 # energy   24.58703007 # occ.  0.00000000
 
ion      s      p      d    tot
    1  0.000  0.484  0.142  0.626
 
band    10 # energy   26.44381196 # occ.  0.00000000
 
ion      s      p      d    tot
    1  0.026  0.446  0.110  0.582
 
band    11 # energy   28.35474790 # occ.  0.00000000
 
ion      s      p      d    tot
    1  0.007  0.162  0.127  0.295
 
band    12 # energy   30.16624709 # occ.  0.00000000
 
ion      s      p      d    tot
    1  0.000  0.027  0.183  0.210
 

 k-point     9 :   -0.15000000 0.05000000 0.05000000     weight = 0.00600000

band     1 # energy   -3.14445575 # occ.  2.00000000
 
ion      s      p      d    tot
    1  0.617  0.058  0.028  0.702
 
band     2 # energy    0.67376939 # occ.  2.00000000
 
ion      s      p      d    tot
    1  0.007  0.021  0.895  0.922
 
band     3 # energy    1.31599816 # occ.  2.00000000
 
ion      s      p      d    tot
    1  0.001  0.004  0.940  0.945
 
band     4 # energy    1.32945638 # occ.  2.00000000
 
ion      s      p      d    tot
    1  0.000  0.004  0.943  0.947
 
band     5 # energy    2.38757678 # occ.  2.00000000
 
ion      s      p      d    tot
    1  0.002  0.002  0.950  0.955
 
band     6 # energy    2.72137428 # occ.  2.00000000
 
ion      s      p      d    tot
    1  0.000  0.001  0.963  0.964
 
band     7 # energy   19.86740373 # occ.  0.00000000
 
ion      s      p      d    tot
    1  0.077  0.261  0.148  0.485
 
band     8 # energy   22.29966760 # occ.  0.00000000
 
ion      s      p      d    tot
    1  0.006  0.004  0.072  0.082
 
band     9 # energy   25.04817816 # occ.  0.00000000
 
ion      s      p      d    tot
    1  0.000  0.366  0.126  0.492
 
band    10 # energy   26.59302351 # occ.  0.00000000
 
ion      s      p      d    tot
    1  0.000  0.216  0.079  0.295
 
band    11 # energy   28.24372700 # occ.  0.00000000
 
ion      s      p      d    tot
    1  0.025  0.340  0.067  0.432
 
band    12 # energy   30.83781110 # occ.  0.00000000
 
ion      s      p      d    tot
    1  0.000  0.121  0.170  0.291
 

 k-point    10 :   -0.05000000 0.05000000 0.05000000     weight = 0.00600000

band     1 # energy   -4.00359765 # occ.  2.00000000
 
ion      s      p      d    tot
    1  0.676  0.018  0.001  0.695
 
band     2 # energy    0.85172639 # occ.  2.00000000
 
ion      s      p      d    tot
    1  0.000  0.002  0.940  0.942
 
band     3 # energy    1.12284005 # occ.  2.00000000
 
ion      s      p      d    tot
    1  0.000  0.002  0.945  0.948
 
band     4 # energy    1.12877083 # occ.  2.00000000
 
ion      s      p      d    tot
    1  0.000  0.002  0.945  0.948
 
band     5 # energy    2.44718573 # occ.  2.00000000
 
ion      s      p      d    tot
    1  0.000  0.000  0.962  0.963
 
band     6 # energy    2.63494335 # occ.  2.00000000
 
ion      s      p      d    tot
    1  0.000  0.000  0.968  0.968
 
band     7 # energy   21.49451064 # occ.  0.00000000
 
ion      s      p      d    tot
    1  0.000  0.004  0.042  0.046
 
band     8 # energy   23.50582755 # occ.  0.00000000
 
ion      s      p      d    tot
    1  0.032  0.189  0.031  0.253
 
band     9 # energy   24.95205179 # occ.  0.00000000
 
ion      s      p      d    tot
    1  0.000  0.266  0.043  0.309
 
band    10 # energy   25.32850112 # occ.  0.00000000
 
ion      s      p      d    tot
    1  0.002  0.225  0.030  0.257
 
band    11 # energy   30.68897613 # occ.  0.00000000
 
ion      s      p      d    tot
    1  0.004  0.238  0.103  0.346
 
band    12 # energy   32.38892400 # occ.  0.00000000
 
ion      s      p      d    tot
    1  0.000  0.161  0.337  0.498
 

 k-point    11 :    0.15000000 0.15000000 0.05000000     weight = 0.00600000

band     1 # energy   -3.54707420 # occ.  2.00000000
 
ion      s      p      d    tot
    1  0.649  0.042  0.006  0.696
 
band     2 # energy    0.63002052 # occ.  2.00000000
 
ion      s      p      d    tot
    1  0.000  0.002  0.933  0.935
 
band     3 # energy    1.32987077 # occ.  2.00000000
 
ion      s      p      d    tot
    1  0.000  0.006  0.940  0.946
 
band     4 # energy    1.33381923 # occ.  2.00000000
 
ion      s      p      d    tot
    1  0.000  0.006  0.941  0.947
 
band     5 # energy    2.22218639 # occ.  2.00000000
 
ion      s      p      d    tot
    1  0.003  0.001  0.949  0.953
 
band     6 # energy    2.74928938 # occ.  2.00000000
 
ion      s      p      d    tot
    1  0.000  0.000  0.968  0.968
 
band     7 # energy   21.89460939 # occ.  0.00000000
 
ion      s      p      d    tot
    1  0.004  0.038  0.110  0.152
 
band     8 # energy   22.63276497 # occ.  0.00000000
 
ion      s      p      d    tot
    1  0.046  0.157  0.051  0.254
 
band     9 # energy   24.29720009 # occ.  0.00000000
 
ion      s      p      d    tot
    1  0.000  0.340  0.100  0.441
 
band    10 # energy   24.92391947 # occ.  0.00000000
 
ion      s      p      d    tot
    1  0.005  0.242  0.079  0.326
 
band    11 # energy   29.94437379 # occ.  0.00000000
 
ion      s      p      d    tot
    1  0.045  0.460  0.074  0.579
 
band    12 # energy   31.61989390 # occ.  0.00000000
 
ion      s      p      d    tot
    1  0.000  0.124  0.197  0.321
 

 k-point    12 :    0.25000000 0.15000000 0.05000000     weight = 0.01200000

band     1 # energy   -2.71675566 # occ.  2.00000000
 
ion      s      p      d    tot
    1  0.587  0.080  0.036  0.704
 
band     2 # energy    0.37656858 # occ.  2.00000000
 
ion      s      p      d    tot
    1  0.001  0.009  0.913  0.923
 
band     3 # energy    1.43032964 # occ.  2.00000000
 
ion      s      p      d    tot
    1  0.000  0.008  0.931  0.939
 
band     4 # energy    1.61951156 # occ.  2.00000000
 
ion      s      p      d    tot
    1  0.000  0.007  0.939  0.947
 
band     5 # energy    2.16841552 # occ.  2.00000000
 
ion      s      p      d    tot
    1  0.014  0.011  0.919  0.943
 
band     6 # energy    2.97759133 # occ.  2.00000000
 
ion      s      p      d    tot
    1  0.003  0.003  0.961  0.966
 
band     7 # energy   20.12527837 # occ.  0.00000000
 
ion      s      p      d    tot
    1  0.085  0.271  0.133  0.488
 
band     8 # energy   21.92658599 # occ.  0.00000000
 
ion      s      p      d    tot
    1  0.007  0.192  0.205  0.404
 
band     9 # energy   23.90235016 # occ.  0.00000000
 
ion      s      p      d    tot
    1  0.000  0.235  0.087  0.322
 
band    10 # energy   25.15910548 # occ.  0.00000000
 
ion      s      p      d    tot
    1  0.003  0.162  0.130  0.296
 
band    11 # energy   27.91620735 # occ.  0.00000000
 
ion      s      p      d    tot
    1  0.091  0.529  0.021  0.640
 
band    12 # energy   30.78907320 # occ.  0.00000000
 
ion      s      p      d    tot
    1  0.004  0.141  0.168  0.314
 

 k-point    13 :    0.35000000 0.15000000 0.05000000     weight = 0.01200000

band     1 # energy   -1.69974942 # occ.  2.00000000
 
ion      s      p      d    tot
    1  0.431  0.089  0.230  0.750
 
band     2 # energy    0.46448348 # occ.  2.00000000
 
ion      s      p      d    tot
    1  0.040  0.063  0.781  0.884
 
band     3 # energy    1.12005717 # occ.  2.00000000
 
ion      s      p      d    tot
    1  0.001  0.007  0.920  0.927
 
band     4 # energy    1.62922250 # occ.  2.00000000
 
ion      s      p      d    tot
    1  0.002  0.008  0.934  0.943
 
band     5 # energy    2.84750766 # occ.  2.00000000
 
ion      s      p      d    tot
    1  0.025  0.028  0.886  0.939
 
band     6 # energy    3.57455863 # occ.  2.00000000
 
ion      s      p      d    tot
    1  0.027  0.022  0.907  0.956
 
band     7 # energy   16.12805014 # occ.  0.00000000
 
ion      s      p      d    tot
    1  0.164  0.324  0.176  0.664
 
band     8 # energy   21.38557406 # occ.  0.00000000
 
ion      s      p      d    tot
    1  0.008  0.261  0.191  0.460
 
band     9 # energy   22.83949634 # occ.  0.00000000
 
ion      s      p      d    tot
    1  0.013  0.248  0.093  0.353
 
band    10 # energy   25.04377320 # occ.  0.00000000
 
ion      s      p      d    tot
    1  0.041  0.289  0.170  0.499
 
band    11 # energy   28.69647752 # occ.  0.00000000
 
ion      s      p      d    tot
    1  0.019  0.393  0.015  0.427
 
band    12 # energy   30.48556712 # occ.  0.00000000
 
ion      s      p      d    tot
    1  0.010  0.015  0.231  0.256
 

 k-point    14 :    0.45000000 0.15000000 0.05000000     weight = 0.01200000

band     1 # energy   -1.31481010 # occ.  2.00000000
 
ion      s      p      d    tot
    1  0.232  0.037  0.564  0.833
 
band     2 # energy    0.80956044 # occ.  2.00000000
 
ion      s      p      d    tot
    1  0.000  0.009  0.909  0.918
 
band     3 # energy    1.35961036 # occ.  2.00000000
 
ion      s      p      d    tot
    1  0.032  0.079  0.778  0.889
 
band     4 # energy    1.52195586 # occ.  2.00000000
 
ion      s      p      d    tot
    1  0.037  0.079  0.774  0.890
 
band     5 # energy    3.61917630 # occ.  2.00000000
 
ion      s      p      d    tot
    1  0.004  0.014  0.945  0.964
 
band     6 # energy    4.77140701 # occ.  2.00000000
 
ion      s      p      d    tot
    1  0.109  0.135  0.640  0.884
 
band     7 # energy   12.10550934 # occ.  0.00000000
 
ion      s      p      d    tot
    1  0.274  0.265  0.217  0.757
 
band     8 # energy   20.86958637 # occ.  0.00000000
 
ion      s      p      d    tot
    1  0.002  0.178  0.142  0.322
 
band     9 # energy   21.58334710 # occ.  0.00000000
 
ion      s      p      d    tot
    1  0.030  0.381  0.095  0.506
 
band    10 # energy   23.73751491 # occ.  0.00000000
 
ion      s      p      d    tot
    1  0.023  0.409  0.106  0.538
 
band    11 # energy   30.50464175 # occ.  0.00000000
 
ion      s      p      d    tot
    1  0.005  0.063  0.238  0.306
 
band    12 # energy   31.62942769 # occ.  0.00000000
 
ion      s      p      d    tot
    1  0.009  0.052  0.346  0.407
 

 k-point    15 :   -0.45000000 0.15000000 0.05000000     weight = 0.01200000

band     1 # energy   -1.29432350 # occ.  2.00000000
 
ion      s      p      d    tot
    1  0.176  0.020  0.660  0.857
 
band     2 # energy    0.67742453 # occ.  2.00000000
 
ion      s      p      d    tot
    1  0.000  0.009  0.907  0.916
 
band     3 # energy    1.32173506 # occ.  2.00000000
 
ion      s      p      d    tot
    1  0.000  0.005  0.932  0.937
 
band     4 # energy    2.27150407 # occ.  2.00000000
 
ion      s      p      d    tot
    1  0.003  0.168  0.687  0.858
 
band     5 # energy    3.79810814 # occ.  2.00000000
 
ion      s      p      d    tot
    1  0.000  0.000  0.974  0.975
 
band     6 # energy    6.65089131 # occ. -0.00000002
 
ion      s      p      d    tot
    1  0.019  0.408  0.326  0.753
 
band     7 # energy    9.03732607 # occ. -0.00000000
 
ion      s      p      d    tot
    1  0.489  0.034  0.344  0.867
 
band     8 # energy   20.39891269 # occ.  0.00000000
 
ion      s      p      d    tot
    1  0.009  0.163  0.128  0.300
 
band     9 # energy   21.23692149 # occ.  0.00000000
 
ion      s      p      d    tot
    1  0.035  0.421  0.105  0.561
 
band    10 # energy   22.95529462 # occ.  0.00000000
 
ion      s      p      d    tot
    1  0.002  0.424  0.028  0.454
 
band    11 # energy   30.98404637 # occ.  0.00000000
 
ion      s      p      d    tot
    1  0.013  0.004  0.441  0.458
 
band    12 # energy   32.03538215 # occ.  0.00000000
 
ion      s      p      d    tot
    1  0.002  0.005  0.372  0.379
 

 k-point    16 :   -0.35000000 0.15000000 0.05000000     weight = 0.01200000

band     1 # energy   -1.27663579 # occ.  2.00000000
 
ion      s      p      d    tot
    1  0.204  0.029  0.612  0.845
 
band     2 # energy    0.76031192 # occ.  2.00000000
 
ion      s      p      d    tot
    1  0.000  0.007  0.913  0.920
 
band     3 # energy    1.34782622 # occ.  2.00000000
 
ion      s      p      d    tot
    1  0.000  0.006  0.931  0.936
 
band     4 # energy    1.93496761 # occ.  2.00000000
 
ion      s      p      d    tot
    1  0.041  0.180  0.616  0.836
 
band     5 # energy    3.46990622 # occ.  2.00000000
 
ion      s      p      d    tot
    1  0.001  0.008  0.955  0.964
 
band     6 # energy    5.48486640 # occ.  2.05423731
 
ion      s      p      d    tot
    1  0.127  0.180  0.551  0.858
 
band     7 # energy   10.95517723 # occ. -0.00000000
 
ion      s      p      d    tot
    1  0.317  0.219  0.252  0.788
 
band     8 # energy   20.10087011 # occ.  0.00000000
 
ion      s      p      d    tot
    1  0.019  0.295  0.161  0.475
 
band     9 # energy   21.65937375 # occ.  0.00000000
 
ion      s      p      d    tot
    1  0.023  0.243  0.057  0.323
 
band    10 # energy   23.91162323 # occ.  0.00000000
 
ion      s      p      d    tot
    1  0.002  0.466  0.067  0.536
 
band    11 # energy   30.14272752 # occ.  0.00000000
 
ion      s      p      d    tot
    1  0.014  0.026  0.297  0.338
 
band    12 # energy   31.68637950 # occ.  0.00000000
 
ion      s      p      d    tot
    1  0.000  0.022  0.412  0.434
 

 k-point    17 :   -0.25000000 0.15000000 0.05000000     weight = 0.01200000

band     1 # energy   -1.45669868 # occ.  2.00000000
 
ion      s      p      d    tot
    1  0.360  0.075  0.346  0.780
 
band     2 # energy    0.75282308 # occ.  2.00000000
 
ion      s      p      d    tot
    1  0.052  0.079  0.749  0.881
 
band     3 # energy    1.06884300 # occ.  2.00000000
 
ion      s      p      d    tot
    1  0.011  0.038  0.853  0.902
 
band     4 # energy    1.54162817 # occ.  2.00000000
 
ion      s      p      d    tot
    1  0.004  0.007  0.928  0.939
 
band     5 # energy    2.75683392 # occ.  2.00000000
 
ion      s      p      d    tot
    1  0.006  0.012  0.930  0.949
 
band     6 # energy    4.12710314 # occ.  2.00000000
 
ion      s      p      d    tot
    1  0.062  0.044  0.836  0.943
 
band     7 # energy   14.78295088 # occ.  0.00000000
 
ion      s      p      d    tot
    1  0.199  0.311  0.187  0.697
 
band     8 # energy   20.37032935 # occ.  0.00000000
 
ion      s      p      d    tot
    1  0.018  0.313  0.211  0.541
 
band     9 # energy   22.76468893 # occ.  0.00000000
 
ion      s      p      d    tot
    1  0.019  0.202  0.040  0.261
 
band    10 # energy   25.91715835 # occ.  0.00000000
 
ion      s      p      d    tot
    1  0.012  0.381  0.141  0.533
 
band    11 # energy   28.29211968 # occ.  0.00000000
 
ion      s      p      d    tot
    1  0.002  0.181  0.092  0.276
 
band    12 # energy   30.79002211 # occ.  0.00000000
 
ion      s      p      d    tot
    1  0.007  0.085  0.324  0.416
 

 k-point    18 :   -0.15000000 0.15000000 0.05000000     weight = 0.01200000

band     1 # energy   -2.35708357 # occ.  2.00000000
 
ion      s      p      d    tot
    1  0.555  0.092  0.065  0.711
 
band     2 # energy    0.42166726 # occ.  2.00000000
 
ion      s      p      d    tot
    1  0.003  0.022  0.891  0.917
 
band     3 # energy    1.32167228 # occ.  2.00000000
 
ion      s      p      d    tot
    1  0.002  0.014  0.917  0.933
 
band     4 # energy    1.64311570 # occ.  2.00000000
 
ion      s      p      d    tot
    1  0.000  0.003  0.944  0.947
 
band     5 # energy    2.16302497 # occ.  2.00000000
 
ion      s      p      d    tot
    1  0.006  0.006  0.934  0.946
 
band     6 # energy    3.24685880 # occ.  2.00000000
 
ion      s      p      d    tot
    1  0.017  0.011  0.933  0.961
 
band     7 # energy   18.72159783 # occ.  0.00000000
 
ion      s      p      d    tot
    1  0.122  0.285  0.135  0.542
 
band     8 # energy   21.00932588 # occ.  0.00000000
 
ion      s      p      d    tot
    1  0.008  0.273  0.251  0.532
 
band     9 # energy   24.47233335 # occ.  0.00000000
 
ion      s      p      d    tot
    1  0.008  0.198  0.045  0.250
 
band    10 # energy   25.48503409 # occ.  0.00000000
 
ion      s      p      d    tot
    1  0.015  0.148  0.065  0.228
 
band    11 # energy   29.00328933 # occ.  0.00000000
 
ion      s      p      d    tot
    1  0.022  0.341  0.073  0.437
 
band    12 # energy   29.65520123 # occ.  0.00000000
 
ion      s      p      d    tot
    1  0.005  0.351  0.204  0.560
 

 k-point    19 :   -0.05000000 0.15000000 0.05000000     weight = 0.01200000

band     1 # energy   -3.33594962 # occ.  2.00000000
 
ion      s      p      d    tot
    1  0.634  0.051  0.013  0.698
 
band     2 # energy    0.63490370 # occ.  2.00000000
 
ion      s      p      d    tot
    1  0.001  0.008  0.921  0.931
 
band     3 # energy    1.33197815 # occ.  2.00000000
 
ion      s      p      d    tot
    1  0.001  0.008  0.935  0.944
 
band     4 # energy    1.34266193 # occ.  2.00000000
 
ion      s      p      d    tot
    1  0.000  0.003  0.944  0.947
 
band     5 # energy    2.26390619 # occ.  2.00000000
 
ion      s      p      d    tot
    1  0.002  0.002  0.950  0.954
 
band     6 # energy    2.75923376 # occ.  2.00000000
 
ion      s      p      d    tot
    1  0.001  0.001  0.963  0.966
 
band     7 # energy   21.10944890 # occ.  0.00000000
 
ion      s      p      d    tot
    1  0.057  0.217  0.122  0.396
 
band     8 # energy   22.05810548 # occ.  0.00000000
 
ion      s      p      d    tot
    1  0.012  0.058  0.105  0.175
 
band     9 # energy   24.40745155 # occ.  0.00000000
 
ion      s      p      d    tot
    1  0.000  0.310  0.067  0.378
 
band    10 # energy   26.23448040 # occ.  0.00000000
 
ion      s      p      d    tot
    1  0.000  0.209  0.093  0.302
 
band    11 # energy   28.61232914 # occ.  0.00000000
 
ion      s      p      d    tot
    1  0.026  0.328  0.068  0.422
 
band    12 # energy   31.63460372 # occ.  0.00000000
 
ion      s      p      d    tot
    1  0.007  0.251  0.192  0.451
 

 k-point    20 :    0.25000000 0.25000000 0.05000000     weight = 0.00600000

band     1 # energy   -2.16394437 # occ.  2.00000000
 
ion      s      p      d    tot
    1  0.523  0.103  0.085  0.711
 
band     2 # energy    0.01043818 # occ.  2.00000000
 
ion      s      p      d    tot
    1  0.000  0.002  0.918  0.920
 