<?xml version="1.0" encoding="ISO-8859-1"?>
<modeling>
 <generator>
  <i name="program" type="string">vasp </i>
  <i name="version" type="string">5.4.4.18Apr17-6-g9f103f2a35  </i>
  <i name="subversion" type="string">(build May 18 2018 14:42:58) complex            parallel </i>
  <i name="platform" type="string">LinuxIFC </i>
  <i name="date" type="string">2020 06 30 </i>
  <i name="time" type="string">13:42:04 </i>
 </generator>
 <incar>
  <i type="string" name="SYSTEM"> fcc Au</i>
  <i type="string" name="PREC">accurate</i>
  <i type="int" name="IBRION">     2</i>
  <i name="EDIFF">      0.00010000</i>
  <i type="int" name="NSW">    50</i>
  <i type="int" name="ISIF">     3</i>
  <i name="ENCUT">    300.00000000</i>
  <v name="RWIGS">      1.50300000</v>
  <v type="int" name="KPOINT_BSE">    -1     0     0     0</v>
 </incar>
 <structure name="primitive_cell" >
  <crystal>
   <varray name="basis" >
    <v>       0.00000000       2.15000000       2.15000000 </v>
    <v>       2.15000000       0.00000000       2.15000000 </v>
    <v>       2.15000000       2.15000000       0.00000000 </v>
   </varray>
   <i name="volume">     19.87675000 </i>
   <varray name="rec_basis" >
    <v>      -0.23255814       0.23255814       0.23255814 </v>
    <v>       0.23255814      -0.23255814       0.23255814 </v>
    <v>       0.23255814       0.23255814      -0.23255814 </v>
   </varray>
  </crystal>
  <varray name="positions" >
   <v>       0.00000000       0.00000000       0.00000000 </v>
  </varray>
 </structure>
 <varray name="primitive_index" >
  <v type="int" >        1 </v>
 </varray>
 <kpoints>
  <generation param="Monkhorst-Pack">
   <v type="int" name="divisions">      10       10       10 </v>
   <v name="usershift">      0.00000000       0.00000000       0.00000000 </v>
   <v name="genvec1">      0.10000000       0.00000000       0.00000000 </v>
   <v name="genvec2">      0.00000000       0.10000000       0.00000000 </v>
   <v name="genvec3">      0.00000000       0.00000000       0.10000000 </v>
   <v name="shift">      0.50000000       0.50000000       0.50000000 </v>
  </generation>
  <varray name="kpointlist" >
   <v>       0.05000000       0.05000000       0.05000000 </v>
   <v>       0.15000000       0.05000000       0.05000000 </v>
   <v>       0.25000000       0.05000000       0.05000000 </v>
   <v>       0.35000000       0.05000000       0.05000000 </v>
   <v>       0.45000000       0.05000000       0.05000000 </v>
   <v>      -0.45000000       0.05000000       0.05000000 </v>
   <v>      -0.35000000       0.05000000       0.05000000 </v>
   <v>      -0.25000000       0.05000000       0.05000000 </v>
   <v>      -0.15000000       0.05000000       0.05000000 </v>
   <v>      -0.05000000       0.05000000       0.05000000 </v>
   <v>       0.15000000       0.15000000       0.05000000 </v>
   <v>       0.25000000       0.15000000       0.05000000 </v>
   <v>       0.35000000       0.15000000       0.05000000 </v>
   <v>       0.45000000       0.15000000       0.05000000 </v>
   <v>      -0.45000000       0.15000000       0.05000000 </v>
   <v>      -0.35000000       0.15000000       0.05000000 </v>
   <v>      -0.25000000       0.15000000       0.05000000 </v>
   <v>      -0.15000000       0.15000000       0.05000000 </v>
   <v>      -0.05000000       0.15000000       0.05000000 </v>
   <v>       0.25000000       0.25000000       0.05000000 </v>
   <v>       0.35000000       0.25000000       0.05000000 </v>
   <v>       0.45000000       0.25000000       0.05000000 </v>
   <v>      -0.45000000       0.25000000       0.05000000 </v>
   <v>      -0.35000000       0.25000000       0.05000000 </v>
   <v>      -0.25000000       0.25000000       0.05000000 </v>
   <v>      -0.15000000       0.25000000       0.05000000 </v>
   <v>      -0.05000000       0.25000000       0.05000000 </v>
   <v>       0.35000000       0.35000000       0.05000000 </v>
   <v>       0.45000000       0.35000000       0.05000000 </v>
   <v>      -0.45000000       0.35000000       0.05000000 </v>
   <v>      -0.35000000       0.35000000       0.05000000 </v>
   <v>      -0.25000000       0.35000000       0.05000000 </v>
   <v>      -0.15000000       0.35000000       0.05000000 </v>
   <v>      -0.05000000       0.35000000       0.05000000 </v>
   <v>       0.45000000       0.45000000       0.05000000 </v>
   <v>      -0.45000000       0.45000000       0.05000000 </v>
   <v>      -0.35000000       0.45000000       0.05000000 </v>
   <v>      -0.25000000       0.45000000       0.05000000 </v>
   <v>      -0.15000000       0.45000000       0.05000000 </v>
   <v>      -0.05000000       0.45000000       0.05000000 </v>
   <v>      -0.45000000      -0.45000000       0.05000000 </v>
   <v>      -0.35000000      -0.45000000       0.05000000 </v>
   <v>      -0.25000000      -0.45000000       0.05000000 </v>
   <v>      -0.15000000      -0.45000000       0.05000000 </v>
   <v>      -0.35000000      -0.35000000       0.05000000 </v>
   <v>      -0.25000000      -0.35000000       0.05000000 </v>
   <v>      -0.15000000      -0.35000000       0.05000000 </v>
   <v>      -0.25000000      -0.25000000       0.05000000 </v>
   <v>      -0.15000000      -0.25000000       0.05000000 </v>
   <v>      -0.15000000      -0.15000000       0.05000000 </v>
   <v>       0.15000000       0.15000000       0.15000000 </v>
   <v>       0.25000000       0.15000000       0.15000000 </v>
   <v>       0.35000000       0.15000000       0.15000000 </v>
   <v>       0.45000000       0.15000000       0.15000000 </v>
   <v>      -0.45000000       0.15000000       0.15000000 </v>
   <v>      -0.35000000       0.15000000       0.15000000 </v>
   <v>      -0.25000000       0.15000000       0.15000000 </v>
   <v>      -0.15000000       0.15000000       0.15000000 </v>
   <v>       0.25000000       0.25000000       0.15000000 </v>
   <v>       0.35000000       0.25000000       0.15000000 </v>
   <v>       0.45000000       0.25000000       0.15000000 </v>
   <v>      -0.45000000       0.25000000       0.15000000 </v>
   <v>      -0.35000000       0.25000000       0.15000000 </v>
   <v>      -0.25000000       0.25000000       0.15000000 </v>
   <v>      -0.15000000       0.25000000       0.15000000 </v>
   <v>       0.35000000       0.35000000       0.15000000 </v>
   <v>       0.45000000       0.35000000       0.15000000 </v>
   <v>      -0.45000000       0.35000000       0.15000000 </v>
   <v>      -0.35000000       0.35000000       0.15000000 </v>
   <v>      -0.25000000       0.35000000       0.15000000 </v>
   <v>      -0.15000000       0.35000000       0.15000000 </v>
   <v>       0.45000000       0.45000000       0.15000000 </v>
   <v>      -0.45000000       0.45000000       0.15000000 </v>
   <v>      -0.35000000       0.45000000       0.15000000 </v>
   <v>      -0.25000000       0.45000000       0.15000000 </v>
   <v>      -0.15000000       0.45000000       0.15000000 </v>
   <v>      -0.45000000      -0.45000000       0.15000000 </v>
   <v>      -0.35000000      -0.45000000       0.15000000 </v>
   <v>      -0.25000000      -0.45000000       0.15000000 </v>
   <v>      -0.35000000      -0.35000000       0.15000000 </v>
   <v>      -0.25000000      -0.35000000       0.15000000 </v>
   <v>      -0.25000000      -0.25000000       0.15000000 </v>
   <v>       0.25000000       0.25000000       0.25000000 </v>
   <v>       0.35000000       0.25000000       0.25000000 </v>
   <v>       0.45000000       0.25000000       0.25000000 </v>
   <v>      -0.45000000       0.25000000       0.25000000 </v>
   <v>      -0.35000000       0.25000000       0.25000000 </v>
   <v>      -0.25000000       0.25000000       0.25000000 </v>
   <v>       0.35000000       0.35000000       0.25000000 </v>
   <v>       0.45000000       0.35000000       0.25000000 </v>
   <v>      -0.45000000       0.35000000       0.25000000 </v>
   <v>      -0.35000000       0.35000000       0.25000000 </v>
   <v>      -0.25000000       0.35000000       0.25000000 </v>
   <v>       0.45000000       0.45000000       0.25000000 </v>
   <v>      -0.45000000       0.45000000       0.25000000 </v>
   <v>      -0.35000000       0.45000000       0.25000000 </v>
   <v>      -0.25000000       0.45000000       0.25000000 </v>
   <v>      -0.45000000      -0.45000000       0.25000000 </v>
   <v>      -0.35000000      -0.45000000       0.25000000 </v>
   <v>      -0.35000000      -0.35000000       0.25000000 </v>
   <v>       0.35000000       0.35000000       0.35000000 </v>
   <v>       0.45000000       0.35000000       0.35000000 </v>
   <v>      -0.45000000       0.35000000       0.35000000 </v>
   <v>      -0.35000000       0.35000000       0.35000000 </v>
   <v>       0.45000000       0.45000000       0.35000000 </v>
   <v>      -0.45000000       0.45000000       0.35000000 </v>
   <v>      -0.35000000       0.45000000       0.35000000 </v>
   <v>      -0.45000000      -0.45000000       0.35000000 </v>
   <v>       0.45000000       0.45000000       0.45000000 </v>
   <v>      -0.45000000       0.45000000       0.45000000 </v>
  </varray>
  <varray name="weights" >
   <v>       0.00200000 </v>
   <v>       0.00600000 </v>
   <v>       0.00600000 </v>
   <v>       0.00600000 </v>
   <v>       0.00600000 </v>
   <v>       0.00600000 </v>
   <v>       0.00600000 </v>
   <v>       0.00600000 </v>
   <v>       0.00600000 </v>
   <v>       0.00600000 </v>
   <v>       0.00600000 </v>
   <v>       0.01200000 </v>
   <v>       0.01200000 </v>
   <v>       0.01200000 </v>
   <v>       0.01200000 </v>
   <v>       0.01200000 </v>
   <v>       0.01200000 </v>
   <v>       0.01200000 </v>
   <v>       0.01200000 </v>
   <v>       0.00600000 </v>
   <v>       0.01200000 </v>
   <v>       0.01200000 </v>
   <v>       0.01200000 </v>
   <v>       0.01200000 </v>
   <v>       0.01200000 </v>
   <v>       0.01200000 </v>
   <v>       0.01200000 </v>
   <v>       0.00600000 </v>
   <v>       0.01200000 </v>
   <v>       0.01200000 </v>
   <v>       0.01200000 </v>
   <v>       0.01200000 </v>
   <v>       0.01200000 </v>
   <v>       0.01200000 </v>
   <v>       0.00600000 </v>
   <v>       0.01200000 </v>
   <v>       0.01200000 </v>
   <v>       0.01200000 </v>
   <v>       0.01200000 </v>
   <v>       0.01200000 </v>
   <v>       0.00600000 </v>
   <v>       0.01200000 </v>
   <v>       0.01200000 </v>
   <v>       0.01200000 </v>
   <v>       0.00600000 </v>
   <v>       0.01200000 </v>
   <v>       0.01200000 </v>
   <v>       0.00600000 </v>
   <v>       0.01200000 </v>
   <v>       0.00600000 </v>
   <v>       0.00200000 </v>
   <v>       0.00600000 </v>
   <v>       0.00600000 </v>
   <v>       0.00600000 </v>
   <v>       0.00600000 </v>
   <v>       0.00600000 </v>
   <v>       0.00600000 </v>
   <v>       0.00600000 </v>
   <v>       0.00600000 </v>
   <v>       0.01200000 </v>
   <v>       0.01200000 </v>
   <v>       0.01200000 </v>
   <v>       0.01200000 </v>
   <v>       0.01200000 </v>
   <v>       0.01200000 </v>
   <v>       0.00600000 </v>
   <v>       0.01200000 </v>
   <v>       0.01200000 </v>
   <v>       0.01200000 </v>
   <v>       0.01200000 </v>
   <v>       0.01200000 </v>
   <v>       0.00600000 </v>
   <v>       0.01200000 </v>
   <v>       0.01200000 </v>
   <v>       0.01200000 </v>
   <v>       0.01200000 </v>
   <v>       0.00600000 </v>
   <v>       0.01200000 </v>
   <v>       0.01200000 </v>
   <v>       0.00600000 </v>
   <v>       0.01200000 </v>
   <v>       0.00600000 </v>
   <v>       0.00200000 </v>
   <v>       0.00600000 </v>
   <v>       0.00600000 </v>
   <v>       0.00600000 </v>
   <v>       0.00600000 </v>
   <v>       0.00600000 </v>
   <v>       0.00600000 </v>
   <v>       0.01200000 </v>
   <v>       0.01200000 </v>
   <v>       0.01200000 </v>
   <v>       0.01200000 </v>
   <v>       0.00600000 </v>
   <v>       0.01200000 </v>
   <v>       0.01200000 </v>
   <v>       0.01200000 </v>
   <v>       0.00600000 </v>
   <v>       0.01200000 </v>
   <v>       0.00600000 </v>
   <v>       0.00200000 </v>
   <v>       0.00600000 </v>
   <v>       0.00600000 </v>
   <v>       0.00600000 </v>
   <v>       0.00600000 </v>
   <v>       0.01200000 </v>
   <v>       0.01200000 </v>
   <v>       0.00600000 </v>
   <v>       0.00200000 </v>
   <v>       0.00600000 </v>
  </varray>
 </kpoints>
 <parameters>
  <separator name="general" >
   <i type="string" name="SYSTEM">fcc Au</i>
   <i type="logical" name="LCOMPAT"> F  </i>
  </separator>
  <separator name="electronic" >
   <i type="string" name="PREC">accura</i>
   <i name="ENMAX">    300.00000000</i>
   <i name="ENAUG">    356.67000000</i>
   <i name="EDIFF">      0.00010000</i>
   <i type="int" name="IALGO">    38</i>
   <i type="int" name="IWAVPR">    11</i>
   <i type="int" name="NBANDS">    12</i>
   <i name="NELECT">     11.00000000</i>
   <i type="int" name="TURBO">     0</i>
   <i type="int" name="IRESTART">     0</i>
   <i type="int" name="NREBOOT">     0</i>
   <i type="int" name="NMIN">     0</i>
   <i name="EREF">      0.00000000</i>
   <separator name="electronic smearing" >
    <i type="int" name="ISMEAR">     1</i>
    <i name="SIGMA">      0.20000000</i>
    <i name="KSPACING">      0.50000000</i>
    <i type="logical" name="KGAMMA"> T  </i>
   </separator>
   <separator name="electronic projectors" >
    <i type="logical" name="LREAL"> F  </i>
    <v name="ROPT">      0.00000000</v>
    <i type="int" name="LMAXPAW">  -100</i>
    <i type="int" name="LMAXMIX">     2</i>
    <i type="logical" name="NLSPLINE"> F  </i>
   </separator>
   <separator name="electronic startup" >
    <i type="int" name="ISTART">     0</i>
    <i type="int" name="ICHARG">     2</i>
    <i type="int" name="INIWAV">     1</i>
   </separator>
   <separator name="electronic spin" >
    <i type="int" name="ISPIN">     1</i>
    <i type="logical" name="LNONCOLLINEAR"> F  </i>
    <v name="MAGMOM">      1.00000000</v>
    <i name="NUPDOWN">     -1.00000000</i>
    <i type="logical" name="LSORBIT"> F  </i>
    <v name="SAXIS">      0.00000000      0.00000000      1.00000000</v>
    <i type="logical" name="LSPIRAL"> F  </i>
    <v name="QSPIRAL">      0.00000000      0.00000000      0.00000000</v>
    <i type="logical" name="LZEROZ"> F  </i>
   </separator>
   <separator name="electronic exchange-correlation" >
    <i type="logical" name="LASPH"> F  </i>
    <i type="logical" name="LMETAGGA"> F  </i>
   </separator>
   <separator name="electronic convergence" >
    <i type="int" name="NELM">    60</i>
    <i type="int" name="NELMDL">    -5</i>
    <i type="int" name="NELMIN">     2</i>
    <i name="ENINI">    300.00000000</i>
    <separator name="electronic convergence detail" >
     <i type="logical" name="LDIAG"> T  </i>
     <i type="logical" name="LSUBROT"> F  </i>
     <i name="WEIMIN">      0.00100000</i>
     <i name="EBREAK">      0.00000208</i>
     <i name="DEPER">      0.30000000</i>
     <i type="int" name="NRMM">     4</i>
     <i name="TIME">      0.40000000</i>
    </separator>
   </separator>
   <separator name="electronic mixer" >
    <i name="AMIX">      0.40000000</i>
    <i name="BMIX">      1.00000000</i>
    <i name="AMIN">      0.10000000</i>
    <i name="AMIX_MAG">      1.60000000</i>
    <i name="BMIX_MAG">      1.00000000</i>
    <separator name="electronic mixer details" >
     <i type="int" name="IMIX">     4</i>
     <i type="logical" name="MIXFIRST"> F  </i>
     <i type="int" name="MAXMIX">   -45</i>
     <i name="WC">    100.00000000</i>
     <i type="int" name="INIMIX">     1</i>
     <i type="int" name="MIXPRE">     1</i>
     <i type="int" name="MREMOVE">     5</i>
    </separator>
   </separator>
   <separator name="electronic dipolcorrection" >
    <i type="logical" name="LDIPOL"> F  </i>
    <i type="logical" name="LMONO"> F  </i>
    <i type="int" name="IDIPOL">     0</i>
    <i name="EPSILON">      1.00000000</i>
    <v name="DIPOL">   -100.00000000   -100.00000000   -100.00000000</v>
    <i name="EFIELD">      0.00000000</i>
   </separator>
  </separator>
  <separator name="grids" >
   <i type="int" name="NGX">    18</i>
   <i type="int" name="NGY">    18</i>
   <i type="int" name="NGZ">    18</i>
   <i type="int" name="NGXF">    36</i>
   <i type="int" name="NGYF">    36</i>
   <i type="int" name="NGZF">    36</i>
   <i type="logical" name="ADDGRID"> F  </i>
  </separator>
  <separator name="ionic" >
   <i type="int" name="NSW">    50</i>
   <i type="int" name="IBRION">     2</i>
   <i type="int" name="MDALGO">     0</i>
   <i type="int" name="ISIF">     3</i>
   <i name="PSTRESS">      0.00000000</i>
   <i name="EDIFFG">      0.00100000</i>
   <i type="int" name="NFREE">     1</i>
   <i name="POTIM">      0.50000000</i>
   <i name="SMASS">     -3.00000000</i>
   <i name="SCALEE">      1.00000000</i>
  </separator>
  <separator name="ionic md" >
   <i name="TEBEG">      0.00010000</i>
   <i name="TEEND">      0.00010000</i>
   <i type="int" name="NBLOCK">     1</i>
   <i type="int" name="KBLOCK">    50</i>
   <i type="int" name="NPACO">   256</i>
   <i name="APACO">     16.00000000</i>
  </separator>
  <separator name="symmetry" >
   <i type="int" name="ISYM">     2</i>
   <i name="SYMPREC">      0.00001000</i>
  </separator>
  <separator name="dos" >
   <i type="int" name="LORBIT">     0</i>
   <v name="RWIGS">      1.50300000</v>
   <i type="int" name="NEDOS">   301</i>
   <i name="EMIN">     10.00000000</i>
   <i name="EMAX">    -10.00000000</i>
   <i name="EFERMI">      0.00000000</i>
  </separator>
  <separator name="writing" >
   <i type="int" name="NWRITE">     2</i>
   <i type="logical" name="LWAVE"> T  </i>
   <i type="logical" name="LDOWNSAMPLE"> F  </i>
   <i type="logical" name="LCHARG"> T  </i>
   <i type="logical" name="LPARD"> F  </i>
   <i type="logical" name="LVTOT"> F  </i>
   <i type="logical" name="LVHAR"> F  </i>
   <i type="logical" name="LELF"> F  </i>
   <i type="logical" name="LOPTICS"> F  </i>
   <v name="STM">      0.00000000      0.00000000      0.00000000      0.00000000      0.00000000      0.00000000      0.00000000</v>
  </separator>
  <separator name="performance" >
   <i type="int" name="NPAR">     4</i>
   <i type="int" name="NSIM">     4</i>
   <i type="int" name="NBLK">    -1</i>
   <i type="logical" name="LPLANE"> T  </i>
   <i type="logical" name="LSCALAPACK"> T  </i>
   <i type="logical" name="LSCAAWARE"> F  </i>
   <i type="logical" name="LSCALU"> F  </i>
   <i type="logical" name="LASYNC"> F  </i>
   <i type="logical" name="LORBITALREAL"> F  </i>
  </separator>
  <separator name="miscellaneous" >
   <i type="int" name="IDIOT">     3</i>
   <i type="int" name="ISPECIAL">     0</i>
   <i type="logical" name="LMUSIC"> F  </i>
   <v name="POMASS">    196.96600000</v>
   <v name="DARWINR">      0.00000000</v>
   <v name="DARWINV">      1.00000000</v>
   <i type="logical" name="LCORR"> T  </i>
  </separator>
  <i type="logical" name="GGA_COMPAT"> T  </i>
  <i type="logical" name="LBERRY"> F  </i>
  <i type="int" name="ICORELEVEL">     0</i>
  <i type="logical" name="LDAU"> F  </i>
  <i type="int" name="I_CONSTRAINED_M">     0</i>
  <separator name="electronic exchange-correlation" >
   <i type="string" name="GGA">--</i>
   <i type="int" name="VOSKOWN">     0</i>
   <i type="logical" name="LHFCALC"> F  </i>
   <i type="string" name="PRECFOCK"></i>
   <i type="logical" name="LSYMGRAD"> F  </i>
   <i type="logical" name="LHFONE"> F  </i>
   <i type="logical" name="LRHFCALC"> F  </i>
   <i type="logical" name="LTHOMAS"> F  </i>
   <i type="logical" name="LMODELHF"> F  </i>
   <i name="ENCUT4O">     -1.00000000</i>
   <i type="int" name="EXXOEP">     0</i>
   <i type="int" name="FOURORBIT">     0</i>
   <i name="AEXX">      0.00000000</i>
   <i name="HFALPHA">      0.00000000</i>
   <i name="MCALPHA">      0.00000000</i>
   <i name="ALDAX">      1.00000000</i>
   <i name="AGGAX">      1.00000000</i>
   <i name="ALDAC">      1.00000000</i>
   <i name="AGGAC">      1.00000000</i>
   <i type="int" name="NKREDX">     1</i>
   <i type="int" name="NKREDY">     1</i>
   <i type="int" name="NKREDZ">     1</i>
   <i type="logical" name="SHIFTRED"> F  </i>
   <i type="logical" name="ODDONLY"> F  </i>
   <i type="logical" name="EVENONLY"> F  </i>
   <i type="int" name="LMAXFOCK">     0</i>
   <i type="int" name="NMAXFOCKAE">     0</i>
   <i type="logical" name="LFOCKAEDFT"> F  </i>
   <i name="HFSCREEN">      0.00000000</i>
   <i name="HFSCREENC">      0.00000000</i>
   <i type="int" name="NBANDSGWLOW">     0</i>
  </separator>
  <separator name="vdW DFT" >
   <i type="logical" name="LUSE_VDW"> F  </i>
   <i name="Zab_VDW">     -0.84910000</i>
   <i name="PARAM1">      0.12340000</i>
   <i name="PARAM2">      1.00000000</i>
   <i name="PARAM3">      0.00000000</i>
  </separator>
  <separator name="model GW" >
   <i type="int" name="MODEL_GW">     0</i>
   <i name="MODEL_EPS0">     11.92605000</i>
   <i name="MODEL_ALPHA">      1.00000000</i>
  </separator>
  <separator name="linear response parameters" >
   <i type="logical" name="LEPSILON"> F  </i>
   <i type="logical" name="LRPA"> F  </i>
   <i type="logical" name="LNABLA"> F  </i>
   <i type="logical" name="LVEL"> F  </i>
   <i type="int" name="KINTER">     0</i>
   <i name="CSHIFT">      0.10000000</i>
   <i name="OMEGAMAX">     -1.00000000</i>
   <i name="DEG_THRESHOLD">      0.00200000</i>
   <i name="RTIME">     -0.10000000</i>
   <i name="WPLASMAI">      0.00000000</i>
   <v name="DFIELD">      0.00000000      0.00000000      0.00000000</v>
   <v name="WPLASMA">      0.00000000      0.00000000      0.00000000      0.00000000      0.00000000      0.00000000      0.00000000      0.00000000      0.00000000</v>
  </separator>
  <separator name="orbital magnetization" >
   <i type="logical" name="NUCIND"> F  </i>
   <v name="MAGPOS">      0.00000000      0.00000000      0.00000000</v>
   <i type="logical" name="LNICSALL"> T  </i>
   <i type="logical" name="ORBITALMAG"> F  </i>
   <i type="logical" name="LMAGBLOCH"> F  </i>
   <i type="logical" name="LCHIMAG"> F  </i>
   <i type="logical" name="LGAUGE"> T  </i>
   <i type="int" name="MAGATOM">     0</i>
   <v name="MAGDIPOL">      0.00000000      0.00000000      0.00000000</v>
   <v name="AVECCONST">      0.00000000      0.00000000      0.00000000</v>
  </separator>
  <separator name="response functions" >
   <i type="logical" name="LADDER"> F  </i>
   <i type="logical" name="LRPAFORCE"> F  </i>
   <i type="logical" name="LFXC"> F  </i>
   <i type="logical" name="LHARTREE"> T  </i>
   <i type="int" name="IBSE">     0</i>
   <v type="int" name="KPOINT">    -1     0     0     0</v>
   <i type="logical" name="LTCTE"> F  </i>
   <i type="logical" name="LTETE"> F  </i>
   <i type="logical" name="LTRIPLET"> F  </i>
   <i type="logical" name="LFXCEPS"> F  </i>
   <i type="logical" name="LFXHEG"> F  </i>
   <i type="int" name="NATURALO">     2</i>
   <i type="logical" name="L2ORDER"> F  </i>
   <i type="logical" name="LMP2LT"> F  </i>
   <i type="logical" name="LUSEW"> F  </i>
   <i name="ENCUTGW">     -2.00000000</i>
   <i name="ENCUTGWSOFT">     -2.00000000</i>
   <i name="ENCUTLF">     -1.00000000</i>
   <i type="int" name="LMAXMP2">    -1</i>
   <i name="SCISSOR">      0.00000000</i>
   <i type="int" name="NOMEGA">     0</i>
   <i type="int" name="NOMEGAR">     0</i>
   <i type="int" name="NBANDSGW">    -1</i>
   <i type="int" name="NBANDSO">    -1</i>
   <i type="int" name="NBANDSV">    -1</i>
   <i type="int" name="NELM">     1</i>
   <i type="int" name="NELMHF">     1</i>
   <i type="int" name="DIM">     3</i>
   <i type="int" name="ANTIRES">     0</i>
   <i name="OMEGAMAX">    -30.00000000</i>
   <i name="OMEGAMIN">    -30.00000000</i>
   <i name="OMEGATL">   -200.00000000</i>
   <i type="int" name="OMEGAGRID">   140</i>
   <i name="CSHIFT">     -0.10000000</i>
   <i type="logical" name="SELFENERGY"> F  </i>
   <i type="logical" name="LSPECTRAL"> F  </i>
   <i type="logical" name="LSPECTRALGW"> F  </i>
   <i type="logical" name="LSINGLES"> F  </i>
   <i type="logical" name="LFERMIGW"> F  </i>
   <i type="logical" name="ODDONLYGW"> F  </i>
   <i type="logical" name="EVENONLYGW"> F  </i>
   <i type="int" name="NKREDLFX">     1</i>
   <i type="int" name="NKREDLFY">     1</i>
   <i type="int" name="NKREDLFZ">     1</i>
   <i type="int" name="MAXMEM">  2800</i>
   <i type="int" name="TELESCOPE">     0</i>
   <i type="int" name="TAUPAR">     1</i>
   <i type="int" name="OMEGAPAR">    -1</i>
   <i name="LAMBDA">      1.00000000</i>
  </separator>
  <separator name="External order field" >
   <i name="OFIELD_KAPPA">      0.00000000</i>
   <v name="OFIELD_K">      0.00000000      0.00000000      0.00000000</v>
   <i name="OFIELD_Q6_NEAR">      0.00000000</i>
   <i name="OFIELD_Q6_FAR">      0.00000000</i>
   <i name="OFIELD_A">      0.00000000</i>
  </separator>
 </parameters>
 <atominfo>
  <atoms>       1 </atoms>
  <types>       1 </types>
  <array name="atoms" >
   <dimension dim="1">ion</dimension>
   <field type="string">element</field>
   <field type="int">atomtype</field>
   <set>
    <rc><c>Au</c><c>   1</c></rc>
   </set>
  </array>
  <array name="atomtypes" >
   <dimension dim="1">type</dimension>
   <field type="int">atomspertype</field>
   <field type="string">element</field>
   <field>mass</field>
   <field>valence</field>
   <field type="string">pseudopotential</field>
   <set>
    <rc><c>   1</c><c>Au</c><c>    196.96600000</c><c>     11.00000000</c><c> PAW Au 04Feb1998                       </c></rc>
   </set>
  </array>
 </atominfo>
 <structure name="initialpos" >
  <crystal>
   <varray name="basis" >
    <v>       0.00000000       2.15000000       2.15000000 </v>
    <v>       2.15000000       0.00000000       2.15000000 </v>
    <v>       2.15000000       2.15000000       0.00000000 </v>
   </varray>
   <i name="volume">     19.87675000 </i>
   <varray name="rec_basis" >
    <v>      -0.23255814       0.23255814       0.23255814 </v>
    <v>       0.23255814      -0.23255814       0.23255814 </v>
    <v>       0.23255814       0.23255814      -0.23255814 </v>
   </varray>
  </crystal>
  <varray name="positions" >
   <v>       0.00000000       0.00000000       0.00000000 </v>
  </varray>
 </structure>
 <calculation>
  <scstep>
   <time name="dav">    0.64    0.64</time>
   <time name="total">    0.65    0.67</time>
   <energy>
    <i name="alphaZ">     92.46377501 </i>
    <i name="ewald">   -928.90065159 </i>
    <i name="hartreedc">   -143.19178377 </i>
    <i name="XCdc">     15.88289883 </i>
    <i name="pawpsdc">    746.10209728 </i>
    <i name="pawaedc">   -725.46159323 </i>
    <i name="eentropy">     -0.00058447 </i>
    <i name="bandstr">     58.17931930 </i>
    <i name="atom">    929.42141189 </i>
    <i name="e_fr_energy">     44.49488926 </i>
    <i name="e_wo_entrp">     44.49547373 </i>
    <i name="e_0_energy">     44.49508408 </i>
   </energy>
  </scstep>
  <scstep>
   <time name="dav">    0.58    0.59</time>
   <time name="total">    0.58    0.59</time>
   <energy>
    <i name="e_fr_energy">     -3.76123330 </i>
    <i name="e_wo_entrp">     -3.76151324 </i>
    <i name="e_0_energy">     -3.76132661 </i>
   </energy>
  </scstep>
  <scstep>
   <time name="dav">    0.60    0.61</time>
   <time name="total">    0.60    0.61</time>
   <energy>
    <i name="e_fr_energy">     -4.47322111 </i>
    <i name="e_wo_entrp">     -4.47396251 </i>
    <i name="e_0_energy">     -4.47346825 </i>
   </energy>
  </scstep>
  <scstep>
   <time name="dav">    0.61    0.61</time>
   <time name="total">    0.61    0.61</time>
   <energy>
    <i name="e_fr_energy">     -4.47549081 </i>
    <i name="e_wo_entrp">     -4.47623363 </i>
    <i name="e_0_energy">     -4.47573842 </i>
   </energy>
  </scstep>
  <scstep>
   <time name="dav">    0.60    0.60</time>
   <time name="total">    0.63    0.64</time>
   <energy>
    <i name="e_fr_energy">     -4.47551227 </i>
    <i name="e_wo_entrp">     -4.47625511 </i>
    <i name="e_0_energy">     -4.47575989 </i>
   </energy>
  </scstep>
  <scstep>
   <time name="dav">    0.61    0.61</time>
   <time name="total">    0.65    0.66</time>
   <energy>
    <i name="e_fr_energy">     -4.18204548 </i>
    <i name="e_wo_entrp">     -4.18291656 </i>
    <i name="e_0_energy">     -4.18233584 </i>
   </energy>
  </scstep>
  <scstep>
   <time name="dav">    0.64    0.64</time>
   <time name="total">    0.68    0.69</time>
   <energy>
    <i name="e_fr_energy">     -4.16897696 </i>
    <i name="e_wo_entrp">     -4.16981536 </i>
    <i name="e_0_energy">     -4.16925643 </i>
   </energy>
  </scstep>
  <scstep>
   <time name="dav">    0.57    0.58</time>
   <time name="total">    0.62    0.62</time>
   <energy>
    <i name="e_fr_energy">     -4.16516477 </i>
    <i name="e_wo_entrp">     -4.16599226 </i>
    <i name="e_0_energy">     -4.16544060 </i>
   </energy>
  </scstep>
  <scstep>
   <time name="dav">    0.42    0.42</time>
   <time name="total">    0.42    0.43</time>
   <energy>
    <i name="alphaZ">     92.46377501 </i>
    <i name="ewald">   -928.90065159 </i>
    <i name="hartreedc">   -132.12199065 </i>
    <i name="XCdc">     15.31032382 </i>
    <i name="pawpsdc">    733.05750396 </i>
    <i name="pawaedc">   -714.40286991 </i>
    <i name="eentropy">      0.00082711 </i>
    <i name="bandstr">      1.00650453 </i>
    <i name="atom">    929.42141189 </i>
    <i name="e_fr_energy">     -4.16516583 </i>
    <i name="e_wo_entrp">     -4.16599294 </i>
    <i name="e_0_energy">     -4.16544153 </i>
   </energy>
  </scstep>
  <structure>
   <crystal>
    <varray name="basis" >
     <v>       0.00000000       2.15000000       2.15000000 </v>
     <v>       2.15000000       0.00000000       2.15000000 </v>
     <v>       2.15000000       2.15000000       0.00000000 </v>
    </varray>
    <i name="volume">     19.87675000 </i>
    <varray name="rec_basis" >
     <v>      -0.23255814       0.23255814       0.23255814 </v>
     <v>       0.23255814      -0.23255814       0.23255814 </v>
     <v>       0.23255814       0.23255814      -0.23255814 </v>
    </varray>
   </crystal>
   <varray name="positions" >
    <v>       0.00000000       0.00000000       0.00000000 </v>
   </varray>
  </structure>
  <varray name="forces" >
   <v>       0.00000000      -0.00000000       0.00000000 </v>
  </varray>
  <varray name="stress" >
   <v>    -206.98302793       0.00000000      -0.00000000 </v>
   <v>      -0.00000000    -206.98302793      -0.00000000 </v>
   <v>       0.00000000       0.00000000    -206.98302793 </v>
  </varray>
  <energy>
   <i name="e_fr_energy">     -4.16516583 </i>
   <i name="e_wo_entrp">     -4.16544153 </i>
   <i name="e_0_energy">      0.00082711 </i>
  </energy>
  <time name="totalsc">    5.74    5.96</time>
 </calculation>
 <calculation>
  <scstep>
   <time name="dav">    0.60    0.60</time>
   <time name="total">    0.64    0.64</time>
   <energy>
    <i name="alphaZ">    137.49301500 </i>
    <i name="ewald">  -1060.24346889 </i>
    <i name="hartreedc">   -150.81980272 </i>
    <i name="XCdc">     20.03556014 </i>
    <i name="pawpsdc">    733.67148415 </i>
    <i name="pawaedc">   -715.00561519 </i>
    <i name="eentropy">      0.00004165 </i>
    <i name="bandstr">     83.34009476 </i>
    <i name="atom">    929.42141189 </i>
    <i name="e_fr_energy">    -22.10727920 </i>
    <i name="e_wo_entrp">    -22.10732085 </i>
    <i name="e_0_energy">    -22.10729308 </i>
   </energy>
  </scstep>
  <scstep>
   <time name="dav">    0.56    0.57</time>
   <time name="total">    0.61    0.61</time>
   <energy>
    <i name="e_fr_energy">     -5.14080054 </i>
    <i name="e_wo_entrp">     -5.13839482 </i>
    <i name="e_0_energy">     -5.13999863 </i>
   </energy>
  </scstep>
  <scstep>
   <time name="dav">    0.61    0.61</time>
   <time name="total">    0.65    0.65</time>
   <energy>
    <i name="e_fr_energy">     -3.73771616 </i>
    <i name="e_wo_entrp">     -3.73731748 </i>
    <i name="e_0_energy">     -3.73758326 </i>
   </energy>
  </scstep>
  <scstep>
   <time name="dav">    0.56    0.57</time>
   <time name="total">    0.60    0.61</time>
   <energy>
    <i name="e_fr_energy">     -3.75276101 </i>
    <i name="e_wo_entrp">     -3.75243136 </i>
    <i name="e_0_energy">     -3.75265113 </i>
   </energy>
  </scstep>
  <scstep>
   <time name="dav">    0.67    0.68</time>
   <time name="total">    0.72    0.72</time>
   <energy>
    <i name="e_fr_energy">     -3.75136685 </i>
    <i name="e_wo_entrp">     -3.75104037 </i>
    <i name="e_0_energy">     -3.75125802 </i>
   </energy>
  </scstep>
  <scstep>
   <time name="dav">    0.70    0.71</time>
   <time name="total">    0.75    0.75</time>
   <energy>
    <i name="e_fr_energy">     -3.75122967 </i>
    <i name="e_wo_entrp">     -3.75090287 </i>
    <i name="e_0_energy">     -3.75112074 </i>
   </energy>
  </scstep>
  <scstep>
   <time name="dav">    0.51    0.51</time>
   <time name="total">    0.51    0.52</time>
   <energy>
    <i name="alphaZ">    137.49301500 </i>
    <i name="ewald">  -1060.24346889 </i>
    <i name="hartreedc">    -83.10460455 </i>
    <i name="XCdc">     16.65377776 </i>
    <i name="pawpsdc">    811.19729300 </i>
    <i name="pawaedc">   -794.98274959 </i>
    <i name="eentropy">     -0.00032652 </i>
    <i name="bandstr">     39.81442176 </i>
    <i name="atom">    929.42141189 </i>
    <i name="e_fr_energy">     -3.75123013 </i>
    <i name="e_wo_entrp">     -3.75090361 </i>
    <i name="e_0_energy">     -3.75112129 </i>
   </energy>
  </scstep>
  <structure>
   <crystal>
    <varray name="basis" >
     <v>       0.00000000       1.88365829       1.88365829 </v>
     <v>       1.88365829       0.00000000       1.88365829 </v>
     <v>       1.88365829       1.88365829      -0.00000000 </v>
    </varray>
    <i name="volume">     13.36707425 </i>
    <varray name="rec_basis" >
     <v>      -0.26544093       0.26544093       0.26544093 </v>
     <v>       0.26544093      -0.26544093       0.26544093 </v>
     <v>       0.26544093       0.26544093      -0.26544093 </v>
    </varray>
   </crystal>
   <varray name="positions" >
    <v>      -0.00000000       0.00000000       0.00000000 </v>
   </varray>
  </structure>
  <varray name="forces" >
   <v>       0.00000000       0.00000000       0.00000000 </v>
  </varray>
  <varray name="stress" >
   <v>     825.07067429      -0.00000000       0.00000000 </v>
   <v>      -0.00000000     825.07067429      -0.00000000 </v>
   <v>       0.00000000       0.00000000     825.07067429 </v>
  </varray>
  <energy>
   <i name="e_fr_energy">     -3.75123013 </i>
   <i name="e_wo_entrp">     -3.75112129 </i>
   <i name="e_0_energy">     -0.00032652 </i>
  </energy>
  <time name="totalsc">    4.71    4.76</time>
 </calculation>
 <calculation>
  <scstep>
   <time name="dav">    0.69    0.69</time>
   <time name="total">    0.73    0.74</time>
   <energy>
    <i name="alphaZ">    109.16079590 </i>
    <i name="ewald">   -981.75010990 </i>
    <i name="hartreedc">    -76.94720964 </i>
    <i name="XCdc">     14.25882097 </i>
    <i name="pawpsdc">    811.07334323 </i>
    <i name="pawaedc">   -794.86853688 </i>
    <i name="eentropy">     -0.00139837 </i>
    <i name="bandstr">    -20.41958453 </i>
    <i name="atom">    929.42141189 </i>
    <i name="e_fr_energy">    -10.07246734 </i>
    <i name="e_wo_entrp">    -10.07106897 </i>
    <i name="e_0_energy">    -10.07200122 </i>
   </energy>
  </scstep>
  <scstep>
   <time name="dav">    0.74    0.75</time>
   <time name="total">    0.79    0.80</time>
   <energy>
    <i name="e_fr_energy">     -4.78614980 </i>
    <i name="e_wo_entrp">     -4.78749801 </i>
    <i name="e_0_energy">     -4.78659921 </i>
   </energy>
  </scstep>
  <scstep>
   <time name="dav">    0.75    0.76</time>
   <time name="total">    0.80    0.81</time>
   <energy>
    <i name="e_fr_energy">     -4.44019141 </i>
    <i name="e_wo_entrp">     -4.44105244 </i>
    <i name="e_0_energy">     -4.44047842 </i>
   </energy>
  </scstep>
  <scstep>
   <time name="dav">    0.65    0.66</time>
   <time name="total">    0.70    0.71</time>
   <energy>
    <i name="e_fr_energy">     -4.42196204 </i>
    <i name="e_wo_entrp">     -4.42282719 </i>
    <i name="e_0_energy">     -4.42225043 </i>
   </energy>
  </scstep>
  <scstep>
   <time name="dav">    0.72    0.73</time>
   <time name="total">    0.77    0.78</time>
   <energy>
    <i name="e_fr_energy">     -4.42016000 </i>
    <i name="e_wo_entrp">     -4.42106291 </i>
    <i name="e_0_energy">     -4.42046097 </i>
   </energy>
  </scstep>
  <scstep>
   <time name="dav">    0.74    0.75</time>
   <time name="total">    0.79    0.79</time>
   <energy>
    <i name="e_fr_energy">     -4.42026878 </i>
    <i name="e_wo_entrp">     -4.42117202 </i>
    <i name="e_0_energy">     -4.42056986 </i>
   </energy>
  </scstep>
  <scstep>
   <time name="dav">    0.50    0.50</time>
   <time name="total">    0.50    0.51</time>
   <energy>
    <i name="alphaZ">    109.16079590 </i>
    <i name="ewald">   -981.75010990 </i>
    <i name="hartreedc">   -110.16667741 </i>
    <i name="XCdc">     15.76930173 </i>
    <i name="pawpsdc">    754.95337972 </i>
    <i name="pawaedc">   -737.12442420 </i>
    <i name="eentropy">      0.00090343 </i>
    <i name="bandstr">     15.31514073 </i>
    <i name="atom">    929.42141189 </i>
    <i name="e_fr_energy">     -4.42027812 </i>
    <i name="e_wo_entrp">     -4.42118155 </i>
    <i name="e_0_energy">     -4.42057927 </i>
   </energy>
  </scstep>
  <structure>
   <crystal>
    <varray name="basis" >
     <v>       0.00000000       2.03426145       2.03426145 </v>
     <v>       2.03426145       0.00000000       2.03426145 </v>
     <v>       2.03426145       2.03426145      -0.00000000 </v>
    </varray>
    <i name="volume">     16.83644137 </i>
    <varray name="rec_basis" >
     <v>      -0.24578945       0.24578945       0.24578945 </v>
     <v>       0.24578945      -0.24578945       0.24578945 </v>
     <v>       0.24578945       0.24578945      -0.24578945 </v>
    </varray>
   </crystal>
   <varray name="positions" >
    <v>      -0.00000000       0.00000000       0.00000000 </v>
   </varray>
  </structure>
  <varray name="forces" >
   <v>      -0.00000000      -0.00000000       0.00000000 </v>
  </varray>
  <varray name="stress" >
   <v>     -19.14081050       0.00000000      -0.00000000 </v>
   <v>       0.00000000     -19.14081050       0.00000000 </v>
   <v>      -0.00000000      -0.00000000     -19.14081050 </v>
  </varray>
  <energy>
   <i name="e_fr_energy">     -4.42027812 </i>
   <i name="e_wo_entrp">     -4.42057927 </i>
   <i name="e_0_energy">      0.00090343 </i>
  </energy>
  <time name="totalsc">    5.31    5.37</time>
 </calculation>
 <calculation>
  <scstep>
   <time name="dav">    0.64    0.65</time>
   <time name="total">    0.69    0.70</time>
   <energy>
    <i name="alphaZ">    109.38185835 </i>
    <i name="ewald">   -982.41237984 </i>
    <i name="hartreedc">   -110.24351543 </i>
    <i name="XCdc">     15.79137924 </i>
    <i name="pawpsdc">    755.05952921 </i>
    <i name="pawaedc">   -737.22745646 </i>
    <i name="eentropy">      0.00089969 </i>
    <i name="bandstr">     15.80713185 </i>
    <i name="atom">    929.42141189 </i>
    <i name="e_fr_energy">     -4.42114151 </i>
    <i name="e_wo_entrp">     -4.42204120 </i>
    <i name="e_0_energy">     -4.42144141 </i>
   </energy>
  </scstep>
  <scstep>
   <time name="dav">    0.66    0.66</time>
   <time name="total">    0.71    0.71</time>
   <energy>
    <i name="e_fr_energy">     -4.42065799 </i>
    <i name="e_wo_entrp">     -4.42156194 </i>
    <i name="e_0_energy">     -4.42095931 </i>
   </energy>
  </scstep>
  <scstep>
   <time name="dav">    0.47    0.47</time>
   <time name="total">    0.47    0.48</time>
   <energy>
    <i name="alphaZ">    109.38185835 </i>
    <i name="ewald">   -982.41237984 </i>
    <i name="hartreedc">   -109.91170780 </i>
    <i name="XCdc">     15.77567241 </i>
    <i name="pawpsdc">    755.10426733 </i>
    <i name="pawaedc">   -737.28405528 </i>
    <i name="eentropy">      0.00090385 </i>
    <i name="bandstr">     15.50338955 </i>
    <i name="atom">    929.42141189 </i>
    <i name="e_fr_energy">     -4.42063955 </i>
    <i name="e_wo_entrp">     -4.42154340 </i>
    <i name="e_0_energy">     -4.42094083 </i>
   </energy>
  </scstep>
  <structure>
   <crystal>
    <varray name="basis" >
     <v>      -0.00000000       2.03289010       2.03289010 </v>
     <v>       2.03289010       0.00000000       2.03289010 </v>
     <v>       2.03289010       2.03289010      -0.00000000 </v>
    </varray>
    <i name="volume">     16.80241466 </i>
    <varray name="rec_basis" >
     <v>      -0.24595525       0.24595525       0.24595525 </v>
     <v>       0.24595525      -0.24595525       0.24595525 </v>
     <v>       0.24595525       0.24595525      -0.24595525 </v>
    </varray>
   </crystal>
   <varray name="positions" >
    <v>       0.00000000       0.00000000      -0.00000000 </v>
   </varray>
  </structure>
  <varray name="forces" >
   <v>      -0.00000000      -0.00000000      -0.00000000 </v>
  </varray>
  <varray name="stress" >
   <v>     -14.46566818       0.00000000       0.00000000 </v>
   <v>       0.00000000     -14.46566818      -0.00000000 </v>
   <v>      -0.00000000      -0.00000000     -14.46566818 </v>
  </varray>
  <energy>
   <i name="e_fr_energy">     -4.42063955 </i>
   <i name="e_wo_entrp">     -4.42094083 </i>
   <i name="e_0_energy">      0.00090385 </i>
  </energy>
  <time name="totalsc">    2.10    2.13</time>
 </calculation>
 <calculation>
  <scstep>
   <time name="dav">    0.69    0.70</time>
   <time name="total">    0.74    0.75</time>
   <energy>
    <i name="alphaZ">    110.04863758 </i>
    <i name="ewald">   -984.40456158 </i>
    <i name="hartreedc">   -110.14015906 </i>
    <i name="XCdc">     15.84203003 </i>
    <i name="pawpsdc">    755.41079801 </i>
    <i name="pawaedc">   -737.59068703 </i>
    <i name="eentropy">      0.00082619 </i>
    <i name="bandstr">     16.98590532 </i>
    <i name="atom">    929.42141189 </i>
    <i name="e_fr_energy">     -4.42579865 </i>
    <i name="e_wo_entrp">     -4.42662484 </i>
    <i name="e_0_energy">     -4.42607405 </i>
   </energy>
  </scstep>
  <scstep>
   <time name="dav">    0.69    0.70</time>
   <time name="total">    0.74    0.74</time>
   <energy>
    <i name="e_fr_energy">     -4.42139599 </i>
    <i name="e_wo_entrp">     -4.42228884 </i>
    <i name="e_0_energy">     -4.42169361 </i>
   </energy>
  </scstep>
  <scstep>
   <time name="dav">    0.63    0.64</time>
   <time name="total">    0.68    0.68</time>
   <energy>
    <i name="e_fr_energy">     -4.42122533 </i>
    <i name="e_wo_entrp">     -4.42212460 </i>
    <i name="e_0_energy">     -4.42152508 </i>
   </energy>
  </scstep>
  <scstep>
   <time name="dav">    0.51    0.52</time>
   <time name="total">    0.52    0.53</time>
   <energy>
    <i name="alphaZ">    110.04863758 </i>
    <i name="ewald">   -984.40456158 </i>
    <i name="hartreedc">   -109.15339227 </i>
    <i name="XCdc">     15.79570041 </i>
    <i name="pawpsdc">    756.42483515 </i>
    <i name="pawaedc">   -738.64253200 </i>
    <i name="eentropy">      0.00089915 </i>
    <i name="bandstr">     16.08778126 </i>
    <i name="atom">    929.42141189 </i>
    <i name="e_fr_energy">     -4.42122041 </i>
    <i name="e_wo_entrp">     -4.42211956 </i>
    <i name="e_0_energy">     -4.42152012 </i>
   </energy>
  </scstep>
  <structure>
   <crystal>
    <varray name="basis" >
     <v>      -0.00000000       2.02877605       2.02877605 </v>
     <v>       2.02877605       0.00000000       2.02877605 </v>
     <v>       2.02877605       2.02877605       0.00000000 </v>
    </varray>
    <i name="volume">     16.70060966 </i>
    <varray name="rec_basis" >
     <v>      -0.24645401       0.24645401       0.24645401 </v>
     <v>       0.24645401      -0.24645401       0.24645401 </v>
     <v>       0.24645401       0.24645401      -0.24645401 </v>
    </varray>
   </crystal>
   <varray name="positions" >
    <v>       0.00000000       0.00000000      -0.00000000 </v>
   </varray>
  </structure>
  <varray name="forces" >
   <v>       0.00000000       0.00000000       0.00000000 </v>
  </varray>
  <varray name="stress" >
   <v>      -4.66292027      -0.00000000      -0.00000000 </v>
   <v>       0.00000000      -4.66292027      -0.00000000 </v>
   <v>       0.00000000      -0.00000000      -4.66292027 </v>
  </varray>
  <energy>
   <i name="e_fr_energy">     -4.42122041 </i>
   <i name="e_wo_entrp">     -4.42152012 </i>
   <i name="e_0_energy">      0.00089915 </i>
  </energy>
  <time name="totalsc">    2.92    2.95</time>
  <eigenvalues>
   <array>
    <dimension dim="1">band</dimension>
    <dimension dim="2">kpoint</dimension>
    <dimension dim="3">spin</dimension>
    <field>eigene</field>
    <field>occ</field>
    <set>
     <set comment="spin 1">
      <set comment="kpoint 1">
       <r>   -4.2387    1.0000 </r>
       <r>    0.9628    1.0000 </r>
       <r>    1.0245    1.0000 </r>
       <r>    1.0245    1.0000 </r>
       <r>    2.5756    1.0000 </r>
       <r>    2.5756    1.0000 </r>
       <r>   21.2471    0.0000 </r>
       <r>   24.4266    0.0000 </r>
       <r>   25.2026    0.0000 </r>
       <r>   25.2026    0.0000 </r>
       <r>   30.0680    0.0000 </r>
       <r>   33.1639    0.0000 </r>
      </set>
      <set comment="kpoint 2">
       <r>   -3.7765    1.0000 </r>
       <r>    0.8055    1.0000 </r>
       <r>    1.1677    1.0000 </r>
       <r>    1.2009    1.0000 </r>
       <r>    2.4228    1.0000 </r>
       <r>    2.6277    1.0000 </r>
       <r>   21.5904    0.0000 </r>
       <r>   22.4590    0.0000 </r>
       <r>   24.8433    0.0000 </r>
       <r>   26.1411    0.0000 </r>
       <r>   29.5329    0.0000 </r>
       <r>   32.1860    0.0000 </r>
      </set>
      <set comment="kpoint 3">
       <r>   -2.7777    1.0000 </r>
       <r>    0.6849    1.0000 </r>
       <r>    1.3241    1.0000 </r>
       <r>    1.3473    1.0000 </r>
       <r>    2.4326    1.0000 </r>
       <r>    2.8497    1.0000 </r>
       <r>   18.5819    0.0000 </r>
       <r>   22.2067    0.0000 </r>
       <r>   25.0430    0.0000 </r>
       <r>   27.4466    0.0000 </r>
       <r>   27.4992    0.0000 </r>
       <r>   29.9699    0.0000 </r>
      </set>
      <set comment="kpoint 4">
       <r>   -1.8890    1.0000 </r>
       <r>    1.1394    1.0000 </r>
       <r>    1.2286    1.0000 </r>
       <r>    1.3694    1.0000 </r>
       <r>    2.9375    1.0000 </r>
       <r>    3.4364    1.0000 </r>
       <r>   14.5385    0.0000 </r>
       <r>   21.5135    0.0000 </r>
       <r>   24.0854    0.0000 </r>
       <r>   26.3117    0.0000 </r>
       <r>   28.6807    0.0000 </r>
       <r>   29.7883    0.0000 </r>
      </set>
      <set comment="kpoint 5">
       <r>   -1.6713    1.0000 </r>
       <r>    0.9838    1.0000 </r>
       <r>    1.0560    1.0000 </r>
       <r>    2.9069    1.0000 </r>
       <r>    3.5537    1.0000 </r>
       <r>    4.3243    1.0000 </r>
       <r>   10.7277   -0.0000 </r>
       <r>   20.7328    0.0000 </r>
       <r>   23.1355    0.0000 </r>
       <r>   24.2574    0.0000 </r>
       <r>   30.4936    0.0000 </r>
       <r>   30.7778    0.0000 </r>
      </set>
      <set comment="kpoint 6">
       <r>   -1.6676    1.0000 </r>
       <r>    0.9154    1.0000 </r>
       <r>    1.0154    1.0000 </r>
       <r>    3.3385    1.0000 </r>
       <r>    3.8468    1.0000 </r>
       <r>    5.1837    1.0001 </r>
       <r>    9.0562   -0.0000 </r>
       <r>   20.5195    0.0000 </r>
       <r>   23.1873    0.0000 </r>
       <r>   23.3082    0.0000 </r>
       <r>   31.0024    0.0000 </r>
       <r>   31.0799    0.0000 </r>
      </set>
      <set comment="kpoint 7">
       <r>   -1.6967    1.0000 </r>
       <r>    1.0152    1.0000 </r>
       <r>    1.1289    1.0000 </r>
       <r>    2.3278    1.0000 </r>
       <r>    3.6379    1.0000 </r>
       <r>    3.7604    1.0000 </r>
       <r>   11.9116    0.0000 </r>
       <r>   20.9726    0.0000 </r>
       <r>   23.6134    0.0000 </r>
       <r>   24.4539    0.0000 </r>
       <r>   30.4422    0.0000 </r>
       <r>   30.5849    0.0000 </r>
      </set>
      <set comment="kpoint 8">
       <r>   -2.1125    1.0000 </r>
       <r>    0.9412    1.0000 </r>
       <r>    1.2440    1.0000 </r>
       <r>    1.3065    1.0000 </r>
       <r>    2.8436    1.0000 </r>
       <r>    3.1191    1.0000 </r>
       <r>   15.8967    0.0000 </r>
       <r>   21.8945    0.0000 </r>
       <r>   24.5870    0.0000 </r>
       <r>   26.4438    0.0000 </r>
       <r>   28.3547    0.0000 </r>
       <r>   30.1662    0.0000 </r>
      </set>
      <set comment="kpoint 9">
       <r>   -3.1445    1.0000 </r>
       <r>    0.6738    1.0000 </r>
       <r>    1.3160    1.0000 </r>
       <r>    1.3295    1.0000 </r>
       <r>    2.3876    1.0000 </r>
       <r>    2.7214    1.0000 </r>
       <r>   19.8674    0.0000 </r>
       <r>   22.2997    0.0000 </r>
       <r>   25.0482    0.0000 </r>
       <r>   26.5930    0.0000 </r>
       <r>   28.2437    0.0000 </r>
       <r>   30.8378    0.0000 </r>
      </set>
      <set comment="kpoint 10">
       <r>   -4.0036    1.0000 </r>
       <r>    0.8517    1.0000 </r>
       <r>    1.1228    1.0000 </r>
       <r>    1.1288    1.0000 </r>
       <r>    2.4472    1.0000 </r>
       <r>    2.6349    1.0000 </r>
       <r>   21.4945    0.0000 </r>
       <r>   23.5058    0.0000 </r>
       <r>   24.9521    0.0000 </r>
       <r>   25.3285    0.0000 </r>
       <r>   30.6890    0.0000 </r>
       <r>   32.3889    0.0000 </r>
      </set>
      <set comment="kpoint 11">
       <r>   -3.5471    1.0000 </r>
       <r>    0.6300    1.0000 </r>
       <r>    1.3299    1.0000 </r>
       <r>    1.3338    1.0000 </r>
       <r>    2.2222    1.0000 </r>
       <r>    2.7493    1.0000 </r>
       <r>   21.8946    0.0000 </r>
       <r>   22.6328    0.0000 </r>
       <r>   24.2972    0.0000 </r>
       <r>   24.9239    0.0000 </r>
       <r>   29.9444    0.0000 </r>
       <r>   31.6199    0.0000 </r>
      </set>
      <set comment="kpoint 12">
       <r>   -2.7168    1.0000 </r>
       <r>    0.3766    1.0000 </r>
       <r>    1.4303    1.0000 </r>
       <r>    1.6195    1.0000 </r>
       <r>    2.1684    1.0000 </r>
       <r>    2.9776    1.0000 </r>
       <r>   20.1253    0.0000 </r>
       <r>   21.9266    0.0000 </r>
       <r>   23.9024    0.0000 </r>
       <r>   25.1591    0.0000 </r>
       <r>   27.9162    0.0000 </r>
       <r>   30.7891    0.0000 </r>
      </set>
      <set comment="kpoint 13">
       <r>   -1.6997    1.0000 </r>
       <r>    0.4645    1.0000 </r>
       <r>    1.1201    1.0000 </r>
       <r>    1.6292    1.0000 </r>
       <r>    2.8475    1.0000 </r>
       <r>    3.5746    1.0000 </r>
       <r>   16.1281    0.0000 </r>
       <r>   21.3856    0.0000 </r>
       <r>   22.8395    0.0000 </r>
       <r>   25.0438    0.0000 </r>
       <r>   28.6965    0.0000 </r>
       <r>   30.4856    0.0000 </r>
      </set>
      <set comment="kpoint 14">
       <r>   -1.3148    1.0000 </r>
       <r>    0.8096    1.0000 </r>
       <r>    1.3596    1.0000 </r>
       <r>    1.5220    1.0000 </r>
       <r>    3.6192    1.0000 </r>
       <r>    4.7714    1.0000 </r>
       <r>   12.1055    0.0000 </r>
       <r>   20.8696    0.0000 </r>
       <r>   21.5833    0.0000 </r>
       <r>   23.7375    0.0000 </r>
       <r>   30.5046    0.0000 </r>
       <r>   31.6294    0.0000 </r>
      </set>
      <set comment="kpoint 15">
       <r>   -1.2943    1.0000 </r>
       <r>    0.6774    1.0000 </r>
       <r>    1.3217    1.0000 </r>
       <r>    2.2715    1.0000 </r>
       <r>    3.7981    1.0000 </r>
       <r>    6.6509   -0.0000 </r>
       <r>    9.0373   -0.0000 </r>
       <r>   20.3989    0.0000 </r>
       <r>   21.2369    0.0000 </r>
       <r>   22.9553    0.0000 </r>
       <r>   30.9840    0.0000 </r>
       <r>   32.0354    0.0000 </r>
      </set>
      <set comment="kpoint 16">
       <r>   -1.2766    1.0000 </r>
       <r>    0.7603    1.0000 </r>
       <r>    1.3478    1.0000 </r>
       <r>    1.9350    1.0000 </r>
       <r>    3.4699    1.0000 </r>
       <r>    5.4849    1.0271 </r>
       <r>   10.9552   -0.0000 </r>
       <r>   20.1009    0.0000 </r>
       <r>   21.6594    0.0000 </r>
       <r>   23.9116    0.0000 </r>
       <r>   30.1427    0.0000 </r>
       <r>   31.6864    0.0000 </r>
      </set>
      <set comment="kpoint 17">
       <r>   -1.4567    1.0000 </r>
       <r>    0.7528    1.0000 </r>
       <r>    1.0688    1.0000 </r>
       <r>    1.5416    1.0000 </r>
       <r>    2.7568    1.0000 </r>
       <r>    4.1271    1.0000 </r>
       <r>   14.7830    0.0000 </r>
       <r>   20.3703    0.0000 </r>
       <r>   22.7647    0.0000 </r>
       <r>   25.9172    0.0000 </r>
       <r>   28.2921    0.0000 </r>
       <r>   30.7900    0.0000 </r>
      </set>
      <set comment="kpoint 18">
       <r>   -2.3571    1.0000 </r>
       <r>    0.4217    1.0000 </r>
       <r>    1.3217    1.0000 </r>
       <r>    1.6431    1.0000 </r>
       <r>    2.1630    1.0000 </r>
       <r>    3.2469    1.0000 </r>
       <r>   18.7216    0.0000 </r>
       <r>   21.0093    0.0000 </r>
       <r>   24.4723    0.0000 </r>
       <r>   25.4850    0.0000 </r>
       <r>   29.0033    0.0000 </r>
       <r>   29.6552    0.0000 </r>
      </set>
      <set comment="kpoint 19">
       <r>   -3.3359    1.0000 </r>
       <r>    0.6349    1.0000 </r>
       <r>    1.3320    1.0000 </r>
       <r>    1.3427    1.0000 </r>
       <r>    2.2639    1.0000 </r>
       <r>    2.7592    1.0000 </r>
       <r>   21.1094    0.0000 </r>
       <r>   22.0581    0.0000 </r>
       <r>   24.4075    0.0000 </r>
       <r>   26.2345    0.0000 </r>
       <r>   28.6123    0.0000 </r>
       <r>   31.6346    0.0000 </r>
      </set>
      <set comment="kpoint 20">
       <r>   -2.1639    1.0000 </r>
       <r>    0.0104    1.0000 </r>
       <r>    1.5871    1.0000 </r>
       <r>    2.0125    1.0000 </r>
       <r>    2.2100    1.0000 </r>
       <r>    3.1024    1.0000 </r>
       <r>   20.5954    0.0000 </r>
       <r>   21.7329    0.0000 </r>
       <r>   22.8030    0.0000 </r>
       <r>   23.6919    0.0000 </r>
       <r>   24.9621    0.0000 </r>
       <r>   32.2637    0.0000 </r>
      </set>
      <set comment="kpoint 21">
       <r>   -1.3605    1.0000 </r>
       <r>   -0.2198    1.0000 </r>
       <r>    1.3216    1.0000 </r>
       <r>    2.3706    1.0000 </r>
       <r>    2.8858    1.0000 </r>
       <r>    3.5969    1.0000 </r>
       <r>   17.8581    0.0000 </r>
       <r>   19.8206    0.0000 </r>
       <r>   21.4543    0.0000 </r>
       <r>   24.1625    0.0000 </r>
       <r>   25.5535    0.0000 </r>
       <r>   32.3235    0.0000 </r>
      </set>
      <set comment="kpoint 22">
       <r>   -0.8936    1.0000 </r>
       <r>    0.0452    1.0000 </r>
       <r>    1.0686    1.0000 </r>
       <r>    2.2334    1.0000 </r>
       <r>    3.7097    1.0000 </r>
       <r>    5.0499    1.0000 </r>
       <r>   13.7514    0.0000 </r>
       <r>   19.1348    0.0000 </r>
       <r>   19.7073    0.0000 </r>
       <r>   23.7716    0.0000 </r>
       <r>   28.7739    0.0000 </r>
       <r>   32.2820    0.0000 </r>
      </set>
      <set comment="kpoint 23">
       <r>   -0.7734    1.0000 </r>
       <r>    0.3139    1.0000 </r>
       <r>    1.2752    1.0000 </r>
       <r>    2.0282    1.0000 </r>
       <r>    3.8344    1.0000 </r>
       <r>    7.5332   -0.0000 </r>
       <r>   10.1355   -0.0000 </r>
       <r>   17.8358    0.0000 </r>
       <r>   19.7785    0.0000 </r>
       <r>   23.3473    0.0000 </r>
       <r>   31.3684    0.0000 </r>
       <r>   32.9562    0.0000 </r>
      </set>
      <set comment="kpoint 24">
       <r>   -0.5975    1.0000 </r>
       <r>    0.3813    1.0000 </r>
       <r>    1.2957    1.0000 </r>
       <r>    1.9205    1.0000 </r>
       <r>    3.4227    1.0000 </r>
       <r>    7.3714   -0.0000 </r>
       <r>   10.6765   -0.0000 </r>
       <r>   16.7406    0.0000 </r>
       <r>   20.9851    0.0000 </r>
       <r>   23.5277    0.0000 </r>
       <r>   30.5154    0.0000 </r>
       <r>   32.8878    0.0000 </r>
      </set>
      <set comment="kpoint 25">
       <r>   -0.5128    1.0000 </r>
       <r>    0.4600    1.0000 </r>
       <r>    0.7225    1.0000 </r>
       <r>    2.0035    1.0000 </r>
       <r>    2.7145    1.0000 </r>
       <r>    5.5616    1.0338 </r>
       <r>   14.0914    0.0000 </r>
       <r>   16.6631    0.0000 </r>
       <r>   22.2228    0.0000 </r>
       <r>   25.0106    0.0000 </r>
       <r>   28.3067    0.0000 </r>
       <r>   32.7054    0.0000 </r>
      </set>
      <set comment="kpoint 26">
       <r>   -1.2981    1.0000 </r>
       <r>    0.3414    1.0000 </r>
       <r>    1.0411    1.0000 </r>
       <r>    1.8781    1.0000 </r>
       <r>    2.3053    1.0000 </r>
       <r>    4.2199    1.0000 </r>
       <r>   16.2414    0.0000 </r>
       <r>   18.9218    0.0000 </r>
       <r>   23.2369    0.0000 </r>
       <r>   26.3175    0.0000 </r>
       <r>   27.4170    0.0000 </r>
       <r>   31.3358    0.0000 </r>
      </set>
      <set comment="kpoint 27">
       <r>   -2.2728    1.0000 </r>
       <r>    0.6062    1.0000 </r>
       <r>    1.2939    1.0000 </r>
       <r>    1.4462    1.0000 </r>
       <r>    2.4973    1.0000 </r>
       <r>    3.1723    1.0000 </r>
       <r>   17.3408    0.0000 </r>
       <r>   21.9357    0.0000 </r>
       <r>   24.0642    0.0000 </r>
       <r>   26.4913    0.0000 </r>
       <r>   28.2861    0.0000 </r>
       <r>   29.7084    0.0000 </r>
      </set>
      <set comment="kpoint 28">
       <r>   -1.2223    1.0000 </r>
       <r>   -0.6083    1.0000 </r>
       <r>    2.2223    1.0000 </r>
       <r>    2.9164    1.0000 </r>
       <r>    3.3529    1.0000 </r>
       <r>    3.5297    1.0000 </r>
       <r>   17.7943    0.0000 </r>
       <r>   18.7935    0.0000 </r>
       <r>   19.0634    0.0000 </r>
       <r>   23.0191    0.0000 </r>
       <r>   24.9354    0.0000 </r>
       <r>   34.7502    0.0000 </r>
      </set>
      <set comment="kpoint 29">
       <r>   -1.0764    1.0000 </r>
       <r>   -0.7197    1.0000 </r>
       <r>    2.2735    1.0000 </r>
       <r>    3.2239    1.0000 </r>
       <r>    3.7241    1.0000 </r>
       <r>    5.0976    1.0000 </r>
       <r>   14.9567    0.0000 </r>
       <r>   17.0898    0.0000 </r>
       <r>   17.7112    0.0000 </r>
       <r>   24.0441    0.0000 </r>
       <r>   25.9492    0.0000 </r>
       <r>   34.3179    0.0000 </r>
      </set>
      <set comment="kpoint 30">
       <r>   -0.9056    1.0000 </r>
       <r>   -0.3986    1.0000 </r>
       <r>    1.9074    1.0000 </r>
       <r>    2.9113    1.0000 </r>
       <r>    3.9356    1.0000 </r>
       <r>    7.7603   -0.0000 </r>
       <r>   11.7037    0.0000 </r>
       <r>   15.3483    0.0000 </r>
       <r>   17.8258    0.0000 </r>
       <r>   24.2531    0.0000 </r>
       <r>   28.7097    0.0000 </r>
       <r>   33.3019    0.0000 </r>
      </set>
      <set comment="kpoint 31">
       <r>   -0.6056    1.0000 </r>
       <r>    0.1216    1.0000 </r>
       <r>    1.3479    1.0000 </r>
       <r>    2.5707    1.0000 </r>
       <r>    3.6015    1.0000 </r>
       <r>    8.9925   -0.0000 </r>
       <r>   11.1295   -0.0000 </r>
       <r>   13.6664    0.0000 </r>
       <r>   19.1800    0.0000 </r>
       <r>   24.0056    0.0000 </r>
       <r>   31.8758    0.0000 </r>
       <r>   32.3060    0.0000 </r>
      </set>
      <set comment="kpoint 32">
       <r>   -0.3143    1.0000 </r>
       <r>    0.4245    1.0000 </r>
       <r>    0.8400    1.0000 </r>
       <r>    2.2013    1.0000 </r>
       <r>    3.1764    1.0000 </r>
       <r>    7.1978   -0.0000 </r>
       <r>   12.5485    0.0000 </r>
       <r>   14.6681    0.0000 </r>
       <r>   20.9883    0.0000 </r>
       <r>   23.9019    0.0000 </r>
       <r>   30.1840    0.0000 </r>
       <r>   33.1378    0.0000 </r>
      </set>
      <set comment="kpoint 33">
       <r>   -0.9102    1.0000 </r>
       <r>    0.6577    1.0000 </r>
       <r>    1.1638    1.0000 </r>
       <r>    1.6895    1.0000 </r>
       <r>    3.0877    1.0000 </r>
       <r>    5.5421    1.0355 </r>
       <r>   12.4896    0.0000 </r>
       <r>   18.4092    0.0000 </r>
       <r>   21.9506    0.0000 </r>
       <r>   24.4856    0.0000 </r>
       <r>   29.1386    0.0000 </r>
       <r>   32.1608    0.0000 </r>
      </set>
      <set comment="kpoint 34">
       <r>   -1.6167    1.0000 </r>
       <r>    1.0178    1.0000 </r>
       <r>    1.2727    1.0000 </r>
       <r>    1.5238    1.0000 </r>
       <r>    3.2237    1.0000 </r>
       <r>    3.9465    1.0000 </r>
       <r>   13.2761    0.0000 </r>
       <r>   21.2026    0.0000 </r>
       <r>   22.8724    0.0000 </r>
       <r>   25.1576    0.0000 </r>
       <r>   29.5370    0.0000 </r>
       <r>   30.5354    0.0000 </r>
      </set>
      <set comment="kpoint 35">
       <r>   -1.3450    1.0000 </r>
       <r>   -1.0165    1.0000 </r>
       <r>    3.6185    1.0000 </r>
       <r>    3.6206    1.0000 </r>
       <r>    3.9680    1.0000 </r>
       <r>    5.5767    1.0298 </r>
       <r>   13.5752    0.0000 </r>
       <r>   16.3465    0.0000 </r>
       <r>   16.6809    0.0000 </r>
       <r>   23.3506    0.0000 </r>
       <r>   25.7440    0.0000 </r>
       <r>   35.6389    0.0000 </r>
      </set>
      <set comment="kpoint 36">
       <r>   -1.2701    1.0000 </r>
       <r>   -0.9649    1.0000 </r>
       <r>    3.2215    1.0000 </r>
       <r>    3.5710    1.0000 </r>
       <r>    4.1199    1.0000 </r>
       <r>    7.6207   -0.0000 </r>
       <r>   11.6906    0.0000 </r>
       <r>   15.3050    0.0000 </r>
       <r>   16.2747    0.0000 </r>
       <r>   24.2998    0.0000 </r>
       <r>   26.3069    0.0000 </r>
       <r>   34.7569    0.0000 </r>
      </set>
      <set comment="kpoint 37">
       <r>   -0.9609    1.0000 </r>
       <r>   -0.4916    1.0000 </r>
       <r>    2.2045    1.0000 </r>
       <r>    3.0864    1.0000 </r>
       <r>    3.9323    1.0000 </r>
       <r>    9.2057   -0.0000 </r>
       <r>   10.8135   -0.0000 </r>
       <r>   14.0190    0.0000 </r>
       <r>   17.4736    0.0000 </r>
       <r>   24.4476    0.0000 </r>
       <r>   28.7162    0.0000 </r>
       <r>   33.4643    0.0000 </r>
      </set>
      <set comment="kpoint 38">
       <r>   -0.6400    1.0000 </r>
       <r>    0.1702    1.0000 </r>
       <r>    1.3036    1.0000 </r>
       <r>    2.3422    1.0000 </r>
       <r>    3.7293    1.0000 </r>
       <r>    9.0866   -0.0000 </r>
       <r>    9.6232   -0.0000 </r>
       <r>   15.6829    0.0000 </r>
       <r>   19.3793    0.0000 </r>
       <r>   23.7286    0.0000 </r>
       <r>   31.5925    0.0000 </r>
       <r>   32.6663    0.0000 </r>
      </set>
      <set comment="kpoint 39">
       <r>   -0.9668    1.0000 </r>
       <r>    0.4995    1.0000 </r>
       <r>    1.5945    1.0000 </r>
       <r>    1.7927    1.0000 </r>
       <r>    3.6677    1.0000 </r>
       <r>    7.4940   -0.0000 </r>
       <r>    9.1890   -0.0000 </r>
       <r>   18.7866    0.0000 </r>
       <r>   20.9945    0.0000 </r>
       <r>   23.0867    0.0000 </r>
       <r>   30.8677    0.0000 </r>
       <r>   32.5095    0.0000 </r>
      </set>
      <set comment="kpoint 40">
       <r>   -1.5352    1.0000 </r>
       <r>    0.8534    1.0000 </r>
       <r>    1.1347    1.0000 </r>
       <r>    2.7020    1.0000 </r>
       <r>    3.7522    1.0000 </r>
       <r>    5.3573    1.0048 </r>
       <r>    9.7435   -0.0000 </r>
       <r>   20.6565    0.0000 </r>
       <r>   22.3151    0.0000 </r>
       <r>   23.4750    0.0000 </r>
       <r>   30.8336    0.0000 </r>
       <r>   31.3561    0.0000 </r>
      </set>
      <set comment="kpoint 41">
       <r>   -1.4219    1.0000 </r>
       <r>   -1.1031    1.0000 </r>
       <r>    3.7411    1.0000 </r>
       <r>    3.9158    1.0000 </r>
       <r>    4.1331    1.0000 </r>
       <r>    6.7966   -0.0000 </r>
       <r>   11.9282    0.0000 </r>
       <r>   15.8314    0.0000 </r>
       <r>   16.1999    0.0000 </r>
       <r>   23.4834    0.0000 </r>
       <r>   25.9119    0.0000 </r>
       <r>   35.4348    0.0000 </r>
      </set>
      <set comment="kpoint 42">
       <r>   -1.1904    1.0000 </r>
       <r>   -0.8813    1.0000 </r>
       <r>    2.8484    1.0000 </r>
       <r>    3.5030    1.0000 </r>
       <r>    3.9600    1.0000 </r>
       <r>    6.3836   -0.0001 </r>
       <r>   13.2087    0.0000 </r>
       <r>   15.9106    0.0000 </r>
       <r>   16.7477    0.0000 </r>
       <r>   24.1863    0.0000 </r>
       <r>   26.1830    0.0000 </r>
       <r>   34.7001    0.0000 </r>
      </set>
      <set comment="kpoint 43">
       <r>   -0.8467    1.0000 </r>
       <r>   -0.2111    1.0000 </r>
       <r>    1.4637    1.0000 </r>
       <r>    2.5963    1.0000 </r>
       <r>    3.8843    1.0000 </r>
       <r>    6.3013   -0.0008 </r>
       <r>   12.6623    0.0000 </r>
       <r>   17.2690    0.0000 </r>
       <r>   18.5251    0.0000 </r>
       <r>   23.9667    0.0000 </r>
       <r>   28.7235    0.0000 </r>
       <r>   32.9160    0.0000 </r>
      </set>
      <set comment="kpoint 44">
       <r>   -1.0163    1.0000 </r>
       <r>    0.5505    1.0000 </r>
       <r>    1.3062    1.0000 </r>
       <r>    1.7260    1.0000 </r>
       <r>    3.8176    1.0000 </r>
       <r>    6.0103   -0.0333 </r>
       <r>   11.0418   -0.0000 </r>
       <r>   19.8969    0.0000 </r>
       <r>   20.3385    0.0000 </r>
       <r>   23.1726    0.0000 </r>
       <r>   31.0621    0.0000 </r>
       <r>   32.7340    0.0000 </r>
      </set>
      <set comment="kpoint 45">
       <r>   -1.2361    1.0000 </r>
       <r>   -0.8480    1.0000 </r>
       <r>    3.0240    1.0000 </r>
       <r>    3.3373    1.0000 </r>
       <r>    3.7448    1.0000 </r>
       <r>    4.2763    1.0000 </r>
       <r>   15.7634    0.0000 </r>
       <r>   17.3589    0.0000 </r>
       <r>   17.5780    0.0000 </r>
       <r>   23.1546    0.0000 </r>
       <r>   25.4127    0.0000 </r>
       <r>   35.7352    0.0000 </r>
      </set>
      <set comment="kpoint 46">
       <r>   -1.0586    1.0000 </r>
       <r>   -0.4930    1.0000 </r>
       <r>    1.6619    1.0000 </r>
       <r>    2.8091    1.0000 </r>
       <r>    3.3870    1.0000 </r>
       <r>    4.1428    1.0000 </r>
       <r>   16.5010    0.0000 </r>
       <r>   18.4689    0.0000 </r>
       <r>   19.3788    0.0000 </r>
       <r>   24.0091    0.0000 </r>
       <r>   25.6597    0.0000 </r>
       <r>   33.4370    0.0000 </r>
      </set>
      <set comment="kpoint 47">
       <r>   -1.1847    1.0000 </r>
       <r>    0.2877    1.0000 </r>
       <r>    0.9527    1.0000 </r>
       <r>    1.8973    1.0000 </r>
       <r>    3.3499    1.0000 </r>
       <r>    4.1335    1.0000 </r>
       <r>   14.9249    0.0000 </r>
       <r>   20.3987    0.0000 </r>
       <r>   21.4638    0.0000 </r>
       <r>   23.9834    0.0000 </r>
       <r>   28.8144    0.0000 </r>
       <r>   31.4435    0.0000 </r>
      </set>
      <set comment="kpoint 48">
       <r>   -1.5194    1.0000 </r>
       <r>   -0.3147    1.0000 </r>
       <r>    1.6719    1.0000 </r>
       <r>    2.4530    1.0000 </r>
       <r>    2.7060    1.0000 </r>
       <r>    3.3143    1.0000 </r>
       <r>   19.3267    0.0000 </r>
       <r>   20.2192    0.0000 </r>
       <r>   21.4067    0.0000 </r>
       <r>   23.1724    0.0000 </r>
       <r>   24.3802    0.0000 </r>
       <r>   33.3705    0.0000 </r>
      </set>
      <set comment="kpoint 49">
       <r>   -1.9983    1.0000 </r>
       <r>    0.0794    1.0000 </r>
       <r>    1.3456    1.0000 </r>
       <r>    1.9668    1.0000 </r>
       <r>    2.4058    1.0000 </r>
       <r>    3.2530    1.0000 </r>
       <r>   19.0611    0.0000 </r>
       <r>   21.0927    0.0000 </r>
       <r>   23.2040    0.0000 </r>
       <r>   24.3093    0.0000 </r>
       <r>   26.3724    0.0000 </r>
       <r>   31.2921    0.0000 </r>
      </set>
      <set comment="kpoint 50">
       <r>   -2.9052    1.0000 </r>
       <r>    0.3368    1.0000 </r>
       <r>    1.5774    1.0000 </r>
       <r>    1.6320    1.0000 </r>
       <r>    2.0139    1.0000 </r>
       <r>    2.9091    1.0000 </r>
       <r>   21.5665    0.0000 </r>
       <r>   22.6489    0.0000 </r>
       <r>   23.1680    0.0000 </r>
       <r>   24.1426    0.0000 </r>
       <r>   27.6038    0.0000 </r>
       <r>   31.6061    0.0000 </r>
      </set>
      <set comment="kpoint 51">
       <r>   -3.5610    1.0000 </r>
       <r>    0.7895    1.0000 </r>
       <r>    1.2189    1.0000 </r>
       <r>    1.2189    1.0000 </r>
       <r>    2.5282    1.0000 </r>
       <r>    2.5282    1.0000 </r>
       <r>   20.9557    0.0000 </r>
       <r>   22.1775    0.0000 </r>
       <r>   25.8424    0.0000 </r>
       <r>   25.8424    0.0000 </r>
       <r>   29.1093    0.0000 </r>
       <r>   31.5342    0.0000 </r>
      </set>
      <set comment="kpoint 52">
       <r>   -2.9280    1.0000 </r>
       <r>    0.5781    1.0000 </r>
       <r>    1.3502    1.0000 </r>
       <r>    1.4320    1.0000 </r>
       <r>    2.2073    1.0000 </r>
       <r>    2.9247    1.0000 </r>
       <r>   19.8943    0.0000 </r>
       <r>   21.6779    0.0000 </r>
       <r>   24.5234    0.0000 </r>
       <r>   26.7581    0.0000 </r>
       <r>   27.8870    0.0000 </r>
       <r>   31.0246    0.0000 </r>
      </set>
      <set comment="kpoint 53">
       <r>   -1.8634    1.0000 </r>
       <r>    0.4175    1.0000 </r>
       <r>    1.2387    1.0000 </r>
       <r>    1.7242    1.0000 </r>
       <r>    2.1137    1.0000 </r>
       <r>    3.6854    1.0000 </r>
       <r>   17.4308    0.0000 </r>
       <r>   20.0090    0.0000 </r>
       <r>   24.1703    0.0000 </r>
       <r>   25.9274    0.0000 </r>
       <r>   28.3679    0.0000 </r>
       <r>   30.3579    0.0000 </r>
      </set>
      <set comment="kpoint 54">
       <r>   -1.1896    1.0000 </r>
       <r>    0.8102    1.0000 </r>
       <r>    1.1866    1.0000 </r>
       <r>    1.5141    1.0000 </r>
       <r>    2.8077    1.0000 </r>
       <r>    4.7669    1.0000 </r>
       <r>   13.5718    0.0000 </r>
       <r>   19.3647    0.0000 </r>
       <r>   22.5728    0.0000 </r>
       <r>   25.4458    0.0000 </r>
       <r>   28.3632    0.0000 </r>
       <r>   31.4704    0.0000 </r>
      </set>
      <set comment="kpoint 55">
       <r>   -1.1612    1.0000 </r>
       <r>    0.6630    1.0000 </r>
       <r>    1.3996    1.0000 </r>
       <r>    2.0417    1.0000 </r>
       <r>    3.5172    1.0000 </r>
       <r>    6.3718   -0.0001 </r>
       <r>    9.9802   -0.0000 </r>
       <r>   19.3743    0.0000 </r>
       <r>   21.9167    0.0000 </r>
       <r>   23.0866    0.0000 </r>
       <r>   30.6725    0.0000 </r>
       <r>   31.7158    0.0000 </r>
      </set>
      <set comment="kpoint 56">
       <r>   -1.2012    1.0000 </r>
       <r>    0.6350    1.0000 </r>
       <r>    1.4502    1.0000 </r>
       <r>    1.8674    1.0000 </r>
       <r>    3.8791    1.0000 </r>
       <r>    6.3386   -0.0003 </r>
       <r>    9.8084   -0.0000 </r>
       <r>   20.1074    0.0000 </r>
       <r>   21.7877    0.0000 </r>
       <r>   22.1703    0.0000 </r>
       <r>   31.6871    0.0000 </r>
       <r>   31.9079    0.0000 </r>
      </set>
      <set comment="kpoint 57">
       <r>   -1.2801    1.0000 </r>
       <r>    0.7363    1.0000 </r>
       <r>    0.9737    1.0000 </r>
       <r>    1.6176    1.0000 </r>
       <r>    3.7254    1.0000 </r>
       <r>    4.2179    1.0000 </r>
       <r>   13.4373    0.0000 </r>
       <r>   21.2669    0.0000 </r>
       <r>   21.6302    0.0000 </r>
       <r>   23.1972    0.0000 </r>
       <r>   30.6249    0.0000 </r>
       <r>   31.5755    0.0000 </r>
      </set>
      <set comment="kpoint 58">
       <r>   -1.8914    1.0000 </r>
       <r>    0.2121    1.0000 </r>
       <r>    1.2466    1.0000 </r>
       <r>    1.7559    1.0000 </r>
       <r>    2.7692    1.0000 </r>
       <r>    3.2574    1.0000 </r>
       <r>   17.5941    0.0000 </r>
       <r>   22.2479    0.0000 </r>
       <r>   22.4550    0.0000 </r>
       <r>   24.3874    0.0000 </r>
       <r>   27.4943    0.0000 </r>
       <r>   31.5423    0.0000 </r>
      </set>
      <set comment="kpoint 59">
       <r>   -2.5624    1.0000 </r>
       <r>    0.4638    1.0000 </r>
       <r>    1.3706    1.0000 </r>
       <r>    1.5073    1.0000 </r>
       <r>    2.3979    1.0000 </r>
       <r>    2.9751    1.0000 </r>
       <r>   18.7446    0.0000 </r>
       <r>   22.4640    0.0000 </r>
       <r>   23.7587    0.0000 </r>
       <r>   25.9494    0.0000 </r>
       <r>   27.8279    0.0000 </r>
       <r>   30.9215    0.0000 </r>
      </set>
      <set comment="kpoint 60">
       <r>   -1.6921    1.0000 </r>
       <r>    0.2021    1.0000 </r>
       <r>    1.1443    1.0000 </r>
       <r>    1.9358    1.0000 </r>
       <r>    2.3792    1.0000 </r>
       <r>    3.6636    1.0000 </r>
       <r>   17.5723    0.0000 </r>
       <r>   20.0386    0.0000 </r>
       <r>   23.2854    0.0000 </r>
       <r>   25.2826    0.0000 </r>
       <r>   27.9550    0.0000 </r>
       <r>   30.3022    0.0000 </r>
      </set>
      <set comment="kpoint 61">
       <r>   -0.7566    1.0000 </r>
       <r>    0.2257    1.0000 </r>
       <r>    0.7403    1.0000 </r>
       <r>    2.1689    1.0000 </r>
       <r>    2.6977    1.0000 </r>
       <r>    4.8640    1.0000 </r>
       <r>   15.1361    0.0000 </r>
       <r>   17.7892    0.0000 </r>
       <r>   21.7910    0.0000 </r>
       <r>   26.0416    0.0000 </r>
       <r>   27.5183    0.0000 </r>
       <r>   31.9133    0.0000 </r>
      </set>
      <set comment="kpoint 62">
       <r>   -0.6237    1.0000 </r>
       <r>    0.4040    1.0000 </r>
       <r>    1.0551    1.0000 </r>
       <r>    1.9663    1.0000 </r>
       <r>    3.4133    1.0000 </r>
       <r>    6.5583   -0.0000 </r>
       <r>   11.5398    0.0000 </r>
       <r>   17.5337    0.0000 </r>
       <r>   20.3970    0.0000 </r>
       <r>   24.5414    0.0000 </r>
       <r>   29.6025    0.0000 </r>
       <r>   33.2582    0.0000 </r>
      </set>
      <set comment="kpoint 63">
       <r>   -0.6951    1.0000 </r>
       <r>    0.3105    1.0000 </r>
       <r>    1.3981    1.0000 </r>
       <r>    1.8969    1.0000 </r>
       <r>    3.7154    1.0000 </r>
       <r>    8.2380   -0.0000 </r>
       <r>    9.2049   -0.0000 </r>
       <r>   18.1556    0.0000 </r>
       <r>   19.3562    0.0000 </r>
       <r>   24.0221    0.0000 </r>
       <r>   30.5004    0.0000 </r>
       <r>   33.7413    0.0000 </r>
      </set>
      <set comment="kpoint 64">
       <r>   -0.7448    1.0000 </r>
       <r>    0.4045    1.0000 </r>
       <r>    0.8146    1.0000 </r>
       <r>    2.0973    1.0000 </r>
       <r>    3.5419    1.0000 </r>
       <r>    5.7978    0.4556 </r>
       <r>   12.5521    0.0000 </r>
       <r>   18.4110    0.0000 </r>
       <r>   19.9567    0.0000 </r>
       <r>   24.5059    0.0000 </r>
       <r>   29.5621    0.0000 </r>
       <r>   32.3318    0.0000 </r>
      </set>
      <set comment="kpoint 65">
       <r>   -1.0783    1.0000 </r>
       <r>   -0.0340    1.0000 </r>
       <r>    0.9675    1.0000 </r>
       <r>    2.2988    1.0000 </r>
       <r>    2.8012    1.0000 </r>
       <r>    4.1906    1.0000 </r>
       <r>   16.4029    0.0000 </r>
       <r>   18.8828    0.0000 </r>
       <r>   21.5576    0.0000 </r>
       <r>   25.2839    0.0000 </r>
       <r>   27.0770    0.0000 </r>
       <r>   31.2933    0.0000 </r>
      </set>
      <set comment="kpoint 66">
       <r>   -1.2960    1.0000 </r>
       <r>   -0.0459    1.0000 </r>
       <r>    1.1714    1.0000 </r>
       <r>    2.0693    1.0000 </r>
       <r>    3.4473    1.0000 </r>
       <r>    3.5348    1.0000 </r>
       <r>   16.3815    0.0000 </r>
       <r>   20.7495    0.0000 </r>
       <r>   21.4397    0.0000 </r>
       <r>   23.4149    0.0000 </r>
       <r>   27.2073    0.0000 </r>
       <r>   32.4487    0.0000 </r>
      </set>
      <set comment="kpoint 67">
       <r>   -0.7629    1.0000 </r>
       <r>   -0.2596    1.0000 </r>
       <r>    1.0778    1.0000 </r>
       <r>    2.7074    1.0000 </r>
       <r>    3.2516    1.0000 </r>
       <r>    4.9299    1.0000 </r>
       <r>   15.2108    0.0000 </r>
       <r>   17.6803    0.0000 </r>
       <r>   19.6253    0.0000 </r>
       <r>   25.2157    0.0000 </r>
       <r>   26.9103    0.0000 </r>
       <r>   32.1428    0.0000 </r>
      </set>
      <set comment="kpoint 68">
       <r>   -0.4039    1.0000 </r>
       <r>   -0.1018    1.0000 </r>
       <r>    0.8536    1.0000 </r>
       <r>    2.7894    1.0000 </r>
       <r>    3.5512    1.0000 </r>
       <r>    6.8291   -0.0000 </r>
       <r>   13.1852    0.0000 </r>
       <r>   15.6442    0.0000 </r>
       <r>   18.0724    0.0000 </r>
       <r>   26.3172    0.0000 </r>
       <r>   28.1092    0.0000 </r>
       <r>   32.1381    0.0000 </r>
      </set>
      <set comment="kpoint 69">
       <r>   -0.2310    1.0000 </r>
       <r>    0.0683    1.0000 </r>
       <r>    0.8798    1.0000 </r>
       <r>    2.4145    1.0000 </r>
       <r>    3.7911    1.0000 </r>
       <r>    9.1912   -0.0000 </r>
       <r>   10.3805   -0.0000 </r>
       <r>   15.2980    0.0000 </r>
       <r>   17.4357    0.0000 </r>
       <r>   26.0053    0.0000 </r>
       <r>   29.9314    0.0000 </r>
       <r>   33.2279    0.0000 </r>
      </set>
      <set comment="kpoint 70">
       <r>   -0.0053    1.0000 </r>
       <r>    0.1095    1.0000 </r>
       <r>    0.5029    1.0000 </r>
       <r>    2.4972    1.0000 </r>
       <r>    3.5252    1.0000 </r>
       <r>    7.5855   -0.0000 </r>
       <r>   12.5482    0.0000 </r>
       <r>   14.7197    0.0000 </r>
       <r>   18.4506    0.0000 </r>
       <r>   26.2904    0.0000 </r>
       <r>   28.9033    0.0000 </r>
       <r>   33.4018    0.0000 </r>
      </set>
      <set comment="kpoint 71">
       <r>   -0.4118    1.0000 </r>
       <r>    0.0899    1.0000 </r>
       <r>    0.5927    1.0000 </r>
       <r>    2.5226    1.0000 </r>
       <r>    3.1411    1.0000 </r>
       <r>    5.7053    0.8164 </r>
       <r>   14.1159    0.0000 </r>
       <r>   16.6803    0.0000 </r>
       <r>   19.9497    0.0000 </r>
       <r>   26.0069    0.0000 </r>
       <r>   27.8344    0.0000 </r>
       <r>   32.1382    0.0000 </r>
      </set>
      <set comment="kpoint 72">
       <r>   -1.0065    1.0000 </r>
       <r>   -0.5314    1.0000 </r>
       <r>    1.9850    1.0000 </r>
       <r>    2.8039    1.0000 </r>
       <r>    3.9364    1.0000 </r>
       <r>    5.5677    1.0325 </r>
       <r>   13.8506    0.0000 </r>
       <r>   17.2414    0.0000 </r>
       <r>   18.2970    0.0000 </r>
       <r>   23.6829    0.0000 </r>
       <r>   27.1654    0.0000 </r>
       <r>   34.1288    0.0000 </r>
      </set>
      <set comment="kpoint 73">
       <r>   -0.9049    1.0000 </r>
       <r>   -0.6141    1.0000 </r>
       <r>    2.0144    1.0000 </r>
       <r>    3.2361    1.0000 </r>
       <r>    3.9221    1.0000 </r>
       <r>    7.3356   -0.0000 </r>
       <r>   12.7033    0.0000 </r>
       <r>   15.3810    0.0000 </r>
       <r>   16.6330    0.0000 </r>
       <r>   25.4746    0.0000 </r>
       <r>   27.1231    0.0000 </r>
       <r>   33.1831    0.0000 </r>
      </set>
      <set comment="kpoint 74">
       <r>   -0.6364    1.0000 </r>
       <r>   -0.2997    1.0000 </r>
       <r>    1.5462    1.0000 </r>
       <r>    2.8106    1.0000 </r>
[...]
      <set comment="kpoint 93">
       <set comment="band 1">
        <r>  0.0462  0.0202  0.8057 </r>
       </set>
       <set comment="band 2">
        <r>  0.0000  0.0691  0.8000 </r>
       </set>
       <set comment="band 3">
        <r>  0.0328  0.0946  0.7601 </r>
       </set>
       <set comment="band 4">
        <r>  0.0014  0.0218  0.9180 </r>
       </set>
       <set comment="band 5">
        <r>  0.0033  0.0017  0.9676 </r>
       </set>
       <set comment="band 6">
        <r>  0.2880  0.2161  0.3198 </r>
       </set>
       <set comment="band 7">
        <r>  0.2552  0.3364  0.1305 </r>
       </set>
       <set comment="band 8">
        <r>  0.1110  0.3917  0.2290 </r>
       </set>
       <set comment="band 9">
        <r>  0.0026  0.4094  0.2074 </r>
       </set>
       <set comment="band 10">
        <r>  0.0249  0.1456  0.2113 </r>
       </set>
       <set comment="band 11">
        <r>  0.0312  0.1187  0.1921 </r>
       </set>
       <set comment="band 12">
        <r>  0.0499  0.0181  0.2255 </r>
       </set>
      </set>
      <set comment="kpoint 94">
       <set comment="band 1">
        <r>  0.1629  0.0386  0.6447 </r>
       </set>
       <set comment="band 2">
        <r>  0.0081  0.0648  0.7949 </r>
       </set>
       <set comment="band 3">
        <r>  0.0771  0.0764  0.7292 </r>
       </set>
       <set comment="band 4">
        <r>  0.0000  0.0095  0.9325 </r>
       </set>
       <set comment="band 5">
        <r>  0.0000  0.0005  0.9779 </r>
       </set>
       <set comment="band 6">
        <r>  0.1482  0.1745  0.5398 </r>
       </set>
       <set comment="band 7">
        <r>  0.2654  0.3019  0.1646 </r>
       </set>
       <set comment="band 8">
        <r>  0.0535  0.2842  0.2162 </r>
       </set>
       <set comment="band 9">
        <r>  0.0000  0.5157  0.0966 </r>
       </set>
       <set comment="band 10">
        <r>  0.0469  0.1469  0.1900 </r>
       </set>
       <set comment="band 11">
        <r>  0.0427  0.2029  0.1368 </r>
       </set>
       <set comment="band 12">
        <r>  0.0000  0.0103  0.1902 </r>
       </set>
      </set>
      <set comment="kpoint 95">
       <set comment="band 1">
        <r>  0.0820  0.0352  0.7492 </r>
       </set>
       <set comment="band 2">
        <r>  0.0008  0.0621  0.8047 </r>
       </set>
       <set comment="band 3">
        <r>  0.0601  0.0804  0.7431 </r>
       </set>
       <set comment="band 4">
        <r>  0.0012  0.0262  0.9107 </r>
       </set>
       <set comment="band 5">
        <r>  0.0009  0.0055  0.9638 </r>
       </set>
       <set comment="band 6">
        <r>  0.2245  0.1958  0.4237 </r>
       </set>
       <set comment="band 7">
        <r>  0.2716  0.3123  0.1440 </r>
       </set>
       <set comment="band 8">
        <r>  0.0970  0.4427  0.1721 </r>
       </set>
       <set comment="band 9">
        <r>  0.0026  0.3323  0.2466 </r>
       </set>
       <set comment="band 10">
        <r>  0.0206  0.1869  0.1419 </r>
       </set>
       <set comment="band 11">
        <r>  0.0114  0.1211  0.1920 </r>
       </set>
       <set comment="band 12">
        <r>  0.0774  0.0290  0.2729 </r>
       </set>
      </set>
      <set comment="kpoint 96">
       <set comment="band 1">
        <r>  0.0061  0.0477  0.7998 </r>
       </set>
       <set comment="band 2">
        <r>  0.0101  0.0641  0.8181 </r>
       </set>
       <set comment="band 3">
        <r>  0.0330  0.0822  0.7697 </r>
       </set>
       <set comment="band 4">
        <r>  0.0154  0.0151  0.9038 </r>
       </set>
       <set comment="band 5">
        <r>  0.0010  0.0043  0.9677 </r>
       </set>
       <set comment="band 6">
        <r>  0.3880  0.1707  0.2486 </r>
       </set>
       <set comment="band 7">
        <r>  0.1884  0.3717  0.1773 </r>
       </set>
       <set comment="band 8">
        <r>  0.0985  0.4570  0.1792 </r>
       </set>
       <set comment="band 9">
        <r>  0.0079  0.3267  0.3113 </r>
       </set>
       <set comment="band 10">
        <r>  0.0027  0.1951  0.1116 </r>
       </set>
       <set comment="band 11">
        <r>  0.0000  0.0470  0.2458 </r>
       </set>
       <set comment="band 12">
        <r>  0.0518  0.1431  0.2325 </r>
       </set>
      </set>
      <set comment="kpoint 97">
       <set comment="band 1">
        <r>  0.0042  0.0459  0.8013 </r>
       </set>
       <set comment="band 2">
        <r>  0.0029  0.0665  0.8241 </r>
       </set>
       <set comment="band 3">
        <r>  0.0049  0.0868  0.8009 </r>
       </set>
       <set comment="band 4">
        <r>  0.0354  0.0039  0.8911 </r>
       </set>
       <set comment="band 5">
        <r>  0.0002  0.0012  0.9779 </r>
       </set>
       <set comment="band 6">
        <r>  0.5589  0.0940  0.1468 </r>
       </set>
       <set comment="band 7">
        <r>  0.0761  0.4660  0.1979 </r>
       </set>
       <set comment="band 8">
        <r>  0.0658  0.4770  0.1904 </r>
       </set>
       <set comment="band 9">
        <r>  0.0000  0.3228  0.3357 </r>
       </set>
       <set comment="band 10">
        <r>  0.0036  0.1082  0.2189 </r>
       </set>
       <set comment="band 11">
        <r>  0.0023  0.0887  0.1902 </r>
       </set>
       <set comment="band 12">
        <r>  0.0228  0.2048  0.1572 </r>
       </set>
      </set>
      <set comment="kpoint 98">
       <set comment="band 1">
        <r>  0.0583  0.0077  0.8097 </r>
       </set>
       <set comment="band 2">
        <r>  0.0006  0.0713  0.7923 </r>
       </set>
       <set comment="band 3">
        <r>  0.0317  0.1130  0.7402 </r>
       </set>
       <set comment="band 4">
        <r>  0.0000  0.0113  0.9352 </r>
       </set>
       <set comment="band 5">
        <r>  0.0000  0.0001  0.9753 </r>
       </set>
       <set comment="band 6">
        <r>  0.2400  0.2416  0.3467 </r>
       </set>
       <set comment="band 7">
        <r>  0.2918  0.3159  0.1070 </r>
       </set>
       <set comment="band 8">
        <r>  0.1033  0.3479  0.2736 </r>
       </set>
       <set comment="band 9">
        <r>  0.0000  0.5294  0.0877 </r>
       </set>
       <set comment="band 10">
        <r>  0.0459  0.0678  0.2960 </r>
       </set>
       <set comment="band 11">
        <r>  0.0699  0.1049  0.2154 </r>
       </set>
       <set comment="band 12">
        <r>  0.0000  0.0029  0.1463 </r>
       </set>
      </set>
      <set comment="kpoint 99">
       <set comment="band 1">
        <r>  0.0331  0.0138  0.8241 </r>
       </set>
       <set comment="band 2">
        <r>  0.0002  0.0719  0.8002 </r>
       </set>
       <set comment="band 3">
        <r>  0.0047  0.1076  0.7799 </r>
       </set>
       <set comment="band 4">
        <r>  0.0111  0.0113  0.9197 </r>
       </set>
       <set comment="band 5">
        <r>  0.0008  0.0025  0.9706 </r>
       </set>
       <set comment="band 6">
        <r>  0.5076  0.1233  0.1648 </r>
       </set>
       <set comment="band 7">
        <r>  0.0670  0.4675  0.2039 </r>
       </set>
       <set comment="band 8">
        <r>  0.1086  0.3623  0.2699 </r>
       </set>
       <set comment="band 9">
        <r>  0.0068  0.4325  0.1929 </r>
       </set>
       <set comment="band 10">
        <r>  0.0274  0.1246  0.2625 </r>
       </set>
       <set comment="band 11">
        <r>  0.0613  0.1211  0.2045 </r>
       </set>
       <set comment="band 12">
        <r>  0.0094  0.0185  0.1563 </r>
       </set>
      </set>
      <set comment="kpoint 100">
       <set comment="band 1">
        <r>  0.0448  0.0008  0.8315 </r>
       </set>
       <set comment="band 2">
        <r>  0.0001  0.0740  0.7914 </r>
       </set>
       <set comment="band 3">
        <r>  0.0041  0.1226  0.7640 </r>
       </set>
       <set comment="band 4">
        <r>  0.0000  0.0118  0.9377 </r>
       </set>
       <set comment="band 5">
        <r>  0.0000  0.0001  0.9718 </r>
       </set>
       <set comment="band 6">
        <r>  0.5072  0.1234  0.1590 </r>
       </set>
       <set comment="band 7">
        <r>  0.0516  0.4747  0.2125 </r>
       </set>
       <set comment="band 8">
        <r>  0.1182  0.3255  0.3020 </r>
       </set>
       <set comment="band 9">
        <r>  0.0000  0.5323  0.0878 </r>
       </set>
       <set comment="band 10">
        <r>  0.0480  0.0578  0.3343 </r>
       </set>
       <set comment="band 11">
        <r>  0.0785  0.0885  0.2278 </r>
       </set>
       <set comment="band 12">
        <r>  0.0000  0.0003  0.1233 </r>
       </set>
      </set>
      <set comment="kpoint 101">
       <set comment="band 1">
        <r>  0.3235  0.0302  0.4540 </r>
       </set>
       <set comment="band 2">
        <r>  0.0000  0.0006  0.9400 </r>
       </set>
       <set comment="band 3">
        <r>  0.0000  0.0006  0.9400 </r>
       </set>
       <set comment="band 4">
        <r>  0.1454  0.2536  0.3726 </r>
       </set>
       <set comment="band 5">
        <r>  0.0000  0.0022  0.9635 </r>
       </set>
       <set comment="band 6">
        <r>  0.0000  0.0022  0.9635 </r>
       </set>
       <set comment="band 7">
        <r>  0.2418  0.2709  0.2289 </r>
       </set>
       <set comment="band 8">
        <r>  0.0000  0.0249  0.0280 </r>
       </set>
       <set comment="band 9">
        <r>  0.0000  0.5205  0.0708 </r>
       </set>
       <set comment="band 10">
        <r>  0.0000  0.5205  0.0708 </r>
       </set>
       <set comment="band 11">
        <r>  0.0715  0.0850  0.1252 </r>
       </set>
       <set comment="band 12">
        <r>  0.0000  0.0000  0.3699 </r>
       </set>
      </set>
      <set comment="kpoint 102">
       <set comment="band 1">
        <r>  0.2526  0.0308  0.5464 </r>
       </set>
       <set comment="band 2">
        <r>  0.0005  0.0043  0.9259 </r>
       </set>
       <set comment="band 3">
        <r>  0.0000  0.0008  0.9375 </r>
       </set>
       <set comment="band 4">
        <r>  0.0801  0.2082  0.5212 </r>
       </set>
       <set comment="band 5">
        <r>  0.0000  0.0022  0.9600 </r>
       </set>
       <set comment="band 6">
        <r>  0.0879  0.1022  0.7163 </r>
       </set>
       <set comment="band 7">
        <r>  0.2780  0.2519  0.2358 </r>
       </set>
       <set comment="band 8">
        <r>  0.0073  0.1694  0.1349 </r>
       </set>
       <set comment="band 9">
        <r>  0.0211  0.3459  0.0237 </r>
       </set>
       <set comment="band 10">
        <r>  0.0000  0.5024  0.0814 </r>
       </set>
       <set comment="band 11">
        <r>  0.0192  0.0360  0.2303 </r>
       </set>
       <set comment="band 12">
        <r>  0.0000  0.0224  0.4736 </r>
       </set>
      </set>
      <set comment="kpoint 103">
       <set comment="band 1">
        <r>  0.1636  0.0466  0.6439 </r>
       </set>
       <set comment="band 2">
        <r>  0.0006  0.0239  0.8759 </r>
       </set>
       <set comment="band 3">
        <r>  0.0258  0.1608  0.6584 </r>
       </set>
       <set comment="band 4">
        <r>  0.0000  0.0058  0.9314 </r>
       </set>
       <set comment="band 5">
        <r>  0.0000  0.0016  0.9598 </r>
       </set>
       <set comment="band 6">
        <r>  0.2165  0.1478  0.4915 </r>
       </set>
       <set comment="band 7">
        <r>  0.2616  0.2721  0.2343 </r>
       </set>
       <set comment="band 8">
        <r>  0.0566  0.4030  0.2078 </r>
       </set>
       <set comment="band 9">
        <r>  0.0179  0.0937  0.0970 </r>
       </set>
       <set comment="band 10">
        <r>  0.0000  0.4992  0.1411 </r>
       </set>
       <set comment="band 11">
        <r>  0.0072  0.0404  0.1379 </r>
       </set>
       <set comment="band 12">
        <r>  0.0000  0.0089  0.3467 </r>
       </set>
      </set>
      <set comment="kpoint 104">
       <set comment="band 1">
        <r>  0.0654  0.0087  0.8131 </r>
       </set>
       <set comment="band 2">
        <r>  0.0116  0.1106  0.7223 </r>
       </set>
       <set comment="band 3">
        <r>  0.0001  0.1067  0.7822 </r>
       </set>
       <set comment="band 4">
        <r>  0.0000  0.0116  0.9289 </r>
       </set>
       <set comment="band 5">
        <r>  0.0000  0.0003  0.9643 </r>
       </set>
       <set comment="band 6">
        <r>  0.4036  0.1364  0.2560 </r>
       </set>
       <set comment="band 7">
        <r>  0.1151  0.3815  0.2729 </r>
       </set>
       <set comment="band 8">
        <r>  0.1315  0.3638  0.2425 </r>
       </set>
       <set comment="band 9">
        <r>  0.0000  0.5152  0.1326 </r>
       </set>
       <set comment="band 10">
        <r>  0.0280  0.0650  0.2385 </r>
       </set>
       <set comment="band 11">
        <r>  0.0003  0.0448  0.0517 </r>
       </set>
       <set comment="band 12">
        <r>  0.0000  0.0005  0.1989 </r>
       </set>
      </set>
      <set comment="kpoint 105">
       <set comment="band 1">
        <r>  0.2173  0.0198  0.6066 </r>
       </set>
       <set comment="band 2">
        <r>  0.0003  0.0043  0.9205 </r>
       </set>
       <set comment="band 3">
        <r>  0.0000  0.0035  0.9351 </r>
       </set>
       <set comment="band 4">
        <r>  0.0469  0.1748  0.6175 </r>
       </set>
       <set comment="band 5">
        <r>  0.0000  0.0004  0.9763 </r>
       </set>
       <set comment="band 6">
        <r>  0.0969  0.2157  0.5257 </r>
       </set>
       <set comment="band 7">
        <r>  0.3355  0.1991  0.2612 </r>
       </set>
       <set comment="band 8">
        <r>  0.0010  0.0419  0.0667 </r>
       </set>
       <set comment="band 9">
        <r>  0.0000  0.5142  0.0658 </r>
       </set>
       <set comment="band 10">
        <r>  0.0351  0.4418  0.1047 </r>
       </set>
       <set comment="band 11">
        <r>  0.0000  0.0044  0.3573 </r>
       </set>
       <set comment="band 12">
        <r>  0.0060  0.0075  0.4657 </r>
       </set>
      </set>
      <set comment="kpoint 106">
       <set comment="band 1">
        <r>  0.1598  0.0344  0.6628 </r>
       </set>
       <set comment="band 2">
        <r>  0.0001  0.0138  0.8901 </r>
       </set>
       <set comment="band 3">
        <r>  0.0031  0.0418  0.8727 </r>
       </set>
       <set comment="band 4">
        <r>  0.0136  0.1213  0.7408 </r>
       </set>
       <set comment="band 5">
        <r>  0.0006  0.0040  0.9651 </r>
       </set>
       <set comment="band 6">
        <r>  0.1429  0.2581  0.4145 </r>
       </set>
       <set comment="band 7">
        <r>  0.3536  0.1859  0.2620 </r>
       </set>
       <set comment="band 8">
        <r>  0.0442  0.4148  0.1575 </r>
       </set>
       <set comment="band 9">
        <r>  0.0206  0.2444  0.1698 </r>
       </set>
       <set comment="band 10">
        <r>  0.0019  0.3408  0.0256 </r>
       </set>
       <set comment="band 11">
        <r>  0.0107  0.0168  0.3657 </r>
       </set>
       <set comment="band 12">
        <r>  0.0012  0.0142  0.2880 </r>
       </set>
      </set>
      <set comment="kpoint 107">
       <set comment="band 1">
        <r>  0.0815  0.0367  0.7596 </r>
       </set>
       <set comment="band 2">
        <r>  0.0071  0.0547  0.8050 </r>
       </set>
       <set comment="band 3">
        <r>  0.0002  0.1164  0.7629 </r>
       </set>
       <set comment="band 4">
        <r>  0.0016  0.0150  0.9206 </r>
       </set>
       <set comment="band 5">
        <r>  0.0047  0.0011  0.9622 </r>
       </set>
       <set comment="band 6">
        <r>  0.3722  0.1660  0.2616 </r>
       </set>
       <set comment="band 7">
        <r>  0.1639  0.3333  0.2806 </r>
       </set>
       <set comment="band 8">
        <r>  0.0997  0.4101  0.2026 </r>
       </set>
       <set comment="band 9">
        <r>  0.0130  0.3618  0.2195 </r>
       </set>
       <set comment="band 10">
        <r>  0.0049  0.2094  0.1001 </r>
       </set>
       <set comment="band 11">
        <r>  0.0034  0.0214  0.2634 </r>
       </set>
       <set comment="band 12">
        <r>  0.0017  0.0101  0.1378 </r>
       </set>
      </set>
      <set comment="kpoint 108">
       <set comment="band 1">
        <r>  0.1293  0.0294  0.7078 </r>
       </set>
       <set comment="band 2">
        <r>  0.0020  0.0361  0.8479 </r>
       </set>
       <set comment="band 3">
        <r>  0.0094  0.1371  0.7233 </r>
       </set>
       <set comment="band 4">
        <r>  0.0000  0.0076  0.9307 </r>
       </set>
       <set comment="band 5">
        <r>  0.0000  0.0003  0.9737 </r>
       </set>
       <set comment="band 6">
        <r>  0.0333  0.4048  0.3265 </r>
       </set>
       <set comment="band 7">
        <r>  0.4869  0.0663  0.2806 </r>
       </set>
       <set comment="band 8">
        <r>  0.0610  0.3615  0.2048 </r>
       </set>
       <set comment="band 9">
        <r>  0.0000  0.5153  0.0985 </r>
       </set>
       <set comment="band 10">
        <r>  0.0260  0.1102  0.1371 </r>
       </set>
       <set comment="band 11">
        <r>  0.0094  0.0229  0.2864 </r>
       </set>
       <set comment="band 12">
        <r>  0.0000  0.0057  0.2882 </r>
       </set>
      </set>
      <set comment="kpoint 109">
       <set comment="band 1">
        <r>  0.2198  0.0027  0.6264 </r>
       </set>
       <set comment="band 2">
        <r>  0.0000  0.0001  0.9377 </r>
       </set>
       <set comment="band 3">
        <r>  0.0000  0.0001  0.9377 </r>
       </set>
       <set comment="band 4">
        <r>  0.0000  0.0004  0.9745 </r>
       </set>
       <set comment="band 5">
        <r>  0.0000  0.0004  0.9745 </r>
       </set>
       <set comment="band 6">
        <r>  0.0701  0.5085  0.0797 </r>
       </set>
       <set comment="band 7">
        <r>  0.4191  0.0964  0.3357 </r>
       </set>
       <set comment="band 8">
        <r>  0.0000  0.0230  0.0028 </r>
       </set>
       <set comment="band 9">
        <r>  0.0000  0.5162  0.0084 </r>
       </set>
       <set comment="band 10">
        <r>  0.0000  0.5162  0.0084 </r>
       </set>
       <set comment="band 11">
        <r>  0.0000  0.0002  0.5369 </r>
       </set>
       <set comment="band 12">
        <r>  0.0000  0.0002  0.5369 </r>
       </set>
      </set>
      <set comment="kpoint 110">
       <set comment="band 1">
        <r>  0.1910  0.0127  0.6509 </r>
       </set>
       <set comment="band 2">
        <r>  0.0000  0.0049  0.9200 </r>
       </set>
       <set comment="band 3">
        <r>  0.0000  0.0020  0.9351 </r>
       </set>
       <set comment="band 4">
        <r>  0.0011  0.1776  0.6789 </r>
       </set>
       <set comment="band 5">
        <r>  0.0000  0.0004  0.9735 </r>
       </set>
       <set comment="band 6">
        <r>  0.0198  0.4049  0.3237 </r>
       </set>
       <set comment="band 7">
        <r>  0.4845  0.0280  0.3640 </r>
       </set>
       <set comment="band 8">
        <r>  0.0038  0.0942  0.0835 </r>
       </set>
       <set comment="band 9">
        <r>  0.0261  0.4149  0.0470 </r>
       </set>
       <set comment="band 10">
        <r>  0.0000  0.5109  0.0476 </r>
       </set>
       <set comment="band 11">
        <r>  0.0154  0.0042  0.4251 </r>
       </set>
       <set comment="band 12">
        <r>  0.0000  0.0053  0.4831 </r>
       </set>
      </set>
     </set>
    </set>
   </array>
  </projected>
 </calculation>
 <structure name="finalpos" >
  <crystal>
   <varray name="basis" >
    <v>      -0.00000000       2.02877605       2.02877605 </v>
    <v>       2.02877605       0.00000000       2.02877605 </v>
    <v>       2.02877605       2.02877605       0.00000000 </v>
   </varray>
   <i name="volume">     16.70060966 </i>
   <varray name="rec_basis" >
    <v>      -0.24645401       0.24645401       0.24645401 </v>
    <v>       0.24645401      -0.24645401       0.24645401 </v>
    <v>       0.24645401       0.24645401      -0.24645401 </v>
   </varray>
  </crystal>
  <varray name="positions" >
   <v>       0.00000000       0.00000000      -0.00000000 </v>
  </varray>
 </structure>
</modeling>
