fcc Au                                  
           1
     0.000000    2.150000    2.150000
     2.150000    0.000000    2.150000
     2.150000    2.150000    0.000000
   Au
   1
Direct configuration=     1
   0.00000000  0.00000000  0.00000000
fcc Au                                  
           1
     0.000000    1.883658    1.883658
     1.883658    0.000000    1.883658
     1.883658    1.883658   -0.000000
   Au
   1
Direct configuration=     2
  -0.00000000  0.00000000  0.00000000
fcc Au                                  
           1
     0.000000    2.034261    2.034261
     2.034261    0.000000    2.034261
     2.034261    2.034261   -0.000000
   Au
   1
Direct configuration=     3
  -0.00000000  0.00000000  0.00000000
fcc Au                                  
           1
    -0.000000    2.032890    2.032890
     2.032890    0.000000    2.032890
     2.032890    2.032890   -0.000000
   Au
   1
Direct configuration=     4
   0.00000000  0.00000000 -0.00000000
fcc Au                                  
           1
    -0.000000    2.028776    2.028776
     2.028776    0.000000    2.028776
     2.028776    2.028776    0.000000
   Au
   1
Direct configuration=     5
   0.00000000  0.00000000 -0.00000000
