BCC W                                   
   2.90000000000000     
    -0.500000    0.500000    0.500000
     0.500000   -0.500000    0.500000
     0.500000    0.500000   -0.500000
   W 
     1
Direct
  0.000000  0.000000  0.000000
 
   20   20   20
  11.518      11.054      10.060      9.2883      9.0576      9.0106      8.6259      7.8111      6.9254      6.3440    
  6.1557      6.3440      6.9254      7.8111      8.6259      9.0106      9.0576      9.2883      10.060      11.054    
  11.054      10.886      10.040      9.1946      8.8392      8.8126      8.5963      7.9380      7.0747      6.4058    
  6.1057      6.1680      6.5952      7.3703      8.2230      8.7557      8.8755      8.9717      9.5046      10.409    
  10.060      10.040      9.3860      8.5886      8.1655      8.1354      8.0799      7.6607      6.9608      6.3198    
  5.9622      5.9173      6.1950      6.7886      7.5714      8.2157      8.5005      8.5935      8.8877      9.5046    
  9.2883      9.1946      8.5886      7.8014      7.2940      7.1994      7.2338      7.0490      6.5910      6.0841    
  5.7445      5.6368      5.8033      6.2213      6.8628      7.5485      8.0481      8.3311      8.5935      8.9717    
  9.0576      8.8392      8.1655      7.2940      6.6274      6.3668      6.3612      6.3102      6.0719      5.7428    
  5.4812      5.3640      5.4530      5.7496      6.2296      6.8577      7.5007      8.0481      8.5005      8.8755    
  9.0106      8.8126      8.1354      7.1994      6.3668      5.8845      5.7224      5.6666      5.5495      5.3685    
  5.2047      5.1194      5.1694      5.3778      5.7318      6.2286      6.8577      7.5485      8.2157      8.7557    
  8.6259      8.5963      8.0799      7.2338      6.3612      5.7224      5.3823      5.2299      5.1282      5.0271    
  4.9434      4.9086      4.9546      5.1005      5.3602      5.7318      6.2296      6.8628      7.5714      8.2230    
  7.8111      7.9380      7.6607      7.0490      6.3102      5.6666      5.2299      4.9787      4.8370      4.7551    
  4.7180      4.7300      4.7935      4.9122      5.1005      5.3778      5.7496      6.2213      6.7886      7.3703    
  6.9254      7.0747      6.9608      6.5910      6.0719      5.5495      5.1282      4.8370      4.6573      4.5643    
  4.5438      4.5842      4.6708      4.7935      4.9546      5.1694      5.4530      5.8033      6.1950      6.5952    
  6.3440      6.4058      6.3198      6.0841      5.7428      5.3685      5.0271      4.7551      4.5643      4.4578    
  4.4329      4.4801      4.5842      4.7300      4.9086      5.1194      5.3640      5.6368      5.9173      6.1680    
  6.1557      6.1057      5.9622      5.7445      5.4812      5.2047      4.9434      4.7180      4.5438      4.4329    
  4.3947      4.4329      4.5438      4.7180      4.9434      5.2047      5.4812      5.7445      5.9622      6.1057    
  6.3440      6.1680      5.9173      5.6368      5.3640      5.1194      4.9086      4.7300      4.5842      4.4801    
  4.4329      4.4578      4.5643      4.7551      5.0271      5.3685      5.7428      6.0841      6.3198      6.4058    
  6.9254      6.5952      6.1950      5.8033      5.4530      5.1694      4.9546      4.7935      4.6708      4.5842    
  4.5438      4.5643      4.6573      4.8370      5.1282      5.5495      6.0719      6.5910      6.9608      7.0747    
  7.8111      7.3703      6.7886      6.2213      5.7496      5.3778      5.1005      4.9122      4.7935      4.7300    
  4.7180      4.7551      4.8370      4.9787      5.2299      5.6666      6.3102      7.0490      7.6607      7.9380    
  8.6259      8.2230      7.5714      6.8628      6.2296      5.7318      5.3602      5.1005      4.9546      4.9086    
  4.9434      5.0271      5.1282      5.2299      5.3823      5.7224      6.3612      7.2338      8.0799      8.5963    
  9.0106      8.7557      8.2157      7.5485      6.8577      6.2286      5.7318      5.3778      5.1694      5.1194    
  5.2047      5.3685      5.5495      5.6666      5.7224      5.8845      6.3668      7.1994      8.1354      8.8126    
  9.0576      8.8755      8.5005      8.0481      7.5007      6.8577      6.2296      5.7496      5.4530      5.3640    
  5.4812      5.7428      6.0719      6.3102      6.3612      6.3668      6.6274      7.2940      8.1655      8.8392    
  9.2883      8.9717      8.5935      8.3311      8.0481      7.5485      6.8628      6.2213      5.8033      5.6368    
  5.7445      6.0841      6.5910      7.0490      7.2338      7.1994      7.2940      7.8014      8.5886      9.1946    
  10.060      9.5046      8.8877      8.5935      8.5005      8.2157      7.5714      6.7886      6.1950      5.9173    
  5.9622      6.3198      6.9608      7.6607      8.0799      8.1354      8.1655      8.5886      9.3860      10.040    
  11.054      10.409      9.5046      8.9717      8.8755      8.7557      8.2230      7.3703      6.5952      6.1680    
  6.1057      6.4058      7.0747      7.9380      8.5963      8.8126      8.8392      9.1946      10.040      10.886    
  11.054      10.886      10.040      9.1946      8.8392      8.8126      8.5963      7.9380      7.0747      6.4058    
  6.1057      6.1680      6.5952      7.3703      8.2230      8.7557      8.8755      8.9717      9.5046      10.409    
  10.886      11.053      10.407      9.5026      8.9703      8.8749      8.7556      8.2232      7.3705      6.5952    
  6.1680      6.1057      6.4058      7.0747      7.9381      8.5966      8.8134      8.8405      9.1961      10.041    
  10.040      10.407      10.039      9.2553      8.6604      8.4939      8.4471      8.0954      7.3829      6.6226    
  6.1237      5.9554      6.1237      6.6225      7.3828      8.0954      8.4474      8.4949      8.6621      9.2572    
  9.1946      9.5026      9.2553      8.5884      7.9797      7.7422      7.7278      7.5595      7.0728      6.4504    
  5.9710      5.7456      5.8067      6.1466      6.7424      7.4336      7.9399      8.1568      8.3019      8.6614    
  8.8392      8.9703      8.6604      7.9797      7.2947      6.9272      6.8565      6.7961      6.5297      6.1081    
  5.7279      5.5058      5.4974      5.7255      6.1574      6.7553      7.3613      7.8224      8.1565      8.4940    
  8.8126      8.8749      8.4939      7.7422      6.9272      6.3674      6.1390      6.0625      5.9260      5.6835    
  5.4329      5.2611      5.2290      5.3764      5.6911      6.1545      6.7416      7.3612      7.9396      8.4468    
  8.5963      8.7556      8.4471      7.7278      6.8565      6.1390      5.7225      5.5352      5.4151      5.2747    
  5.1324      5.0293      5.0112      5.1090      5.3356      5.6825      6.1545      6.7552      7.4334      8.0951    
  7.9380      8.2232      8.0954      7.5595      6.7961      6.0625      5.5352      5.2298      5.0587      4.9440    
  4.8632      4.8217      4.8369      4.9186      5.0793      5.3356      5.6911      6.1574      6.7423      7.3826    
  7.0747      7.3705      7.3829      7.0728      6.5297      5.9260      5.4151      5.0587      4.8369      4.7089    
  4.6486      4.6468      4.6953      4.7857      4.9186      5.1090      5.3763      5.7255      6.1465      6.6225    
  6.4058      6.5952      6.6226      6.4504      6.1081      5.6835      5.2747      4.9440      4.7089      4.5643    
  4.5029      4.5148      4.5846      4.6953      4.8368      5.0112      5.2290      5.4974      5.8067      6.1237    
  6.1057      6.1680      6.1237      5.9710      5.7279      5.4329      5.1324      4.8632      4.6486      4.5029    
  4.4329      4.4393      4.5148      4.6467      4.8217      5.0293      5.2611      5.5058      5.7456      5.9554    
  6.1680      6.1057      5.9554      5.7456      5.5058      5.2611      5.0293      4.8217      4.6468      4.5148    
  4.4393      4.4329      4.5028      4.6486      4.8632      5.1325      5.4330      5.7279      5.9710      6.1237    
  6.5952      6.4058      6.1237      5.8067      5.4974      5.2290      5.0112      4.8369      4.6953      4.5846    
  4.5148      4.5028      4.5643      4.7090      4.9442      5.2749      5.6835      6.1081      6.4503      6.6225    
  7.3703      7.0747      6.6225      6.1466      5.7255      5.3764      5.1090      4.9186      4.7857      4.6953    
  4.6467      4.6486      4.7090      4.8371      5.0589      5.4152      5.9259      6.5295      7.0726      7.3826    
  8.2230      7.9381      7.3828      6.7424      6.1574      5.6911      5.3356      5.0793      4.9186      4.8368    
  4.8217      4.8632      4.9442      5.0589      5.2299      5.5351      6.0622      6.7956      7.5590      8.0951    
  8.7557      8.5966      8.0954      7.4336      6.7553      6.1545      5.6825      5.3356      5.1090      5.0112    
  5.0293      5.1325      5.2749      5.4152      5.5351      5.7221      6.1383      6.8556      7.7271      8.4468    
  8.8755      8.8134      8.4474      7.9399      7.3613      6.7416      6.1545      5.6911      5.3763      5.2290    
  5.2611      5.4330      5.6835      5.9259      6.0622      6.1383      6.3664      6.9263      7.7417      8.4940    
  8.9717      8.8405      8.4949      8.1568      7.8224      7.3612      6.7552      6.1574      5.7255      5.4974    
  5.5058      5.7279      6.1081      6.5295      6.7956      6.8556      6.9263      7.2941      7.9799      8.6614    
  9.5046      9.1961      8.6621      8.3019      8.1565      7.9396      7.4334      6.7423      6.1465      5.8067    
  5.7456      5.9710      6.4503      7.0726      7.5590      7.7271      7.7417      7.9799      8.5895      9.2572    
  10.409      10.041      9.2572      8.6614      8.4940      8.4468      8.0951      7.3826      6.6225      6.1237    
  5.9554      6.1237      6.6225      7.3826      8.0951      8.4468      8.4940      8.6614      9.2572      10.041    
  10.060      10.040      9.3860      8.5886      8.1655      8.1354      8.0799      7.6607      6.9608      6.3198    
  5.9622      5.9173      6.1950      6.7886      7.5714      8.2157      8.5005      8.5935      8.8877      9.5046    
  10.040      10.407      10.039      9.2553      8.6604      8.4939      8.4471      8.0954      7.3829      6.6226    
  6.1237      5.9554      6.1237      6.6225      7.3828      8.0954      8.4474      8.4949      8.6621      9.2572    
  9.3860      10.039      10.058      9.5024      8.8862      8.5930      8.5006      8.2160      7.5717      6.7887    
  6.1950      5.9173      5.9623      6.3198      6.9608      7.6608      8.0804      8.1363      8.1667      8.5895    
  8.5886      9.2553      9.5024      9.1944      8.6613      8.3021      8.1572      7.9403      7.4338      6.7424    
  6.1465      5.8067      5.7456      5.9710      6.4504      7.0727      7.5593      7.7276      7.7422      7.9799    
  8.1655      8.6604      8.8862      8.6613      8.1670      7.7431      7.5248      7.3472      6.9970      6.4752    
  5.9705      5.6354      5.5117      5.6354      5.9706      6.4752      6.9969      7.3466      7.5238      7.7417    
  8.1354      8.4939      8.5930      8.3021      7.7431      7.2007      6.8566      6.6505      6.4080      6.0608    
  5.6964      5.4226      5.2881      5.3414      5.5772      5.9573      6.4448      6.9325      7.3464      7.7271    
  8.0799      8.4471      8.5006      8.1572      7.5248      6.8566      6.3613      6.0622      5.8446      5.6146    
  5.3807      5.1925      5.0886      5.1096      5.2691      5.5538      5.9482      6.4448      6.9967      7.5590    
  7.6607      8.0954      8.2160      7.9403      7.3472      6.6505      6.0622      5.6662      5.4149      5.2296    
  5.0798      4.9687      4.9151      4.9375      5.0460      5.2515      5.5538      5.9573      6.4751      7.0726    
  6.9608      7.3829      7.5717      7.4338      6.9970      6.4080      5.8446      5.4149      5.1279      4.9440    
  4.8300      4.7709      4.7655      4.8089      4.8988      5.0460      5.2691      5.5772      5.9706      6.4503    
  6.3198      6.6226      6.7887      6.7424      6.4752      6.0608      5.6146      5.2296      4.9440      4.7551    
  4.6487      4.6151      4.6413      4.7102      4.8089      4.9375      5.1096      5.3414      5.6354      5.9710    
  5.9622      6.1237      6.1950      6.1465      5.9705      5.6964      5.3807      5.0798      4.8300      4.6487    
  4.5439      4.5148      4.5524      4.6413      4.7655      4.9151      5.0886      5.2882      5.5117      5.7456    
  5.9173      5.9554      5.9173      5.8067      5.6354      5.4226      5.1925      4.9687      4.7709      4.6151    
  4.5148      4.4801      4.5148      4.6150      4.7709      4.9687      5.1926      5.4227      5.6354      5.8067    
  6.1950      6.1237      5.9623      5.7456      5.5117      5.2881      5.0886      4.9151      4.7655      4.6413    
  4.5524      4.5148      4.5438      4.6487      4.8300      5.0799      5.3809      5.6965      5.9706      6.1465    
  6.7886      6.6225      6.3198      5.9710      5.6354      5.3414      5.1096      4.9375      4.8089      4.7102    
  4.6413      4.6150      4.6487      4.7551      4.9442      5.2299      5.6148      6.0609      6.4751      6.7423    
  7.5714      7.3828      6.9608      6.4504      5.9706      5.5772      5.2691      5.0460      4.8988      4.8089    
  4.7655      4.7709      4.8300      4.9442      5.1282      5.4152      5.8448      6.4079      6.9967      7.4334    
  8.2157      8.0954      7.6608      7.0727      6.4752      5.9573      5.5538      5.2515      5.0460      4.9375    
  4.9151      4.9687      5.0799      5.2299      5.4152      5.6664      6.0621      6.6500      7.3464      7.9396    
  8.5005      8.4474      8.0804      7.5593      6.9969      6.4448      5.9482      5.5538      5.2691      5.1096    
  5.0886      5.1926      5.3809      5.6148      5.8448      6.0621      6.3607      6.8557      7.5238      8.1565    
  8.5935      8.4949      8.1363      7.7276      7.3466      6.9325      6.4448      5.9573      5.5772      5.3414    
  5.2882      5.4227      5.6965      6.0609      6.4079      6.6500      6.8557      7.1995      7.7422      8.3019    
  8.8877      8.6621      8.1667      7.7422      7.5238      7.3464      6.9967      6.4751      5.9706      5.6354    
  5.5117      5.6354      5.9706      6.4751      6.9967      7.3464      7.5238      7.7422      8.1667      8.6621    
  9.5046      9.2572      8.5895      7.9799      7.7417      7.7271      7.5590      7.0726      6.4503      5.9710    
  5.7456      5.8067      6.1465      6.7423      7.4334      7.9396      8.1565      8.3019      8.6621      9.1961    
  9.2883      9.1946      8.5886      7.8014      7.2940      7.1994      7.2338      7.0490      6.5910      6.0841    
  5.7445      5.6368      5.8033      6.2213      6.8628      7.5485      8.0481      8.3311      8.5935      8.9717    
  9.1946      9.5026      9.2553      8.5884      7.9797      7.7422      7.7278      7.5595      7.0728      6.4504    
  5.9710      5.7456      5.8067      6.1466      6.7424      7.4336      7.9399      8.1568      8.3019      8.6614    
  8.5886      9.2553      9.5024      9.1944      8.6613      8.3021      8.1572      7.9403      7.4338      6.7424    
  6.1465      5.8067      5.7456      5.9710      6.4504      7.0727      7.5593      7.7276      7.7422      7.9799    
  7.8014      8.5884      9.1944      9.2883      8.9720      8.5940      8.3317      8.0485      7.5487      6.8628    
  6.2213      5.8033      5.6368      5.7445      6.0841      6.5909      7.0489      7.2337      7.1995      7.2941    
  7.2940      7.9797      8.6613      8.9720      8.8410      8.4956      8.1574      7.8227      7.3612      6.7551    
  6.1573      5.7255      5.4974      5.5058      5.7278      6.1080      6.5295      6.7956      6.8557      6.9263    
  7.1994      7.7422      8.3021      8.5940      8.4956      8.1370      7.7280      7.3467      6.9323      6.4445    
  5.9571      5.5772      5.3414      5.2881      5.4226      5.6965      6.0609      6.4079      6.6500      6.8556    
  7.2338      7.7278      8.1572      8.3317      8.1574      7.7280      7.2338      6.7953      6.4075      6.0276    
  5.6681      5.3780      5.1797      5.1089      5.1797      5.3780      5.6683      6.0279      6.4079      6.7956    
  7.0490      7.5595      7.9403      8.0485      7.8227      7.3467      6.7953      6.3094      5.9253      5.6144    
  5.3575      5.1577      5.0209      4.9678      5.0062      5.1397      5.3640      5.6683      6.0609      6.5295    
  6.5910      7.0728      7.4338      7.5487      7.3612      6.9323      6.4075      5.9253      5.5490      5.2747    
  5.0799      4.9470      4.8721      4.8549      4.8900      4.9803      5.1397      5.3780      5.6965      6.1081    
  6.0841      6.4504      6.7424      6.8628      6.7551      6.4445      6.0276      5.6144      5.2747      5.0272    
  4.8633      4.7709      4.7418      4.7607      4.8118      4.8900      5.0062      5.1797      5.4227      5.7279    
  5.7445      5.9710      6.1465      6.2213      6.1573      5.9571      5.6681      5.3575      5.0799      4.8633    
  4.7182      4.6468      4.6413      4.6855      4.7607      4.8549      4.9678      5.1089      5.2882      5.5058    
  5.6368      5.7456      5.8067      5.8033      5.7255      5.5772      5.3780      5.1577      4.9470      4.7709    
  4.6468      4.5842      4.5846      4.6413      4.7418      4.8721      5.0209      5.1797      5.3414      5.4974    
  5.8033      5.8067      5.7456      5.6368      5.4974      5.3414      5.1797      5.0209      4.8721      4.7418    
  4.6413      4.5846      4.5842      4.6467      4.7709      4.9470      5.1577      5.3780      5.5772      5.7255    
  6.2213      6.1466      5.9710      5.7445      5.5058      5.2881      5.1089      4.9678      4.8549      4.7607    
  4.6855      4.6413      4.6467      4.7181      4.8632      5.0799      5.3576      5.6683      5.9573      6.1574    
  6.8628      6.7424      6.4504      6.0841      5.7278      5.4226      5.1797      5.0062      4.8900      4.8118    
  4.7607      4.7418      4.7709      4.8632      5.0271      5.2748      5.6147      6.0279      6.4448      6.7552    
  7.5485      7.4336      7.0727      6.5909      6.1080      5.6965      5.3780      5.1397      4.9803      4.8900    
  4.8549      4.8721      4.9470      5.0799      5.2748      5.5494      5.9258      6.4079      6.9325      7.3612    
  8.0481      7.9399      7.5593      7.0489      6.5295      6.0609      5.6683      5.3640      5.1397      5.0062    
  4.9678      5.0209      5.1577      5.3576      5.6147      5.9258      6.3099      6.7956      7.3466      7.8224    
  8.3311      8.1568      7.7276      7.2337      6.7956      6.4079      6.0279      5.6683      5.3780      5.1797    
  5.1089      5.1797      5.3780      5.6683      6.0279      6.4079      6.7956      7.2337      7.7276      8.1568    
  8.5935      8.3019      7.7422      7.1995      6.8557      6.6500      6.4079      6.0609      5.6965      5.4227    
  5.2882      5.3414      5.5772      5.9573      6.4448      6.9325      7.3466      7.7276      8.1363      8.4949    
  8.9717      8.6614      7.9799      7.2941      6.9263      6.8556      6.7956      6.5295      6.1081      5.7279    
  5.5058      5.4974      5.7255      6.1574      6.7552      7.3612      7.8224      8.1568      8.4949      8.8405    
  9.0576      8.8392      8.1655      7.2940      6.6274      6.3668      6.3612      6.3102      6.0719      5.7428    
  5.4812      5.3640      5.4530      5.7496      6.2296      6.8577      7.5007      8.0481      8.5005      8.8755    
  8.8392      8.9703      8.6604      7.9797      7.2947      6.9272      6.8565      6.7961      6.5297      6.1081    
  5.7279      5.5058      5.4974      5.7255      6.1574      6.7553      7.3613      7.8224      8.1565      8.4940    
  8.1655      8.6604      8.8862      8.6613      8.1670      7.7431      7.5248      7.3472      6.9970      6.4752    
  5.9705      5.6354      5.5117      5.6354      5.9706      6.4752      6.9969      7.3466      7.5238      7.7417    
  7.2940      7.9797      8.6613      8.9720      8.8410      8.4956      8.1574      7.8227      7.3612      6.7551    
  6.1573      5.7255      5.4974      5.5058      5.7278      6.1080      6.5295      6.7956      6.8557      6.9263    
  6.6274      7.2947      8.1670      8.8410      9.0594      8.8767      8.5009      8.0480      7.5003      6.8573    
  6.2294      5.7495      5.4530      5.3640      5.4812      5.7427      6.0718      6.3099      6.3607      6.3664    
  6.3668      6.9272      7.7431      8.4956      8.8767      8.8139      8.4471      7.9392      7.3605      6.7410    
  6.1542      5.6910      5.3763      5.2290      5.2611      5.4330      5.6834      5.9258      6.0621      6.1383    
  6.3612      6.8565      7.5248      8.1574      8.5009      8.4471      8.0795      7.5583      6.9960      6.4443    
  5.9481      5.5538      5.2692      5.1096      5.0886      5.1926      5.3808      5.6147      5.8448      6.0622    
  6.3102      6.7961      7.3472      7.8227      8.0480      7.9392      7.5583      7.0479      6.5288      6.0606    
  5.6683      5.3641      5.1398      5.0062      4.9679      5.0209      5.1577      5.3576      5.6148      5.9259    
  6.0719      6.5297      6.9970      7.3612      7.5003      7.3605      6.9960      6.5288      6.0715      5.6835    
  5.3810      5.1579      5.0021      4.9148      4.8876      4.9148      5.0020      5.1577      5.3809      5.6835    
  5.7428      6.1081      6.4752      6.7551      6.8573      6.7410      6.4443      6.0606      5.6835      5.3687    
  5.1327      4.9689      4.8722      4.8322      4.8311      4.8573      4.9148      5.0209      5.1926      5.4330    
  5.4812      5.7279      5.9705      6.1573      6.2294      6.1542      5.9481      5.6683      5.3810      5.1327    
  4.9436      4.8219      4.7655      4.7607      4.7878      4.8311      4.8876      4.9678      5.0886      5.2611    
  5.3640      5.5058      5.6354      5.7255      5.7495      5.6910      5.5538      5.3641      5.1579      4.9689    
  4.8219      4.7300      4.6953      4.7102      4.7607      4.8322      4.9148      5.0062      5.1096      5.2290    
  5.4530      5.4974      5.5117      5.4974      5.4530      5.3763      5.2692      5.1398      5.0021      4.8722    
  4.7655      4.6953      4.6708      4.6953      4.7655      4.8721      5.0020      5.1397      5.2691      5.3763    
  5.7496      5.7255      5.6354      5.5058      5.3640      5.2290      5.1096      5.0062      4.9148      4.8322    
  4.7607      4.7102      4.6953      4.7300      4.8217      4.9687      5.1577      5.3640      5.5538      5.6911    
  6.2296      6.1574      5.9706      5.7278      5.4812      5.2611      5.0886      4.9679      4.8876      4.8311    
  4.7878      4.7607      4.7655      4.8217      4.9434      5.1325      5.3808      5.6683      5.9482      6.1545    
  6.8577      6.7553      6.4752      6.1080      5.7427      5.4330      5.1926      5.0209      4.9148      4.8573    
  4.8311      4.8322      4.8721      4.9687      5.1325      5.3685      5.6834      6.0609      6.4448      6.7416    
  7.5007      7.3613      6.9969      6.5295      6.0718      5.6834      5.3808      5.1577      5.0020      4.9148    
  4.8876      4.9148      5.0020      5.1577      5.3808      5.6834      6.0718      6.5295      6.9969      7.3613    
  8.0481      7.8224      7.3466      6.7956      6.3099      5.9258      5.6147      5.3576      5.1577      5.0209    
  4.9678      5.0062      5.1397      5.3640      5.6683      6.0609      6.5295      7.0489      7.5593      7.9399    
  8.5005      8.1565      7.5238      6.8557      6.3607      6.0621      5.8448      5.6148      5.3809      5.1926    
  5.0886      5.1096      5.2691      5.5538      5.9482      6.4448      6.9969      7.5593      8.0804      8.4474    
  8.8755      8.4940      7.7417      6.9263      6.3664      6.1383      6.0622      5.9259      5.6835      5.4330    
  5.2611      5.2290      5.3763      5.6911      6.1545      6.7416      7.3613      7.9399      8.4474      8.8134    
  9.0106      8.8126      8.1354      7.1994      6.3668      5.8845      5.7224      5.6666      5.5495      5.3685    
  5.2047      5.1194      5.1694      5.3778      5.7318      6.2286      6.8577      7.5485      8.2157      8.7557    
  8.8126      8.8749      8.4939      7.7422      6.9272      6.3674      6.1390      6.0625      5.9260      5.6835    
  5.4329      5.2611      5.2290      5.3764      5.6911      6.1545      6.7416      7.3612      7.9396      8.4468    
  8.1354      8.4939      8.5930      8.3021      7.7431      7.2007      6.8566      6.6505      6.4080      6.0608    
  5.6964      5.4226      5.2881      5.3414      5.5772      5.9573      6.4448      6.9325      7.3464      7.7271    
  7.1994      7.7422      8.3021      8.5940      8.4956      8.1370      7.7280      7.3467      6.9323      6.4445    
  5.9571      5.5772      5.3414      5.2881      5.4226      5.6965      6.0609      6.4079      6.6500      6.8556    
  6.3668      6.9272      7.7431      8.4956      8.8767      8.8139      8.4471      7.9392      7.3605      6.7410    
  6.1542      5.6910      5.3763      5.2290      5.2611      5.4330      5.6834      5.9258      6.0621      6.1383    
  5.8845      6.3674      7.2007      8.1370      8.8139      9.0110      8.7552      8.2146      7.5475      6.8570    
  6.2283      5.7317      5.3778      5.1694      5.1194      5.2048      5.3685      5.5494      5.6664      5.7221    
  5.7224      6.1390      6.8566      7.7280      8.4471      8.7552      8.5954      8.0940      7.4326      6.7549    
  6.1544      5.6826      5.3357      5.1090      5.0113      5.0294      5.1325      5.2748      5.4152      5.5351    
  5.6666      6.0625      6.6505      7.3467      7.9392      8.2146      8.0940      7.6597      7.0721      6.4752    
  5.9576      5.5541      5.2517      5.0461      4.9375      4.9151      4.9687      5.0799      5.2299      5.4152    
  5.5495      5.9260      6.4080      6.9323      7.3605      7.5475      7.4326      7.0721      6.5909      6.1084    
  5.6970      5.3784      5.1399      4.9804      4.8900      4.8549      4.8721      4.9470      5.0799      5.2749    
  5.3685      5.6835      6.0608      6.4445      6.7410      6.8570      6.7549      6.4752      6.1084      5.7433    
  5.4335      5.1929      5.0210      4.9148      4.8572      4.8311      4.8322      4.8721      4.9687      5.1325    
  5.2047      5.4329      5.6964      5.9571      6.1542      6.2283      6.1544      5.9576      5.6970      5.4335    
  5.2051      5.0295      4.9151      4.8549      4.8311      4.8256      4.8311      4.8549      4.9151      5.0293    
  5.1194      5.2611      5.4226      5.5772      5.6910      5.7317      5.6826      5.5541      5.3784      5.1929    
  5.0295      4.9086      4.8368      4.8088      4.8117      4.8311      4.8573      4.8900      4.9375      5.0112    
  5.1694      5.2290      5.2881      5.3414      5.3763      5.3778      5.3357      5.2517      5.1399      5.0210    
  4.9151      4.8368      4.7934      4.7856      4.8088      4.8549      4.9148      4.9803      5.0460      5.1090    
  5.3778      5.3764      5.3414      5.2881      5.2290      5.1694      5.1090      5.0461      4.9804      4.9148    
  4.8549      4.8088      4.7856      4.7934      4.8369      4.9151      5.0209      5.1397      5.2515      5.3356    
  5.7318      5.6911      5.5772      5.4226      5.2611      5.1194      5.0113      4.9375      4.8900      4.8572    
  4.8311      4.8117      4.8088      4.8369      4.9086      5.0294      5.1926      5.3780      5.5538      5.6825    
  6.2286      6.1545      5.9573      5.6965      5.4330      5.2048      5.0294      4.9151      4.8549      4.8311    
  4.8256      4.8311      4.8549      4.9151      5.0294      5.2048      5.4330      5.6965      5.9573      6.1545    
  6.8577      6.7416      6.4448      6.0609      5.6834      5.3685      5.1325      4.9687      4.8721      4.8322    
  4.8311      4.8573      4.9148      5.0209      5.1926      5.4330      5.7427      6.1080      6.4752      6.7553    
  7.5485      7.3612      6.9325      6.4079      5.9258      5.5494      5.2748      5.0799      4.9470      4.8721    
  4.8549      4.8900      4.9803      5.1397      5.3780      5.6965      6.1080      6.5909      7.0727      7.4336    
  8.2157      7.9396      7.3464      6.6500      6.0621      5.6664      5.4152      5.2299      5.0799      4.9687    
  4.9151      4.9375      5.0460      5.2515      5.5538      5.9573      6.4752      7.0727      7.6608      8.0954    
  8.7557      8.4468      7.7271      6.8556      6.1383      5.7221      5.5351      5.4152      5.2749      5.1325    
  5.0293      5.0112      5.1090      5.3356      5.6825      6.1545      6.7553      7.4336      8.0954      8.5966    
  8.6259      8.5963      8.0799      7.2338      6.3612      5.7224      5.3823      5.2299      5.1282      5.0271    
  4.9434      4.9086      4.9546      5.1005      5.3602      5.7318      6.2296      6.8628      7.5714      8.2230    
  8.5963      8.7556      8.4471      7.7278      6.8565      6.1390      5.7225      5.5352      5.4151      5.2747    
  5.1324      5.0293      5.0112      5.1090      5.3356      5.6825      6.1545      6.7552      7.4334      8.0951    
  8.0799      8.4471      8.5006      8.1572      7.5248      6.8566      6.3613      6.0622      5.8446      5.6146    