BCC W                                   
   2.90000000000000     
    -0.500000    0.500000    0.500000
     0.500000   -0.500000    0.500000
     0.500000    0.500000   -0.500000
   W 
     1
Direct
  0.000000  0.000000  0.000000
 
   20   20   20
 0.11518159372E+02 0.11054447368E+02 0.10059985906E+02 0.92882927434E+01 0.90575997148E+01
 0.90105759425E+01 0.86259432771E+01 0.78111128911E+01 0.69253793034E+01 0.63439593036E+01
 0.61556782728E+01 0.63439593036E+01 0.69253793034E+01 0.78111128911E+01 0.86259432771E+01
 0.90105759425E+01 0.90575997148E+01 0.92882927434E+01 0.10059985906E+02 0.11054447368E+02
 0.11054447368E+02 0.10886101346E+02 0.10040045478E+02 0.91946065279E+01 0.88391676382E+01
 0.88125935961E+01 0.85963166400E+01 0.79380181756E+01 0.70747485422E+01 0.64057686180E+01
 0.61056841819E+01 0.61679754825E+01 0.65951778448E+01 0.73703453896E+01 0.82230447028E+01
 0.87556747859E+01 0.88754842443E+01 0.89717094541E+01 0.95045670027E+01 0.10409384015E+02
 0.10059985906E+02 0.10040045478E+02 0.93859823400E+01 0.85885757686E+01 0.81655485398E+01
 0.81354479008E+01 0.80799117469E+01 0.76607092820E+01 0.69608016983E+01 0.63198141537E+01
 0.59622484385E+01 0.59172881076E+01 0.61949936922E+01 0.67885995169E+01 0.75714390067E+01
 0.82156772886E+01 0.85005059174E+01 0.85935179148E+01 0.88877001018E+01 0.95045670027E+01
 0.92882927434E+01 0.91946065279E+01 0.85885757686E+01 0.78013845111E+01 0.72940142871E+01
 0.71994036933E+01 0.72337617652E+01 0.70489627993E+01 0.65910202659E+01 0.60841114188E+01
 0.57444854026E+01 0.56368165641E+01 0.58033237656E+01 0.62213283660E+01 0.68628445288E+01
 0.75485255460E+01 0.80481387949E+01 0.83311376772E+01 0.85935179148E+01 0.89717094541E+01
 0.90575997148E+01 0.88391676382E+01 0.81655485398E+01 0.72940142871E+01 0.66274068382E+01
 0.63667691998E+01 0.63611796901E+01 0.63102295149E+01 0.60719478059E+01 0.57427536252E+01
 0.54812369780E+01 0.53640047523E+01 0.54530223039E+01 0.57496089745E+01 0.62296167297E+01
 0.68576866447E+01 0.75007268083E+01 0.80481387949E+01 0.85005059174E+01 0.88754842443E+01
 0.90105759425E+01 0.88125935961E+01 0.81354479008E+01 0.71994036933E+01 0.63667691998E+01
 0.58844715119E+01 0.57224119094E+01 0.56666170471E+01 0.55494943781E+01 0.53684909251E+01
 0.52047437894E+01 0.51194026426E+01 0.51693763819E+01 0.53777688618E+01 0.57317507536E+01
 0.62285617169E+01 0.68576866447E+01 0.75485255460E+01 0.82156772886E+01 0.87556747859E+01
 0.86259432771E+01 0.85963166400E+01 0.80799117469E+01 0.72337617652E+01 0.63611796901E+01
 0.57224119094E+01 0.53822969664E+01 0.52299084742E+01 0.51282056973E+01 0.50271044722E+01
 0.49433679312E+01 0.49086024104E+01 0.49546339320E+01 0.51004842560E+01 0.53602497166E+01
 0.57317507536E+01 0.62296167297E+01 0.68628445288E+01 0.75714390067E+01 0.82230447028E+01
 0.78111128911E+01 0.79380181756E+01 0.76607092820E+01 0.70489627993E+01 0.63102295149E+01
 0.56666170471E+01 0.52299084742E+01 0.49787102208E+01 0.48370337661E+01 0.47550704437E+01
 0.47180368518E+01 0.47299633007E+01 0.47934842663E+01 0.49122369946E+01 0.51004842560E+01
 0.53777688618E+01 0.57496089745E+01 0.62213283660E+01 0.67885995169E+01 0.73703453896E+01
 0.69253793034E+01 0.70747485422E+01 0.69608016983E+01 0.65910202659E+01 0.60719478059E+01
 0.55494943781E+01 0.51282056973E+01 0.48370337661E+01 0.46572631955E+01 0.45642577528E+01
 0.45438218055E+01 0.45841931029E+01 0.46708495148E+01 0.47934842663E+01 0.49546339320E+01
 0.51693763819E+01 0.54530223039E+01 0.58033237656E+01 0.61949936922E+01 0.65951778448E+01
 0.63439593036E+01 0.64057686180E+01 0.63198141537E+01 0.60841114188E+01 0.57427536252E+01
 0.53684909251E+01 0.50271044722E+01 0.47550704437E+01 0.45642577528E+01 0.44578085255E+01
 0.44329309142E+01 0.44800941704E+01 0.45841931029E+01 0.47299633007E+01 0.49086024104E+01
 0.51194026426E+01 0.53640047523E+01 0.56368165641E+01 0.59172881076E+01 0.61679754825E+01
 0.61556782728E+01 0.61056841819E+01 0.59622484385E+01 0.57444854026E+01 0.54812369780E+01
 0.52047437894E+01 0.49433679312E+01 0.47180368518E+01 0.45438218055E+01 0.44329309142E+01
 0.43947337004E+01 0.44329309142E+01 0.45438218055E+01 0.47180368518E+01 0.49433679312E+01
 0.52047437894E+01 0.54812369780E+01 0.57444854026E+01 0.59622484385E+01 0.61056841819E+01
 0.63439593036E+01 0.61679754825E+01 0.59172881076E+01 0.56368165641E+01 0.53640047523E+01
 0.51194026426E+01 0.49086024104E+01 0.47299633007E+01 0.45841931029E+01 0.44800941704E+01
 0.44329309142E+01 0.44578085255E+01 0.45642577528E+01 0.47550704437E+01 0.50271044722E+01
 0.53684909251E+01 0.57427536252E+01 0.60841114188E+01 0.63198141537E+01 0.64057686180E+01
 0.69253793034E+01 0.65951778448E+01 0.61949936922E+01 0.58033237656E+01 0.54530223039E+01
 0.51693763819E+01 0.49546339320E+01 0.47934842663E+01 0.46708495148E+01 0.45841931029E+01
 0.45438218055E+01 0.45642577528E+01 0.46572631955E+01 0.48370337661E+01 0.51282056973E+01
 0.55494943781E+01 0.60719478059E+01 0.65910202659E+01 0.69608016983E+01 0.70747485422E+01
 0.78111128911E+01 0.73703453896E+01 0.67885995169E+01 0.62213283660E+01 0.57496089745E+01
 0.53777688618E+01 0.51004842560E+01 0.49122369946E+01 0.47934842663E+01 0.47299633007E+01
 0.47180368518E+01 0.47550704437E+01 0.48370337661E+01 0.49787102208E+01 0.52299084742E+01
 0.56666170471E+01 0.63102295149E+01 0.70489627993E+01 0.76607092820E+01 0.79380181756E+01
 0.86259432771E+01 0.82230447028E+01 0.75714390067E+01 0.68628445288E+01 0.62296167297E+01
 0.57317507536E+01 0.53602497166E+01 0.51004842560E+01 0.49546339320E+01 0.49086024104E+01
 0.49433679312E+01 0.50271044722E+01 0.51282056973E+01 0.52299084742E+01 0.53822969664E+01
 0.57224119094E+01 0.63611796901E+01 0.72337617652E+01 0.80799117469E+01 0.85963166400E+01
 0.90105759425E+01 0.87556747859E+01 0.82156772886E+01 0.75485255460E+01 0.68576866447E+01
 0.62285617169E+01 0.57317507536E+01 0.53777688618E+01 0.51693763819E+01 0.51194026426E+01
 0.52047437894E+01 0.53684909251E+01 0.55494943781E+01 0.56666170471E+01 0.57224119094E+01
 0.58844715119E+01 0.63667691998E+01 0.71994036933E+01 0.81354479008E+01 0.88125935961E+01
 0.90575997148E+01 0.88754842443E+01 0.85005059174E+01 0.80481387949E+01 0.75007268083E+01
 0.68576866447E+01 0.62296167297E+01 0.57496089745E+01 0.54530223039E+01 0.53640047523E+01
 0.54812369780E+01 0.57427536252E+01 0.60719478059E+01 0.63102295149E+01 0.63611796901E+01
 0.63667691998E+01 0.66274068382E+01 0.72940142871E+01 0.81655485398E+01 0.88391676382E+01
 0.92882927434E+01 0.89717094541E+01 0.85935179148E+01 0.83311376772E+01 0.80481387949E+01
 0.75485255460E+01 0.68628445288E+01 0.62213283660E+01 0.58033237656E+01 0.56368165641E+01
 0.57444854026E+01 0.60841114188E+01 0.65910202659E+01 0.70489627993E+01 0.72337617652E+01
 0.71994036933E+01 0.72940142871E+01 0.78013845111E+01 0.85885757686E+01 0.91946065279E+01
 0.10059985906E+02 0.95045670027E+01 0.88877001018E+01 0.85935179148E+01 0.85005059174E+01
 0.82156772886E+01 0.75714390067E+01 0.67885995169E+01 0.61949936922E+01 0.59172881076E+01
 0.59622484385E+01 0.63198141537E+01 0.69608016983E+01 0.76607092820E+01 0.80799117469E+01
 0.81354479008E+01 0.81655485398E+01 0.85885757686E+01 0.93859823400E+01 0.10040045478E+02
 0.11054447368E+02 0.10409384015E+02 0.95045670027E+01 0.89717094541E+01 0.88754842443E+01
 0.87556747859E+01 0.82230447028E+01 0.73703453896E+01 0.65951778448E+01 0.61679754825E+01
 0.61056841819E+01 0.64057686180E+01 0.70747485422E+01 0.79380181756E+01 0.85963166400E+01
 0.88125935961E+01 0.88391676382E+01 0.91946065279E+01 0.10040045478E+02 0.10886101346E+02
 0.11054447368E+02 0.10886101346E+02 0.10040045478E+02 0.91946065279E+01 0.88391676382E+01
 0.88125935961E+01 0.85963166400E+01 0.79380181756E+01 0.70747485422E+01 0.64057686180E+01
 0.61056841819E+01 0.61679754825E+01 0.65951778448E+01 0.73703453896E+01 0.82230447028E+01
 0.87556747859E+01 0.88754842443E+01 0.89717094541E+01 0.95045670027E+01 0.10409384015E+02
 0.10886101346E+02 0.11053213660E+02 0.10407375945E+02 0.95025662215E+01 0.89703263217E+01
 0.88748669508E+01 0.87555909927E+01 0.82231673087E+01 0.73704665877E+01 0.65952390140E+01
 0.61679923282E+01 0.61056794192E+01 0.64057508565E+01 0.70747318513E+01 0.79380758624E+01
 0.85966254954E+01 0.88133730148E+01 0.88404739229E+01 0.91961236185E+01 0.10041119282E+02
 0.10040045478E+02 0.10407375945E+02 0.10038822103E+02 0.92553376483E+01 0.86604374024E+01
 0.84938965957E+01 0.84470742173E+01 0.80954453030E+01 0.73828655142E+01 0.66225890824E+01
 0.61236768037E+01 0.59553983051E+01 0.61236661239E+01 0.66225323445E+01 0.73827540775E+01
 0.80953977692E+01 0.84473754069E+01 0.84948505514E+01 0.86620626960E+01 0.92571613715E+01
 0.91946065279E+01 0.95025662215E+01 0.92553376483E+01 0.85884379466E+01 0.79797382670E+01
 0.77422122595E+01 0.77277535050E+01 0.75595383944E+01 0.70728232087E+01 0.64504198242E+01
 0.59710026735E+01 0.57456178848E+01 0.58067452630E+01 0.61465587319E+01 0.67423896320E+01
 0.74335991999E+01 0.79399404127E+01 0.81568060086E+01 0.83019031078E+01 0.86613642012E+01
 0.88391676382E+01 0.89703263217E+01 0.86604374024E+01 0.79797382670E+01 0.72946968586E+01
 0.69272175827E+01 0.68564644471E+01 0.67961194440E+01 0.65297028288E+01 0.61080837380E+01
 0.57278697230E+01 0.55058126806E+01 0.54973969997E+01 0.57255360266E+01 0.61574355206E+01
 0.67553063548E+01 0.73612925261E+01 0.78224035990E+01 0.81564828776E+01 0.84940082592E+01
 0.88125935961E+01 0.88748669508E+01 0.84938965957E+01 0.77422122595E+01 0.69272175827E+01
 0.63673537204E+01 0.61389631030E+01 0.60625466742E+01 0.59259749045E+01 0.56834514715E+01
 0.54329423419E+01 0.52610790158E+01 0.52290287034E+01 0.53763530219E+01 0.56910701002E+01
 0.61544637231E+01 0.67415656328E+01 0.73611995745E+01 0.79396209633E+01 0.84467615411E+01
 0.85963166400E+01 0.87555909927E+01 0.84470742173E+01 0.77277535050E+01 0.68564644471E+01
 0.61389631030E+01 0.57224993278E+01 0.55351766235E+01 0.54151253905E+01 0.52747395577E+01
 0.51324151144E+01 0.50293181874E+01 0.50112376122E+01 0.51089534512E+01 0.53355665379E+01
 0.56825044663E+01 0.61544548722E+01 0.67552382659E+01 0.74334085854E+01 0.80950844424E+01
 0.79380181756E+01 0.82231673087E+01 0.80954453030E+01 0.75595383944E+01 0.67961194440E+01
 0.60625466742E+01 0.55351766235E+01 0.52297505085E+01 0.50587139891E+01 0.49440455219E+01
 0.48631806130E+01 0.48217226337E+01 0.48368585431E+01 0.49185758975E+01 0.50793324571E+01
 0.53355695622E+01 0.56910674759E+01 0.61574009013E+01 0.67423013028E+01 0.73826356739E+01
 0.70747485422E+01 0.73704665877E+01 0.73828655142E+01 0.70728232087E+01 0.65297028288E+01
 0.59259749045E+01 0.54151253905E+01 0.50587139891E+01 0.48369451133E+01 0.47089415554E+01
 0.46486476615E+01 0.46467531506E+01 0.46953431066E+01 0.47856931460E+01 0.49185727847E+01
 0.51089523012E+01 0.53763464531E+01 0.57255119198E+01 0.61465156029E+01 0.66224941302E+01
 0.64057686180E+01 0.65952390140E+01 0.66225890824E+01 0.64504198242E+01 0.61080837380E+01
 0.56834514715E+01 0.52747395577E+01 0.49440455219E+01 0.47089415554E+01 0.45642740503E+01
 0.45028691353E+01 0.45148035491E+01 0.45846061634E+01 0.46953289289E+01 0.48368481661E+01
 0.50112338245E+01 0.52290218750E+01 0.54973798969E+01 0.58067225096E+01 0.61236535180E+01
 0.61056841819E+01 0.61679923282E+01 0.61236768037E+01 0.59710026735E+01 0.57278697230E+01
 0.54329423419E+01 0.51324151144E+01 0.48631806130E+01 0.46486476615E+01 0.45028691353E+01
 0.44329406263E+01 0.44392780933E+01 0.45147757031E+01 0.46467276742E+01 0.48217205549E+01
 0.50293342554E+01 0.52610938413E+01 0.55058146542E+01 0.57456108414E+01 0.59553931024E+01
 0.61679754825E+01 0.61056794192E+01 0.59553983051E+01 0.57456178848E+01 0.55058126806E+01
 0.52610790158E+01 0.50293181874E+01 0.48217226337E+01 0.46467531506E+01 0.45148035491E+01
 0.44392780933E+01 0.44329060760E+01 0.45028292827E+01 0.46486429388E+01 0.48632247486E+01
 0.51324831923E+01 0.54329949129E+01 0.57278855604E+01 0.59709887642E+01 0.61236535180E+01
 0.65951778448E+01 0.64057508565E+01 0.61236661239E+01 0.58067452630E+01 0.54973969997E+01
 0.52290287034E+01 0.50112376122E+01 0.48368585431E+01 0.46953431066E+01 0.45846061634E+01
 0.45147757031E+01 0.45028292827E+01 0.45642667877E+01 0.47090043413E+01 0.49441687062E+01
 0.52748641882E+01 0.56835115659E+01 0.61080548295E+01 0.64503310497E+01 0.66224941302E+01
 0.73703453896E+01 0.70747318513E+01 0.66225323445E+01 0.61465587319E+01 0.57255360266E+01
 0.53763530219E+01 0.51089534512E+01 0.49185758975E+01 0.47856931460E+01 0.46953289289E+01
 0.46467276742E+01 0.46486429388E+01 0.47090043413E+01 0.48370921312E+01 0.50588948073E+01
 0.54152378995E+01 0.59259334109E+01 0.65295043262E+01 0.70725527049E+01 0.73826356739E+01
 0.82230447028E+01 0.79380758624E+01 0.73827540775E+01 0.67423896320E+01 0.61574355206E+01
 0.56910701002E+01 0.53355665379E+01 0.50793324571E+01 0.49185727847E+01 0.48368481661E+01
 0.48217205549E+01 0.48632247486E+01 0.49441687062E+01 0.50588948073E+01 0.52298873512E+01
 0.55351303347E+01 0.60622398907E+01 0.67956139825E+01 0.75590135556E+01 0.80950844424E+01
 0.87556747859E+01 0.85966254954E+01 0.80953977692E+01 0.74335991999E+01 0.67553063548E+01
 0.61544637231E+01 0.56825044663E+01 0.53355695622E+01 0.51089523012E+01 0.50112338245E+01
 0.50293342554E+01 0.51324831923E+01 0.52748641882E+01 0.54152378995E+01 0.55351303347E+01
 0.57221470013E+01 0.61382844302E+01 0.68556347357E+01 0.77270671393E+01 0.84467615411E+01
 0.88754842443E+01 0.88133730148E+01 0.84473754069E+01 0.79399404127E+01 0.73612925261E+01
 0.67415656328E+01 0.61544548722E+01 0.56910674759E+01 0.53763464531E+01 0.52290218750E+01
 0.52610938413E+01 0.54329949129E+01 0.56835115659E+01 0.59259334109E+01 0.60622398907E+01
 0.61382844302E+01 0.63663923482E+01 0.69262888844E+01 0.77417015892E+01 0.84940082592E+01
 0.89717094541E+01 0.88404739229E+01 0.84948505514E+01 0.81568060086E+01 0.78224035990E+01
 0.73611995745E+01 0.67552382659E+01 0.61574009013E+01 0.57255119198E+01 0.54973798969E+01
 0.55058146542E+01 0.57278855604E+01 0.61080548295E+01 0.65295043262E+01 0.67956139825E+01
 0.68556347357E+01 0.69262888844E+01 0.72941005152E+01 0.79798689536E+01 0.86613642012E+01
 0.95045670027E+01 0.91961236185E+01 0.86620626960E+01 0.83019031078E+01 0.81564828776E+01
 0.79396209633E+01 0.74334085854E+01 0.67423013028E+01 0.61465156029E+01 0.58067225096E+01
 0.57456108414E+01 0.59709887642E+01 0.64503310497E+01 0.70725527049E+01 0.75590135556E+01
 0.77270671393E+01 0.77417015892E+01 0.79798689536E+01 0.85894970617E+01 0.92571613715E+01
 0.10409384015E+02 0.10041119282E+02 0.92571613715E+01 0.86613642012E+01 0.84940082592E+01
 0.84467615411E+01 0.80950844424E+01 0.73826356739E+01 0.66224941302E+01 0.61236535180E+01
 0.59553931024E+01 0.61236535180E+01 0.66224941302E+01 0.73826356739E+01 0.80950844424E+01
 0.84467615411E+01 0.84940082592E+01 0.86613642012E+01 0.92571613715E+01 0.10041119282E+02
 0.10059985906E+02 0.10040045478E+02 0.93859823400E+01 0.85885757686E+01 0.81655485398E+01
 0.81354479008E+01 0.80799117469E+01 0.76607092820E+01 0.69608016983E+01 0.63198141537E+01
 0.59622484385E+01 0.59172881076E+01 0.61949936922E+01 0.67885995169E+01 0.75714390067E+01
 0.82156772886E+01 0.85005059174E+01 0.85935179148E+01 0.88877001018E+01 0.95045670027E+01
 0.10040045478E+02 0.10407375945E+02 0.10038822103E+02 0.92553376483E+01 0.86604374024E+01
 0.84938965957E+01 0.84470742173E+01 0.80954453030E+01 0.73828655142E+01 0.66225890824E+01
 0.61236768037E+01 0.59553983051E+01 0.61236661239E+01 0.66225323445E+01 0.73827540775E+01
 0.80953977692E+01 0.84473754069E+01 0.84948505514E+01 0.86620626960E+01 0.92571613715E+01
 0.93859823400E+01 0.10038822103E+02 0.10057887392E+02 0.95024061922E+01 0.88862243558E+01
 0.85929766125E+01 0.85006372606E+01 0.82160340390E+01 0.75717156426E+01 0.67887261177E+01
 0.61950332220E+01 0.59173074592E+01 0.59622651478E+01 0.63198153999E+01 0.69608050449E+01
 0.76608287874E+01 0.80803502339E+01 0.81363408105E+01 0.81667289178E+01 0.85894970617E+01
 0.85885757686E+01 0.92553376483E+01 0.95024061922E+01 0.91944242374E+01 0.86613439223E+01
 0.83021172293E+01 0.81571616377E+01 0.79402692531E+01 0.74337900515E+01 0.67424443333E+01
 0.61465489935E+01 0.58067374295E+01 0.57456304796E+01 0.59710066580E+01 0.64503650768E+01
 0.70726812567E+01 0.75593448782E+01 0.77276081478E+01 0.77422085733E+01 0.79798689536E+01
 0.81655485398E+01 0.86604374024E+01 0.88862243558E+01 0.86613439223E+01 0.81669779170E+01
 0.77431232233E+01 0.75248016326E+01 0.73471553045E+01 0.69970219016E+01 0.64751832395E+01
 0.59705367484E+01 0.56353608507E+01 0.55116754132E+01 0.56353831746E+01 0.59705760623E+01
 0.64751880191E+01 0.69968553629E+01 0.73466226198E+01 0.75237746460E+01 0.77417015892E+01
 0.81354479008E+01 0.84938965957E+01 0.85929766125E+01 0.83021172293E+01 0.77431232233E+01
 0.72006554386E+01 0.68566428339E+01 0.66504541825E+01 0.64080370886E+01 0.60607684850E+01
 0.56964221241E+01 0.54226046450E+01 0.52881462794E+01 0.53413837600E+01 0.55772323483E+01
 0.59572820294E+01 0.64448472354E+01 0.69325153432E+01 0.73464345458E+01 0.77270671393E+01
 0.80799117469E+01 0.84470742173E+01 0.85006372606E+01 0.81571616377E+01 0.75248016326E+01
 0.68566428339E+01 0.63613282167E+01 0.60622205672E+01 0.58446318215E+01 0.56145617716E+01
 0.53807123279E+01 0.51925128389E+01 0.50885810994E+01 0.51096074347E+01 0.52691119834E+01
 0.55538124868E+01 0.59482463353E+01 0.64448101228E+01 0.69967012713E+01 0.75590135556E+01
 0.76607092820E+01 0.80954453030E+01 0.82160340390E+01 0.79402692531E+01 0.73471553045E+01
 0.66504541825E+01 0.60622205672E+01 0.56661776328E+01 0.54148575794E+01 0.52296492376E+01
 0.50798113621E+01 0.49686766124E+01 0.49151049709E+01 0.49374702179E+01 0.50459689130E+01
 0.52515327432E+01 0.55538134358E+01 0.59572663586E+01 0.64751216237E+01 0.70725527049E+01
 0.69608016983E+01 0.73828655142E+01 0.75717156426E+01 0.74337900515E+01 0.69970219016E+01
 0.64080370886E+01 0.58446318215E+01 0.54148575794E+01 0.51279319326E+01 0.49440165891E+01
 0.48300070747E+01 0.47708636544E+01 0.47654919217E+01 0.48088692494E+01 0.48988317263E+01
 0.50459704602E+01 0.52691169796E+01 0.55772333825E+01 0.59705588046E+01 0.64503310497E+01
 0.63198141537E+01 0.66225890824E+01 0.67887261177E+01 0.67424443333E+01 0.64751832395E+01
 0.60607684850E+01 0.56145617716E+01 0.52296492376E+01 0.49440165891E+01 0.47550832300E+01
 0.46486913645E+01 0.46150862903E+01 0.46413124122E+01 0.47102132948E+01 0.48088635187E+01
 0.49374691483E+01 0.51096124967E+01 0.53413878864E+01 0.56353757925E+01 0.59709887642E+01
 0.59622484385E+01 0.61236768037E+01 0.61950332220E+01 0.61465489935E+01 0.59705367484E+01
 0.56964221241E+01 0.53807123279E+01 0.50798113621E+01 0.48300070747E+01 0.46486913645E+01
 0.45438683610E+01 0.45148029677E+01 0.45524134134E+01 0.46412922894E+01 0.47654749159E+01
 0.49151047818E+01 0.50885949618E+01 0.52881592164E+01 0.55116723155E+01 0.57456108414E+01
 0.59172881076E+01 0.59553983051E+01 0.59173074592E+01 0.58067374295E+01 0.56353608507E+01
 0.54226046450E+01 0.51925128389E+01 0.49686766124E+01 0.47708636544E+01 0.46150862903E+01
 0.45148029677E+01 0.44800698576E+01 0.45147687657E+01 0.46150453623E+01 0.47708501505E+01
 0.49687052733E+01 0.51925678135E+01 0.54226521157E+01 0.56353757925E+01 0.58067225096E+01
 0.61949936922E+01 0.61236661239E+01 0.59622651478E+01 0.57456304796E+01 0.55116754132E+01
 0.52881462794E+01 0.50885810994E+01 0.49151049709E+01 0.47654919217E+01 0.46413124122E+01
 0.45524134134E+01 0.45147687657E+01 0.45438149836E+01 0.46486630953E+01 0.48300476634E+01
 0.50799246325E+01 0.53808506502E+01 0.56965193928E+01 0.59705588046E+01 0.61465156029E+01
 0.67885995169E+01 0.66225323445E+01 0.63198153999E+01 0.59710066580E+01 0.56353831746E+01
 0.53413837600E+01 0.51096074347E+01 0.49374702179E+01 0.48088692494E+01 0.47102132948E+01
 0.46412922894E+01 0.46150453623E+01 0.46486630953E+01 0.47551279519E+01 0.49441738142E+01
 0.52298859065E+01 0.56147751878E+01 0.60608562834E+01 0.64751216237E+01 0.67423013028E+01
 0.75714390067E+01 0.73827540775E+01 0.69608050449E+01 0.64503650768E+01 0.59705760623E+01
 0.55772323483E+01 0.52691119834E+01 0.50459689130E+01 0.48988317263E+01 0.48088635187E+01
 0.47654749159E+01 0.47708501505E+01 0.48300476634E+01 0.49441738142E+01 0.51282122983E+01
 0.54151611478E+01 0.58447917200E+01 0.64079391757E+01 0.69967012713E+01 0.74334085854E+01
 0.82156772886E+01 0.80953977692E+01 0.76608287874E+01 0.70726812567E+01 0.64751880191E+01
 0.59572820294E+01 0.55538124868E+01 0.52515327432E+01 0.50459704602E+01 0.49374691483E+01
 0.49151047818E+01 0.49687052733E+01 0.50799246325E+01 0.52298859065E+01 0.54151611478E+01
 0.56663699069E+01 0.60620973176E+01 0.66499516392E+01 0.73464345458E+01 0.79396209633E+01
 0.85005059174E+01 0.84473754069E+01 0.80803502339E+01 0.75593448782E+01 0.69968553629E+01
 0.64448472354E+01 0.59482463353E+01 0.55538134358E+01 0.52691169796E+01 0.51096124967E+01
 0.50885949618E+01 0.51925678135E+01 0.53808506502E+01 0.56147751878E+01 0.58447917200E+01
 0.60620973176E+01 0.63607473924E+01 0.68556713210E+01 0.75237746460E+01 0.81564828776E+01
 0.85935179148E+01 0.84948505514E+01 0.81363408105E+01 0.77276081478E+01 0.73466226198E+01
 0.69325153432E+01 0.64448101228E+01 0.59572663586E+01 0.55772333825E+01 0.53413878864E+01
 0.52881592164E+01 0.54226521157E+01 0.56965193928E+01 0.60608562834E+01 0.64079391757E+01
 0.66499516392E+01 0.68556713210E+01 0.71994657520E+01 0.77422085733E+01 0.83019031078E+01
 0.88877001018E+01 0.86620626960E+01 0.81667289178E+01 0.77422085733E+01 0.75237746460E+01
 0.73464345458E+01 0.69967012713E+01 0.64751216237E+01 0.59705588046E+01 0.56353757925E+01
 0.55116723155E+01 0.56353757925E+01 0.59705588046E+01 0.64751216237E+01 0.69967012713E+01
 0.73464345458E+01 0.75237746460E+01 0.77422085733E+01 0.81667289178E+01 0.86620626960E+01
 0.95045670027E+01 0.92571613715E+01 0.85894970617E+01 0.79798689536E+01 0.77417015892E+01
 0.77270671393E+01 0.75590135556E+01 0.70725527049E+01 0.64503310497E+01 0.59709887642E+01
 0.57456108414E+01 0.58067225096E+01 0.61465156029E+01 0.67423013028E+01 0.74334085854E+01
 0.79396209633E+01 0.81564828776E+01 0.83019031078E+01 0.86620626960E+01 0.91961236185E+01
 0.92882927434E+01 0.91946065279E+01 0.85885757686E+01 0.78013845111E+01 0.72940142871E+01
 0.71994036933E+01 0.72337617652E+01 0.70489627993E+01 0.65910202659E+01 0.60841114188E+01
 0.57444854026E+01 0.56368165641E+01 0.58033237656E+01 0.62213283660E+01 0.68628445288E+01
 0.75485255460E+01 0.80481387949E+01 0.83311376772E+01 0.85935179148E+01 0.89717094541E+01
 0.91946065279E+01 0.95025662215E+01 0.92553376483E+01 0.85884379466E+01 0.79797382670E+01
 0.77422122595E+01 0.77277535050E+01 0.75595383944E+01 0.70728232087E+01 0.64504198242E+01
 0.59710026735E+01 0.57456178848E+01 0.58067452630E+01 0.61465587319E+01 0.67423896320E+01
 0.74335991999E+01 0.79399404127E+01 0.81568060086E+01 0.83019031078E+01 0.86613642012E+01
 0.85885757686E+01 0.92553376483E+01 0.95024061922E+01 0.91944242374E+01 0.86613439223E+01
 0.83021172293E+01 0.81571616377E+01 0.79402692531E+01 0.74337900515E+01 0.67424443333E+01
 0.61465489935E+01 0.58067374295E+01 0.57456304796E+01 0.59710066580E+01 0.64503650768E+01
 0.70726812567E+01 0.75593448782E+01 0.77276081478E+01 0.77422085733E+01 0.79798689536E+01
 0.78013845111E+01 0.85884379466E+01 0.91944242374E+01 0.92882614031E+01 0.89719700006E+01
 0.85940279080E+01 0.83316957151E+01 0.80485382465E+01 0.75486924871E+01 0.68628479883E+01
 0.62212852801E+01 0.58033050877E+01 0.56368238853E+01 0.57444830611E+01 0.60840678000E+01
 0.65909357274E+01 0.70488791459E+01 0.72337396097E+01 0.71994657520E+01 0.72941005152E+01
 0.72940142871E+01 0.79797382670E+01 0.86613439223E+01 0.89719700006E+01 0.88410482721E+01
 0.84955710890E+01 0.81574075711E+01 0.78227080828E+01 0.73612186875E+01 0.67551186674E+01
 0.61572875016E+01 0.57254599855E+01 0.54973664967E+01 0.55057987335E+01 0.57278494468E+01
 0.61080101042E+01 0.65294788406E+01 0.67956279841E+01 0.68556713210E+01 0.69262888844E+01
 0.71994036933E+01 0.77422122595E+01 0.83021172293E+01 0.85940279080E+01 0.84955710890E+01
 0.81370273677E+01 0.77280107114E+01 0.73466560623E+01 0.69322967412E+01 0.64445417439E+01
 0.59570851738E+01 0.55771556534E+01 0.53413612469E+01 0.52881382676E+01 0.54226270274E+01
 0.56965006722E+01 0.60608534247E+01 0.64079486503E+01 0.66499516392E+01 0.68556347357E+01
 0.72337617652E+01 0.77277535050E+01 0.81571616377E+01 0.83316957151E+01 0.81574075711E+01
 0.77280107114E+01 0.72337791635E+01 0.67953381860E+01 0.64075263824E+01 0.60275841428E+01
 0.56681090693E+01 0.53779730898E+01 0.51797291631E+01 0.51088610508E+01 0.51797327013E+01
 0.53780307621E+01 0.56682968148E+01 0.60279318322E+01 0.64079391757E+01 0.67956139825E+01
 0.70489627993E+01 0.75595383944E+01 0.79402692531E+01 0.80485382465E+01 0.78227080828E+01
 0.73466560623E+01 0.67953381860E+01 0.63094335748E+01 0.59253336652E+01 0.56144499156E+01
 0.53575281582E+01 0.51577294104E+01 0.50209068757E+01 0.49678462476E+01 0.50061728372E+01
 0.51397231175E+01 0.53639662375E+01 0.56682943489E+01 0.60608562834E+01 0.65295043262E+01
 0.65910202659E+01 0.70728232087E+01 0.74337900515E+01 0.75486924871E+01 0.73612186875E+01
 0.69322967412E+01 0.64075263824E+01 0.59253336652E+01 0.55490323475E+01 0.52746738480E+01
 0.50799225578E+01 0.49470236772E+01 0.48721487749E+01 0.48549487900E+01 0.48899786745E+01
 0.49803175673E+01 0.51397205473E+01 0.53780332202E+01 0.56965193928E+01 0.61080548295E+01
 0.60841114188E+01 0.64504198242E+01 0.67424443333E+01 0.68628479883E+01 0.67551186674E+01
 0.64445417439E+01 0.60275841428E+01 0.56144499156E+01 0.52746738480E+01 0.50271500099E+01
 0.48633294595E+01 0.47709357007E+01 0.47418037832E+01 0.47607327310E+01 0.48117996247E+01
 0.48899741586E+01 0.50061698590E+01 0.51797414333E+01 0.54226521157E+01 0.57278855604E+01
 0.57444854026E+01 0.59710026735E+01 0.61465489935E+01 0.62212852801E+01 0.61572875016E+01
 0.59570851738E+01 0.56681090693E+01 0.53575281582E+01 0.50799225578E+01 0.48633294595E+01
 0.47181654689E+01 0.46468045697E+01 0.46413192820E+01 0.46854647501E+01 0.47607210802E+01
 0.48549323780E+01 0.49678370589E+01 0.51088695894E+01 0.52881592164E+01 0.55058146542E+01
 0.56368165641E+01 0.57456178848E+01 0.58067374295E+01 0.58033050877E+01 0.57254599855E+01
 0.55771556534E+01 0.53779730898E+01 0.51577294104E+01 0.49470236772E+01 0.47709357007E+01
 0.46468045697E+01 0.45842031059E+01 0.45845964380E+01 0.46412963966E+01 0.47417630553E+01
 0.48721062657E+01 0.50208868278E+01 0.51797414333E+01 0.53413878864E+01 0.54973798969E+01
 0.58033237656E+01 0.58067452630E+01 0.57456304796E+01 0.56368238853E+01 0.54973664967E+01
 0.53413612469E+01 0.51797291631E+01 0.50209068757E+01 0.48721487749E+01 0.47418037832E+01
 0.46413192820E+01 0.45845964380E+01 0.45841744522E+01 0.46467422885E+01 0.47708545326E+01
 0.49469641273E+01 0.51577300308E+01 0.53780332202E+01 0.55772333825E+01 0.57255119198E+01
 0.62213283660E+01 0.61465587319E+01 0.59710066580E+01 0.57444830611E+01 0.55057987335E+01
 0.52881382676E+01 0.51088610508E+01 0.49678462476E+01 0.48549487900E+01 0.47607327310E+01
 0.46854647501E+01 0.46412963966E+01 0.46467422885E+01 0.47180665524E+01 0.48632396284E+01
 0.50799119910E+01 0.53576336610E+01 0.56682943489E+01 0.59572663586E+01 0.61574009013E+01
 0.68628445288E+01 0.67423896320E+01 0.64503650768E+01 0.60840678000E+01 0.57278494468E+01
 0.54226270274E+01 0.51797327013E+01 0.50061728372E+01 0.48899786745E+01 0.48117996247E+01
 0.47607210802E+01 0.47417630553E+01 0.47708545326E+01 0.48632396284E+01 0.50271348491E+01
 0.52748137106E+01 0.56147442141E+01 0.60279318322E+01 0.64448101228E+01 0.67552382659E+01
 0.75485255460E+01 0.74335991999E+01 0.70726812567E+01 0.65909357274E+01 0.61080101042E+01
 0.56965006722E+01 0.53780307621E+01 0.51397231175E+01 0.49803175673E+01 0.48899741586E+01
 0.48549323780E+01 0.48721062657E+01 0.49469641273E+01 0.50799119910E+01 0.52748137106E+01
 0.55493735704E+01 0.59258024845E+01 0.64079486503E+01 0.69325153432E+01 0.73611995745E+01
 0.80481387949E+01 0.79399404127E+01 0.75593448782E+01 0.70488791459E+01 0.65294788406E+01
 0.60608534247E+01 0.56682968148E+01 0.53639662375E+01 0.51397205473E+01 0.50061698590E+01
 0.49678370589E+01 0.50208868278E+01 0.51577300308E+01 0.53576336610E+01 0.56147442141E+01
 0.59258024845E+01 0.63099211026E+01 0.67956279841E+01 0.73466226198E+01 0.78224035990E+01
 0.83311376772E+01 0.81568060086E+01 0.77276081478E+01 0.72337396097E+01 0.67956279841E+01
 0.64079486503E+01 0.60279318322E+01 0.56682943489E+01 0.53780332202E+01 0.51797414333E+01
 0.51088695894E+01 0.51797414333E+01 0.53780332202E+01 0.56682943489E+01 0.60279318322E+01
 0.64079486503E+01 0.67956279841E+01 0.72337396097E+01 0.77276081478E+01 0.81568060086E+01
 0.85935179148E+01 0.83019031078E+01 0.77422085733E+01 0.71994657520E+01 0.68556713210E+01
 0.66499516392E+01 0.64079391757E+01 0.60608562834E+01 0.56965193928E+01 0.54226521157E+01
 0.52881592164E+01 0.53413878864E+01 0.55772333825E+01 0.59572663586E+01 0.64448101228E+01
 0.69325153432E+01 0.73466226198E+01 0.77276081478E+01 0.81363408105E+01 0.84948505514E+01
 0.89717094541E+01 0.86613642012E+01 0.79798689536E+01 0.72941005152E+01 0.69262888844E+01
 0.68556347357E+01 0.67956139825E+01 0.65295043262E+01 0.61080548295E+01 0.57278855604E+01
 0.55058146542E+01 0.54973798969E+01 0.57255119198E+01 0.61574009013E+01 0.67552382659E+01
 0.73611995745E+01 0.78224035990E+01 0.81568060086E+01 0.84948505514E+01 0.88404739229E+01
 0.90575997148E+01 0.88391676382E+01 0.81655485398E+01 0.72940142871E+01 0.66274068382E+01
 0.63667691998E+01 0.63611796901E+01 0.63102295149E+01 0.60719478059E+01 0.57427536252E+01
 0.54812369780E+01 0.53640047523E+01 0.54530223039E+01 0.57496089745E+01 0.62296167297E+01
 0.68576866447E+01 0.75007268083E+01 0.80481387949E+01 0.85005059174E+01 0.88754842443E+01
 0.88391676382E+01 0.89703263217E+01 0.86604374024E+01 0.79797382670E+01 0.72946968586E+01
 0.69272175827E+01 0.68564644471E+01 0.67961194440E+01 0.65297028288E+01 0.61080837380E+01