   1   1   0   0
  0.1219450E+02  0.2511474E-09  0.2511474E-09  0.2511474E-09  0.5000000E-15
  1.000000000000000E-004
  CAR 
 BCC W                                   
     38.17649791     -1.44396276  301     11.09385358      1.00000000
     -1.444  0.0000E+00  0.0000E+00
     -1.312  0.0000E+00  0.0000E+00
     -1.180  0.0000E+00  0.0000E+00
     -1.048 -0.2432E-28 -0.3212E-29
     -0.916 -0.5737E-24 -0.7578E-25
     -0.784 -0.5612E-20 -0.7413E-21
     -0.652 -0.2273E-16 -0.3002E-17
     -0.519 -0.3672E-13 -0.4852E-14
     -0.387 -0.2501E-10 -0.3308E-11
     -0.255 -0.6935E-08 -0.9192E-09
     -0.123 -0.7723E-06 -0.1029E-06
      0.009 -0.3356E-04 -0.4536E-05
      0.141 -0.5297E-03 -0.7450E-04
      0.273 -0.2270E-02 -0.3743E-03
      0.405  0.4861E-02  0.2677E-03
      0.537  0.3614E-01  0.5041E-02
      0.669  0.4382E-01  0.1083E-01
      0.801  0.1048E-01  0.1221E-01
      0.933 -0.4802E-02  0.1158E-01
      1.065  0.1851E-01  0.1402E-01
      1.197  0.6055E-01  0.2202E-01
      1.329  0.4194E-01  0.2756E-01
      1.462 -0.4949E-02  0.2690E-01
      1.594  0.2087E-01  0.2966E-01
      1.726  0.1505E+00  0.4953E-01
      1.858  0.1712E+00  0.7215E-01
      1.990  0.4199E-01  0.7769E-01
      2.122 -0.9208E-02  0.7648E-01
      2.254 -0.5360E-02  0.7577E-01
      2.386 -0.9382E-02  0.7453E-01
      2.518  0.1363E-01  0.7633E-01
      2.650  0.1332E+00  0.9392E-01
      2.782  0.1922E+00  0.1193E+00
      2.914  0.1270E+00  0.1361E+00
      3.046  0.2567E+00  0.1700E+00
      3.178  0.5633E+00  0.2444E+00
      3.310  0.5423E+00  0.3160E+00
      3.443  0.4781E+00  0.3791E+00
      3.575  0.6053E+00  0.4591E+00
      3.707  0.5968E+00  0.5379E+00
      3.839  0.4454E+00  0.5967E+00
      3.971  0.4662E+00  0.6583E+00
      4.103  0.7597E+00  0.7586E+00
      4.235  0.1084E+01  0.9017E+00
      4.367  0.1155E+01  0.1054E+01
      4.499  0.9536E+00  0.1180E+01
      4.631  0.8960E+00  0.1299E+01
      4.763  0.7433E+00  0.1397E+01
      4.895  0.5732E+00  0.1472E+01
      5.027  0.1000E+01  0.1604E+01
      5.159  0.1174E+01  0.1760E+01
      5.292  0.8622E+00  0.1873E+01
      5.424  0.5778E+00  0.1950E+01
      5.556  0.3076E+00  0.1990E+01
      5.688  0.2185E+00  0.2019E+01
      5.820  0.3235E+00  0.2062E+01
      5.952  0.4609E+00  0.2123E+01
      6.084  0.7559E+00  0.2223E+01
      6.216  0.1170E+01  0.2377E+01
      6.348  0.1109E+01  0.2524E+01
      6.480  0.6782E+00  0.2613E+01
      6.612  0.1175E+01  0.2768E+01
      6.744  0.1979E+01  0.3030E+01
      6.876  0.1573E+01  0.3237E+01
      7.008  0.5938E+00  0.3316E+01
      7.140  0.2779E+00  0.3353E+01
      7.273  0.7430E+00  0.3451E+01
      7.405  0.1016E+01  0.3585E+01
      7.537  0.9743E+00  0.3714E+01
      7.669  0.8099E+00  0.3820E+01
      7.801  0.5703E+00  0.3896E+01
      7.933  0.6182E+00  0.3977E+01
      8.065  0.6161E+00  0.4059E+01
      8.197  0.5187E+00  0.4127E+01
      8.329  0.5521E+00  0.4200E+01
      8.461  0.7315E+00  0.4297E+01
      8.593  0.1296E+01  0.4468E+01
      8.725  0.2085E+01  0.4743E+01
      8.857  0.1990E+01  0.5006E+01
      8.989  0.8208E+00  0.5115E+01
      9.121  0.2709E+00  0.5150E+01
      9.254  0.4357E+00  0.5208E+01
      9.386  0.4272E+00  0.5264E+01
      9.518  0.2387E+00  0.5296E+01
      9.650  0.3238E+00  0.5339E+01
      9.782  0.2945E+00  0.5378E+01
      9.914  0.2074E+00  0.5405E+01
     10.046  0.4226E+00  0.5461E+01
     10.178  0.4901E+00  0.5525E+01
     10.310  0.3532E+00  0.5572E+01
     10.442  0.5658E+00  0.5647E+01
     10.574  0.9632E+00  0.5774E+01
     10.706  0.9469E+00  0.5899E+01
     10.838  0.4006E+00  0.5952E+01
     10.970  0.9484E-01  0.5964E+01
     11.103  0.2923E+00  0.6003E+01
     11.235  0.2868E+00  0.6041E+01
     11.367  0.2644E+00  0.6076E+01
     11.499  0.4916E+00  0.6141E+01
     11.631  0.3364E+00  0.6185E+01
     11.763  0.1479E+00  0.6205E+01
     11.895  0.3711E+00  0.6254E+01
     12.027  0.7763E+00  0.6356E+01
     12.159  0.1089E+01  0.6500E+01
     12.291  0.7250E+00  0.6596E+01
     12.423  0.3743E+00  0.6645E+01
     12.555  0.5476E+00  0.6718E+01
     12.687  0.6538E+00  0.6804E+01
     12.819  0.4798E+00  0.6867E+01
     12.951  0.3488E+00  0.6913E+01
     13.084  0.6644E+00  0.7001E+01
     13.216  0.1023E+01  0.7136E+01
     13.348  0.9257E+00  0.7259E+01
     13.480  0.8161E+00  0.7366E+01
     13.612  0.8303E+00  0.7476E+01
     13.744  0.8002E+00  0.7582E+01
     13.876  0.7702E+00  0.7683E+01
     14.008  0.7013E+00  0.7776E+01
     14.140  0.7584E+00  0.7876E+01
     14.272  0.9937E+00  0.8007E+01
     14.404  0.9209E+00  0.8129E+01
     14.536  0.6605E+00  0.8216E+01
     14.668  0.7392E+00  0.8314E+01
     14.800  0.7439E+00  0.8412E+01
     14.932  0.4820E+00  0.8476E+01
     15.065  0.5280E+00  0.8545E+01
     15.197  0.1102E+01  0.8691E+01
     15.329  0.1381E+01  0.8873E+01
     15.461  0.1268E+01  0.9041E+01
     15.593  0.1433E+01  0.9230E+01
     15.725  0.1247E+01  0.9395E+01
     15.857  0.8676E+00  0.9509E+01
     15.989  0.1292E+01  0.9680E+01
     16.121  0.1542E+01  0.9884E+01
     16.253  0.1005E+01  0.1002E+02
     16.385  0.6341E+00  0.1010E+02
     16.517  0.4445E+00  0.1016E+02
     16.649  0.3562E+00  0.1021E+02
     16.781  0.3334E+00  0.1025E+02
     16.914  0.1561E+00  0.1027E+02
     17.046  0.2311E+00  0.1030E+02
     17.178  0.5353E+00  0.1037E+02
     17.310  0.3632E+00  0.1042E+02
     17.442  0.6746E-01  0.1043E+02
     17.574  0.1239E+00  0.1044E+02
     17.706  0.2113E+00  0.1047E+02
     17.838  0.2060E+00  0.1050E+02
     17.970  0.2011E+00  0.1053E+02
     18.102  0.2140E+00  0.1055E+02
     18.234  0.2163E+00  0.1058E+02
     18.366  0.6716E-01  0.1059E+02
     18.498  0.4149E-01  0.1060E+02
     18.630  0.1597E+00  0.1062E+02
     18.762  0.1448E+00  0.1064E+02
     18.895  0.1772E+00  0.1066E+02
     19.027  0.4501E+00  0.1072E+02
     19.159  0.8520E+00  0.1083E+02
     19.291  0.8718E+00  0.1095E+02
     19.423  0.5606E+00  0.1102E+02
     19.555  0.3852E+00  0.1107E+02
     19.687  0.1262E+00  0.1109E+02
     19.819  0.1807E+00  0.1111E+02
     19.951  0.3835E+00  0.1116E+02
     20.083  0.2973E+00  0.1120E+02
     20.215  0.1808E+00  0.1123E+02
     20.347  0.1587E+00  0.1125E+02
     20.479  0.1648E+00  0.1127E+02
     20.611  0.1368E+00  0.1129E+02
     20.743  0.2498E+00  0.1132E+02
     20.876  0.2099E+00  0.1135E+02
     21.008  0.1190E+00  0.1136E+02
     21.140  0.1853E+00  0.1139E+02
     21.272  0.1235E+00  0.1141E+02
     21.404  0.4679E-01  0.1141E+02
     21.536  0.2447E-01  0.1142E+02
     21.668 -0.1531E-01  0.1141E+02
     21.800  0.3793E-01  0.1142E+02
     21.932  0.3022E+00  0.1146E+02
     22.064  0.4439E+00  0.1152E+02
     22.196  0.2661E+00  0.1155E+02
     22.328  0.6351E-01  0.1156E+02
     22.460  0.9477E-01  0.1157E+02
     22.592  0.3138E+00  0.1161E+02
     22.725  0.4286E+00  0.1167E+02
     22.857  0.3873E+00  0.1172E+02
     22.989  0.5307E+00  0.1179E+02
     23.121  0.5680E+00  0.1187E+02
     23.253  0.1925E+00  0.1189E+02
     23.385 -0.2963E-01  0.1189E+02
     23.517 -0.1606E-03  0.1189E+02
     23.649  0.1405E+00  0.1191E+02
     23.781  0.2764E+00  0.1194E+02
     23.913  0.3997E+00  0.1200E+02
     24.045  0.4243E+00  0.1205E+02
     24.177  0.2071E+00  0.1208E+02
     24.309  0.6133E-01  0.1209E+02
     24.441  0.7754E-01  0.1210E+02
     24.573  0.3141E+00  0.1214E+02
     24.706  0.8556E+00  0.1225E+02
     24.838  0.8862E+00  0.1237E+02
     24.970  0.4399E+00  0.1243E+02
     25.102  0.5648E+00  0.1250E+02
     25.234  0.8734E+00  0.1262E+02
     25.366  0.6603E+00  0.1270E+02
     25.498  0.1984E+00  0.1273E+02
     25.630  0.5532E-01  0.1274E+02
     25.762  0.1589E+00  0.1276E+02
     25.894  0.9930E-01  0.1277E+02
     26.026  0.1284E+00  0.1279E+02
     26.158  0.4849E+00  0.1285E+02
     26.290  0.6868E+00  0.1294E+02
     26.422  0.5671E+00  0.1302E+02
     26.554  0.4804E+00  0.1308E+02
     26.687  0.5560E+00  0.1316E+02
     26.819  0.6000E+00  0.1324E+02
     26.951  0.3514E+00  0.1328E+02
     27.083  0.6559E+00  0.1337E+02
     27.215  0.1266E+01  0.1354E+02
     27.347  0.8501E+00  0.1365E+02
     27.479  0.6504E+00  0.1373E+02
     27.611  0.1317E+01  0.1391E+02
     27.743  0.1370E+01  0.1409E+02
     27.875  0.6154E+00  0.1417E+02
     28.007  0.1793E+00  0.1419E+02
     28.139  0.4440E-01  0.1420E+02
     28.271  0.1185E+00  0.1421E+02
     28.403  0.3609E+00  0.1426E+02
     28.536  0.2868E+00  0.1430E+02
     28.668  0.1638E+00  0.1432E+02
     28.800  0.3685E+00  0.1437E+02
     28.932  0.5949E+00  0.1445E+02
     29.064  0.9763E+00  0.1458E+02
     29.196  0.1318E+01  0.1475E+02
     29.328  0.8933E+00  0.1487E+02
     29.460  0.2216E+00  0.1490E+02
     29.592  0.6999E-01  0.1491E+02
     29.724  0.4366E+00  0.1497E+02
     29.856  0.7943E+00  0.1507E+02
     29.988  0.7619E+00  0.1517E+02
     30.120  0.5380E+00  0.1524E+02
     30.252  0.3717E+00  0.1529E+02
     30.384  0.3616E+00  0.1534E+02
     30.517  0.2721E+00  0.1538E+02
     30.649  0.1085E+00  0.1539E+02
     30.781  0.1327E+00  0.1541E+02
     30.913  0.1623E+00  0.1543E+02
     31.045  0.7675E-01  0.1544E+02
     31.177  0.1309E+00  0.1546E+02
     31.309  0.1961E+00  0.1548E+02
     31.441  0.3462E+00  0.1553E+02
     31.573  0.5345E+00  0.1560E+02
     31.705  0.3267E+00  0.1564E+02
     31.837  0.1573E+00  0.1566E+02
     31.969  0.4443E+00  0.1572E+02
     32.101  0.4868E+00  0.1579E+02
     32.233  0.2381E+00  0.1582E+02
     32.365  0.1610E+00  0.1584E+02
     32.498  0.5603E-01  0.1585E+02
     32.630 -0.7797E-02  0.1584E+02
     32.762 -0.4916E-02  0.1584E+02
     32.894 -0.1340E-02  0.1584E+02
     33.026 -0.6499E-02  0.1584E+02
     33.158 -0.4325E-02  0.1584E+02
     33.290  0.8165E-01  0.1585E+02
     33.422  0.2096E+00  0.1588E+02
     33.554  0.2418E+00  0.1591E+02
     33.686  0.1769E+00  0.1594E+02
     33.818  0.4254E-01  0.1594E+02
     33.950 -0.9931E-02  0.1594E+02
     34.082 -0.7562E-02  0.1594E+02
     34.214 -0.9259E-02  0.1594E+02
     34.347  0.4541E-01  0.1594E+02
     34.479  0.1741E+00  0.1597E+02
     34.611  0.1472E+00  0.1599E+02
     34.743  0.2114E-01  0.1599E+02
     34.875 -0.9158E-02  0.1599E+02
     35.007 -0.2217E-02  0.1599E+02
     35.139 -0.1437E-03  0.1599E+02
     35.271 -0.3374E-05  0.1599E+02
     35.403 -0.6041E-07  0.1599E+02
     35.535 -0.2519E-05  0.1599E+02
     35.667 -0.8272E-04  0.1599E+02
     35.799 -0.9457E-03  0.1599E+02
     35.931 -0.2191E-02  0.1599E+02
     36.063  0.1195E-01  0.1599E+02
     36.195  0.4396E-01  0.1599E+02
     36.328  0.3614E-01  0.1600E+02
     36.460  0.4861E-02  0.1600E+02
     36.592 -0.2270E-02  0.1600E+02
     36.724 -0.5297E-03  0.1600E+02
     36.856 -0.3356E-04  0.1600E+02
     36.988 -0.7723E-06  0.1600E+02
     37.120 -0.6935E-08  0.1600E+02
     37.252 -0.2501E-10  0.1600E+02
     37.384 -0.3672E-13  0.1600E+02
     37.516 -0.2018E-16  0.1600E+02
     37.648  0.0000E+00  0.1600E+02
     37.780  0.0000E+00  0.1600E+02
     37.912  0.0000E+00  0.1600E+02
     38.044  0.0000E+00  0.1600E+02
     38.176  0.0000E+00  0.1600E+02
