    1    1    1    1
  0.1219450E+02  0.2511474E-09  0.2511474E-09  0.2511474E-09  0.5000000E-15
  1.000000000000000E-004
  CAR 
 BCC W                                   
      6     44      8
 
  0.5000000E-01  0.5000000E-01  0.5000000E-01  0.8000000E-02
    1        1.166869   1.000000
    2        8.778412   1.000000
    3        8.778412   1.000000
    4       10.508420   1.000140
    5       13.556753  -0.000000
    6       13.556753  -0.000000
    7       27.680287   0.000000
    8       29.343343   0.000000
 
  0.1500000E+00  0.5000000E-01  0.5000000E-01  0.2400000E-01
    1        2.675184   1.000000
    2        7.797612   1.000000
    3        8.240787   1.000000
    4       12.641235  -0.000000
    5       13.135805  -0.000000
    6       13.983476  -0.000000
    7       28.769175   0.000000
    8       31.180884   0.000000
 
  0.2500000E+00  0.5000000E-01  0.5000000E-01  0.2400000E-01
    1        3.709005   1.000000
    2        6.863292   1.000000
    3        8.763042   1.000000
    4       13.562534  -0.000000
    5       14.512382  -0.000000
    6       15.755181  -0.000000
    7       27.627479   0.000000
    8       30.806241   0.000000
 
  0.3500000E+00  0.5000000E-01  0.5000000E-01  0.2400000E-01
    1        3.476237   1.000000
    2        6.228341   1.000000
    3       11.109022   0.436021
    4       14.237421  -0.000000
    5       15.137359  -0.000000
    6       19.013880   0.000000
    7       25.332789   0.000000
    8       27.940565   0.000000
 
  0.4500000E+00  0.5000000E-01  0.5000000E-01  0.1200000E-01
    1        3.251310   1.000000
    2        6.006466   1.000000
    3       12.790261  -0.000000
    4       14.225241  -0.000000
    5       15.457083  -0.000000
    6       20.709532   0.000000
    7       24.338444   0.000000
    8       26.511958   0.000000
 
 -0.5000000E-01  0.5000000E-01  0.5000000E-01  0.6000000E-02
    1        0.556037   1.000000
    2        9.253896   1.000000
    3        9.253898   1.000000
    4        9.437111   1.000000
    5       13.330284  -0.000000
    6       14.129235  -0.000000
    7       27.702740   0.000000
    8       27.702740   0.000000
 
  0.1500000E+00  0.1500000E+00  0.5000000E-01  0.2400000E-01
    1        4.193829   1.000000
    2        7.224315   1.000000
    3        7.381333   1.000000
    4       13.253299  -0.000000
    5       14.628557  -0.000000
    6       15.744471  -0.000000
    7       29.710049   0.000000
    8       30.099161   0.000000
 
  0.2500000E+00  0.1500000E+00  0.5000000E-01  0.4800000E-01
    1        4.679129   1.000000
    2        6.590499   1.000000
    3        8.578686   1.000000
    4       13.784204  -0.000000
    5       15.239864  -0.000000
    6       19.229157   0.000000
    7       27.185366   0.000000
    8       29.156472   0.000000
 
  0.3500000E+00  0.1500000E+00  0.5000000E-01  0.4800000E-01
    1        4.348371   1.000000
    2        6.292120   1.000000
    3       10.639088   1.002995
    4       14.307838  -0.000000
    5       15.632754  -0.000000
    6       21.944413   0.000000
    7       25.121435   0.000000
    8       26.425015   0.000000
 
 -0.1500000E+00  0.1500000E+00  0.5000000E-01  0.2400000E-01
    1        1.737863   1.000000
    2        8.574173   1.000000
    3        9.015679   1.000000
    4       10.712740   1.010716
    5       12.302474  -0.000000
    6       14.432048  -0.000000
    7       28.745062   0.000000
    8       29.779878   0.000000
 
  0.2500000E+00  0.2500000E+00  0.5000000E-01  0.2400000E-01
    1        5.167583   1.000000
    2        6.964140   1.000000
    3        8.813201   1.000000
    4       14.283064  -0.000000
    5       15.512659  -0.000000
    6       22.652392   0.000000
    7       24.731920   0.000000
    8       28.926226   0.000000
 
  0.3500000E+00  0.2500000E+00  0.5000000E-01  0.2400000E-01
    1        5.170252   1.000000
    2        7.221178   1.000000
    3        9.165854   1.000000
    4       14.724461  -0.000000
    5       15.554490  -0.000000
    6       22.885976   0.000000
    7       24.732557   0.000000
    8       27.373263   0.000000
 
 -0.2500000E+00  0.2500000E+00  0.5000000E-01  0.2400000E-01
    1        3.215961   1.000000
    2        7.564513   1.000000
    3        8.684405   1.000000
    4       12.481760  -0.000000
    5       13.202906  -0.000000
    6       14.782028  -0.000000
    7       28.422875   0.000000
    8       32.011696   0.000000
 
 -0.1500000E+00  0.2500000E+00  0.5000000E-01  0.2400000E-01
    1        3.154971   1.000000
    2        8.207812   1.000000
    3        8.341349   1.000000
    4       11.523219  -0.004835
    5       12.499244  -0.000000
    6       15.139438  -0.000000
    7       30.040171   0.000000
    8       30.381729   0.000000
 
 -0.3500000E+00  0.3500000E+00  0.5000000E-01  0.2400000E-01
    1        3.460103   1.000000
    2        6.702427   1.000000
    3        9.952146   1.000000
    4       13.565025  -0.000000
    5       15.256065  -0.000000
    6       16.468868  -0.000000
    7       26.188237   0.000000
    8       29.834180   0.000000
 
 -0.2500000E+00  0.3500000E+00  0.5000000E-01  0.4800000E-01
    1        4.202673   1.000000
    2        7.267649   1.000000
    3        8.437908   1.000000
    4       12.137871  -0.000000
    5       15.227046  -0.000000
    6       15.938752  -0.000000
    7       27.551835   0.000000
    8       31.551588   0.000000
 
 -0.4500000E+00  0.4500000E+00  0.5000000E-01  0.2400000E-01
    1        3.099915   1.000000
    2        6.226107   1.000000
    3       11.882657  -0.000000
    4       13.846398  -0.000000
    5       16.219188  -0.000000
    6       19.459327   0.000000
    7       24.764035   0.000000
    8       27.592066   0.000000
 
 -0.3500000E+00  0.4500000E+00  0.5000000E-01  0.4800000E-01
    1        3.969922   1.000000
    2        6.779408   1.000000
    3        9.643095   1.000000
    4       13.128495  -0.000000
    5       16.069012  -0.000000
    6       19.161282   0.000000
    7       26.222902   0.000000
    8       28.981076   0.000000
 
 -0.2500000E+00  0.4500000E+00  0.5000000E-01  0.2400000E-01
    1        4.975897   1.000000
    2        6.652422   1.000000
    3        8.757740   1.000000
    4       12.613386  -0.000000
    5       15.490181  -0.000000
    6       19.449014   0.000000
    7       26.670203   0.000000
    8       31.424538   0.000000
 
 -0.4500000E+00 -0.4500000E+00  0.5000000E-01  0.2400000E-01
    1        3.726399   1.000000
    2        6.609677   1.000000
    3       10.508629   1.000140
    4       12.995882  -0.000000
    5       17.124808   0.000000
    6       21.091431   0.000000
    7       25.718059   0.000000
    8       27.096911   0.000000
 
 -0.3500000E+00 -0.4500000E+00  0.5000000E-01  0.4800000E-01
    1        4.938074   1.000000
    2        6.812979   1.000000
    3        8.792382   1.000000
    4       13.420874  -0.000000
    5       15.980990  -0.000000
    6       23.030859   0.000000
    7       24.689587   0.000000
    8       29.151314   0.000000
 
 -0.3500000E+00 -0.3500000E+00  0.5000000E-01  0.8000000E-02
    1        5.513883   1.000000
    2        7.444505   1.000000
    3        7.444507   1.000000
    4       14.990937  -0.000000
    5       14.990956  -0.000000
    6       23.077142   0.000000
    7       26.811628   0.000000
    8       26.811644   0.000000
 
  0.1500000E+00  0.1500000E+00  0.1500000E+00  0.8000000E-02
    1        6.020191   1.000000
    2        6.657738   1.000000
    3        6.657738   1.000000
    4       14.591192  -0.000000
    5       14.591192  -0.000000
    6       19.478404   0.000000
    7       29.668881   0.000000
    8       29.668882   0.000000
 
  0.2500000E+00  0.1500000E+00  0.1500000E+00  0.2400000E-01
    1        5.875439   1.000000
    2        6.405091   1.000000
    3        8.622282   1.000000
    4       14.912655  -0.000000
    5       15.361510  -0.000000
    6       22.711181   0.000000
    7       25.126301   0.000000
    8       27.637301   0.000000
 
  0.3500000E+00  0.1500000E+00  0.1500000E+00  0.1200000E-01
    1        5.650223   1.000000
    2        6.340339   1.000000
    3       10.002392   1.000000
    4       15.082685  -0.000000
    5       15.632138  -0.000000
    6       23.013883   0.000000
    7       23.964435   0.000000
    8       26.843878   0.000000
 
 -0.1500000E+00  0.1500000E+00  0.1500000E+00  0.6000000E-02
    1        2.858582   1.000000
    2        9.322304   1.000000
    3        9.322311   1.000000
    4       10.101822   1.000000
    5       10.633840   1.002699
    6       15.481828  -0.000000
    7       31.443779   0.000000
    8       31.697431   0.000000
 
  0.2500000E+00  0.2500000E+00  0.1500000E+00  0.2400000E-01
    1        6.203034   1.000000
    2        7.397602   1.000000
    3        8.585735   1.000000
    4       15.389809  -0.000000
    5       15.620944  -0.000000
    6       22.123010   0.000000
    7       25.224765   0.000000
    8       27.468299   0.000000
 
 -0.2500000E+00  0.2500000E+00  0.1500000E+00  0.2400000E-01
    1        4.312156   1.000000
    2        8.034293   1.000000
    3        8.783906   1.000000
    4       10.610898   1.001680
    5       12.763756  -0.000000
    6       16.031817  -0.000000
    7       28.355895   0.000000
    8       33.359857   0.000000
 
 -0.3500000E+00  0.3500000E+00  0.1500000E+00  0.2400000E-01
    1        4.525848   1.000000
    2        7.877915   1.000000
    3        8.029203   1.000000
    4       11.999382  -0.000000
    5       16.038848  -0.000000
    6       16.668376   0.000000
    7       27.125185   0.000000
    8       32.271485   0.000000
 
 -0.2500000E+00  0.3500000E+00  0.1500000E+00  0.2400000E-01
    1        5.347370   1.000000
    2        6.622706   1.000000
    3        9.289378   1.000000
    4       11.072659   0.589126
    5       14.696649  -0.000000
    6       16.746528   0.000000
    7       27.699211   0.000000
    8       34.462355   0.000000
 
 -0.4500000E+00  0.4500000E+00  0.1500000E+00  0.2400000E-01
    1        4.021966   1.000000
    2        7.593149   1.000000
    3        8.811607   1.000000
    4       11.831330  -0.000001
    5       18.900182   0.000000
    6       19.117491   0.000000
    7       26.668465   0.000000
    8       29.320019   0.000000
 
 -0.3500000E+00  0.4500000E+00  0.1500000E+00  0.4800000E-01
    1        5.059089   1.000000
    2        6.697878   1.000000
    3        8.708122   1.000000
    4       12.087155  -0.000000
    5       16.253569  -0.000000
    6       19.876257   0.000000
    7       27.178314   0.000000
    8       31.954335   0.000000
 
 -0.4500000E+00 -0.4500000E+00  0.1500000E+00  0.2400000E-01
    1        4.691996   1.000000
    2        7.507504   1.000000
    3        7.892011   1.000000
    4       12.124791  -0.000000
    5       17.871986   0.000000
    6       22.507625   0.000000
    7       25.282377   0.000000
    8       29.942078   0.000000
 
 -0.3500000E+00 -0.4500000E+00  0.1500000E+00  0.2400000E-01
    1        5.771320   1.000000
    2        6.131753   1.000000
    3        7.629660   1.000000
    4       14.078982  -0.000000
    5       16.010628  -0.000000
    6       23.835471   0.000000
    7       24.947830   0.000000
    8       29.108001   0.000000
 
  0.2500000E+00  0.2500000E+00  0.2500000E+00  0.2000000E-02
    1        7.610849   1.000000
    2        7.610855   1.000000
    3        7.610855   1.000000
    4       15.738559  -0.000000
    5       15.738559  -0.000000
    6       20.987465   0.000000
    7       27.048333   0.000000
    8       27.048344   0.000000
 
 -0.2500000E+00  0.2500000E+00  0.2500000E+00  0.6000000E-02
    1        5.543611   1.000000
    2        6.698100   1.000000
    3       10.409749   1.000007
    4       10.409760   1.000007
    5       12.873342  -0.000000
    6       16.291761  -0.000000
    7       28.300968   0.000000
    8       36.176498   0.000000
 
 -0.3500000E+00  0.3500000E+00  0.2500000E+00  0.2400000E-01
    1        5.267945   1.000000
    2        6.016095   1.000000
    3       10.461836   1.000037
    4       11.438750  -0.017493
    5       15.506999  -0.000000
    6       17.132377   0.000000
    7       29.184814   0.000000
    8       33.574876   0.000000
 
 -0.4500000E+00  0.4500000E+00  0.2500000E+00  0.2400000E-01
    1        4.499976   1.000000
    2        6.110371   1.000000
    3       10.176171   1.000000
    4       11.418005  -0.022109
    5       18.605314   0.000000
    6       20.389528   0.000000
    7       26.776257   0.000000
    8       29.876260   0.000000
 
 -0.3500000E+00  0.4500000E+00  0.2500000E+00  0.2400000E-01
    1        4.616004   1.000000
    2        5.379460   1.000000
    3       10.392562   1.000004
    4       13.329980  -0.000000
    5       16.428410  -0.000000
    6       20.111045   0.000000
    7       27.752389   0.000000
    8       30.275286   0.000000
 
 -0.4500000E+00 -0.4500000E+00  0.2500000E+00  0.2400000E-01
    1        4.410589   1.000000
    2        5.053470   1.000000
    3       10.095390   1.000000
    4       14.156244  -0.000000
    5       17.587492   0.000000
    6       23.660498   0.000000
    7       24.560593   0.000000
    8       27.610458   0.000000
 
 -0.3500000E+00  0.3500000E+00  0.3500000E+00  0.6000000E-02
    1        4.206978   1.000000
    2        5.050348   1.000000
    3       13.053173  -0.000000
    4       13.053189  -0.000000
    5       15.738356  -0.000000
    6       17.726320   0.000000
    7       30.501343   0.000000
    8       30.501366   0.000000
 
 -0.4500000E+00  0.4500000E+00  0.3500000E+00  0.2400000E-01
    1        3.629176   1.000000
    2        4.159924   1.000000
    3       13.654508  -0.000000
    4       13.964374  -0.000000
    5       18.146070   0.000000
    6       20.731981   0.000000
    7       26.072472   0.000000
    8       27.149186   0.000000
 
 -0.4500000E+00 -0.4500000E+00  0.3500000E+00  0.8000000E-02
    1        3.466297   1.000000
    2        3.466297   1.000000
    3       13.744331  -0.000000
    4       17.215966   0.000000
    5       17.216003   0.000000
    6       23.971345   0.000000
    7       23.971358   0.000000
    8       24.093181   0.000000
 
 -0.4500000E+00  0.4500000E+00  0.4500000E+00  0.6000000E-02
    1        2.918205   1.000000
    2        3.072410   1.000000
    3       17.066196   0.000000
    4       17.066222   0.000000
    5       18.106081   0.000000
    6       21.388923   0.000000
    7       23.987496   0.000000
    8       23.987507   0.000000
