 running on    4 total cores
 distrk:  each k-point on    4 cores,    1 groups
 distr:  one band on    1 cores,    4 groups
 using from now: INCAR     
 vasp.5.4.4.18Apr17-6-g9f103f2a35 (build Jul 01 2019 03:25:34) complex          
  
 POSCAR found type information on POSCAR  W 
 POSCAR found :  1 types and       1 ions
 scaLAPACK will be used
 LDA part: xc-table for Ceperly-Alder, standard interpolation
 POSCAR, INCAR and KPOINTS ok, starting setup
 FFT: planning ...
 WAVECAR not read
 entering main loop
       N       E                     dE             d eps       ncg     rms          rms(c)
DAV:   1    -0.102927038018E+02   -0.10293E+02   -0.20035E+03   976   0.296E+02
DAV:   2    -0.138065878373E+02   -0.35139E+01   -0.34829E+01   768   0.487E+01
DAV:   3    -0.138165125440E+02   -0.99247E-02   -0.99219E-02  1016   0.253E+00
DAV:   4    -0.138165150991E+02   -0.25552E-05   -0.25534E-05   816   0.266E-02
DAV:   5    -0.138165151006E+02   -0.14474E-08   -0.25289E-08   808   0.624E-04    0.344E+00
DAV:   6    -0.134181112126E+02    0.39840E+00   -0.13391E-01   768   0.236E+00    0.191E+00
DAV:   7    -0.132227509278E+02    0.19536E+00   -0.21417E-01   768   0.295E+00    0.136E-01
DAV:   8    -0.132221558595E+02    0.59507E-03   -0.21830E-03   840   0.343E-01    0.568E-02
DAV:   9    -0.132219674777E+02    0.18838E-03   -0.20961E-04   656   0.890E-02    0.526E-03
DAV:  10    -0.132219704674E+02   -0.29897E-05   -0.31267E-06   360   0.139E-02
   1 F= -.13221970E+02 E0= -.13221525E+02  d E =-.133584E-02
 writing wavefunctions
