 vasp.5.4.4.18Apr17-6-g9f103f2a35 (build Jul 01 2019 03:25:34) complex          
  
 executed on             LinuxIFC date 2020.07.08  19:51:22
 running on    4 total cores
 distrk:  each k-point on    4 cores,    1 groups
 distr:  one band on NCORES_PER_BAND=   1 cores,    4 groups


--------------------------------------------------------------------------------------------------------


 INCAR:
 POTCAR:   PAW W 19Jan2001                        
 POTCAR:   PAW W 19Jan2001                        
   VRHFIN =W: 5p6s5d                                                            
   LEXCH  = CA                                                                  
   EATOM  =   206.5370 eV,   15.1800 Ry                                         
                                                                                
   TITEL  = PAW W 19Jan2001                                                     
   LULTRA =        F    use ultrasoft PP ?                                      
   IUNSCR =        1    unscreen: 0-lin 1-nonlin 2-no                           
   RPACOR =    2.330    partial core radius                                     
   POMASS =  183.850; ZVAL   =    6.000    mass and valenz                      
   RCORE  =    2.750    outmost cutoff radius                                   
   RWIGS  =    2.750; RWIGS  =    1.455    wigner-seitz radius (au A)           
   ENMAX  =  223.126; ENMIN  =  167.344 eV                                      
   RCLOC  =    2.147    cutoff for local pot                                    
   LCOR   =        T    correct aug charges                                     
   LPAW   =        T    paw PP                                                  
   EAUG   =  373.438                                                            
   DEXC   =    -.048                                                            
   RMAX   =    3.087    core radius for proj-oper                               
   RAUG   =    1.300    factor for augmentation sphere                          
   RDEP   =    2.886    radius for radial grids                                 
   QCUT   =   -4.050; QGAM   =    8.099    optimization parameters              
                                                                                
   Description                                                                  
     l     E      TYP  RCUT    TYP  RCUT                                        
     2   .000     23  2.500                                                     
     2   .000     23  2.500                                                     
     0   .000     23  2.500                                                     
     0   .000     23  2.500                                                     
     1   .200     23  2.750                                                     
     1  2.000     23  2.750                                                     
     3   .000      7   .000                                                     
  local pseudopotential read in
  partial core-charges read in
  atomic valenz-charges read in
  non local Contribution for L=           2  read in
    real space projection operators read in
  non local Contribution for L=           2  read in
    real space projection operators read in
  non local Contribution for L=           0  read in
    real space projection operators read in
  non local Contribution for L=           0  read in
    real space projection operators read in
  non local Contribution for L=           1  read in
    real space projection operators read in
  non local Contribution for L=           1  read in
    real space projection operators read in
    PAW grid and wavefunctions read in
 
   number of l-projection  operators is LMAX  =           6
   number of lm-projection operators is LMMAX =          18
 
 PAW W 19Jan2001                        :
 energy of atom  1       EATOM= -206.5370
 kinetic energy error for atom=    0.0291 (will be added to EATOM!!)
 
 
 POSCAR: BCC W Bulk                              
  positions in direct lattice
  No initial velocities read in
 exchange correlation table for  LEXCH =        2
   RHO(1)=    0.500       N(1)  =     2000
   RHO(2)=  100.500       N(2)  =     4000
 


--------------------------------------------------------------------------------------------------------


 ion  position               nearest neighbor table
   1  0.000  0.000  0.000-
 
  LATTYP: Found a body centered cubic cell.
 ALAT       =     2.9000000000
  
  Lattice vectors:
  
 A1 = (  -1.4500000000,   1.4500000000,   1.4500000000)
 A2 = (   1.4500000000,  -1.4500000000,   1.4500000000)
 A3 = (   1.4500000000,   1.4500000000,  -1.4500000000)


Analysis of symmetry for initial positions (statically):
=====================================================================
 Subroutine PRICEL returns:
 Original cell was already a primitive cell.
 

 Routine SETGRP: Setting up the symmetry group for a 
 body centered cubic supercell.


 Subroutine GETGRP returns: Found 48 space group operations
 (whereof 48 operations were pure point group operations)
 out of a pool of 48 trial point group operations.


The static configuration has the point symmetry O_h .


Analysis of symmetry for dynamics (positions and initial velocities):
=====================================================================
 Subroutine PRICEL returns:
 Original cell was already a primitive cell.
 

 Routine SETGRP: Setting up the symmetry group for a 
 body centered cubic supercell.


 Subroutine GETGRP returns: Found 48 space group operations
 (whereof 48 operations were pure point group operations)
 out of a pool of 48 trial point group operations.


The dynamic configuration has the point symmetry O_h .


 Subroutine INISYM returns: Found 48 space group operations
 (whereof 48 operations are pure point group operations),
 and found     1 'primitive' translations

 
 
 KPOINTS: 10x10x10                                

Automatic generation of k-mesh.
Space group operators:
 irot       det(A)        alpha          n_x          n_y          n_z        tau_x        tau_y        tau_z
    1     1.000000     0.000000     1.000000     0.000000     0.000000     0.000000     0.000000     0.000000
    2    -1.000000     0.000000     1.000000     0.000000     0.000000     0.000000     0.000000     0.000000
    3     1.000000   120.000000    -0.577350    -0.577350    -0.577350     0.000000     0.000000     0.000000
    4    -1.000000   120.000000    -0.577350    -0.577350    -0.577350     0.000000     0.000000     0.000000
    5     1.000000   120.000000     0.577350     0.577350     0.577350     0.000000     0.000000     0.000000
    6    -1.000000   120.000000     0.577350     0.577350     0.577350     0.000000     0.000000     0.000000
    7     1.000000    90.000000     0.000000     0.000000    -1.000000     0.000000     0.000000     0.000000
    8    -1.000000    90.000000     0.000000     0.000000    -1.000000     0.000000     0.000000     0.000000
    9     1.000000   180.000000     0.000000     0.707107     0.707107     0.000000     0.000000     0.000000
   10    -1.000000   180.000000     0.000000     0.707107     0.707107     0.000000     0.000000     0.000000
   11     1.000000    90.000000     0.000000     1.000000     0.000000     0.000000     0.000000     0.000000
   12    -1.000000    90.000000     0.000000     1.000000     0.000000     0.000000     0.000000     0.000000
   13     1.000000   180.000000     0.000000     0.000000     1.000000     0.000000     0.000000     0.000000
   14    -1.000000   180.000000     0.000000     0.000000     1.000000     0.000000     0.000000     0.000000
   15     1.000000   120.000000    -0.577350     0.577350     0.577350     0.000000     0.000000     0.000000
   16    -1.000000   120.000000    -0.577350     0.577350     0.577350     0.000000     0.000000     0.000000
   17     1.000000   120.000000    -0.577350     0.577350    -0.577350     0.000000     0.000000     0.000000
   18    -1.000000   120.000000    -0.577350     0.577350    -0.577350     0.000000     0.000000     0.000000
   19     1.000000    90.000000     0.000000     0.000000     1.000000     0.000000     0.000000     0.000000
   20    -1.000000    90.000000     0.000000     0.000000     1.000000     0.000000     0.000000     0.000000
   21     1.000000    90.000000    -1.000000     0.000000     0.000000     0.000000     0.000000     0.000000
   22    -1.000000    90.000000    -1.000000     0.000000     0.000000     0.000000     0.000000     0.000000
   23     1.000000   180.000000     0.707107     0.000000     0.707107     0.000000     0.000000     0.000000
   24    -1.000000   180.000000     0.707107     0.000000     0.707107     0.000000     0.000000     0.000000
   25     1.000000   120.000000     0.577350    -0.577350     0.577350     0.000000     0.000000     0.000000
   26    -1.000000   120.000000     0.577350    -0.577350     0.577350     0.000000     0.000000     0.000000
   27     1.000000   120.000000    -0.577350    -0.577350     0.577350     0.000000     0.000000     0.000000
   28    -1.000000   120.000000    -0.577350    -0.577350     0.577350     0.000000     0.000000     0.000000
   29     1.000000   180.000000     1.000000     0.000000     0.000000     0.000000     0.000000     0.000000
   30    -1.000000   180.000000     1.000000     0.000000     0.000000     0.000000     0.000000     0.000000
   31     1.000000    90.000000     0.000000    -1.000000     0.000000     0.000000     0.000000     0.000000
   32    -1.000000    90.000000     0.000000    -1.000000     0.000000     0.000000     0.000000     0.000000
   33     1.000000   180.000000     0.707107     0.707107     0.000000     0.000000     0.000000     0.000000
   34    -1.000000   180.000000     0.707107     0.707107     0.000000     0.000000     0.000000     0.000000
   35     1.000000    90.000000     1.000000     0.000000     0.000000     0.000000     0.000000     0.000000
   36    -1.000000    90.000000     1.000000     0.000000     0.000000     0.000000     0.000000     0.000000
   37     1.000000   120.000000     0.577350    -0.577350    -0.577350     0.000000     0.000000     0.000000
   38    -1.000000   120.000000     0.577350    -0.577350    -0.577350     0.000000     0.000000     0.000000
   39     1.000000   180.000000     0.000000     1.000000     0.000000     0.000000     0.000000     0.000000
   40    -1.000000   180.000000     0.000000     1.000000     0.000000     0.000000     0.000000     0.000000
   41     1.000000   120.000000     0.577350     0.577350    -0.577350     0.000000     0.000000     0.000000
   42    -1.000000   120.000000     0.577350     0.577350    -0.577350     0.000000     0.000000     0.000000
   43     1.000000   180.000000     0.000000    -0.707107     0.707107     0.000000     0.000000     0.000000
   44    -1.000000   180.000000     0.000000    -0.707107     0.707107     0.000000     0.000000     0.000000
   45     1.000000   180.000000     0.707107    -0.707107     0.000000     0.000000     0.000000     0.000000
   46    -1.000000   180.000000     0.707107    -0.707107     0.000000     0.000000     0.000000     0.000000
   47     1.000000   180.000000     0.707107     0.000000    -0.707107     0.000000     0.000000     0.000000
   48    -1.000000   180.000000     0.707107     0.000000    -0.707107     0.000000     0.000000     0.000000
 
 Subroutine IBZKPT returns following result:
 ===========================================
 
 Found     44 irreducible k-points:
 
 Following reciprocal coordinates:
            Coordinates               Weight
  0.050000  0.050000  0.050000      8.000000
  0.150000  0.050000  0.050000     24.000000
  0.250000  0.050000  0.050000     24.000000
  0.350000  0.050000  0.050000     24.000000
  0.450000  0.050000  0.050000     12.000000
 -0.050000  0.050000  0.050000      6.000000
  0.150000  0.150000  0.050000     24.000000
  0.250000  0.150000  0.050000     48.000000
  0.350000  0.150000  0.050000     48.000000
 -0.150000  0.150000  0.050000     24.000000
  0.250000  0.250000  0.050000     24.000000
  0.350000  0.250000  0.050000     24.000000
 -0.250000  0.250000  0.050000     24.000000
 -0.150000  0.250000  0.050000     24.000000
 -0.350000  0.350000  0.050000     24.000000
 -0.250000  0.350000  0.050000     48.000000
 -0.450000  0.450000  0.050000     24.000000
 -0.350000  0.450000  0.050000     48.000000
 -0.250000  0.450000  0.050000     24.000000
 -0.450000 -0.450000  0.050000     24.000000
 -0.350000 -0.450000  0.050000     48.000000
 -0.350000 -0.350000  0.050000      8.000000
  0.150000  0.150000  0.150000      8.000000
  0.250000  0.150000  0.150000     24.000000
  0.350000  0.150000  0.150000     12.000000
 -0.150000  0.150000  0.150000      6.000000
  0.250000  0.250000  0.150000     24.000000
 -0.250000  0.250000  0.150000     24.000000
 -0.350000  0.350000  0.150000     24.000000
 -0.250000  0.350000  0.150000     24.000000
 -0.450000  0.450000  0.150000     24.000000
 -0.350000  0.450000  0.150000     48.000000
 -0.450000 -0.450000  0.150000     24.000000
 -0.350000 -0.450000  0.150000     24.000000
  0.250000  0.250000  0.250000      2.000000
 -0.250000  0.250000  0.250000      6.000000
 -0.350000  0.350000  0.250000     24.000000
 -0.450000  0.450000  0.250000     24.000000
 -0.350000  0.450000  0.250000     24.000000
 -0.450000 -0.450000  0.250000     24.000000
 -0.350000  0.350000  0.350000      6.000000
 -0.450000  0.450000  0.350000     24.000000
 -0.450000 -0.450000  0.350000      8.000000
 -0.450000  0.450000  0.450000      6.000000
 
 Following cartesian coordinates:
            Coordinates               Weight
  0.100000  0.100000  0.100000      8.000000
  0.100000  0.200000  0.200000     24.000000
  0.100000  0.300000  0.300000     24.000000
  0.100000  0.400000  0.400000     24.000000
  0.100000  0.500000  0.500000     12.000000
  0.100000  0.000000  0.000000      6.000000
  0.200000  0.200000  0.300000     24.000000
  0.200000  0.300000  0.400000     48.000000
  0.200000  0.400000  0.500000     48.000000
  0.200000 -0.100000  0.000000     24.000000
  0.300000  0.300000  0.500000     24.000000
  0.300000  0.400000  0.600000     24.000000
  0.300000 -0.200000  0.000000     24.000000
  0.300000 -0.100000  0.100000     24.000000
  0.400000 -0.300000  0.000000     24.000000
  0.400000 -0.200000  0.100000     48.000000
  0.500000 -0.400000  0.000000     24.000000
  0.500000 -0.300000  0.100000     48.000000
  0.500000 -0.200000  0.200000     24.000000
 -0.400000 -0.400000 -0.900000     24.000000
 -0.400000 -0.300000 -0.800000     48.000000
 -0.300000 -0.300000 -0.700000      8.000000
  0.300000  0.300000  0.300000      8.000000
  0.300000  0.400000  0.400000     24.000000
  0.300000  0.500000  0.500000     12.000000
  0.300000  0.000000  0.000000      6.000000
  0.400000  0.400000  0.500000     24.000000
  0.400000 -0.100000  0.000000     24.000000
  0.500000 -0.200000  0.000000     24.000000
  0.500000 -0.100000  0.100000     24.000000
  0.600000 -0.300000  0.000000     24.000000
  0.600000 -0.200000  0.100000     48.000000
 -0.300000 -0.300000 -0.900000     24.000000
 -0.300000 -0.200000 -0.800000     24.000000
  0.500000  0.500000  0.500000      2.000000
  0.500000  0.000000  0.000000      6.000000
  0.600000 -0.100000  0.000000     24.000000
  0.700000 -0.200000  0.000000     24.000000
  0.700000 -0.100000  0.100000     24.000000
 -0.200000 -0.200000 -0.900000     24.000000
  0.700000  0.000000  0.000000      6.000000
  0.800000 -0.100000  0.000000     24.000000
 -0.100000 -0.100000 -0.900000      8.000000
  0.900000  0.000000  0.000000      6.000000
 


--------------------------------------------------------------------------------------------------------




 Dimension of arrays:
   k-points           NKPTS =     44   k-points in BZ     NKDIM =     44   number of bands    NBANDS=      8
   number of dos      NEDOS =    301   number of ions     NIONS =      1
   non local maximal  LDIM  =      6   non local SUM 2l+1 LMDIM =     18
   total plane-waves  NPLWV =   1000
   max r-space proj   IRMAX =      1   max aug-charges    IRDMAX=   4880
   dimension x,y,z NGX =    10 NGY =   10 NGZ =   10
   dimension x,y,z NGXF=    20 NGYF=   20 NGZF=   20
   support grid    NGXF=    20 NGYF=   20 NGZF=   20
   ions per type =               1
   NGX,Y,Z   is equivalent  to a cutoff of   6.62,  6.62,  6.62 a.u.
   NGXF,Y,Z  is equivalent  to a cutoff of  13.24, 13.24, 13.24 a.u.

 SYSTEM =  BCC W                                   
 POSCAR =  BCC W Bulk                              

 Startparameter for this run:
   NWRITE =      2    write-flag & timer
   PREC   = normal    normal or accurate (medium, high low for compatibility)
   ISTART =      0    job   : 0-new  1-cont  2-samecut
   ICHARG =      2    charge: 1-file 2-atom 10-const
   ISPIN  =      1    spin polarized calculation?
   LNONCOLLINEAR =      F non collinear calculations
   LSORBIT =      F    spin-orbit coupling
   INIWAV =      1    electr: 0-lowe 1-rand  2-diag
   LASPH  =      F    aspherical Exc in radial PAW
   METAGGA=      F    non-selfconsistent MetaGGA calc.

 Electronic Relaxation 1
   ENCUT  =  224.0 eV  16.46 Ry    4.06 a.u.   3.06  3.06  3.06*2*pi/ulx,y,z
   ENINI  =  224.0     initial cutoff
   ENAUG  =  373.4 eV  augmentation charge cutoff
   NELM   =     60;   NELMIN=  2; NELMDL= -5     # of ELM steps 
   EDIFF  = 0.1E-03   stopping-criterion for ELM
   LREAL  =      F    real-space projection
   NLSPLINE    = F    spline interpolate recip. space projectors
   LCOMPAT=      F    compatible to vasp.4.4
   GGA_COMPAT  = T    GGA compatible to vasp.4.4-vasp.4.6
   LMAXPAW     = -100 max onsite density
   LMAXMIX     =    2 max onsite mixed and CHGCAR
   VOSKOWN=      0    Vosko Wilk Nusair interpolation
   ROPT   =    0.00000
 Ionic relaxation
   EDIFFG = 0.1E-02   stopping-criterion for IOM
   NSW    =      0    number of steps for IOM
   NBLOCK =      1;   KBLOCK =      1    inner block; outer block 
   IBRION =     -1    ionic relax: 0-MD 1-quasi-New 2-CG
   NFREE  =      0    steps in history (QN), initial steepest desc. (CG)
   ISIF   =      2    stress and relaxation
   IWAVPR =     10    prediction:  0-non 1-charg 2-wave 3-comb
   ISYM   =      2    0-nonsym 1-usesym 2-fastsym
   LCORR  =      T    Harris-Foulkes like correction to forces

   POTIM  = 0.5000    time-step for ionic-motion
   TEIN   =    0.0    initial temperature
   TEBEG  =    0.0;   TEEND  =   0.0 temperature during run
   SMASS  =  -3.00    Nose mass-parameter (am)
   estimated Nose-frequenzy (Omega)   =  0.10E-29 period in steps =****** mass=  -0.144E-27a.u.
   SCALEE = 1.0000    scale energy and forces
   NPACO  =    256;   APACO  = 16.0  distance and # of slots for P.C.
   PSTRESS=    0.0 pullay stress

  Mass of Ions in am
   POMASS = 183.85
  Ionic Valenz
   ZVAL   =   6.00
  Atomic Wigner-Seitz radii
   RWIGS  =  -1.00
  virtual crystal weights 
   VCA    =   1.00
   NELECT =       6.0000    total number of electrons
   NUPDOWN=      -1.0000    fix difference up-down

 DOS related values:
   EMIN   =  10.00;   EMAX   =-10.00  energy-range for DOS
   EFERMI =   0.00
   ISMEAR =     1;   SIGMA  =   0.20  broadening in eV -4-tet -1-fermi 0-gaus

 Electronic relaxation 2 (details)
   IALGO  =     38    algorithm
   LDIAG  =      T    sub-space diagonalisation (order eigenvalues)
   LSUBROT=      F    optimize rotation matrix (better conditioning)
   TURBO    =      0    0=normal 1=particle mesh
   IRESTART =      0    0=no restart 2=restart with 2 vectors
   NREBOOT  =      0    no. of reboots
   NMIN     =      0    reboot dimension
   EREF     =   0.00    reference energy to select bands
   IMIX   =      4    mixing-type and parameters
     AMIX     =   0.40;   BMIX     =  1.00
     AMIX_MAG =   1.60;   BMIX_MAG =  1.00
     AMIN     =   0.10
     WC   =   100.;   INIMIX=   1;  MIXPRE=   1;  MAXMIX= -45

 Intra band minimization:
   WEIMIN = 0.0000     energy-eigenvalue tresh-hold
   EBREAK =  0.31E-05  absolut break condition
   DEPER  =   0.30     relativ break condition  

   TIME   =   0.40     timestep for ELM

  volume/ion in A,a.u.               =      12.19        82.29
  Fermi-wavevector in a.u.,A,eV,Ry     =   1.292421  2.442321 22.726510  1.670351
  Thomas-Fermi vector in A             =   2.424130
 
 Write flags
   LWAVE        =      T    write WAVECAR
   LDOWNSAMPLE  =      F    k-point downsampling of WAVECAR
   LCHARG       =      T    write CHGCAR
   LVTOT        =      F    write LOCPOT, total local potential
   LVHAR        =      F    write LOCPOT, Hartree potential only
   LELF         =      F    write electronic localiz. function (ELF)
   LORBIT       =      0    0 simple, 1 ext, 2 COOP (PROOUT), +10 PAW based schemes


 Dipole corrections
   LMONO  =      F    monopole corrections only (constant potential shift)
   LDIPOL =      F    correct potential (dipole corrections)
   IDIPOL =      0    1-x, 2-y, 3-z, 4-all directions 
   EPSILON=  1.0000000 bulk dielectric constant

 Exchange correlation treatment:
   GGA     =    --    GGA type
   LEXCH   =     2    internal setting for exchange type
   VOSKOWN=      0    Vosko Wilk Nusair interpolation
   LHFCALC =     F    Hartree Fock is set to
   LHFONE  =     F    Hartree Fock one center treatment
   AEXX    =    0.0000 exact exchange contribution

 Linear response parameters
   LEPSILON=     F    determine dielectric tensor
   LRPA    =     F    only Hartree local field effects (RPA)
   LNABLA  =     F    use nabla operator in PAW spheres
   LVEL    =     F    velocity operator in full k-point grid
   LINTERFAST=   F  fast interpolation
   KINTER  =     0    interpolate to denser k-point grid
   CSHIFT  =0.1000    complex shift for real part using Kramers Kronig
   OMEGAMAX=  -1.0    maximum frequency
   DEG_THRESHOLD= 0.2000000E-02 threshold for treating states as degnerate
   RTIME   =   -0.100 relaxation time in fs
  (WPLASMAI=    0.000 imaginary part of plasma frequency in eV, 0.658/RTIME)
   DFIELD  = 0.0000000 0.0000000 0.0000000 field for delta impulse in time
 
 Orbital magnetization related:
   ORBITALMAG=     F  switch on orbital magnetization
   LCHIMAG   =     F  perturbation theory with respect to B field
   DQ        =  0.001000  dq finite difference perturbation B field
   LLRAUG    =     F  two centre corrections for induced B field



--------------------------------------------------------------------------------------------------------


 Static calculation
 charge density and potential will be updated during run
 non-spin polarized calculation
 Variant of blocked Davidson
 Davidson routine will perform the subspace rotation
 perform sub-space diagonalisation
    after iterative eigenvector-optimisation
 modified Broyden-mixing scheme, WC =      100.0
 initial mixing is a Kerker type mixing with AMIX =  0.4000 and BMIX =      1.0000
 Hartree-type preconditioning will be used
 using additional bands            5
 reciprocal scheme for non local part
 use partial core corrections
 calculate Harris-corrections to forces 
   (improved forces if not selfconsistent)
 use of overlap-Matrix (Vanderbilt PP)
 Methfessel and Paxton  Order N= 1 SIGMA  =   0.20


--------------------------------------------------------------------------------------------------------


  energy-cutoff  :      224.00
  volume of cell :       12.19
      direct lattice vectors                 reciprocal lattice vectors
    -1.450000000  1.450000000  1.450000000     0.000000000  0.344827586  0.344827586
     1.450000000 -1.450000000  1.450000000     0.344827586  0.000000000  0.344827586
     1.450000000  1.450000000 -1.450000000     0.344827586  0.344827586  0.000000000

  length of vectors
     2.511473671  2.511473671  2.511473671     0.487659849  0.487659849  0.487659849


 
 k-points in units of 2pi/SCALE and weight: 10x10x10                                
   0.10000000  0.10000000  0.10000000       0.008
   0.10000000  0.20000000  0.20000000       0.024
   0.10000000  0.30000000  0.30000000       0.024
   0.10000000  0.40000000  0.40000000       0.024
   0.10000000  0.50000000  0.50000000       0.012
   0.10000000  0.00000000  0.00000000       0.006
   0.20000000  0.20000000  0.30000000       0.024
   0.20000000  0.30000000  0.40000000       0.048
   0.20000000  0.40000000  0.50000000       0.048
   0.20000000 -0.10000000  0.00000000       0.024
   0.30000000  0.30000000  0.50000000       0.024
   0.30000000  0.40000000  0.60000000       0.024
   0.30000000 -0.20000000  0.00000000       0.024
   0.30000000 -0.10000000  0.10000000       0.024
   0.40000000 -0.30000000  0.00000000       0.024
   0.40000000 -0.20000000  0.10000000       0.048
   0.50000000 -0.40000000  0.00000000       0.024
   0.50000000 -0.30000000  0.10000000       0.048
   0.50000000 -0.20000000  0.20000000       0.024
  -0.40000000 -0.40000000 -0.90000000       0.024
  -0.40000000 -0.30000000 -0.80000000       0.048
  -0.30000000 -0.30000000 -0.70000000       0.008
   0.30000000  0.30000000  0.30000000       0.008
   0.30000000  0.40000000  0.40000000       0.024
   0.30000000  0.50000000  0.50000000       0.012
   0.30000000  0.00000000  0.00000000       0.006
   0.40000000  0.40000000  0.50000000       0.024
   0.40000000 -0.10000000  0.00000000       0.024
   0.50000000 -0.20000000  0.00000000       0.024
   0.50000000 -0.10000000  0.10000000       0.024
   0.60000000 -0.30000000  0.00000000       0.024
   0.60000000 -0.20000000  0.10000000       0.048
  -0.30000000 -0.30000000 -0.90000000       0.024
  -0.30000000 -0.20000000 -0.80000000       0.024
   0.50000000  0.50000000  0.50000000       0.002
   0.50000000  0.00000000  0.00000000       0.006
   0.60000000 -0.10000000  0.00000000       0.024
   0.70000000 -0.20000000  0.00000000       0.024
   0.70000000 -0.10000000  0.10000000       0.024
  -0.20000000 -0.20000000 -0.90000000       0.024
   0.70000000  0.00000000  0.00000000       0.006
   0.80000000 -0.10000000  0.00000000       0.024
  -0.10000000 -0.10000000 -0.90000000       0.008
   0.90000000  0.00000000  0.00000000       0.006
 
 k-points in reciprocal lattice and weights: 10x10x10                                
   0.05000000  0.05000000  0.05000000       0.008
   0.15000000  0.05000000  0.05000000       0.024
   0.25000000  0.05000000  0.05000000       0.024
   0.35000000  0.05000000  0.05000000       0.024
   0.45000000  0.05000000  0.05000000       0.012
  -0.05000000  0.05000000  0.05000000       0.006
   0.15000000  0.15000000  0.05000000       0.024
   0.25000000  0.15000000  0.05000000       0.048
   0.35000000  0.15000000  0.05000000       0.048
  -0.15000000  0.15000000  0.05000000       0.024
   0.25000000  0.25000000  0.05000000       0.024
   0.35000000  0.25000000  0.05000000       0.024
  -0.25000000  0.25000000  0.05000000       0.024
  -0.15000000  0.25000000  0.05000000       0.024
  -0.35000000  0.35000000  0.05000000       0.024
  -0.25000000  0.35000000  0.05000000       0.048
  -0.45000000  0.45000000  0.05000000       0.024
  -0.35000000  0.45000000  0.05000000       0.048
  -0.25000000  0.45000000  0.05000000       0.024
  -0.45000000 -0.45000000  0.05000000       0.024
  -0.35000000 -0.45000000  0.05000000       0.048
  -0.35000000 -0.35000000  0.05000000       0.008
   0.15000000  0.15000000  0.15000000       0.008
   0.25000000  0.15000000  0.15000000       0.024
   0.35000000  0.15000000  0.15000000       0.012
  -0.15000000  0.15000000  0.15000000       0.006
   0.25000000  0.25000000  0.15000000       0.024
  -0.25000000  0.25000000  0.15000000       0.024
  -0.35000000  0.35000000  0.15000000       0.024
  -0.25000000  0.35000000  0.15000000       0.024
  -0.45000000  0.45000000  0.15000000       0.024
  -0.35000000  0.45000000  0.15000000       0.048
  -0.45000000 -0.45000000  0.15000000       0.024
  -0.35000000 -0.45000000  0.15000000       0.024
   0.25000000  0.25000000  0.25000000       0.002
  -0.25000000  0.25000000  0.25000000       0.006
  -0.35000000  0.35000000  0.25000000       0.024
  -0.45000000  0.45000000  0.25000000       0.024
  -0.35000000  0.45000000  0.25000000       0.024
  -0.45000000 -0.45000000  0.25000000       0.024
  -0.35000000  0.35000000  0.35000000       0.006
  -0.45000000  0.45000000  0.35000000       0.024
  -0.45000000 -0.45000000  0.35000000       0.008
  -0.45000000  0.45000000  0.45000000       0.006
 
 position of ions in fractional coordinates (direct lattice) 
   0.00000000  0.00000000  0.00000000
 
 position of ions in cartesian coordinates  (Angst):
   0.00000000  0.00000000  0.00000000
 


--------------------------------------------------------------------------------------------------------


 k-point  1 :   0.0500 0.0500 0.0500  plane waves:      86
 k-point  2 :   0.1500 0.0500 0.0500  plane waves:      93
 k-point  3 :   0.2500 0.0500 0.0500  plane waves:      91
 k-point  4 :   0.3500 0.0500 0.0500  plane waves:      89
 k-point  5 :   0.4500 0.0500 0.0500  plane waves:      94
 k-point  6 :  -0.0500 0.0500 0.0500  plane waves:      87
 k-point  7 :   0.1500 0.1500 0.0500  plane waves:      93
 k-point  8 :   0.2500 0.1500 0.0500  plane waves:      93
 k-point  9 :   0.3500 0.1500 0.0500  plane waves:      90
 k-point 10 :  -0.1500 0.1500 0.0500  plane waves:      87
 k-point 11 :   0.2500 0.2500 0.0500  plane waves:      90
 k-point 12 :   0.3500 0.2500 0.0500  plane waves:      91
 k-point 13 :  -0.2500 0.2500 0.0500  plane waves:      91
 k-point 14 :  -0.1500 0.2500 0.0500  plane waves:      96
 k-point 15 :  -0.3500 0.3500 0.0500  plane waves:      93
 k-point 16 :  -0.2500 0.3500 0.0500  plane waves:      93
 k-point 17 :  -0.4500 0.4500 0.0500  plane waves:      91
 k-point 18 :  -0.3500 0.4500 0.0500  plane waves:      94
 k-point 19 :  -0.2500 0.4500 0.0500  plane waves:      90
 k-point 20 :  -0.4500-0.4500 0.0500  plane waves:      92
 k-point 21 :  -0.3500-0.4500 0.0500  plane waves:      92
 k-point 22 :  -0.3500-0.3500 0.0500  plane waves:      89
 k-point 23 :   0.1500 0.1500 0.1500  plane waves:      89
 k-point 24 :   0.2500 0.1500 0.1500  plane waves:      91
 k-point 25 :   0.3500 0.1500 0.1500  plane waves:      86
 k-point 26 :  -0.1500 0.1500 0.1500  plane waves:      91
 k-point 27 :   0.2500 0.2500 0.1500  plane waves:      89
 k-point 28 :  -0.2500 0.2500 0.1500  plane waves:      92
 k-point 29 :  -0.3500 0.3500 0.1500  plane waves:      96
 k-point 30 :  -0.2500 0.3500 0.1500  plane waves:      94
 k-point 31 :  -0.4500 0.4500 0.1500  plane waves:      95
 k-point 32 :  -0.3500 0.4500 0.1500  plane waves:      95
 k-point 33 :  -0.4500-0.4500 0.1500  plane waves:      93
 k-point 34 :  -0.3500-0.4500 0.1500  plane waves:      93
 k-point 35 :   0.2500 0.2500 0.2500  plane waves:      80
 k-point 36 :  -0.2500 0.2500 0.2500  plane waves:      96
 k-point 37 :  -0.3500 0.3500 0.2500  plane waves:      94
 k-point 38 :  -0.4500 0.4500 0.2500  plane waves:      97
 k-point 39 :  -0.3500 0.4500 0.2500  plane waves:      99
 k-point 40 :  -0.4500-0.4500 0.2500  plane waves:      98
 k-point 41 :  -0.3500 0.3500 0.3500  plane waves:      96
 k-point 42 :  -0.4500 0.4500 0.3500  plane waves:     101
 k-point 43 :  -0.4500-0.4500 0.3500  plane waves:      98
 k-point 44 :  -0.4500 0.4500 0.4500  plane waves:      96

 maximum and minimum number of plane-waves per node :       101       80

 maximum number of plane-waves:       101
 maximum index in each direction: 
   IXMAX=    3   IYMAX=    3   IZMAX=    3
   IXMIN=   -3   IYMIN=   -3   IZMIN=   -3


 serial   3D FFT for wavefunctions
 parallel 3D FFT for charge:
    minimum data exchange during FFTs selected (reduces bandwidth)


 total amount of memory used by VASP MPI-rank0    31183. kBytes
=======================================================================

   base      :      30000. kBytes
   nonl-proj :        660. kBytes
   fftplans  :        142. kBytes
   grid      :        192. kBytes
   one-center:         15. kBytes
   wavefun   :        174. kBytes
 
     INWAV:  cpu time    0.0001: real time    0.0002
 Broyden mixing: mesh for mixing (old mesh)
   NGX =  7   NGY =  7   NGZ =  7
  (NGX  = 20   NGY  = 20   NGZ  = 20)
  gives a total of    343 points

 initial charge density was supplied:
 charge density of overlapping atoms calculated
 number of electron       6.0000000 magnetization 
 keeping initial charge density in first step


--------------------------------------------------------------------------------------------------------


 Maximum index for augmentation-charges         1123 (set IRDMAX)


--------------------------------------------------------------------------------------------------------


 First call to EWALD:  gamma=   0.770
 Maximum number of real-space cells 3x 3x 3
 Maximum number of reciprocal cells 3x 3x 3

    FEWALD:  cpu time    0.0010: real time    0.0010


--------------------------------------- Iteration      1(   1)  ---------------------------------------


    POTLOK:  cpu time    0.0010: real time    0.0023
    SETDIJ:  cpu time    0.0013: real time    0.0013
     EDDAV:  cpu time    0.0380: real time    0.0381
       DOS:  cpu time    0.0006: real time    0.0004
    --------------------------------------------
      LOOP:  cpu time    0.0408: real time    0.0421

 eigenvalue-minimisations  :   976
 total energy-change (2. order) :-0.1029270E+02  (-0.2003511E+03)
 number of electron       6.0000000 magnetization 
 augmentation part        6.0000000 magnetization 

 Free energy of the ion-electron system (eV)
  ---------------------------------------------------
  alpha Z        PSCENC =        57.24149576
  Ewald energy   TEWEN  =      -325.26736831
  -Hartree energ DENC   =        -3.28671591
  -exchange      EXHF   =         0.00000000
  -V(xc)+E(xc)   XCENC  =       -46.88607238
  PAW double counting   =       183.53490256     -125.80866524
  entropy T*S    EENTRO =        -0.00016817
  eigenvalues    EBANDS =        43.67202955
  atomic energy  EATOM  =       206.50785835
  Solvation  Ediel_sol  =         0.00000000
  ---------------------------------------------------
  free energy    TOTEN  =       -10.29270380 eV

  energy without entropy =      -10.29253563  energy(sigma->0) =      -10.29264775


--------------------------------------------------------------------------------------------------------




--------------------------------------- Iteration      1(   2)  ---------------------------------------


     EDDAV:  cpu time    0.0258: real time    0.0260
       DOS:  cpu time    0.0003: real time    0.0003
    --------------------------------------------
      LOOP:  cpu time    0.0260: real time    0.0263

 eigenvalue-minimisations  :   768
 total energy-change (2. order) :-0.3513884E+01  (-0.3482931E+01)
 number of electron       6.0000000 magnetization 
 augmentation part        6.0000000 magnetization 

 Free energy of the ion-electron system (eV)
  ---------------------------------------------------
  alpha Z        PSCENC =        57.24149576
  Ewald energy   TEWEN  =      -325.26736831
  -Hartree energ DENC   =        -3.28671591
  -exchange      EXHF   =         0.00000000
  -V(xc)+E(xc)   XCENC  =       -46.88607238
  PAW double counting   =       183.53490256     -125.80866524
  entropy T*S    EENTRO =         0.00125129
  eigenvalues    EBANDS =        40.15672605
  atomic energy  EATOM  =       206.50785835
  Solvation  Ediel_sol  =         0.00000000
  ---------------------------------------------------
  free energy    TOTEN  =       -13.80658784 eV

  energy without entropy =      -13.80783913  energy(sigma->0) =      -13.80700493


--------------------------------------------------------------------------------------------------------




--------------------------------------- Iteration      1(   3)  ---------------------------------------


     EDDAV:  cpu time    0.0364: real time    0.0366
       DOS:  cpu time    0.0004: real time    0.0004
    --------------------------------------------
      LOOP:  cpu time    0.0368: real time    0.0370

 eigenvalue-minimisations  :  1016
 total energy-change (2. order) :-0.9924707E-02  (-0.9921875E-02)
 number of electron       6.0000000 magnetization 
 augmentation part        6.0000000 magnetization 

 Free energy of the ion-electron system (eV)
  ---------------------------------------------------
  alpha Z        PSCENC =        57.24149576
  Ewald energy   TEWEN  =      -325.26736831
  -Hartree energ DENC   =        -3.28671591
  -exchange      EXHF   =         0.00000000
  -V(xc)+E(xc)   XCENC  =       -46.88607238
  PAW double counting   =       183.53490256     -125.80866524
  entropy T*S    EENTRO =         0.00112021
  eigenvalues    EBANDS =        40.14693243
  atomic energy  EATOM  =       206.50785835
  Solvation  Ediel_sol  =         0.00000000
  ---------------------------------------------------
  free energy    TOTEN  =       -13.81651254 eV

  energy without entropy =      -13.81763275  energy(sigma->0) =      -13.81688595


--------------------------------------------------------------------------------------------------------




--------------------------------------- Iteration      1(   4)  ---------------------------------------


     EDDAV:  cpu time    0.0325: real time    0.0327
       DOS:  cpu time    0.0005: real time    0.0005
    --------------------------------------------
      LOOP:  cpu time    0.0330: real time    0.0331

 eigenvalue-minimisations  :   816
 total energy-change (2. order) :-0.2555190E-05  (-0.2553379E-05)
 number of electron       6.0000000 magnetization 
 augmentation part        6.0000000 magnetization 

 Free energy of the ion-electron system (eV)
  ---------------------------------------------------
  alpha Z        PSCENC =        57.24149576
  Ewald energy   TEWEN  =      -325.26736831
  -Hartree energ DENC   =        -3.28671591
  -exchange      EXHF   =         0.00000000
  -V(xc)+E(xc)   XCENC  =       -46.88607238
  PAW double counting   =       183.53490256     -125.80866524
  entropy T*S    EENTRO =         0.00112020
  eigenvalues    EBANDS =        40.14692988
  atomic energy  EATOM  =       206.50785835
  Solvation  Ediel_sol  =         0.00000000
  ---------------------------------------------------
  free energy    TOTEN  =       -13.81651510 eV

  energy without entropy =      -13.81763530  energy(sigma->0) =      -13.81688850


--------------------------------------------------------------------------------------------------------




--------------------------------------- Iteration      1(   5)  ---------------------------------------


     EDDAV:  cpu time    0.0422: real time    0.0431
       DOS:  cpu time    0.0005: real time    0.0004
    CHARGE:  cpu time    0.0015: real time    0.0016
    MIXING:  cpu time    0.0003: real time    0.0002
    --------------------------------------------
      LOOP:  cpu time    0.0445: real time    0.0453

 eigenvalue-minimisations  :   808
 total energy-change (2. order) :-0.1447404E-08  (-0.2528856E-08)
 number of electron       5.9999996 magnetization 
 augmentation part        0.6864075 magnetization 

 Broyden mixing:
  rms(total) = 0.34415E+00    rms(broyden)= 0.34412E+00
  rms(prec ) = 0.14295E+01
  weight for this iteration     100.00

 Free energy of the ion-electron system (eV)
  ---------------------------------------------------
  alpha Z        PSCENC =        57.24149576
  Ewald energy   TEWEN  =      -325.26736831
  -Hartree energ DENC   =        -3.28671591
  -exchange      EXHF   =         0.00000000
  -V(xc)+E(xc)   XCENC  =       -46.88607238
  PAW double counting   =       183.53490256     -125.80866524
  entropy T*S    EENTRO =         0.00112020
  eigenvalues    EBANDS =        40.14692988
  atomic energy  EATOM  =       206.50785835
  Solvation  Ediel_sol  =         0.00000000
  ---------------------------------------------------
  free energy    TOTEN  =       -13.81651510 eV

  energy without entropy =      -13.81763530  energy(sigma->0) =      -13.81688850


--------------------------------------------------------------------------------------------------------




--------------------------------------- Iteration      1(   6)  ---------------------------------------


    POTLOK:  cpu time    0.0010: real time    0.0011
    SETDIJ:  cpu time    0.0011: real time    0.0011
     EDDAV:  cpu time    0.0251: real time    0.0252
       DOS:  cpu time    0.0003: real time    0.0004
    CHARGE:  cpu time    0.0014: real time    0.0012
    MIXING:  cpu time    0.0002: real time    0.0002
    --------------------------------------------
      LOOP:  cpu time    0.0290: real time    0.0292

 eigenvalue-minimisations  :   768
 total energy-change (2. order) : 0.3984039E+00  (-0.1339120E-01)
 number of electron       5.9999996 magnetization 
 augmentation part        0.7058680 magnetization 

 Broyden mixing:
  rms(total) = 0.19123E+00    rms(broyden)= 0.19122E+00
  rms(prec ) = 0.78678E+00
  weight for this iteration     100.00

 eigenvalues of (default mixing * dielectric matrix)
  average eigenvalue GAMMA=   2.2460
  2.2460

 Free energy of the ion-electron system (eV)
  ---------------------------------------------------
  alpha Z        PSCENC =        57.24149576
  Ewald energy   TEWEN  =      -325.26736831
  -Hartree energ DENC   =        -2.14689849
  -exchange      EXHF   =         0.00000000
  -V(xc)+E(xc)   XCENC  =       -46.71028313
  PAW double counting   =       228.79206472     -172.08313994
  entropy T*S    EENTRO =         0.00073722
  eigenvalues    EBANDS =        40.24742262
  atomic energy  EATOM  =       206.50785835
  Solvation  Ediel_sol  =         0.00000000
  ---------------------------------------------------
  free energy    TOTEN  =       -13.41811121 eV

  energy without entropy =      -13.41884843  energy(sigma->0) =      -13.41835695


--------------------------------------------------------------------------------------------------------




--------------------------------------- Iteration      1(   7)  ---------------------------------------


    POTLOK:  cpu time    0.0010: real time    0.0010
    SETDIJ:  cpu time    0.0010: real time    0.0010
     EDDAV:  cpu time    0.0275: real time    0.0276
       DOS:  cpu time    0.0005: real time    0.0004
    CHARGE:  cpu time    0.0013: real time    0.0013
    MIXING:  cpu time    0.0002: real time    0.0002
    --------------------------------------------
      LOOP:  cpu time    0.0314: real time    0.0316

 eigenvalue-minimisations  :   768
 total energy-change (2. order) : 0.1953603E+00  (-0.2141705E-01)
 number of electron       5.9999996 magnetization 
 augmentation part        0.7332778 magnetization 

 Broyden mixing:
  rms(total) = 0.13553E-01    rms(broyden)= 0.13499E-01
  rms(prec ) = 0.40656E-01
  weight for this iteration     100.00

 eigenvalues of (default mixing * dielectric matrix)
  average eigenvalue GAMMA=   3.3843
  2.3501  4.4184

 Free energy of the ion-electron system (eV)
  ---------------------------------------------------
  alpha Z        PSCENC =        57.24149576
  Ewald energy   TEWEN  =      -325.26736831
  -Hartree energ DENC   =        -1.11155735
  -exchange      EXHF   =         0.00000000
  -V(xc)+E(xc)   XCENC  =       -46.43964146
  PAW double counting   =       303.73788835     -248.30659345
  entropy T*S    EENTRO =        -0.00142486
  eigenvalues    EBANDS =        40.41659204
  atomic energy  EATOM  =       206.50785835
  Solvation  Ediel_sol  =         0.00000000
  ---------------------------------------------------
  free energy    TOTEN  =       -13.22275093 eV

  energy without entropy =      -13.22132607  energy(sigma->0) =      -13.22227597


--------------------------------------------------------------------------------------------------------




--------------------------------------- Iteration      1(   8)  ---------------------------------------


    POTLOK:  cpu time    0.0010: real time    0.0010
    SETDIJ:  cpu time    0.0010: real time    0.0010
     EDDAV:  cpu time    0.0297: real time    0.0297
       DOS:  cpu time    0.0005: real time    0.0004
    CHARGE:  cpu time    0.0013: real time    0.0014
    MIXING:  cpu time    0.0002: real time    0.0002
    --------------------------------------------
      LOOP:  cpu time    0.0336: real time    0.0337

 eigenvalue-minimisations  :   840
 total energy-change (2. order) : 0.5950683E-03  (-0.2182994E-03)
 number of electron       5.9999996 magnetization 
 augmentation part        0.7330523 magnetization 

 Broyden mixing:
  rms(total) = 0.56804E-02    rms(broyden)= 0.56778E-02
  rms(prec ) = 0.22256E-01
  weight for this iteration     100.00

 eigenvalues of (default mixing * dielectric matrix)
  average eigenvalue GAMMA=   1.8532
  1.1376  2.3631  2.0589

 Free energy of the ion-electron system (eV)
  ---------------------------------------------------
  alpha Z        PSCENC =        57.24149576
  Ewald energy   TEWEN  =      -325.26736831
  -Hartree energ DENC   =        -1.17333957
  -exchange      EXHF   =         0.00000000
  -V(xc)+E(xc)   XCENC  =       -46.45296282
  PAW double counting   =       312.65937227     -257.25640642
  entropy T*S    EENTRO =        -0.00138257
  eigenvalues    EBANDS =        40.52057746
  atomic energy  EATOM  =       206.50785835
  Solvation  Ediel_sol  =         0.00000000
  ---------------------------------------------------
  free energy    TOTEN  =       -13.22215586 eV

  energy without entropy =      -13.22077329  energy(sigma->0) =      -13.22169500


--------------------------------------------------------------------------------------------------------




--------------------------------------- Iteration      1(   9)  ---------------------------------------


    POTLOK:  cpu time    0.0010: real time    0.0010
    SETDIJ:  cpu time    0.0010: real time    0.0010
     EDDAV:  cpu time    0.0223: real time    0.0223
       DOS:  cpu time    0.0004: real time    0.0003
    CHARGE:  cpu time    0.0011: real time    0.0011
    MIXING:  cpu time    0.0001: real time    0.0002
    --------------------------------------------
      LOOP:  cpu time    0.0259: real time    0.0260

 eigenvalue-minimisations  :   656
 total energy-change (2. order) : 0.1883818E-03  (-0.2096150E-04)
 number of electron       5.9999996 magnetization 
 augmentation part        0.7339887 magnetization 

 Broyden mixing:
  rms(total) = 0.52585E-03    rms(broyden)= 0.52223E-03
  rms(prec ) = 0.15529E-02
  weight for this iteration     100.00

 eigenvalues of (default mixing * dielectric matrix)
  average eigenvalue GAMMA=   2.0438
  0.9886  2.4972  2.4972  2.1923

 Free energy of the ion-electron system (eV)
  ---------------------------------------------------
  alpha Z        PSCENC =        57.24149576
  Ewald energy   TEWEN  =      -325.26736831
  -Hartree energ DENC   =        -1.15040898
  -exchange      EXHF   =         0.00000000
  -V(xc)+E(xc)   XCENC  =       -46.44429613
  PAW double counting   =       316.21143523     -260.84812606
  entropy T*S    EENTRO =        -0.00133881
  eigenvalues    EBANDS =        40.52878147
  atomic energy  EATOM  =       206.50785835
  Solvation  Ediel_sol  =         0.00000000
  ---------------------------------------------------
  free energy    TOTEN  =       -13.22196748 eV

  energy without entropy =      -13.22062867  energy(sigma->0) =      -13.22152121


--------------------------------------------------------------------------------------------------------




--------------------------------------- Iteration      1(  10)  ---------------------------------------


    POTLOK:  cpu time    0.0010: real time    0.0011
    SETDIJ:  cpu time    0.0010: real time    0.0010
     EDDAV:  cpu time    0.0129: real time    0.0129
       DOS:  cpu time    0.0003: real time    0.0003
    --------------------------------------------
      LOOP:  cpu time    0.0152: real time    0.0153

 eigenvalue-minimisations  :   360
 total energy-change (2. order) :-0.2989696E-05  (-0.3126657E-06)
 number of electron       5.9999996 magnetization 
 augmentation part        0.7339887 magnetization 

 Free energy of the ion-electron system (eV)
  ---------------------------------------------------
  alpha Z        PSCENC =        57.24149576
  Ewald energy   TEWEN  =      -325.26736831
  -Hartree energ DENC   =        -1.15304458
  -exchange      EXHF   =         0.00000000
  -V(xc)+E(xc)   XCENC  =       -46.44490988
  PAW double counting   =       316.78642652     -261.41792893
  entropy T*S    EENTRO =        -0.00133584
  eigenvalues    EBANDS =        40.52683645
  atomic energy  EATOM  =       206.50785835
  Solvation  Ediel_sol  =         0.00000000
  ---------------------------------------------------
  free energy    TOTEN  =       -13.22197047 eV

  energy without entropy =      -13.22063463  energy(sigma->0) =      -13.22152519


--------------------------------------------------------------------------------------------------------




 average (electrostatic) potential at core
  the test charge radii are     1.1823
  (the norm of the test charge is              1.0000)
       1 -34.1629
 
 
 
 E-fermi :  11.0939     XC(G=0): -14.6103     alpha+bet :-19.1297


 k-point     1 :       0.0500    0.0500    0.0500
  band No.  band energies     occupation 
      1       1.1669      2.00000
      2       8.7784      2.00000
      3       8.7784      2.00000
      4      10.5084      2.00028
      5      13.5568     -0.00000
      6      13.5568     -0.00000
      7      27.6803      0.00000
      8      29.3433      0.00000

 k-point     2 :       0.1500    0.0500    0.0500
  band No.  band energies     occupation 
      1       2.6752      2.00000
      2       7.7976      2.00000
      3       8.2408      2.00000
      4      12.6412     -0.00000
      5      13.1358     -0.00000
      6      13.9835     -0.00000
      7      28.7692      0.00000
      8      31.1809      0.00000

 k-point     3 :       0.2500    0.0500    0.0500
  band No.  band energies     occupation 
      1       3.7090      2.00000
      2       6.8633      2.00000
      3       8.7630      2.00000
      4      13.5625     -0.00000
      5      14.5124     -0.00000
      6      15.7552     -0.00000
      7      27.6275      0.00000
      8      30.8062      0.00000

 k-point     4 :       0.3500    0.0500    0.0500
  band No.  band energies     occupation 
      1       3.4762      2.00000
      2       6.2283      2.00000
      3      11.1090      0.87204
      4      14.2374     -0.00000
      5      15.1374     -0.00000
      6      19.0139      0.00000
      7      25.3328      0.00000
      8      27.9406      0.00000

 k-point     5 :       0.4500    0.0500    0.0500
  band No.  band energies     occupation 
      1       3.2513      2.00000
      2       6.0065      2.00000
      3      12.7903     -0.00000
      4      14.2252     -0.00000
      5      15.4571     -0.00000
      6      20.7095      0.00000
      7      24.3384      0.00000
      8      26.5120      0.00000

 k-point     6 :      -0.0500    0.0500    0.0500
  band No.  band energies     occupation 
      1       0.5560      2.00000
      2       9.2539      2.00000
      3       9.2539      2.00000
      4       9.4371      2.00000
      5      13.3303     -0.00000
      6      14.1292     -0.00000
      7      27.7027      0.00000
      8      27.7027      0.00000

 k-point     7 :       0.1500    0.1500    0.0500
  band No.  band energies     occupation 
      1       4.1938      2.00000
      2       7.2243      2.00000
      3       7.3813      2.00000
      4      13.2533     -0.00000
      5      14.6286     -0.00000
      6      15.7445     -0.00000
      7      29.7100      0.00000
      8      30.0992      0.00000

 k-point     8 :       0.2500    0.1500    0.0500
  band No.  band energies     occupation 
      1       4.6791      2.00000
      2       6.5905      2.00000
      3       8.5787      2.00000
      4      13.7842     -0.00000
      5      15.2399     -0.00000
      6      19.2292      0.00000
      7      27.1854      0.00000
      8      29.1565      0.00000

 k-point     9 :       0.3500    0.1500    0.0500
  band No.  band energies     occupation 
      1       4.3484      2.00000
      2       6.2921      2.00000
      3      10.6391      2.00599
      4      14.3078     -0.00000
      5      15.6328     -0.00000
      6      21.9444      0.00000
      7      25.1214      0.00000
      8      26.4250      0.00000

 k-point    10 :      -0.1500    0.1500    0.0500
  band No.  band energies     occupation 
      1       1.7379      2.00000
      2       8.5742      2.00000
      3       9.0157      2.00000
      4      10.7127      2.02143
      5      12.3025     -0.00000
      6      14.4320     -0.00000
      7      28.7451      0.00000
      8      29.7799      0.00000

 k-point    11 :       0.2500    0.2500    0.0500
  band No.  band energies     occupation 
      1       5.1676      2.00000
      2       6.9641      2.00000
      3       8.8132      2.00000
      4      14.2831     -0.00000
      5      15.5127     -0.00000
      6      22.6524      0.00000
      7      24.7319      0.00000
      8      28.9262      0.00000

 k-point    12 :       0.3500    0.2500    0.0500
  band No.  band energies     occupation 
      1       5.1703      2.00000
      2       7.2212      2.00000
      3       9.1659      2.00000
      4      14.7245     -0.00000
      5      15.5545     -0.00000
      6      22.8860      0.00000
      7      24.7326      0.00000
      8      27.3733      0.00000

 k-point    13 :      -0.2500    0.2500    0.0500
  band No.  band energies     occupation 
      1       3.2160      2.00000
      2       7.5645      2.00000
      3       8.6844      2.00000
      4      12.4818     -0.00000
      5      13.2029     -0.00000
      6      14.7820     -0.00000
      7      28.4229      0.00000
      8      32.0117      0.00000

 k-point    14 :      -0.1500    0.2500    0.0500
  band No.  band energies     occupation 
      1       3.1550      2.00000
      2       8.2078      2.00000
      3       8.3413      2.00000
      4      11.5232     -0.00967
      5      12.4992     -0.00000
      6      15.1394     -0.00000
      7      30.0402      0.00000
      8      30.3817      0.00000

 k-point    15 :      -0.3500    0.3500    0.0500
  band No.  band energies     occupation 
      1       3.4601      2.00000
      2       6.7024      2.00000
      3       9.9521      2.00000
      4      13.5650     -0.00000
      5      15.2561     -0.00000
      6      16.4689     -0.00000
      7      26.1882      0.00000
      8      29.8342      0.00000

 k-point    16 :      -0.2500    0.3500    0.0500
  band No.  band energies     occupation 
      1       4.2027      2.00000
      2       7.2676      2.00000
      3       8.4379      2.00000
      4      12.1379     -0.00000
      5      15.2270     -0.00000
      6      15.9388     -0.00000
      7      27.5518      0.00000
      8      31.5516      0.00000

 k-point    17 :      -0.4500    0.4500    0.0500
  band No.  band energies     occupation 
      1       3.0999      2.00000
      2       6.2261      2.00000
      3      11.8827     -0.00000
      4      13.8464     -0.00000
      5      16.2192     -0.00000
      6      19.4593      0.00000
      7      24.7640      0.00000
      8      27.5921      0.00000

 k-point    18 :      -0.3500    0.4500    0.0500
  band No.  band energies     occupation 
      1       3.9699      2.00000
      2       6.7794      2.00000
      3       9.6431      2.00000
      4      13.1285     -0.00000
      5      16.0690     -0.00000
      6      19.1613      0.00000
      7      26.2229      0.00000
      8      28.9811      0.00000

 k-point    19 :      -0.2500    0.4500    0.0500
  band No.  band energies     occupation 
      1       4.9759      2.00000
      2       6.6524      2.00000
      3       8.7577      2.00000
      4      12.6134     -0.00000
      5      15.4902     -0.00000
      6      19.4490      0.00000
      7      26.6702      0.00000
      8      31.4245      0.00000

 k-point    20 :      -0.4500   -0.4500    0.0500
  band No.  band energies     occupation 
      1       3.7264      2.00000
      2       6.6097      2.00000
      3      10.5086      2.00028
      4      12.9959     -0.00000
      5      17.1248      0.00000
      6      21.0914      0.00000
      7      25.7181      0.00000
      8      27.0969      0.00000

 k-point    21 :      -0.3500   -0.4500    0.0500
  band No.  band energies     occupation 
      1       4.9381      2.00000
      2       6.8130      2.00000
      3       8.7924      2.00000
      4      13.4209     -0.00000
      5      15.9810     -0.00000
      6      23.0309      0.00000
      7      24.6896      0.00000
      8      29.1513      0.00000

 k-point    22 :      -0.3500   -0.3500    0.0500
  band No.  band energies     occupation 
      1       5.5139      2.00000
      2       7.4445      2.00000
      3       7.4445      2.00000
      4      14.9909     -0.00000
      5      14.9910     -0.00000
      6      23.0771      0.00000
      7      26.8116      0.00000
      8      26.8116      0.00000

 k-point    23 :       0.1500    0.1500    0.1500
  band No.  band energies     occupation 
      1       6.0202      2.00000
      2       6.6577      2.00000
      3       6.6577      2.00000
      4      14.5912     -0.00000
      5      14.5912     -0.00000
      6      19.4784      0.00000
      7      29.6689      0.00000
      8      29.6689      0.00000

 k-point    24 :       0.2500    0.1500    0.1500
  band No.  band energies     occupation 
      1       5.8754      2.00000
      2       6.4051      2.00000
      3       8.6223      2.00000
      4      14.9127     -0.00000
      5      15.3615     -0.00000
      6      22.7112      0.00000
      7      25.1263      0.00000
      8      27.6373      0.00000

 k-point    25 :       0.3500    0.1500    0.1500
  band No.  band energies     occupation 
      1       5.6502      2.00000
      2       6.3403      2.00000
      3      10.0024      2.00000
      4      15.0827     -0.00000
      5      15.6321     -0.00000
      6      23.0139      0.00000
      7      23.9644      0.00000
      8      26.8439      0.00000

 k-point    26 :      -0.1500    0.1500    0.1500
  band No.  band energies     occupation 
      1       2.8586      2.00000
      2       9.3223      2.00000
      3       9.3223      2.00000
      4      10.1018      2.00000
      5      10.6338      2.00540
      6      15.4818     -0.00000
      7      31.4438      0.00000
      8      31.6974      0.00000

 k-point    27 :       0.2500    0.2500    0.1500
  band No.  band energies     occupation 
      1       6.2030      2.00000
      2       7.3976      2.00000
      3       8.5857      2.00000
      4      15.3898     -0.00000
      5      15.6209     -0.00000
      6      22.1230      0.00000
      7      25.2248      0.00000
      8      27.4683      0.00000

 k-point    28 :      -0.2500    0.2500    0.1500
  band No.  band energies     occupation 
      1       4.3122      2.00000
      2       8.0343      2.00000
      3       8.7839      2.00000
      4      10.6109      2.00336
      5      12.7638     -0.00000
      6      16.0318     -0.00000
      7      28.3559      0.00000
      8      33.3599      0.00000

 k-point    29 :      -0.3500    0.3500    0.1500
  band No.  band energies     occupation 
      1       4.5258      2.00000
      2       7.8779      2.00000
      3       8.0292      2.00000
      4      11.9994     -0.00000
      5      16.0388     -0.00000
      6      16.6684      0.00000
      7      27.1252      0.00000
      8      32.2715      0.00000

 k-point    30 :      -0.2500    0.3500    0.1500
  band No.  band energies     occupation 
      1       5.3474      2.00000
      2       6.6227      2.00000
      3       9.2894      2.00000
      4      11.0727      1.17825
      5      14.6966     -0.00000
      6      16.7465      0.00000
      7      27.6992      0.00000
      8      34.4624      0.00000

 k-point    31 :      -0.4500    0.4500    0.1500
  band No.  band energies     occupation 
      1       4.0220      2.00000
      2       7.5931      2.00000
      3       8.8116      2.00000
      4      11.8313     -0.00000
      5      18.9002      0.00000
      6      19.1175      0.00000
      7      26.6685      0.00000
      8      29.3200      0.00000

 k-point    32 :      -0.3500    0.4500    0.1500
  band No.  band energies     occupation 
      1       5.0591      2.00000
      2       6.6979      2.00000
      3       8.7081      2.00000
      4      12.0872     -0.00000
      5      16.2536     -0.00000
      6      19.8763      0.00000
      7      27.1783      0.00000
      8      31.9543      0.00000

 k-point    33 :      -0.4500   -0.4500    0.1500
  band No.  band energies     occupation 
      1       4.6920      2.00000
      2       7.5075      2.00000
      3       7.8920      2.00000
      4      12.1248     -0.00000
      5      17.8720      0.00000
      6      22.5076      0.00000
      7      25.2824      0.00000
      8      29.9421      0.00000

 k-point    34 :      -0.3500   -0.4500    0.1500
  band No.  band energies     occupation 
      1       5.7713      2.00000
      2       6.1318      2.00000
      3       7.6297      2.00000
      4      14.0790     -0.00000
      5      16.0106     -0.00000
      6      23.8355      0.00000
      7      24.9478      0.00000
      8      29.1080      0.00000

 k-point    35 :       0.2500    0.2500    0.2500
  band No.  band energies     occupation 
      1       7.6108      2.00000
      2       7.6109      2.00000
      3       7.6109      2.00000
      4      15.7386     -0.00000
      5      15.7386     -0.00000
      6      20.9875      0.00000
      7      27.0483      0.00000
      8      27.0483      0.00000

 k-point    36 :      -0.2500    0.2500    0.2500
  band No.  band energies     occupation 
      1       5.5436      2.00000
      2       6.6981      2.00000
      3      10.4097      2.00001
      4      10.4098      2.00001
      5      12.8733     -0.00000
      6      16.2918     -0.00000
      7      28.3010      0.00000
      8      36.1765      0.00000

 k-point    37 :      -0.3500    0.3500    0.2500
  band No.  band energies     occupation 
      1       5.2679      2.00000
      2       6.0161      2.00000
      3      10.4618      2.00007
      4      11.4387     -0.03499
      5      15.5070     -0.00000
      6      17.1324      0.00000
      7      29.1848      0.00000
      8      33.5749      0.00000

 k-point    38 :      -0.4500    0.4500    0.2500
  band No.  band energies     occupation 
      1       4.5000      2.00000
      2       6.1104      2.00000
      3      10.1762      2.00000
      4      11.4180     -0.04422
      5      18.6053      0.00000
      6      20.3895      0.00000
      7      26.7763      0.00000
      8      29.8763      0.00000

 k-point    39 :      -0.3500    0.4500    0.2500
  band No.  band energies     occupation 
      1       4.6160      2.00000
      2       5.3795      2.00000
      3      10.3926      2.00001
      4      13.3300     -0.00000
      5      16.4284     -0.00000
      6      20.1110      0.00000
      7      27.7524      0.00000
      8      30.2753      0.00000

 k-point    40 :      -0.4500   -0.4500    0.2500
  band No.  band energies     occupation 
      1       4.4106      2.00000
      2       5.0535      2.00000
      3      10.0954      2.00000
      4      14.1562     -0.00000
      5      17.5875      0.00000
      6      23.6605      0.00000
      7      24.5606      0.00000
      8      27.6105      0.00000

 k-point    41 :      -0.3500    0.3500    0.3500
  band No.  band energies     occupation 
      1       4.2070      2.00000
      2       5.0503      2.00000
      3      13.0532     -0.00000
      4      13.0532     -0.00000
      5      15.7384     -0.00000
      6      17.7263      0.00000
      7      30.5013      0.00000
      8      30.5014      0.00000

 k-point    42 :      -0.4500    0.4500    0.3500
  band No.  band energies     occupation 
      1       3.6292      2.00000
      2       4.1599      2.00000
      3      13.6545     -0.00000
      4      13.9644     -0.00000
      5      18.1461      0.00000
      6      20.7320      0.00000
      7      26.0725      0.00000
      8      27.1492      0.00000

 k-point    43 :      -0.4500   -0.4500    0.3500
  band No.  band energies     occupation 
      1       3.4663      2.00000
      2       3.4663      2.00000
      3      13.7443     -0.00000
      4      17.2160      0.00000
      5      17.2160      0.00000
      6      23.9713      0.00000
      7      23.9714      0.00000
      8      24.0932      0.00000

 k-point    44 :      -0.4500    0.4500    0.4500
  band No.  band energies     occupation 
      1       2.9182      2.00000
      2       3.0724      2.00000
      3      17.0662      0.00000
      4      17.0662      0.00000
      5      18.1061      0.00000
      6      21.3889      0.00000
      7      23.9875      0.00000
      8      23.9875      0.00000


--------------------------------------------------------------------------------------------------------


 soft charge-density along one line, spin component           1
         0         1         2         3         4         5         6         7         8         9
 total charge-density along one line
 
 pseudopotential strength for first ion, spin component:           1
 -6.104   0.000   0.000   0.000   0.000   0.000   0.000   0.000  -0.000   0.000   0.187   0.000   0.000   0.000   0.000   0.000
  0.000   0.000  -6.104   0.000  -0.000   0.000   0.000   0.000   0.000   0.000   0.000   0.000   0.187   0.000  -0.000   0.000
  0.000   0.000  -0.000   0.000  -6.119   0.000  -0.000   0.000  -0.000   0.000   0.000   0.000  -0.000   0.000   0.187   0.000
  0.000   0.000   0.000   0.000  -0.000   0.000  -6.104   0.000  -0.000   0.000   0.000   0.000   0.000   0.000  -0.000   0.000
 -0.000   0.000   0.000   0.000  -0.000   0.000  -0.000   0.000  -6.119   0.000  -0.000   0.000   0.000   0.000  -0.000   0.000
  0.187   0.000   0.000   0.000   0.000   0.000   0.000   0.000  -0.000   0.000   0.089   0.000  -0.000   0.000  -0.000   0.000
  0.000   0.000   0.187   0.000  -0.000   0.000   0.000   0.000   0.000   0.000  -0.000   0.000   0.089   0.000   0.000   0.000
  0.000   0.000  -0.000   0.000   0.187   0.000  -0.000   0.000  -0.000   0.000  -0.000   0.000   0.000   0.000   0.089   0.000
  0.000   0.000   0.000   0.000  -0.000   0.000   0.187   0.000  -0.000   0.000  -0.000   0.000  -0.000   0.000   0.000   0.000
 -0.000   0.000   0.000   0.000  -0.000   0.000  -0.000   0.000   0.187   0.000   0.000   0.000  -0.000   0.000  -0.000   0.000
 -0.000   0.000  -0.000   0.000   0.000   0.000  -0.000   0.000  -0.000   0.000  -0.000   0.000  -0.000   0.000   0.000   0.000
  0.000   0.000   0.000   0.000  -0.000   0.000   0.000   0.000   0.000   0.000   0.000   0.000   0.000   0.000  -0.000   0.000
 -0.000   0.000   0.000   0.000  -0.000   0.000  -0.000   0.000  -0.000   0.000  -0.000   0.000   0.000   0.000   0.000   0.000
 -0.000   0.000  -0.000   0.000   0.000   0.000  -0.000   0.000   0.000   0.000   0.000   0.000   0.000   0.000   0.000   0.000
  0.000   0.000  -0.000   0.000  -0.000   0.000   0.000   0.000  -0.000   0.000  -0.000   0.000   0.000   0.000   0.000   0.000
  0.000   0.000  -0.000   0.000   0.000   0.000   0.000   0.000   0.000   0.000   0.000   0.000  -0.000   0.000  -0.000   0.000
  0.000   0.000   0.000   0.000  -0.000   0.000   0.000   0.000  -0.000   0.000  -0.000   0.000  -0.000   0.000  -0.000   0.000
 -0.000   0.000   0.000   0.000   0.000   0.000  -0.000   0.000   0.000   0.000   0.000   0.000  -0.000   0.000  -0.000   0.000
 total augmentation occupancy for first ion, spin component:           1
  1.154   0.000   0.000   0.000  -0.000  -0.972  -0.000  -0.000  -0.000   0.000   0.000  -0.000   0.000   0.000   0.000   0.000
 -0.000   1.154  -0.000  -0.000   0.000   0.000  -0.972  -0.000  -0.000   0.000   0.000   0.000   0.000   0.000   0.000   0.000
  0.000   0.000   0.801  -0.000   0.000   0.000   0.000  -0.943   0.000   0.000   0.000   0.000   0.000   0.000   0.000   0.000
  0.000   0.000   0.000   1.154   0.000   0.000  -0.000  -0.000  -0.972   0.000   0.000   0.000   0.000   0.000   0.000   0.000
  0.000   0.000   0.000  -0.000   0.801  -0.000   0.000   0.000  -0.000  -0.943   0.000   0.000   0.000   0.000   0.000   0.000
 -0.972  -0.000   0.000   0.000  -0.000   1.058   0.000   0.000   0.000  -0.000   0.000   0.000   0.000   0.000   0.000   0.000
 -0.000  -0.972   0.000  -0.000  -0.000  -0.000   1.058   0.000   0.000   0.000   0.000  -0.000   0.000   0.000   0.000   0.000
  0.000  -0.000  -0.943   0.000   0.000  -0.000   0.000   1.303   0.000   0.000  -0.000   0.000   0.000   0.000   0.000   0.000
 -0.000   0.000  -0.000  -0.972  -0.000   0.000   0.000   0.000   1.058  -0.000   0.000  -0.000   0.000   0.000   0.000   0.000
 -0.000   0.000   0.000  -0.000  -0.943  -0.000   0.000   0.000   0.000   1.303   0.000   0.000   0.000   0.000   0.000   0.000
  0.000  -0.000   0.000  -0.000   0.000   0.000  -0.000  -0.000   0.000   0.000   1.739  -0.428   0.000   0.000   0.000   0.000
 -0.000   0.000   0.000   0.000   0.000   0.000   0.000   0.000   0.000   0.000  -0.428   0.135   0.000   0.000   0.000   0.000
  0.000   0.000   0.000   0.000   0.000   0.000   0.000   0.000   0.000   0.000   0.000   0.000   0.394   0.000   0.000  -0.020
  0.000   0.000   0.000   0.000   0.000   0.000   0.000   0.000   0.000   0.000   0.000   0.000   0.000   0.394   0.000   0.000
  0.000   0.000   0.000   0.000   0.000   0.000   0.000   0.000   0.000   0.000   0.000   0.000   0.000   0.000   0.394   0.000
  0.000   0.000   0.000   0.000   0.000   0.000   0.000   0.000   0.000   0.000   0.000   0.000  -0.020  -0.000   0.000   0.001
  0.000   0.000   0.000   0.000   0.000   0.000   0.000   0.000   0.000   0.000   0.000   0.000   0.000  -0.020   0.000   0.000
  0.000   0.000   0.000   0.000   0.000   0.000   0.000   0.000   0.000   0.000   0.000   0.000   0.000  -0.000  -0.020   0.000


------------------------ aborting loop because EDIFF is reached ----------------------------------------


    CHARGE:  cpu time    0.0013: real time    0.0013
    FORLOC:  cpu time    0.0001: real time    0.0001
    FORNL :  cpu time    0.0020: real time    0.0020
    STRESS:  cpu time    0.0127: real time    0.0127
    FORCOR:  cpu time    0.0003: real time    0.0004
    FORHAR:  cpu time    0.0004: real time    0.0003
    MIXING:  cpu time    0.0001: real time    0.0001
    OFIELD:  cpu time    0.0000: real time    0.0000

  FORCE on cell =-STRESS in cart. coord.  units (eV):
  Direction    XX          YY          ZZ          XY          YZ          ZX
  --------------------------------------------------------------------------------------
  Alpha Z    57.24150    57.24150    57.24150
  Ewald    -108.42245  -108.42245  -108.42245     0.00000    -0.00000    -0.00000
  Hartree     0.38412     0.38412     0.38412    -0.00000    -0.00000    -0.00000
  E(xc)     -30.07857   -30.07857   -30.07857    -0.00000    -0.00000    -0.00000
  Local       7.76173     7.76173     7.76173    -0.00003    -0.00003    -0.00003
  n-local    -9.07717    -7.25463    -7.07072     2.67772    -2.56788    -4.65420
  augment     5.20800     5.20800     5.20800    -0.00000    -0.00000    -0.00000
  Kinetic    82.52595    83.98790    88.45877     0.45289     2.96757     1.41231
  Fock        0.00000     0.00000     0.00000     0.00000     0.00000     0.00000
  -------------------------------------------------------------------------------------
  Total       9.28436     9.28436     9.28436     0.00000     0.00000     0.00000
  in kB    1219.82736  1219.82736  1219.82736     0.00000     0.00000     0.00000
  external pressure =     1219.83 kB  Pullay stress =        0.00 kB


 VOLUME and BASIS-vectors are now :
 -----------------------------------------------------------------------------
  energy-cutoff  :      224.00
  volume of cell :       12.19
      direct lattice vectors                 reciprocal lattice vectors
    -1.450000000  1.450000000  1.450000000     0.000000000  0.344827586  0.344827586
     1.450000000 -1.450000000  1.450000000     0.344827586  0.000000000  0.344827586
     1.450000000  1.450000000 -1.450000000     0.344827586  0.344827586  0.000000000

  length of vectors
     2.511473671  2.511473671  2.511473671     0.487659849  0.487659849  0.487659849


 FORCES acting on ions
    electron-ion (+dipol)            ewald-force                    non-local-force                 convergence-correction
 -----------------------------------------------------------------------------------------------
   0.667E-14 0.554E-14 0.649E-14   0.327E-15 0.252E-15 -.409E-15   -.414E-24 0.000E+00 0.000E+00   0.103E-14 0.143E-14 0.110E-14
 -----------------------------------------------------------------------------------------------
   0.667E-14 0.554E-14 0.649E-14   0.327E-15 0.252E-15 -.409E-15   -.414E-24 0.000E+00 0.000E+00   0.103E-14 0.143E-14 0.110E-14
 
 
 POSITION                                       TOTAL-FORCE (eV/Angst)
 -----------------------------------------------------------------------------------
      0.00000      0.00000      0.00000         0.000000     -0.000000      0.000000
 -----------------------------------------------------------------------------------
    total drift:                                0.000000      0.000000      0.000000


--------------------------------------------------------------------------------------------------------



  FREE ENERGIE OF THE ION-ELECTRON SYSTEM (eV)
  ---------------------------------------------------
  free  energy   TOTEN  =       -13.22197047 eV

  energy  without entropy=      -13.22063463  energy(sigma->0) =      -13.22152519
 


--------------------------------------------------------------------------------------------------------


    POTLOK:  cpu time    0.0020: real time    0.0021


--------------------------------------------------------------------------------------------------------


 writing wavefunctions
     LOOP+:  cpu time    0.3596: real time    0.3670
    4ORBIT:  cpu time    0.0000: real time    0.0000

 total amount of memory used by VASP MPI-rank0    31183. kBytes
=======================================================================

   base      :      30000. kBytes
   nonl-proj :        660. kBytes
   fftplans  :        142. kBytes
   grid      :        192. kBytes
   one-center:         15. kBytes
   wavefun   :        174. kBytes
 
  
  
 General timing and accounting informations for this job:
 ========================================================
  
                  Total CPU time used (sec):        0.540
                            User time (sec):        0.437
                          System time (sec):        0.102
                         Elapsed time (sec):        0.720
  
                   Maximum memory used (kb):       56564.
                   Average memory used (kb):           0.
  
                          Minor page faults:         7299
                          Major page faults:            0
                 Voluntary context switches:          655
