<?xml version="1.0" encoding="ISO-8859-1"?>
<modeling>
 <generator>
  <i name="program" type="string">vasp </i>
  <i name="version" type="string">5.4.4.18Apr17-6-g9f103f2a35  </i>
  <i name="subversion" type="string">(build Jul 01 2019 03:25:34) complex            parallel </i>
  <i name="platform" type="string">LinuxIFC </i>
  <i name="date" type="string">2020 07 08 </i>
  <i name="time" type="string">19:51:22 </i>
 </generator>
 <incar>
  <i type="string" name="SYSTEM"> BCC W</i>
  <i type="string" name="PREC">normal</i>
  <i name="EDIFF">      0.00010000</i>
  <i name="ENCUT">    224.00000000</i>
  <v type="int" name="KPOINT_BSE">    -1     0     0     0</v>
 </incar>
 <structure name="primitive_cell" >
  <crystal>
   <varray name="basis" >
    <v>      -1.45000000       1.45000000       1.45000000 </v>
    <v>       1.45000000      -1.45000000       1.45000000 </v>
    <v>       1.45000000       1.45000000      -1.45000000 </v>
   </varray>
   <i name="volume">     12.19450000 </i>
   <varray name="rec_basis" >
    <v>       0.00000000       0.34482759       0.34482759 </v>
    <v>       0.34482759       0.00000000       0.34482759 </v>
    <v>       0.34482759       0.34482759       0.00000000 </v>
   </varray>
  </crystal>
  <varray name="positions" >
   <v>       0.00000000       0.00000000       0.00000000 </v>
  </varray>
 </structure>
 <varray name="primitive_index" >
  <v type="int" >        1 </v>
 </varray>
 <kpoints>
  <generation param="Monkhorst-Pack">
   <v type="int" name="divisions">      10       10       10 </v>
   <v name="usershift">      0.00000000       0.00000000       0.00000000 </v>
   <v name="genvec1">      0.10000000       0.00000000       0.00000000 </v>
   <v name="genvec2">      0.00000000       0.10000000       0.00000000 </v>
   <v name="genvec3">      0.00000000       0.00000000       0.10000000 </v>
   <v name="shift">      0.50000000       0.50000000       0.50000000 </v>
  </generation>
  <varray name="kpointlist" >
   <v>       0.05000000       0.05000000       0.05000000 </v>
   <v>       0.15000000       0.05000000       0.05000000 </v>
   <v>       0.25000000       0.05000000       0.05000000 </v>
   <v>       0.35000000       0.05000000       0.05000000 </v>
   <v>       0.45000000       0.05000000       0.05000000 </v>
   <v>      -0.05000000       0.05000000       0.05000000 </v>
   <v>       0.15000000       0.15000000       0.05000000 </v>
   <v>       0.25000000       0.15000000       0.05000000 </v>
   <v>       0.35000000       0.15000000       0.05000000 </v>
   <v>      -0.15000000       0.15000000       0.05000000 </v>
   <v>       0.25000000       0.25000000       0.05000000 </v>
   <v>       0.35000000       0.25000000       0.05000000 </v>
   <v>      -0.25000000       0.25000000       0.05000000 </v>
   <v>      -0.15000000       0.25000000       0.05000000 </v>
   <v>      -0.35000000       0.35000000       0.05000000 </v>
   <v>      -0.25000000       0.35000000       0.05000000 </v>
   <v>      -0.45000000       0.45000000       0.05000000 </v>
   <v>      -0.35000000       0.45000000       0.05000000 </v>
   <v>      -0.25000000       0.45000000       0.05000000 </v>
   <v>      -0.45000000      -0.45000000       0.05000000 </v>
   <v>      -0.35000000      -0.45000000       0.05000000 </v>
   <v>      -0.35000000      -0.35000000       0.05000000 </v>
   <v>       0.15000000       0.15000000       0.15000000 </v>
   <v>       0.25000000       0.15000000       0.15000000 </v>
   <v>       0.35000000       0.15000000       0.15000000 </v>
   <v>      -0.15000000       0.15000000       0.15000000 </v>
   <v>       0.25000000       0.25000000       0.15000000 </v>
   <v>      -0.25000000       0.25000000       0.15000000 </v>
   <v>      -0.35000000       0.35000000       0.15000000 </v>
   <v>      -0.25000000       0.35000000       0.15000000 </v>
   <v>      -0.45000000       0.45000000       0.15000000 </v>
   <v>      -0.35000000       0.45000000       0.15000000 </v>
   <v>      -0.45000000      -0.45000000       0.15000000 </v>
   <v>      -0.35000000      -0.45000000       0.15000000 </v>
   <v>       0.25000000       0.25000000       0.25000000 </v>
   <v>      -0.25000000       0.25000000       0.25000000 </v>
   <v>      -0.35000000       0.35000000       0.25000000 </v>
   <v>      -0.45000000       0.45000000       0.25000000 </v>
   <v>      -0.35000000       0.45000000       0.25000000 </v>
   <v>      -0.45000000      -0.45000000       0.25000000 </v>
   <v>      -0.35000000       0.35000000       0.35000000 </v>
   <v>      -0.45000000       0.45000000       0.35000000 </v>
   <v>      -0.45000000      -0.45000000       0.35000000 </v>
   <v>      -0.45000000       0.45000000       0.45000000 </v>
  </varray>
  <varray name="weights" >
   <v>       0.00800000 </v>
   <v>       0.02400000 </v>
   <v>       0.02400000 </v>
   <v>       0.02400000 </v>
   <v>       0.01200000 </v>
   <v>       0.00600000 </v>
   <v>       0.02400000 </v>
   <v>       0.04800000 </v>
   <v>       0.04800000 </v>
   <v>       0.02400000 </v>
   <v>       0.02400000 </v>
   <v>       0.02400000 </v>
   <v>       0.02400000 </v>
   <v>       0.02400000 </v>
   <v>       0.02400000 </v>
   <v>       0.04800000 </v>
   <v>       0.02400000 </v>
   <v>       0.04800000 </v>
   <v>       0.02400000 </v>
   <v>       0.02400000 </v>
   <v>       0.04800000 </v>
   <v>       0.00800000 </v>
   <v>       0.00800000 </v>
   <v>       0.02400000 </v>
   <v>       0.01200000 </v>
   <v>       0.00600000 </v>
   <v>       0.02400000 </v>
   <v>       0.02400000 </v>
   <v>       0.02400000 </v>
   <v>       0.02400000 </v>
   <v>       0.02400000 </v>
   <v>       0.04800000 </v>
   <v>       0.02400000 </v>
   <v>       0.02400000 </v>
   <v>       0.00200000 </v>
   <v>       0.00600000 </v>
   <v>       0.02400000 </v>
   <v>       0.02400000 </v>
   <v>       0.02400000 </v>
   <v>       0.02400000 </v>
   <v>       0.00600000 </v>
   <v>       0.02400000 </v>
   <v>       0.00800000 </v>
   <v>       0.00600000 </v>
  </varray>
 </kpoints>
 <parameters>
  <separator name="general" >
   <i type="string" name="SYSTEM">BCC W</i>
   <i type="logical" name="LCOMPAT"> F  </i>
  </separator>
  <separator name="electronic" >
   <i type="string" name="PREC">normal</i>
   <i name="ENMAX">    224.00000000</i>
   <i name="ENAUG">    373.43800000</i>
   <i name="EDIFF">      0.00010000</i>
   <i type="int" name="IALGO">    38</i>
   <i type="int" name="IWAVPR">    10</i>
   <i type="int" name="NBANDS">     8</i>
   <i name="NELECT">      6.00000000</i>
   <i type="int" name="TURBO">     0</i>
   <i type="int" name="IRESTART">     0</i>
   <i type="int" name="NREBOOT">     0</i>
   <i type="int" name="NMIN">     0</i>
   <i name="EREF">      0.00000000</i>
   <separator name="electronic smearing" >
    <i type="int" name="ISMEAR">     1</i>
    <i name="SIGMA">      0.20000000</i>
    <i name="KSPACING">      0.50000000</i>
    <i type="logical" name="KGAMMA"> T  </i>
   </separator>
   <separator name="electronic projectors" >
    <i type="logical" name="LREAL"> F  </i>
    <v name="ROPT">      0.00000000</v>
    <i type="int" name="LMAXPAW">  -100</i>
    <i type="int" name="LMAXMIX">     2</i>
    <i type="logical" name="NLSPLINE"> F  </i>
   </separator>
   <separator name="electronic startup" >
    <i type="int" name="ISTART">     0</i>
    <i type="int" name="ICHARG">     2</i>
    <i type="int" name="INIWAV">     1</i>
   </separator>
   <separator name="electronic spin" >
    <i type="int" name="ISPIN">     1</i>
    <i type="logical" name="LNONCOLLINEAR"> F  </i>
    <v name="MAGMOM">      1.00000000</v>
    <i name="NUPDOWN">     -1.00000000</i>
    <i type="logical" name="LSORBIT"> F  </i>
    <v name="SAXIS">      0.00000000      0.00000000      1.00000000</v>
    <i type="logical" name="LSPIRAL"> F  </i>
    <v name="QSPIRAL">      0.00000000      0.00000000      0.00000000</v>
    <i type="logical" name="LZEROZ"> F  </i>
   </separator>
   <separator name="electronic exchange-correlation" >
    <i type="logical" name="LASPH"> F  </i>
    <i type="logical" name="LMETAGGA"> F  </i>
   </separator>
   <separator name="electronic convergence" >
    <i type="int" name="NELM">    60</i>
    <i type="int" name="NELMDL">    -5</i>
    <i type="int" name="NELMIN">     2</i>
    <i name="ENINI">    224.00000000</i>
    <separator name="electronic convergence detail" >
     <i type="logical" name="LDIAG"> T  </i>
     <i type="logical" name="LSUBROT"> F  </i>
     <i name="WEIMIN">      0.00000000</i>
     <i name="EBREAK">      0.00000313</i>
     <i name="DEPER">      0.30000000</i>
     <i type="int" name="NRMM">     4</i>
     <i name="TIME">      0.40000000</i>
    </separator>
   </separator>
   <separator name="electronic mixer" >
    <i name="AMIX">      0.40000000</i>
    <i name="BMIX">      1.00000000</i>
    <i name="AMIN">      0.10000000</i>
    <i name="AMIX_MAG">      1.60000000</i>
    <i name="BMIX_MAG">      1.00000000</i>
    <separator name="electronic mixer details" >
     <i type="int" name="IMIX">     4</i>
     <i type="logical" name="MIXFIRST"> F  </i>
     <i type="int" name="MAXMIX">   -45</i>
     <i name="WC">    100.00000000</i>
     <i type="int" name="INIMIX">     1</i>
     <i type="int" name="MIXPRE">     1</i>
     <i type="int" name="MREMOVE">     5</i>
    </separator>
   </separator>
   <separator name="electronic dipolcorrection" >
    <i type="logical" name="LDIPOL"> F  </i>
    <i type="logical" name="LMONO"> F  </i>
    <i type="int" name="IDIPOL">     0</i>
    <i name="EPSILON">      1.00000000</i>
    <v name="DIPOL">   -100.00000000   -100.00000000   -100.00000000</v>
    <i name="EFIELD">      0.00000000</i>
   </separator>
  </separator>
  <separator name="grids" >
   <i type="int" name="NGX">    10</i>
   <i type="int" name="NGY">    10</i>
   <i type="int" name="NGZ">    10</i>
   <i type="int" name="NGXF">    20</i>
   <i type="int" name="NGYF">    20</i>
   <i type="int" name="NGZF">    20</i>
   <i type="logical" name="ADDGRID"> F  </i>
  </separator>
  <separator name="ionic" >
   <i type="int" name="NSW">     0</i>
   <i type="int" name="IBRION">    -1</i>
   <i type="int" name="MDALGO">     0</i>
   <i type="int" name="ISIF">     2</i>
   <i name="PSTRESS">      0.00000000</i>
   <i name="EDIFFG">      0.00100000</i>
   <i type="int" name="NFREE">     0</i>
   <i name="POTIM">      0.50000000</i>
   <i name="SMASS">     -3.00000000</i>
   <i name="SCALEE">      1.00000000</i>
  </separator>
  <separator name="ionic md" >
   <i name="TEBEG">      0.00010000</i>
   <i name="TEEND">      0.00010000</i>
   <i type="int" name="NBLOCK">     1</i>
   <i type="int" name="KBLOCK">     1</i>
   <i type="int" name="NPACO">   256</i>
   <i name="APACO">     16.00000000</i>
  </separator>
  <separator name="symmetry" >
   <i type="int" name="ISYM">     2</i>
   <i name="SYMPREC">      0.00001000</i>
  </separator>
  <separator name="dos" >
   <i type="int" name="LORBIT">     0</i>
   <v name="RWIGS">     -1.00000000</v>
   <i type="int" name="NEDOS">   301</i>
   <i name="EMIN">     10.00000000</i>
   <i name="EMAX">    -10.00000000</i>
   <i name="EFERMI">      0.00000000</i>
  </separator>
  <separator name="writing" >
   <i type="int" name="NWRITE">     2</i>
   <i type="logical" name="LWAVE"> T  </i>
   <i type="logical" name="LDOWNSAMPLE"> F  </i>
   <i type="logical" name="LCHARG"> T  </i>
   <i type="logical" name="LPARD"> F  </i>
   <i type="logical" name="LVTOT"> F  </i>
   <i type="logical" name="LVHAR"> F  </i>
   <i type="logical" name="LELF"> F  </i>
   <i type="logical" name="LOPTICS"> F  </i>
   <v name="STM">      0.00000000      0.00000000      0.00000000      0.00000000      0.00000000      0.00000000      0.00000000</v>
  </separator>
  <separator name="performance" >
   <i type="int" name="NPAR">     4</i>
   <i type="int" name="NSIM">     4</i>
   <i type="int" name="NBLK">    -1</i>
   <i type="logical" name="LPLANE"> T  </i>
   <i type="logical" name="LSCALAPACK"> T  </i>
   <i type="logical" name="LSCAAWARE"> F  </i>
   <i type="logical" name="LSCALU"> F  </i>
   <i type="logical" name="LASYNC"> F  </i>
   <i type="logical" name="LORBITALREAL"> F  </i>
  </separator>
  <separator name="miscellaneous" >
   <i type="int" name="IDIOT">     3</i>
   <i type="int" name="ISPECIAL">     0</i>
   <i type="logical" name="LMUSIC"> F  </i>
   <v name="POMASS">    183.85000000</v>
   <v name="DARWINR">      0.00000000</v>
   <v name="DARWINV">      1.00000000</v>
   <i type="logical" name="LCORR"> T  </i>
  </separator>
  <i type="logical" name="GGA_COMPAT"> T  </i>
  <i type="logical" name="LBERRY"> F  </i>
  <i type="int" name="ICORELEVEL">     0</i>
  <i type="logical" name="LDAU"> F  </i>
  <i type="int" name="I_CONSTRAINED_M">     0</i>
  <separator name="electronic exchange-correlation" >
   <i type="string" name="GGA">--</i>
   <i type="int" name="VOSKOWN">     0</i>
   <i type="logical" name="LHFCALC"> F  </i>
   <i type="string" name="PRECFOCK"></i>
   <i type="logical" name="LSYMGRAD"> F  </i>
   <i type="logical" name="LHFONE"> F  </i>
   <i type="logical" name="LRHFCALC"> F  </i>
   <i type="logical" name="LTHOMAS"> F  </i>
   <i type="logical" name="LMODELHF"> F  </i>
   <i name="ENCUT4O">     -1.00000000</i>
   <i type="int" name="EXXOEP">     0</i>
   <i type="int" name="FOURORBIT">     0</i>
   <i name="AEXX">      0.00000000</i>
   <i name="HFALPHA">      0.00000000</i>
   <i name="MCALPHA">      0.00000000</i>
   <i name="ALDAX">      1.00000000</i>
   <i name="AGGAX">      1.00000000</i>
   <i name="ALDAC">      1.00000000</i>
   <i name="AGGAC">      1.00000000</i>
   <i type="int" name="NKREDX">     1</i>
   <i type="int" name="NKREDY">     1</i>
   <i type="int" name="NKREDZ">     1</i>
   <i type="logical" name="SHIFTRED"> F  </i>
   <i type="logical" name="ODDONLY"> F  </i>
   <i type="logical" name="EVENONLY"> F  </i>
   <i type="int" name="LMAXFOCK">     0</i>
   <i type="int" name="NMAXFOCKAE">     0</i>
   <i type="logical" name="LFOCKAEDFT"> F  </i>
   <i name="HFSCREEN">      0.00000000</i>
   <i name="HFSCREENC">      0.00000000</i>
   <i type="int" name="NBANDSGWLOW">     0</i>
  </separator>
  <separator name="vdW DFT" >
   <i type="logical" name="LUSE_VDW"> F  </i>
   <i name="Zab_VDW">     -0.84910000</i>
   <i name="PARAM1">      0.12340000</i>
   <i name="PARAM2">      1.00000000</i>
   <i name="PARAM3">      0.00000000</i>
  </separator>
  <separator name="model GW" >
   <i type="int" name="MODEL_GW">     0</i>
   <i name="MODEL_EPS0">      7.31670000</i>
   <i name="MODEL_ALPHA">      1.00000000</i>
  </separator>
  <separator name="linear response parameters" >
   <i type="logical" name="LEPSILON"> F  </i>
   <i type="logical" name="LRPA"> F  </i>
   <i type="logical" name="LNABLA"> F  </i>
   <i type="logical" name="LVEL"> F  </i>
   <i type="int" name="KINTER">     0</i>
   <i name="CSHIFT">      0.10000000</i>
   <i name="OMEGAMAX">     -1.00000000</i>
   <i name="DEG_THRESHOLD">      0.00200000</i>
   <i name="RTIME">     -0.10000000</i>
   <i name="WPLASMAI">      0.00000000</i>
   <v name="DFIELD">      0.00000000      0.00000000      0.00000000</v>
   <v name="WPLASMA">      0.00000000      0.00000000      0.00000000      0.00000000      0.00000000      0.00000000      0.00000000      0.00000000      0.00000000</v>
  </separator>
  <separator name="orbital magnetization" >
   <i type="logical" name="NUCIND"> F  </i>
   <v name="MAGPOS">      0.00000000      0.00000000      0.00000000</v>
   <i type="logical" name="LNICSALL"> T  </i>
   <i type="logical" name="ORBITALMAG"> F  </i>
   <i type="logical" name="LMAGBLOCH"> F  </i>
   <i type="logical" name="LCHIMAG"> F  </i>
   <i type="logical" name="LGAUGE"> T  </i>
   <i type="int" name="MAGATOM">     0</i>
   <v name="MAGDIPOL">      0.00000000      0.00000000      0.00000000</v>
   <v name="AVECCONST">      0.00000000      0.00000000      0.00000000</v>
  </separator>
  <separator name="response functions" >
   <i type="logical" name="LADDER"> F  </i>
   <i type="logical" name="LRPAFORCE"> F  </i>
   <i type="logical" name="LFXC"> F  </i>
   <i type="logical" name="LHARTREE"> T  </i>
   <i type="int" name="IBSE">     0</i>
   <v type="int" name="KPOINT">    -1     0     0     0</v>
   <i type="logical" name="LTCTE"> F  </i>
   <i type="logical" name="LTETE"> F  </i>
   <i type="logical" name="LTRIPLET"> F  </i>
   <i type="logical" name="LFXCEPS"> F  </i>
   <i type="logical" name="LFXHEG"> F  </i>
   <i type="int" name="NATURALO">     2</i>
   <i type="logical" name="L2ORDER"> F  </i>
   <i type="logical" name="LMP2LT"> F  </i>
   <i type="logical" name="LUSEW"> F  </i>
   <i name="ENCUTGW">     -2.00000000</i>
   <i name="ENCUTGWSOFT">     -2.00000000</i>
   <i name="ENCUTLF">     -1.00000000</i>
   <i type="int" name="LMAXMP2">    -1</i>
   <i name="SCISSOR">      0.00000000</i>
   <i type="int" name="NOMEGA">     0</i>
   <i type="int" name="NOMEGAR">     0</i>
   <i type="int" name="NBANDSGW">    -1</i>
   <i type="int" name="NBANDSO">    -1</i>
   <i type="int" name="NBANDSV">    -1</i>
   <i type="int" name="NELM">     1</i>
   <i type="int" name="NELMHF">     1</i>
   <i type="int" name="DIM">     3</i>
   <i type="int" name="ANTIRES">     0</i>
   <i name="OMEGAMAX">    -30.00000000</i>
   <i name="OMEGAMIN">    -30.00000000</i>
   <i name="OMEGATL">   -200.00000000</i>
   <i type="int" name="OMEGAGRID">   140</i>
   <i name="CSHIFT">     -0.10000000</i>
   <i type="logical" name="SELFENERGY"> F  </i>
   <i type="logical" name="LSPECTRAL"> F  </i>
   <i type="logical" name="LSPECTRALGW"> F  </i>
   <i type="logical" name="LSINGLES"> F  </i>
   <i type="logical" name="LFERMIGW"> F  </i>
   <i type="logical" name="ODDONLYGW"> F  </i>
   <i type="logical" name="EVENONLYGW"> F  </i>
   <i type="int" name="NKREDLFX">     1</i>
   <i type="int" name="NKREDLFY">     1</i>
   <i type="int" name="NKREDLFZ">     1</i>
   <i type="int" name="MAXMEM">  2800</i>
   <i type="int" name="TELESCOPE">     0</i>
   <i type="int" name="TAUPAR">     1</i>
   <i type="int" name="OMEGAPAR">    -1</i>
   <i name="LAMBDA">      1.00000000</i>
  </separator>
  <separator name="External order field" >
   <i name="OFIELD_KAPPA">      0.00000000</i>
   <v name="OFIELD_K">      0.00000000      0.00000000      0.00000000</v>
   <i name="OFIELD_Q6_NEAR">      0.00000000</i>
   <i name="OFIELD_Q6_FAR">      0.00000000</i>
   <i name="OFIELD_A">      0.00000000</i>
  </separator>
 </parameters>
 <atominfo>
  <atoms>       1 </atoms>
  <types>       1 </types>
  <array name="atoms" >
   <dimension dim="1">ion</dimension>
   <field type="string">element</field>
   <field type="int">atomtype</field>
   <set>
    <rc><c>W </c><c>   1</c></rc>
   </set>
  </array>
  <array name="atomtypes" >
   <dimension dim="1">type</dimension>
   <field type="int">atomspertype</field>
   <field type="string">element</field>
   <field>mass</field>
   <field>valence</field>
   <field type="string">pseudopotential</field>
   <set>
    <rc><c>   1</c><c>W </c><c>    183.85000000</c><c>      6.00000000</c><c> PAW W 19Jan2001                        </c></rc>
   </set>
  </array>
 </atominfo>
 <structure name="initialpos" >
  <crystal>
   <varray name="basis" >
    <v>      -1.45000000       1.45000000       1.45000000 </v>
    <v>       1.45000000      -1.45000000       1.45000000 </v>
    <v>       1.45000000       1.45000000      -1.45000000 </v>
   </varray>
   <i name="volume">     12.19450000 </i>
   <varray name="rec_basis" >
    <v>       0.00000000       0.34482759       0.34482759 </v>
    <v>       0.34482759       0.00000000       0.34482759 </v>
    <v>       0.34482759       0.34482759       0.00000000 </v>
   </varray>
  </crystal>
  <varray name="positions" >
   <v>       0.00000000       0.00000000       0.00000000 </v>
  </varray>
 </structure>
 <calculation>
  <scstep>
   <time name="dav">    0.04    0.04</time>
   <time name="total">    0.04    0.04</time>
   <energy>
    <i name="alphaZ">     57.24149576 </i>
    <i name="ewald">   -325.26736831 </i>
    <i name="hartreedc">     -3.28671591 </i>
    <i name="XCdc">    -46.88607238 </i>
    <i name="pawpsdc">    183.53490256 </i>
    <i name="pawaedc">   -125.80866524 </i>
    <i name="eentropy">     -0.00016817 </i>
    <i name="bandstr">     43.67202955 </i>
    <i name="atom">    206.50785835 </i>
    <i name="e_fr_energy">    -10.29270380 </i>
    <i name="e_wo_entrp">    -10.29253563 </i>
    <i name="e_0_energy">    -10.29264775 </i>
   </energy>
  </scstep>
  <scstep>
   <time name="dav">    0.03    0.03</time>
   <time name="total">    0.03    0.03</time>
   <energy>
    <i name="e_fr_energy">    -13.80658784 </i>
    <i name="e_wo_entrp">    -13.80783913 </i>
    <i name="e_0_energy">    -13.80700493 </i>
   </energy>
  </scstep>
  <scstep>
   <time name="dav">    0.04    0.04</time>
   <time name="total">    0.04    0.04</time>
   <energy>
    <i name="e_fr_energy">    -13.81651254 </i>
    <i name="e_wo_entrp">    -13.81763275 </i>
    <i name="e_0_energy">    -13.81688595 </i>
   </energy>
  </scstep>
  <scstep>
   <time name="dav">    0.03    0.03</time>
   <time name="total">    0.03    0.03</time>
   <energy>
    <i name="e_fr_energy">    -13.81651510 </i>
    <i name="e_wo_entrp">    -13.81763530 </i>
    <i name="e_0_energy">    -13.81688850 </i>
   </energy>
  </scstep>
  <scstep>
   <time name="dav">    0.04    0.04</time>
   <time name="total">    0.04    0.05</time>
   <energy>
    <i name="e_fr_energy">    -13.81651510 </i>
    <i name="e_wo_entrp">    -13.81763530 </i>
    <i name="e_0_energy">    -13.81688850 </i>
   </energy>
  </scstep>
  <scstep>
   <time name="dav">    0.03    0.03</time>
   <time name="total">    0.03    0.03</time>
   <energy>
    <i name="e_fr_energy">    -13.41811121 </i>
    <i name="e_wo_entrp">    -13.41884843 </i>
    <i name="e_0_energy">    -13.41835695 </i>
   </energy>
  </scstep>
  <scstep>
   <time name="dav">    0.03    0.03</time>
   <time name="total">    0.03    0.03</time>
   <energy>
    <i name="e_fr_energy">    -13.22275093 </i>
    <i name="e_wo_entrp">    -13.22132607 </i>
    <i name="e_0_energy">    -13.22227597 </i>
   </energy>
  </scstep>
  <scstep>
   <time name="dav">    0.03    0.03</time>
   <time name="total">    0.03    0.03</time>
   <energy>
    <i name="e_fr_energy">    -13.22215586 </i>
    <i name="e_wo_entrp">    -13.22077329 </i>
    <i name="e_0_energy">    -13.22169500 </i>
   </energy>
  </scstep>
  <scstep>
   <time name="dav">    0.02    0.02</time>
   <time name="total">    0.03    0.03</time>
   <energy>
    <i name="e_fr_energy">    -13.22196748 </i>
    <i name="e_wo_entrp">    -13.22062867 </i>
    <i name="e_0_energy">    -13.22152121 </i>
   </energy>
  </scstep>
  <scstep>
   <time name="dav">    0.01    0.01</time>
   <time name="total">    0.02    0.02</time>
   <energy>
    <i name="alphaZ">     57.24149576 </i>
    <i name="ewald">   -325.26736831 </i>
    <i name="hartreedc">     -1.15304458 </i>
    <i name="XCdc">    -46.44490988 </i>
    <i name="pawpsdc">    316.78642652 </i>
    <i name="pawaedc">   -261.41792893 </i>
    <i name="eentropy">     -0.00133584 </i>
    <i name="bandstr">     40.52683645 </i>
    <i name="atom">    206.50785835 </i>
    <i name="e_fr_energy">    -13.22197047 </i>
    <i name="e_wo_entrp">    -13.22063463 </i>
    <i name="e_0_energy">    -13.22152519 </i>
   </energy>
  </scstep>
  <structure>
   <crystal>
    <varray name="basis" >
     <v>      -1.45000000       1.45000000       1.45000000 </v>
     <v>       1.45000000      -1.45000000       1.45000000 </v>
     <v>       1.45000000       1.45000000      -1.45000000 </v>
    </varray>
    <i name="volume">     12.19450000 </i>
    <varray name="rec_basis" >
     <v>       0.00000000       0.34482759       0.34482759 </v>
     <v>       0.34482759       0.00000000       0.34482759 </v>
     <v>       0.34482759       0.34482759       0.00000000 </v>
    </varray>
   </crystal>
   <varray name="positions" >
    <v>       0.00000000       0.00000000       0.00000000 </v>
   </varray>
  </structure>
  <varray name="forces" >
   <v>       0.00000000      -0.00000000       0.00000000 </v>
  </varray>
  <varray name="stress" >
   <v>    1219.82736468       0.00000000       0.00000000 </v>
   <v>       0.00000000    1219.82736468      -0.00000000 </v>
   <v>       0.00000000       0.00000000    1219.82736468 </v>
  </varray>
  <energy>
   <i name="e_fr_energy">    -13.22197047 </i>
   <i name="e_wo_entrp">    -13.22152519 </i>
   <i name="e_0_energy">     -0.00133584 </i>
  </energy>
  <time name="totalsc">    0.36    0.37</time>
  <eigenvalues>
   <array>
    <dimension dim="1">band</dimension>
    <dimension dim="2">kpoint</dimension>
    <dimension dim="3">spin</dimension>
    <field>eigene</field>
    <field>occ</field>
    <set>
     <set comment="spin 1">
      <set comment="kpoint 1">
       <r>    1.1669    1.0000 </r>
       <r>    8.7784    1.0000 </r>
       <r>    8.7784    1.0000 </r>
       <r>   10.5084    1.0001 </r>
       <r>   13.5568   -0.0000 </r>
       <r>   13.5568   -0.0000 </r>
       <r>   27.6803    0.0000 </r>
       <r>   29.3433    0.0000 </r>
      </set>
      <set comment="kpoint 2">
       <r>    2.6752    1.0000 </r>
       <r>    7.7976    1.0000 </r>
       <r>    8.2408    1.0000 </r>
       <r>   12.6412   -0.0000 </r>
       <r>   13.1358   -0.0000 </r>
       <r>   13.9835   -0.0000 </r>
       <r>   28.7692    0.0000 </r>
       <r>   31.1809    0.0000 </r>
      </set>
      <set comment="kpoint 3">
       <r>    3.7090    1.0000 </r>
       <r>    6.8633    1.0000 </r>
       <r>    8.7630    1.0000 </r>
       <r>   13.5625   -0.0000 </r>
       <r>   14.5124   -0.0000 </r>
       <r>   15.7552   -0.0000 </r>
       <r>   27.6275    0.0000 </r>
       <r>   30.8062    0.0000 </r>
      </set>
      <set comment="kpoint 4">
       <r>    3.4762    1.0000 </r>
       <r>    6.2283    1.0000 </r>
       <r>   11.1090    0.4360 </r>
       <r>   14.2374   -0.0000 </r>
       <r>   15.1374   -0.0000 </r>
       <r>   19.0139    0.0000 </r>
       <r>   25.3328    0.0000 </r>
       <r>   27.9406    0.0000 </r>
      </set>
      <set comment="kpoint 5">
       <r>    3.2513    1.0000 </r>
       <r>    6.0065    1.0000 </r>
       <r>   12.7903   -0.0000 </r>
       <r>   14.2252   -0.0000 </r>
       <r>   15.4571   -0.0000 </r>
       <r>   20.7095    0.0000 </r>
       <r>   24.3384    0.0000 </r>
       <r>   26.5120    0.0000 </r>
      </set>
      <set comment="kpoint 6">
       <r>    0.5560    1.0000 </r>
       <r>    9.2539    1.0000 </r>
       <r>    9.2539    1.0000 </r>
       <r>    9.4371    1.0000 </r>
       <r>   13.3303   -0.0000 </r>
       <r>   14.1292   -0.0000 </r>
       <r>   27.7027    0.0000 </r>
       <r>   27.7027    0.0000 </r>
      </set>
      <set comment="kpoint 7">
       <r>    4.1938    1.0000 </r>
       <r>    7.2243    1.0000 </r>
       <r>    7.3813    1.0000 </r>
       <r>   13.2533   -0.0000 </r>
       <r>   14.6286   -0.0000 </r>
       <r>   15.7445   -0.0000 </r>
       <r>   29.7100    0.0000 </r>
       <r>   30.0992    0.0000 </r>
      </set>
      <set comment="kpoint 8">
       <r>    4.6791    1.0000 </r>
       <r>    6.5905    1.0000 </r>
       <r>    8.5787    1.0000 </r>
       <r>   13.7842   -0.0000 </r>
       <r>   15.2399   -0.0000 </r>
       <r>   19.2292    0.0000 </r>
       <r>   27.1854    0.0000 </r>
       <r>   29.1565    0.0000 </r>
      </set>
      <set comment="kpoint 9">
       <r>    4.3484    1.0000 </r>
       <r>    6.2921    1.0000 </r>
       <r>   10.6391    1.0030 </r>
       <r>   14.3078   -0.0000 </r>
       <r>   15.6328   -0.0000 </r>
       <r>   21.9444    0.0000 </r>
       <r>   25.1214    0.0000 </r>
       <r>   26.4250    0.0000 </r>
      </set>
      <set comment="kpoint 10">
       <r>    1.7379    1.0000 </r>
       <r>    8.5742    1.0000 </r>
       <r>    9.0157    1.0000 </r>
       <r>   10.7127    1.0107 </r>
       <r>   12.3025   -0.0000 </r>
       <r>   14.4320   -0.0000 </r>
       <r>   28.7451    0.0000 </r>
       <r>   29.7799    0.0000 </r>
      </set>
      <set comment="kpoint 11">
       <r>    5.1676    1.0000 </r>
       <r>    6.9641    1.0000 </r>
       <r>    8.8132    1.0000 </r>
       <r>   14.2831   -0.0000 </r>
       <r>   15.5127   -0.0000 </r>
       <r>   22.6524    0.0000 </r>
       <r>   24.7319    0.0000 </r>
       <r>   28.9262    0.0000 </r>
      </set>
      <set comment="kpoint 12">
       <r>    5.1703    1.0000 </r>
       <r>    7.2212    1.0000 </r>
       <r>    9.1659    1.0000 </r>
       <r>   14.7245   -0.0000 </r>
       <r>   15.5545   -0.0000 </r>
       <r>   22.8860    0.0000 </r>
       <r>   24.7326    0.0000 </r>
       <r>   27.3733    0.0000 </r>
      </set>
      <set comment="kpoint 13">
       <r>    3.2160    1.0000 </r>
       <r>    7.5645    1.0000 </r>
       <r>    8.6844    1.0000 </r>
       <r>   12.4818   -0.0000 </r>
       <r>   13.2029   -0.0000 </r>
       <r>   14.7820   -0.0000 </r>
       <r>   28.4229    0.0000 </r>
       <r>   32.0117    0.0000 </r>
      </set>
      <set comment="kpoint 14">
       <r>    3.1550    1.0000 </r>
       <r>    8.2078    1.0000 </r>
       <r>    8.3413    1.0000 </r>
       <r>   11.5232   -0.0048 </r>
       <r>   12.4992   -0.0000 </r>
       <r>   15.1394   -0.0000 </r>
       <r>   30.0402    0.0000 </r>
       <r>   30.3817    0.0000 </r>
      </set>
      <set comment="kpoint 15">
       <r>    3.4601    1.0000 </r>
       <r>    6.7024    1.0000 </r>
       <r>    9.9521    1.0000 </r>
       <r>   13.5650   -0.0000 </r>
       <r>   15.2561   -0.0000 </r>
       <r>   16.4689   -0.0000 </r>
       <r>   26.1882    0.0000 </r>
       <r>   29.8342    0.0000 </r>
      </set>
      <set comment="kpoint 16">
       <r>    4.2027    1.0000 </r>
       <r>    7.2676    1.0000 </r>
       <r>    8.4379    1.0000 </r>
       <r>   12.1379   -0.0000 </r>
       <r>   15.2270   -0.0000 </r>
       <r>   15.9388   -0.0000 </r>
       <r>   27.5518    0.0000 </r>
       <r>   31.5516    0.0000 </r>
      </set>
      <set comment="kpoint 17">
       <r>    3.0999    1.0000 </r>
       <r>    6.2261    1.0000 </r>
       <r>   11.8827   -0.0000 </r>
       <r>   13.8464   -0.0000 </r>
       <r>   16.2192   -0.0000 </r>
       <r>   19.4593    0.0000 </r>
       <r>   24.7640    0.0000 </r>
       <r>   27.5921    0.0000 </r>
      </set>
      <set comment="kpoint 18">
       <r>    3.9699    1.0000 </r>
       <r>    6.7794    1.0000 </r>
       <r>    9.6431    1.0000 </r>
       <r>   13.1285   -0.0000 </r>
       <r>   16.0690   -0.0000 </r>
       <r>   19.1613    0.0000 </r>
       <r>   26.2229    0.0000 </r>
       <r>   28.9811    0.0000 </r>
      </set>
      <set comment="kpoint 19">
       <r>    4.9759    1.0000 </r>
       <r>    6.6524    1.0000 </r>
       <r>    8.7577    1.0000 </r>
       <r>   12.6134   -0.0000 </r>
       <r>   15.4902   -0.0000 </r>
       <r>   19.4490    0.0000 </r>
       <r>   26.6702    0.0000 </r>
       <r>   31.4245    0.0000 </r>
      </set>
      <set comment="kpoint 20">
       <r>    3.7264    1.0000 </r>
       <r>    6.6097    1.0000 </r>
       <r>   10.5086    1.0001 </r>
       <r>   12.9959   -0.0000 </r>
       <r>   17.1248    0.0000 </r>
       <r>   21.0914    0.0000 </r>
       <r>   25.7181    0.0000 </r>
       <r>   27.0969    0.0000 </r>
      </set>
      <set comment="kpoint 21">
       <r>    4.9381    1.0000 </r>
       <r>    6.8130    1.0000 </r>
       <r>    8.7924    1.0000 </r>
       <r>   13.4209   -0.0000 </r>
       <r>   15.9810   -0.0000 </r>
       <r>   23.0309    0.0000 </r>
       <r>   24.6896    0.0000 </r>
       <r>   29.1513    0.0000 </r>
      </set>
      <set comment="kpoint 22">
       <r>    5.5139    1.0000 </r>
       <r>    7.4445    1.0000 </r>
       <r>    7.4445    1.0000 </r>
       <r>   14.9909   -0.0000 </r>
       <r>   14.9910   -0.0000 </r>
       <r>   23.0771    0.0000 </r>
       <r>   26.8116    0.0000 </r>
       <r>   26.8116    0.0000 </r>
      </set>
      <set comment="kpoint 23">
       <r>    6.0202    1.0000 </r>
       <r>    6.6577    1.0000 </r>
       <r>    6.6577    1.0000 </r>
       <r>   14.5912   -0.0000 </r>
       <r>   14.5912   -0.0000 </r>
       <r>   19.4784    0.0000 </r>
       <r>   29.6689    0.0000 </r>
       <r>   29.6689    0.0000 </r>
      </set>
      <set comment="kpoint 24">
       <r>    5.8754    1.0000 </r>
       <r>    6.4051    1.0000 </r>
       <r>    8.6223    1.0000 </r>
       <r>   14.9127   -0.0000 </r>
       <r>   15.3615   -0.0000 </r>
       <r>   22.7112    0.0000 </r>
       <r>   25.1263    0.0000 </r>
       <r>   27.6373    0.0000 </r>
      </set>
      <set comment="kpoint 25">
       <r>    5.6502    1.0000 </r>
       <r>    6.3403    1.0000 </r>
       <r>   10.0024    1.0000 </r>
       <r>   15.0827   -0.0000 </r>
       <r>   15.6321   -0.0000 </r>
       <r>   23.0139    0.0000 </r>
       <r>   23.9644    0.0000 </r>
       <r>   26.8439    0.0000 </r>
      </set>
      <set comment="kpoint 26">
       <r>    2.8586    1.0000 </r>
       <r>    9.3223    1.0000 </r>
       <r>    9.3223    1.0000 </r>
       <r>   10.1018    1.0000 </r>
       <r>   10.6338    1.0027 </r>
       <r>   15.4818   -0.0000 </r>
       <r>   31.4438    0.0000 </r>
       <r>   31.6974    0.0000 </r>
      </set>
      <set comment="kpoint 27">
       <r>    6.2030    1.0000 </r>
       <r>    7.3976    1.0000 </r>
       <r>    8.5857    1.0000 </r>
       <r>   15.3898   -0.0000 </r>
       <r>   15.6209   -0.0000 </r>
       <r>   22.1230    0.0000 </r>
       <r>   25.2248    0.0000 </r>
       <r>   27.4683    0.0000 </r>
      </set>
      <set comment="kpoint 28">
       <r>    4.3122    1.0000 </r>
       <r>    8.0343    1.0000 </r>
       <r>    8.7839    1.0000 </r>
       <r>   10.6109    1.0017 </r>
       <r>   12.7638   -0.0000 </r>
       <r>   16.0318   -0.0000 </r>
       <r>   28.3559    0.0000 </r>
       <r>   33.3599    0.0000 </r>
      </set>
      <set comment="kpoint 29">
       <r>    4.5258    1.0000 </r>
       <r>    7.8779    1.0000 </r>
       <r>    8.0292    1.0000 </r>
       <r>   11.9994   -0.0000 </r>
       <r>   16.0388   -0.0000 </r>
       <r>   16.6684    0.0000 </r>
       <r>   27.1252    0.0000 </r>
       <r>   32.2715    0.0000 </r>
      </set>
      <set comment="kpoint 30">
       <r>    5.3474    1.0000 </r>
       <r>    6.6227    1.0000 </r>
       <r>    9.2894    1.0000 </r>
       <r>   11.0727    0.5891 </r>
       <r>   14.6966   -0.0000 </r>
       <r>   16.7465    0.0000 </r>
       <r>   27.6992    0.0000 </r>
       <r>   34.4624    0.0000 </r>
      </set>
      <set comment="kpoint 31">
       <r>    4.0220    1.0000 </r>
       <r>    7.5931    1.0000 </r>
       <r>    8.8116    1.0000 </r>
       <r>   11.8313   -0.0000 </r>
       <r>   18.9002    0.0000 </r>
       <r>   19.1175    0.0000 </r>
       <r>   26.6685    0.0000 </r>
       <r>   29.3200    0.0000 </r>
      </set>
      <set comment="kpoint 32">
       <r>    5.0591    1.0000 </r>
       <r>    6.6979    1.0000 </r>
       <r>    8.7081    1.0000 </r>
       <r>   12.0872   -0.0000 </r>
       <r>   16.2536   -0.0000 </r>
       <r>   19.8763    0.0000 </r>
       <r>   27.1783    0.0000 </r>
       <r>   31.9543    0.0000 </r>
      </set>
      <set comment="kpoint 33">
       <r>    4.6920    1.0000 </r>
       <r>    7.5075    1.0000 </r>
       <r>    7.8920    1.0000 </r>
       <r>   12.1248   -0.0000 </r>
       <r>   17.8720    0.0000 </r>
       <r>   22.5076    0.0000 </r>
       <r>   25.2824    0.0000 </r>
       <r>   29.9421    0.0000 </r>
      </set>
      <set comment="kpoint 34">
       <r>    5.7713    1.0000 </r>
       <r>    6.1318    1.0000 </r>
       <r>    7.6297    1.0000 </r>
       <r>   14.0790   -0.0000 </r>
       <r>   16.0106   -0.0000 </r>
       <r>   23.8355    0.0000 </r>
       <r>   24.9478    0.0000 </r>
       <r>   29.1080    0.0000 </r>
      </set>
      <set comment="kpoint 35">
       <r>    7.6108    1.0000 </r>
       <r>    7.6109    1.0000 </r>
       <r>    7.6109    1.0000 </r>
       <r>   15.7386   -0.0000 </r>
       <r>   15.7386   -0.0000 </r>
       <r>   20.9875    0.0000 </r>
       <r>   27.0483    0.0000 </r>
       <r>   27.0483    0.0000 </r>
      </set>
      <set comment="kpoint 36">
       <r>    5.5436    1.0000 </r>
       <r>    6.6981    1.0000 </r>
       <r>   10.4097    1.0000 </r>
       <r>   10.4098    1.0000 </r>
       <r>   12.8733   -0.0000 </r>
       <r>   16.2918   -0.0000 </r>
       <r>   28.3010    0.0000 </r>
       <r>   36.1765    0.0000 </r>
      </set>
      <set comment="kpoint 37">
       <r>    5.2679    1.0000 </r>
       <r>    6.0161    1.0000 </r>
       <r>   10.4618    1.0000 </r>
       <r>   11.4387   -0.0175 </r>
       <r>   15.5070   -0.0000 </r>
       <r>   17.1324    0.0000 </r>
       <r>   29.1848    0.0000 </r>
       <r>   33.5749    0.0000 </r>
      </set>
      <set comment="kpoint 38">
       <r>    4.5000    1.0000 </r>
       <r>    6.1104    1.0000 </r>
       <r>   10.1762    1.0000 </r>
       <r>   11.4180   -0.0221 </r>
       <r>   18.6053    0.0000 </r>
       <r>   20.3895    0.0000 </r>
       <r>   26.7763    0.0000 </r>
       <r>   29.8763    0.0000 </r>
      </set>
      <set comment="kpoint 39">
       <r>    4.6160    1.0000 </r>
       <r>    5.3795    1.0000 </r>
       <r>   10.3926    1.0000 </r>
       <r>   13.3300   -0.0000 </r>
       <r>   16.4284   -0.0000 </r>
       <r>   20.1110    0.0000 </r>
       <r>   27.7524    0.0000 </r>
       <r>   30.2753    0.0000 </r>
      </set>
      <set comment="kpoint 40">
       <r>    4.4106    1.0000 </r>
       <r>    5.0535    1.0000 </r>
       <r>   10.0954    1.0000 </r>
       <r>   14.1562   -0.0000 </r>
       <r>   17.5875    0.0000 </r>
       <r>   23.6605    0.0000 </r>
       <r>   24.5606    0.0000 </r>
       <r>   27.6105    0.0000 </r>
      </set>
      <set comment="kpoint 41">
       <r>    4.2070    1.0000 </r>
       <r>    5.0503    1.0000 </r>
       <r>   13.0532   -0.0000 </r>
       <r>   13.0532   -0.0000 </r>
       <r>   15.7384   -0.0000 </r>
       <r>   17.7263    0.0000 </r>
       <r>   30.5013    0.0000 </r>
       <r>   30.5014    0.0000 </r>
      </set>
      <set comment="kpoint 42">
       <r>    3.6292    1.0000 </r>
       <r>    4.1599    1.0000 </r>
       <r>   13.6545   -0.0000 </r>
       <r>   13.9644   -0.0000 </r>
       <r>   18.1461    0.0000 </r>
       <r>   20.7320    0.0000 </r>
       <r>   26.0725    0.0000 </r>
       <r>   27.1492    0.0000 </r>
      </set>
      <set comment="kpoint 43">
       <r>    3.4663    1.0000 </r>
       <r>    3.4663    1.0000 </r>
       <r>   13.7443   -0.0000 </r>
       <r>   17.2160    0.0000 </r>
       <r>   17.2160    0.0000 </r>
       <r>   23.9713    0.0000 </r>
       <r>   23.9714    0.0000 </r>
       <r>   24.0932    0.0000 </r>
      </set>
      <set comment="kpoint 44">
       <r>    2.9182    1.0000 </r>
       <r>    3.0724    1.0000 </r>
       <r>   17.0662    0.0000 </r>
       <r>   17.0662    0.0000 </r>
       <r>   18.1061    0.0000 </r>
       <r>   21.3889    0.0000 </r>
       <r>   23.9875    0.0000 </r>
       <r>   23.9875    0.0000 </r>
      </set>
     </set>
    </set>
   </array>
  </eigenvalues>
  <separator name="orbital magnetization" >
   <v name="MAGDIPOLOUT">      0.00000000      0.00000000      0.00000000</v>
  </separator>
  <dos>
   <i name="efermi">     11.09385358 </i>
   <total>
    <array>
     <dimension dim="1">gridpoints</dimension>
     <dimension dim="2">spin</dimension>
     <field>energy</field>
     <field>total</field>
     <field>integrated</field>
     <set>
      <set comment="spin 1">
       <r>    -1.4440     0.0000     0.0000 </r>
       <r>    -1.3119     0.0000     0.0000 </r>
       <r>    -1.1798     0.0000     0.0000 </r>
       <r>    -1.0478    -0.0000    -0.0000 </r>
       <r>    -0.9157    -0.0000    -0.0000 </r>
       <r>    -0.7836    -0.0000    -0.0000 </r>
       <r>    -0.6516    -0.0000    -0.0000 </r>
       <r>    -0.5195    -0.0000    -0.0000 </r>
       <r>    -0.3874    -0.0000    -0.0000 </r>
       <r>    -0.2553    -0.0000    -0.0000 </r>
       <r>    -0.1233    -0.0000    -0.0000 </r>
       <r>     0.0088    -0.0000    -0.0000 </r>
       <r>     0.1409    -0.0005    -0.0001 </r>
       <r>     0.2729    -0.0023    -0.0004 </r>
       <r>     0.4050     0.0049     0.0003 </r>
       <r>     0.5371     0.0361     0.0050 </r>
       <r>     0.6691     0.0438     0.0108 </r>
       <r>     0.8012     0.0105     0.0122 </r>
       <r>     0.9333    -0.0048     0.0116 </r>
       <r>     1.0653     0.0185     0.0140 </r>
       <r>     1.1974     0.0606     0.0220 </r>
       <r>     1.3295     0.0419     0.0276 </r>
       <r>     1.4615    -0.0049     0.0269 </r>
       <r>     1.5936     0.0209     0.0297 </r>
       <r>     1.7257     0.1505     0.0495 </r>
       <r>     1.8577     0.1712     0.0721 </r>
       <r>     1.9898     0.0420     0.0777 </r>
       <r>     2.1219    -0.0092     0.0765 </r>
       <r>     2.2539    -0.0054     0.0758 </r>
       <r>     2.3860    -0.0094     0.0745 </r>
       <r>     2.5181     0.0136     0.0763 </r>
       <r>     2.6502     0.1332     0.0939 </r>
       <r>     2.7822     0.1922     0.1193 </r>
       <r>     2.9143     0.1270     0.1361 </r>
       <r>     3.0464     0.2567     0.1700 </r>
       <r>     3.1784     0.5633     0.2444 </r>
       <r>     3.3105     0.5423     0.3160 </r>
       <r>     3.4426     0.4781     0.3791 </r>
       <r>     3.5746     0.6053     0.4591 </r>
       <r>     3.7067     0.5968     0.5379 </r>
       <r>     3.8388     0.4454     0.5967 </r>
       <r>     3.9708     0.4662     0.6583 </r>
       <r>     4.1029     0.7597     0.7586 </r>
       <r>     4.2350     1.0836     0.9017 </r>
       <r>     4.3670     1.1550     1.0543 </r>
       <r>     4.4991     0.9536     1.1802 </r>
       <r>     4.6312     0.8960     1.2985 </r>
       <r>     4.7632     0.7433     1.3967 </r>
       <r>     4.8953     0.5732     1.4724 </r>
       <r>     5.0274     1.0002     1.6045 </r>
       <r>     5.1594     1.1739     1.7595 </r>
       <r>     5.2915     0.8622     1.8734 </r>
       <r>     5.4236     0.5778     1.9497 </r>
       <r>     5.5557     0.3076     1.9903 </r>
       <r>     5.6877     0.2185     2.0192 </r>
       <r>     5.8198     0.3235     2.0619 </r>
       <r>     5.9519     0.4609     2.1228 </r>
       <r>     6.0839     0.7559     2.2226 </r>
       <r>     6.2160     1.1701     2.3771 </r>
       <r>     6.3481     1.1086     2.5236 </r>
       <r>     6.4801     0.6782     2.6131 </r>
       <r>     6.6122     1.1750     2.7683 </r>
       <r>     6.7443     1.9792     3.0297 </r>
       <r>     6.8763     1.5728     3.2374 </r>
       <r>     7.0084     0.5938     3.3158 </r>
       <r>     7.1405     0.2779     3.3525 </r>
       <r>     7.2725     0.7430     3.4507 </r>
       <r>     7.4046     1.0160     3.5848 </r>
       <r>     7.5367     0.9743     3.7135 </r>
       <r>     7.6687     0.8099     3.8205 </r>
       <r>     7.8008     0.5703     3.8958 </r>
       <r>     7.9329     0.6182     3.9774 </r>
       <r>     8.0649     0.6161     4.0588 </r>
       <r>     8.1970     0.5187     4.1273 </r>
       <r>     8.3291     0.5521     4.2002 </r>
       <r>     8.4612     0.7315     4.2968 </r>
       <r>     8.5932     1.2964     4.4680 </r>
       <r>     8.7253     2.0852     4.7434 </r>
       <r>     8.8574     1.9898     5.0062 </r>
       <r>     8.9894     0.8208     5.1146 </r>
       <r>     9.1215     0.2709     5.1504 </r>
       <r>     9.2536     0.4357     5.2079 </r>
       <r>     9.3856     0.4272     5.2643 </r>
       <r>     9.5177     0.2387     5.2959 </r>
       <r>     9.6498     0.3238     5.3386 </r>
       <r>     9.7818     0.2945     5.3775 </r>
       <r>     9.9139     0.2074     5.4049 </r>
       <r>    10.0460     0.4226     5.4607 </r>
       <r>    10.1780     0.4901     5.5254 </r>
       <r>    10.3101     0.3532     5.5721 </r>
       <r>    10.4422     0.5658     5.6468 </r>
       <r>    10.5742     0.9632     5.7740 </r>
       <r>    10.7063     0.9469     5.8991 </r>
       <r>    10.8384     0.4006     5.9520 </r>
       <r>    10.9704     0.0948     5.9645 </r>
       <r>    11.1025     0.2923     6.0031 </r>
       <r>    11.2346     0.2868     6.0410 </r>
       <r>    11.3667     0.2644     6.0759 </r>
       <r>    11.4987     0.4916     6.1408 </r>
       <r>    11.6308     0.3364     6.1853 </r>
       <r>    11.7629     0.1479     6.2048 </r>
       <r>    11.8949     0.3711     6.2538 </r>
       <r>    12.0270     0.7763     6.3563 </r>
       <r>    12.1591     1.0890     6.5002 </r>
       <r>    12.2911     0.7250     6.5959 </r>
       <r>    12.4232     0.3743     6.6453 </r>
       <r>    12.5553     0.5476     6.7177 </r>
       <r>    12.6873     0.6538     6.8040 </r>
       <r>    12.8194     0.4798     6.8674 </r>
       <r>    12.9515     0.3488     6.9135 </r>
       <r>    13.0835     0.6644     7.0012 </r>
       <r>    13.2156     1.0227     7.1363 </r>
       <r>    13.3477     0.9257     7.2585 </r>
       <r>    13.4797     0.8161     7.3663 </r>
       <r>    13.6118     0.8303     7.4760 </r>
       <r>    13.7439     0.8002     7.5816 </r>
       <r>    13.8759     0.7702     7.6834 </r>
       <r>    14.0080     0.7013     7.7760 </r>
       <r>    14.1401     0.7584     7.8761 </r>
       <r>    14.2722     0.9937     8.0074 </r>
       <r>    14.4042     0.9209     8.1290 </r>
       <r>    14.5363     0.6605     8.2162 </r>
       <r>    14.6684     0.7392     8.3138 </r>
       <r>    14.8004     0.7439     8.4121 </r>
       <r>    14.9325     0.4820     8.4757 </r>
       <r>    15.0646     0.5280     8.5455 </r>
       <r>    15.1966     1.1022     8.6910 </r>
       <r>    15.3287     1.3808     8.8734 </r>
       <r>    15.4608     1.2682     9.0409 </r>
       <r>    15.5928     1.4335     9.2302 </r>
       <r>    15.7249     1.2467     9.3949 </r>
       <r>    15.8570     0.8676     9.5094 </r>
       <r>    15.9890     1.2920     9.6801 </r>
       <r>    16.1211     1.5417     9.8837 </r>
       <r>    16.2532     1.0046    10.0163 </r>
       <r>    16.3852     0.6341    10.1001 </r>
       <r>    16.5173     0.4445    10.1588 </r>
       <r>    16.6494     0.3562    10.2058 </r>
       <r>    16.7814     0.3334    10.2499 </r>
       <r>    16.9135     0.1561    10.2705 </r>
       <r>    17.0456     0.2311    10.3010 </r>
       <r>    17.1777     0.5353    10.3717 </r>
       <r>    17.3097     0.3632    10.4197 </r>
       <r>    17.4418     0.0675    10.4286 </r>
       <r>    17.5739     0.1239    10.4450 </r>
       <r>    17.7059     0.2113    10.4729 </r>
       <r>    17.8380     0.2060    10.5001 </r>
       <r>    17.9701     0.2011    10.5266 </r>
       <r>    18.1021     0.2140    10.5549 </r>
       <r>    18.2342     0.2163    10.5835 </r>
       <r>    18.3663     0.0672    10.5923 </r>
       <r>    18.4983     0.0415    10.5978 </r>
       <r>    18.6304     0.1597    10.6189 </r>
       <r>    18.7625     0.1448    10.6380 </r>
       <r>    18.8945     0.1772    10.6614 </r>
       <r>    19.0266     0.4501    10.7209 </r>
       <r>    19.1587     0.8520    10.8334 </r>
       <r>    19.2907     0.8718    10.9485 </r>
       <r>    19.4228     0.5606    11.0226 </r>
       <r>    19.5549     0.3852    11.0734 </r>
       <r>    19.6869     0.1262    11.0901 </r>
       <r>    19.8190     0.1807    11.1140 </r>
       <r>    19.9511     0.3835    11.1646 </r>
       <r>    20.0832     0.2973    11.2039 </r>
       <r>    20.2152     0.1808    11.2277 </r>
       <r>    20.3473     0.1587    11.2487 </r>
       <r>    20.4794     0.1648    11.2705 </r>
       <r>    20.6114     0.1368    11.2885 </r>
       <r>    20.7435     0.2498    11.3215 </r>
       <r>    20.8756     0.2099    11.3493 </r>
       <r>    21.0076     0.1190    11.3650 </r>
       <r>    21.1397     0.1853    11.3894 </r>
       <r>    21.2718     0.1235    11.4057 </r>
       <r>    21.4038     0.0468    11.4119 </r>
       <r>    21.5359     0.0245    11.4152 </r>
       <r>    21.6680    -0.0153    11.4131 </r>
       <r>    21.8000     0.0379    11.4181 </r>
       <r>    21.9321     0.3022    11.4581 </r>
       <r>    22.0642     0.4439    11.5167 </r>
       <r>    22.1962     0.2661    11.5518 </r>
       <r>    22.3283     0.0635    11.5602 </r>
       <r>    22.4604     0.0948    11.5727 </r>
       <r>    22.5925     0.3138    11.6142 </r>
       <r>    22.7245     0.4286    11.6708 </r>
       <r>    22.8566     0.3873    11.7219 </r>
       <r>    22.9887     0.5307    11.7920 </r>
       <r>    23.1207     0.5680    11.8670 </r>
       <r>    23.2528     0.1925    11.8925 </r>
       <r>    23.3849    -0.0296    11.8885 </r>
       <r>    23.5169    -0.0002    11.8885 </r>
       <r>    23.6490     0.1405    11.9071 </r>
       <r>    23.7811     0.2764    11.9436 </r>
       <r>    23.9131     0.3997    11.9964 </r>
       <r>    24.0452     0.4243    12.0524 </r>
       <r>    24.1773     0.2071    12.0798 </r>
       <r>    24.3093     0.0613    12.0879 </r>
       <r>    24.4414     0.0775    12.0981 </r>
       <r>    24.5735     0.3141    12.1396 </r>
       <r>    24.7055     0.8556    12.2526 </r>
       <r>    24.8376     0.8862    12.3696 </r>
       <r>    24.9697     0.4399    12.4277 </r>
       <r>    25.1017     0.5648    12.5023 </r>
       <r>    25.2338     0.8734    12.6176 </r>
       <r>    25.3659     0.6603    12.7048 </r>
       <r>    25.4980     0.1984    12.7310 </r>
       <r>    25.6300     0.0553    12.7384 </r>
       <r>    25.7621     0.1589    12.7593 </r>
       <r>    25.8942     0.0993    12.7725 </r>
       <r>    26.0262     0.1284    12.7894 </r>
       <r>    26.1583     0.4849    12.8535 </r>
       <r>    26.2904     0.6868    12.9442 </r>
       <r>    26.4224     0.5671    13.0191 </r>
       <r>    26.5545     0.4804    13.0825 </r>
       <r>    26.6866     0.5560    13.1559 </r>
       <r>    26.8186     0.6000    13.2352 </r>
       <r>    26.9507     0.3514    13.2816 </r>
       <r>    27.0828     0.6559    13.3682 </r>
       <r>    27.2148     1.2656    13.5353 </r>
       <r>    27.3469     0.8501    13.6476 </r>
       <r>    27.4790     0.6504    13.7335 </r>
       <r>    27.6110     1.3169    13.9074 </r>
       <r>    27.7431     1.3703    14.0884 </r>
       <r>    27.8752     0.6154    14.1697 </r>
       <r>    28.0072     0.1793    14.1933 </r>
       <r>    28.1393     0.0444    14.1992 </r>
       <r>    28.2714     0.1185    14.2149 </r>
       <r>    28.4035     0.3609    14.2625 </r>
       <r>    28.5355     0.2868    14.3004 </r>
       <r>    28.6676     0.1638    14.3220 </r>
       <r>    28.7997     0.3685    14.3707 </r>
       <r>    28.9317     0.5949    14.4493 </r>
       <r>    29.0638     0.9763    14.5782 </r>
       <r>    29.1959     1.3184    14.7523 </r>
       <r>    29.3279     0.8933    14.8703 </r>
       <r>    29.4600     0.2216    14.8996 </r>
       <r>    29.5921     0.0700    14.9088 </r>
       <r>    29.7241     0.4366    14.9665 </r>
       <r>    29.8562     0.7943    15.0714 </r>
       <r>    29.9883     0.7619    15.1720 </r>
       <r>    30.1203     0.5380    15.2430 </r>
       <r>    30.2524     0.3717    15.2921 </r>
       <r>    30.3845     0.3616    15.3399 </r>
       <r>    30.5165     0.2721    15.3758 </r>
       <r>    30.6486     0.1085    15.3901 </r>
       <r>    30.7807     0.1327    15.4077 </r>
       <r>    30.9127     0.1623    15.4291 </r>
       <r>    31.0448     0.0767    15.4393 </r>
       <r>    31.1769     0.1309    15.4565 </r>
       <r>    31.3090     0.1961    15.4824 </r>
       <r>    31.4410     0.3462    15.5282 </r>
       <r>    31.5731     0.5345    15.5988 </r>
       <r>    31.7052     0.3267    15.6419 </r>
       <r>    31.8372     0.1573    15.6627 </r>
       <r>    31.9693     0.4443    15.7213 </r>
       <r>    32.1014     0.4868    15.7856 </r>
       <r>    32.2334     0.2381    15.8171 </r>
       <r>    32.3655     0.1610    15.8383 </r>
       <r>    32.4976     0.0560    15.8457 </r>
       <r>    32.6296    -0.0078    15.8447 </r>
       <r>    32.7617    -0.0049    15.8441 </r>
       <r>    32.8938    -0.0013    15.8439 </r>
       <r>    33.0258    -0.0065    15.8430 </r>
       <r>    33.1579    -0.0043    15.8425 </r>
       <r>    33.2900     0.0816    15.8532 </r>
       <r>    33.4220     0.2096    15.8809 </r>
       <r>    33.5541     0.2418    15.9129 </r>
       <r>    33.6862     0.1769    15.9362 </r>
       <r>    33.8182     0.0425    15.9418 </r>
       <r>    33.9503    -0.0099    15.9405 </r>
       <r>    34.0824    -0.0076    15.9395 </r>
       <r>    34.2145    -0.0093    15.9383 </r>
       <r>    34.3465     0.0454    15.9443 </r>
       <r>    34.4786     0.1741    15.9673 </r>
       <r>    34.6107     0.1472    15.9867 </r>
       <r>    34.7427     0.0211    15.9895 </r>
       <r>    34.8748    -0.0092    15.9883 </r>
       <r>    35.0069    -0.0022    15.9880 </r>
       <r>    35.1389    -0.0001    15.9880 </r>
       <r>    35.2710    -0.0000    15.9880 </r>
       <r>    35.4031    -0.0000    15.9880 </r>
       <r>    35.5351    -0.0000    15.9880 </r>
       <r>    35.6672    -0.0001    15.9880 </r>
       <r>    35.7993    -0.0009    15.9879 </r>
       <r>    35.9313    -0.0022    15.9876 </r>
       <r>    36.0634     0.0120    15.9892 </r>
       <r>    36.1955     0.0440    15.9950 </r>
       <r>    36.3275     0.0361    15.9997 </r>
       <r>    36.4596     0.0049    16.0004 </r>
       <r>    36.5917    -0.0023    16.0001 </r>
       <r>    36.7237    -0.0005    16.0000 </r>
       <r>    36.8558    -0.0000    16.0000 </r>
       <r>    36.9879    -0.0000    16.0000 </r>
       <r>    37.1200    -0.0000    16.0000 </r>
       <r>    37.2520    -0.0000    16.0000 </r>
       <r>    37.3841    -0.0000    16.0000 </r>
       <r>    37.5162    -0.0000    16.0000 </r>
       <r>    37.6482     0.0000    16.0000 </r>
       <r>    37.7803     0.0000    16.0000 </r>
       <r>    37.9124     0.0000    16.0000 </r>
       <r>    38.0444     0.0000    16.0000 </r>
       <r>    38.1765     0.0000    16.0000 </r>
      </set>
     </set>
    </array>
   </total>
  </dos>
 </calculation>
 <structure name="finalpos" >
  <crystal>
   <varray name="basis" >
    <v>      -1.45000000       1.45000000       1.45000000 </v>
    <v>       1.45000000      -1.45000000       1.45000000 </v>
    <v>       1.45000000       1.45000000      -1.45000000 </v>
   </varray>
   <i name="volume">     12.19450000 </i>
   <varray name="rec_basis" >
    <v>       0.00000000       0.34482759       0.34482759 </v>
    <v>       0.34482759       0.00000000       0.34482759 </v>
    <v>       0.34482759       0.34482759       0.00000000 </v>
   </varray>
  </crystal>
  <varray name="positions" >
   <v>       0.00000000       0.00000000       0.00000000 </v>
  </varray>
 </structure>
</modeling>
