BCC W                                   
           1
    -1.450000    1.450000    1.450000
     1.450000   -1.450000    1.450000
     1.450000    1.450000   -1.450000
   W 
   1
Direct configuration=     1
   0.00000000  0.00000000  0.00000000
