   1   1   1   0
  0.1677775E+02  0.2873534E-09  0.2873534E-09  0.2873534E-09  0.5000000E-15
  1.000000000000000E-004
  CAR 
 FCC Au                                  
     38.19462194     -6.34261902  301      5.78415285      1.00000000
     -6.343  0.0000E+00  0.0000E+00
     -6.194  0.0000E+00  0.0000E+00
     -6.046 -0.3257E-34 -0.4835E-35
     -5.897 -0.6528E-29 -0.9692E-30
     -5.749 -0.4259E-24 -0.6323E-25
     -5.600 -0.9204E-20 -0.1366E-20
     -5.452 -0.6413E-16 -0.9521E-17
     -5.303 -0.1512E-12 -0.2245E-13
     -5.155 -0.1187E-09 -0.1764E-10
     -5.007 -0.3096E-07 -0.4614E-08
     -4.858 -0.2672E-05 -0.4012E-06
     -4.710 -0.7419E-04 -0.1141E-04
     -4.561 -0.5823E-03 -0.9786E-04
     -4.413 -0.5172E-04 -0.1055E-03
     -4.264  0.9589E-02  0.1318E-02
     -4.116  0.2800E-01  0.5475E-02
     -3.967  0.4325E-01  0.1190E-01
     -3.819  0.5402E-01  0.1992E-01
     -3.670  0.6411E-01  0.2943E-01
     -3.522  0.7256E-01  0.4020E-01
     -3.373  0.8294E-01  0.5252E-01
     -3.225  0.9059E-01  0.6597E-01
     -3.077  0.1013E+00  0.8100E-01
     -2.928  0.1117E+00  0.9758E-01
     -2.780  0.1197E+00  0.1153E+00
     -2.631  0.1368E+00  0.1357E+00
     -2.483  0.1451E+00  0.1572E+00
     -2.334  0.1646E+00  0.1816E+00
     -2.186  0.1844E+00  0.2090E+00
     -2.037  0.2053E+00  0.2395E+00
     -1.889  0.2553E+00  0.2774E+00
     -1.740  0.3910E+00  0.3355E+00
     -1.592  0.5736E+00  0.4206E+00
     -1.444  0.7112E+00  0.5262E+00
     -1.295  0.9211E+00  0.6629E+00
     -1.147  0.1210E+01  0.8426E+00
     -0.998  0.1537E+01  0.1071E+01
     -0.850  0.1779E+01  0.1335E+01
     -0.701  0.1787E+01  0.1600E+01
     -0.553  0.1673E+01  0.1848E+01
     -0.404  0.1590E+01  0.2085E+01
     -0.256  0.1463E+01  0.2302E+01
     -0.107  0.1237E+01  0.2485E+01
      0.041  0.1256E+01  0.2672E+01
      0.190  0.1562E+01  0.2904E+01
      0.338  0.1791E+01  0.3170E+01
      0.486  0.1878E+01  0.3448E+01
      0.635  0.1896E+01  0.3730E+01
      0.783  0.1934E+01  0.4017E+01
      0.932  0.2066E+01  0.4324E+01
      1.080  0.2363E+01  0.4675E+01
      1.229  0.2880E+01  0.5102E+01
      1.377  0.3006E+01  0.5548E+01
      1.526  0.2254E+01  0.5883E+01
      1.674  0.1694E+01  0.6134E+01
      1.823  0.1576E+01  0.6368E+01
      1.971  0.1534E+01  0.6596E+01
      2.119  0.1690E+01  0.6847E+01
      2.268  0.1931E+01  0.7134E+01
      2.416  0.2048E+01  0.7438E+01
      2.565  0.1996E+01  0.7734E+01
      2.713  0.1780E+01  0.7998E+01
      2.862  0.1608E+01  0.8237E+01
      3.010  0.1553E+01  0.8468E+01
      3.159  0.1549E+01  0.8698E+01
      3.307  0.1566E+01  0.8930E+01
      3.456  0.1741E+01  0.9189E+01
      3.604  0.2176E+01  0.9512E+01
      3.752  0.2679E+01  0.9909E+01
      3.901  0.2303E+01  0.1025E+02
      4.049  0.1376E+01  0.1046E+02
      4.198  0.7008E+00  0.1056E+02
      4.346  0.2735E+00  0.1060E+02
      4.495  0.2695E+00  0.1064E+02
      4.643  0.2774E+00  0.1068E+02
      4.792  0.2698E+00  0.1072E+02
      4.940  0.3010E+00  0.1077E+02
      5.089  0.2741E+00  0.1081E+02
      5.237  0.2853E+00  0.1085E+02
      5.386  0.2645E+00  0.1089E+02
      5.534  0.3047E+00  0.1093E+02
      5.682  0.2754E+00  0.1097E+02
      5.831  0.2602E+00  0.1101E+02
      5.979  0.3009E+00  0.1106E+02
      6.128  0.2634E+00  0.1110E+02
      6.276  0.2828E+00  0.1114E+02
      6.425  0.2884E+00  0.1118E+02
      6.573  0.2593E+00  0.1122E+02
      6.722  0.2651E+00  0.1126E+02
      6.870  0.3012E+00  0.1130E+02
      7.019  0.2806E+00  0.1135E+02
      7.167  0.2510E+00  0.1138E+02
      7.315  0.2634E+00  0.1142E+02
      7.464  0.2639E+00  0.1146E+02
      7.612  0.2802E+00  0.1150E+02
      7.761  0.2455E+00  0.1154E+02
      7.909  0.2309E+00  0.1157E+02
      8.058  0.2676E+00  0.1161E+02
      8.206  0.2307E+00  0.1165E+02
      8.355  0.2307E+00  0.1168E+02
      8.503  0.2413E+00  0.1172E+02
      8.652  0.2134E+00  0.1175E+02
      8.800  0.2745E+00  0.1179E+02
      8.949  0.4038E+00  0.1185E+02
      9.097  0.4572E+00  0.1192E+02
      9.245  0.3853E+00  0.1198E+02
      9.394  0.3248E+00  0.1202E+02
      9.542  0.3303E+00  0.1207E+02
      9.691  0.2665E+00  0.1211E+02
      9.839  0.2796E+00  0.1215E+02
      9.988  0.2868E+00  0.1220E+02
     10.136  0.2392E+00  0.1223E+02
     10.285  0.2640E+00  0.1227E+02
     10.433  0.3039E+00  0.1232E+02
     10.582  0.3094E+00  0.1236E+02
     10.730  0.3008E+00  0.1241E+02
     10.878  0.3189E+00  0.1245E+02
     11.027  0.3625E+00  0.1251E+02
     11.175  0.3459E+00  0.1256E+02
     11.324  0.3386E+00  0.1261E+02
     11.472  0.3664E+00  0.1266E+02
     11.621  0.3789E+00  0.1272E+02
     11.769  0.3337E+00  0.1277E+02
     11.918  0.3198E+00  0.1282E+02
     12.066  0.3069E+00  0.1286E+02
     12.215  0.2781E+00  0.1290E+02
     12.363  0.3126E+00  0.1295E+02
     12.511  0.2739E+00  0.1299E+02
     12.660  0.2262E+00  0.1302E+02
     12.808  0.2884E+00  0.1307E+02
     12.957  0.3077E+00  0.1311E+02
     13.105  0.3036E+00  0.1316E+02
     13.254  0.3610E+00  0.1321E+02
     13.402  0.3481E+00  0.1326E+02
     13.551  0.3317E+00  0.1331E+02
     13.699  0.3172E+00  0.1336E+02
     13.848  0.3203E+00  0.1341E+02
     13.996  0.3679E+00  0.1346E+02
     14.145  0.4157E+00  0.1352E+02
     14.293  0.3642E+00  0.1358E+02
     14.441  0.2865E+00  0.1362E+02
     14.590  0.2765E+00  0.1366E+02
     14.738  0.3868E+00  0.1372E+02
     14.887  0.4272E+00  0.1378E+02
     15.035  0.3296E+00  0.1383E+02
     15.184  0.3359E+00  0.1388E+02
     15.332  0.3839E+00  0.1394E+02
     15.481  0.3596E+00  0.1399E+02
     15.629  0.3480E+00  0.1404E+02
     15.778  0.4777E+00  0.1411E+02
     15.926  0.5337E+00  0.1419E+02
     16.074  0.4818E+00  0.1426E+02
     16.223  0.4523E+00  0.1433E+02
     16.371  0.4626E+00  0.1440E+02
     16.520  0.5030E+00  0.1448E+02
     16.668  0.4951E+00  0.1455E+02
     16.817  0.5043E+00  0.1462E+02
     16.965  0.5306E+00  0.1470E+02
     17.114  0.4824E+00  0.1477E+02
     17.262  0.4076E+00  0.1483E+02
     17.411  0.4802E+00  0.1491E+02
     17.559  0.5494E+00  0.1499E+02
     17.707  0.4758E+00  0.1506E+02
     17.856  0.4726E+00  0.1513E+02
     18.004  0.5166E+00  0.1520E+02
     18.153  0.4606E+00  0.1527E+02
     18.301  0.4530E+00  0.1534E+02
     18.450  0.4802E+00  0.1541E+02
     18.598  0.4880E+00  0.1548E+02
     18.747  0.4715E+00  0.1555E+02
     18.895  0.5234E+00  0.1563E+02
     19.044  0.4777E+00  0.1570E+02
     19.192  0.4385E+00  0.1577E+02
     19.341  0.4449E+00  0.1583E+02
     19.489  0.4715E+00  0.1590E+02
     19.637  0.5188E+00  0.1598E+02
     19.786  0.5119E+00  0.1606E+02
     19.934  0.4360E+00  0.1612E+02
     20.083  0.4621E+00  0.1619E+02
     20.231  0.5310E+00  0.1627E+02
     20.380  0.5493E+00  0.1635E+02
     20.528  0.6213E+00  0.1644E+02
     20.677  0.6375E+00  0.1654E+02
     20.825  0.6013E+00  0.1663E+02
     20.974  0.5602E+00  0.1671E+02
     21.122  0.5145E+00  0.1679E+02
     21.270  0.5250E+00  0.1686E+02
     21.419  0.4958E+00  0.1694E+02
     21.567  0.4880E+00  0.1701E+02
     21.716  0.5256E+00  0.1709E+02
     21.864  0.6211E+00  0.1718E+02
     22.013  0.6006E+00  0.1727E+02
     22.161  0.5304E+00  0.1735E+02
     22.310  0.5107E+00  0.1742E+02
     22.458  0.4433E+00  0.1749E+02
     22.607  0.4604E+00  0.1756E+02
     22.755  0.5096E+00  0.1763E+02
     22.904  0.5247E+00  0.1771E+02
     23.052  0.5944E+00  0.1780E+02
     23.200  0.6838E+00  0.1790E+02
     23.349  0.7319E+00  0.1801E+02
     23.497  0.7954E+00  0.1813E+02
     23.646  0.8819E+00  0.1826E+02
     23.794  0.8452E+00  0.1838E+02
     23.943  0.8020E+00  0.1850E+02
     24.091  0.7628E+00  0.1862E+02
     24.240  0.7267E+00  0.1873E+02
     24.388  0.7842E+00  0.1884E+02
     24.537  0.7724E+00  0.1896E+02
     24.685  0.6960E+00  0.1906E+02
     24.833  0.5938E+00  0.1915E+02
     24.982  0.5639E+00  0.1923E+02
     25.130  0.6011E+00  0.1932E+02
     25.279  0.5904E+00  0.1941E+02
     25.427  0.5833E+00  0.1949E+02
     25.576  0.6068E+00  0.1959E+02
     25.724  0.5437E+00  0.1967E+02
     25.873  0.5344E+00  0.1975E+02
     26.021  0.5409E+00  0.1983E+02
     26.170  0.5601E+00  0.1991E+02
     26.318  0.5294E+00  0.1999E+02
     26.466  0.4264E+00  0.2005E+02
     26.615  0.3961E+00  0.2011E+02
     26.763  0.3399E+00  0.2016E+02
     26.912  0.3084E+00  0.2021E+02
     27.060  0.4213E+00  0.2027E+02
     27.209  0.4270E+00  0.2033E+02
     27.357  0.2739E+00  0.2037E+02
     27.506  0.2268E+00  0.2041E+02
     27.654  0.3176E+00  0.2045E+02
     27.803  0.4887E+00  0.2053E+02
     27.951  0.5464E+00  0.2061E+02
     28.100  0.4552E+00  0.2067E+02
     28.248  0.3936E+00  0.2073E+02
     28.396  0.3794E+00  0.2079E+02
     28.545  0.4556E+00  0.2086E+02
     28.693  0.4720E+00  0.2093E+02
     28.842  0.3969E+00  0.2099E+02
     28.990  0.3353E+00  0.2104E+02
     29.139  0.3231E+00  0.2108E+02
     29.287  0.3387E+00  0.2113E+02
     29.436  0.4784E+00  0.2120E+02
     29.584  0.5792E+00  0.2129E+02
     29.733  0.5346E+00  0.2137E+02
     29.881  0.5163E+00  0.2145E+02
     30.029  0.5451E+00  0.2153E+02
     30.178  0.5733E+00  0.2161E+02
     30.326  0.6140E+00  0.2170E+02
     30.475  0.6961E+00  0.2181E+02
     30.623  0.7910E+00  0.2192E+02
     30.772  0.7487E+00  0.2204E+02
     30.920  0.6599E+00  0.2213E+02
     31.069  0.6757E+00  0.2223E+02
     31.217  0.6864E+00  0.2234E+02
     31.366  0.6785E+00  0.2244E+02
     31.514  0.6590E+00  0.2253E+02
     31.662  0.6016E+00  0.2262E+02
     31.811  0.5806E+00  0.2271E+02
     31.959  0.6023E+00  0.2280E+02
     32.108  0.7373E+00  0.2291E+02
     32.256  0.8822E+00  0.2304E+02
     32.405  0.7910E+00  0.2316E+02
     32.553  0.6271E+00  0.2325E+02
     32.702  0.5866E+00  0.2334E+02
     32.850  0.5706E+00  0.2342E+02
     32.999  0.5190E+00  0.2350E+02
     33.147  0.4715E+00  0.2357E+02
     33.296  0.4074E+00  0.2363E+02
     33.444  0.3166E+00  0.2368E+02
     33.592  0.3074E+00  0.2372E+02
     33.741  0.3035E+00  0.2377E+02
     33.889  0.1921E+00  0.2380E+02
     34.038  0.1993E+00  0.2383E+02
     34.186  0.2216E+00  0.2386E+02
     34.335  0.2081E+00  0.2389E+02
     34.483  0.1510E+00  0.2391E+02
     34.632  0.7878E-01  0.2392E+02
     34.780  0.8821E-01  0.2394E+02
     34.929  0.1112E+00  0.2395E+02
     35.077  0.6965E-01  0.2396E+02
     35.225  0.4506E-01  0.2397E+02
     35.374  0.7463E-01  0.2398E+02
     35.522  0.6531E-01  0.2399E+02
     35.671  0.3026E-01  0.2400E+02
     35.819  0.7721E-02  0.2400E+02
     35.968  0.6150E-02  0.2400E+02
     36.116  0.9351E-02  0.2400E+02
     36.265  0.7760E-02  0.2400E+02
     36.413  0.1553E-02  0.2400E+02
     36.562 -0.3746E-03  0.2400E+02
     36.710 -0.9434E-04  0.2400E+02
     36.859 -0.4626E-05  0.2400E+02
     37.007 -0.6493E-07  0.2400E+02
     37.155 -0.2820E-09  0.2400E+02
     37.304 -0.3899E-12  0.2400E+02
     37.452 -0.1750E-15  0.2400E+02
     37.601  0.0000E+00  0.2400E+02
     37.749  0.0000E+00  0.2400E+02
     37.898  0.0000E+00  0.2400E+02
     38.046  0.0000E+00  0.2400E+02
     38.195  0.0000E+00  0.2400E+02
     38.19462194     -6.34261902  301      5.78415285      1.00000000
     -6.343  0.0000E+00  0.0000E+00  0.0000E+00
     -6.194  0.0000E+00  0.0000E+00  0.0000E+00
     -6.046 -0.2246E-34 -0.2996E-37 -0.2084E-39
     -5.897 -0.4502E-29 -0.6606E-32 -0.5153E-34
     -5.749 -0.2937E-24 -0.4525E-27 -0.3721E-29
     -5.600 -0.6346E-20 -0.1050E-22 -0.9264E-25
     -5.452 -0.4421E-16 -0.8142E-19 -0.7910E-21
     -5.303 -0.1042E-12 -0.2181E-15 -0.2354E-17
     -5.155 -0.8176E-10 -0.2038E-12 -0.2504E-14
     -5.007 -0.2132E-07 -0.6603E-10 -0.9438E-12
     -4.858 -0.1838E-05 -0.7404E-08 -0.1273E-09
     -4.710 -0.5097E-04 -0.2853E-06 -0.6239E-08
     -4.561 -0.3987E-03 -0.3647E-05 -0.1131E-06
     -4.413 -0.2387E-04 -0.1190E-04 -0.7283E-06
     -4.264  0.6594E-02  0.3295E-04 -0.8444E-06
     -4.116  0.1909E-01  0.2605E-03  0.8279E-05
     -3.967  0.2917E-01  0.7040E-03  0.4434E-04
     -3.819  0.3598E-01  0.1295E-02  0.1264E-03
     -3.670  0.4212E-01  0.2033E-02  0.2772E-03
     -3.522  0.4700E-01  0.2830E-02  0.5133E-03
     -3.373  0.5289E-01  0.3854E-02  0.8887E-03
     -3.225  0.5687E-01  0.4803E-02  0.1391E-02
     -3.077  0.6238E-01  0.6091E-02  0.2170E-02
     -2.928  0.6757E-01  0.7373E-02  0.3182E-02
     -2.780  0.7078E-01  0.8624E-02  0.4585E-02
     -2.631  0.7904E-01  0.1062E-01  0.6724E-02
     -2.483  0.8165E-01  0.1186E-01  0.9249E-02
     -2.334  0.8957E-01  0.1418E-01  0.1351E-01
     -2.186  0.9701E-01  0.1638E-01  0.1888E-01
     -2.037  0.1038E+00  0.1866E-01  0.2601E-01
     -1.889  0.1196E+00  0.2220E-01  0.4619E-01
     -1.740  0.1527E+00  0.2617E-01  0.1218E+00
     -1.592  0.1902E+00  0.3077E-01  0.2336E+00
     -1.444  0.2032E+00  0.3550E-01  0.3325E+00
     -1.295  0.2150E+00  0.4311E-01  0.4891E+00
     -1.147  0.2285E+00  0.5263E-01  0.7131E+00
     -0.998  0.2250E+00  0.5907E-01  0.1004E+01
     -0.850  0.2009E+00  0.6071E-01  0.1255E+01
     -0.701  0.1602E+00  0.5886E-01  0.1322E+01
     -0.553  0.1206E+00  0.5817E-01  0.1274E+01
     -0.404  0.8997E-01  0.6103E-01  0.1234E+01
     -0.256  0.5929E-01  0.6195E-01  0.1157E+01
     -0.107  0.2986E-01  0.5821E-01  0.9975E+00
      0.041  0.1583E-01  0.6758E-01  0.1021E+01
      0.190  0.1645E-01  0.8874E-01  0.1267E+01
      0.338  0.1904E-01  0.9423E-01  0.1467E+01
      0.486  0.2154E-01  0.8403E-01  0.1568E+01
      0.635  0.2667E-01  0.7803E-01  0.1598E+01
      0.783  0.3344E-01  0.8341E-01  0.1625E+01
      0.932  0.4202E-01  0.9653E-01  0.1725E+01
      1.080  0.4894E-01  0.1131E+00  0.1978E+01
      1.229  0.5101E-01  0.1290E+00  0.2444E+01
      1.377  0.4594E-01  0.1284E+00  0.2579E+01
      1.526  0.3912E-01  0.1054E+00  0.1917E+01
      1.674  0.3293E-01  0.8952E-01  0.1423E+01
      1.823  0.2847E-01  0.8812E-01  0.1321E+01
      1.971  0.2402E-01  0.7789E-01  0.1304E+01
      2.119  0.2106E-01  0.7318E-01  0.1466E+01
      2.268  0.2245E-01  0.7247E-01  0.1697E+01
      2.416  0.2345E-01  0.6406E-01  0.1823E+01
      2.565  0.2355E-01  0.6155E-01  0.1781E+01
      2.713  0.2003E-01  0.5475E-01  0.1595E+01
      2.862  0.1526E-01  0.4399E-01  0.1458E+01
      3.010  0.1410E-01  0.4175E-01  0.1413E+01
      3.159  0.1443E-01  0.3889E-01  0.1417E+01
      3.307  0.1287E-01  0.3127E-01  0.1450E+01
      3.456  0.1378E-01  0.3008E-01  0.1624E+01
      3.604  0.1518E-01  0.2764E-01  0.2054E+01
      3.752  0.1851E-01  0.2560E-01  0.2547E+01
      3.901  0.1792E-01  0.2081E-01  0.2193E+01
      4.049  0.1932E-01  0.2001E-01  0.1292E+01
      4.198  0.2532E-01  0.2584E-01  0.6158E+00
      4.346  0.2260E-01  0.2435E-01  0.2029E+00
      4.495  0.2894E-01  0.2964E-01  0.1835E+00
      4.643  0.3005E-01  0.3330E-01  0.1844E+00
      4.792  0.3059E-01  0.3547E-01  0.1731E+00
      4.940  0.3526E-01  0.4524E-01  0.1830E+00
      5.089  0.3486E-01  0.4367E-01  0.1598E+00
      5.237  0.3859E-01  0.4458E-01  0.1654E+00
      5.386  0.3639E-01  0.4630E-01  0.1449E+00
      5.534  0.4292E-01  0.5658E-01  0.1607E+00
      5.682  0.4088E-01  0.5238E-01  0.1413E+00
      5.831  0.4069E-01  0.5198E-01  0.1274E+00
      5.979  0.4911E-01  0.5944E-01  0.1458E+00
      6.128  0.4198E-01  0.5672E-01  0.1218E+00
      6.276  0.4582E-01  0.6508E-01  0.1234E+00
      6.425  0.5126E-01  0.6319E-01  0.1254E+00
      6.573  0.4574E-01  0.6079E-01  0.1077E+00
      6.722  0.4778E-01  0.6461E-01  0.1048E+00
      6.870  0.5363E-01  0.7578E-01  0.1160E+00
      7.019  0.4946E-01  0.7469E-01  0.1031E+00
      7.167  0.4971E-01  0.6346E-01  0.9050E-01
      7.315  0.5414E-01  0.6549E-01  0.9414E-01
      7.464  0.5163E-01  0.7056E-01  0.9012E-01
      7.612  0.5498E-01  0.7723E-01  0.9189E-01
      7.761  0.5443E-01  0.6269E-01  0.8032E-01
      7.909  0.5290E-01  0.5902E-01  0.7322E-01
      8.058  0.6109E-01  0.7173E-01  0.8047E-01
      8.206  0.5610E-01  0.5975E-01  0.6820E-01
      8.355  0.5865E-01  0.5794E-01  0.6733E-01
      8.503  0.6255E-01  0.6228E-01  0.6650E-01
      8.652  0.5851E-01  0.5465E-01  0.5555E-01
      8.800  0.9708E-01  0.5010E-01  0.7583E-01
      8.949  0.1710E+00  0.4804E-01  0.1160E+00
      9.097  0.1899E+00  0.5955E-01  0.1277E+00
      9.245  0.1522E+00  0.6058E-01  0.1007E+00
      9.394  0.1235E+00  0.5861E-01  0.7827E-01
      9.542  0.1237E+00  0.6015E-01  0.8102E-01
      9.691  0.9754E-01  0.5264E-01  0.6118E-01
      9.839  0.8954E-01  0.6614E-01  0.6344E-01
      9.988  0.8957E-01  0.6791E-01  0.6750E-01
     10.136  0.7385E-01  0.5846E-01  0.5372E-01
     10.285  0.7332E-01  0.7286E-01  0.5660E-01
     10.433  0.8126E-01  0.8699E-01  0.6438E-01
     10.582  0.8385E-01  0.8867E-01  0.6382E-01
     10.730  0.7677E-01  0.9029E-01  0.6128E-01
     10.878  0.8684E-01  0.9506E-01  0.5951E-01
     11.027  0.1054E+00  0.1023E+00  0.6876E-01
     11.175  0.1040E+00  0.9392E-01  0.6635E-01
     11.324  0.9721E-01  0.9894E-01  0.6052E-01
     11.472  0.1025E+00  0.1088E+00  0.6705E-01
     11.621  0.1188E+00  0.1020E+00  0.6821E-01
     11.769  0.1042E+00  0.9172E-01  0.5742E-01
     11.918  0.8653E-01  0.9845E-01  0.5521E-01
     12.066  0.8356E-01  0.9333E-01  0.5358E-01
     12.215  0.8313E-01  0.7980E-01  0.4584E-01
     12.363  0.8671E-01  0.9428E-01  0.5091E-01
     12.511  0.7305E-01  0.8540E-01  0.4351E-01
     12.660  0.6093E-01  0.7082E-01  0.3501E-01
     12.808  0.7831E-01  0.8919E-01  0.4451E-01
     12.957  0.8395E-01  0.9457E-01  0.4754E-01
     13.105  0.7194E-01  0.9902E-01  0.5164E-01
     13.254  0.7737E-01  0.1197E+00  0.6650E-01
     13.402  0.7090E-01  0.1178E+00  0.6445E-01
     13.551  0.6863E-01  0.1142E+00  0.5631E-01
     13.699  0.6378E-01  0.1113E+00  0.5316E-01
     13.848  0.5674E-01  0.1164E+00  0.5805E-01
     13.996  0.6466E-01  0.1322E+00  0.6887E-01
     14.145  0.6645E-01  0.1532E+00  0.7877E-01
     14.293  0.5739E-01  0.1353E+00  0.6561E-01
     14.441  0.4347E-01  0.1085E+00  0.4986E-01
     14.590  0.3528E-01  0.1110E+00  0.4890E-01
     14.738  0.5446E-01  0.1518E+00  0.6566E-01
     14.887  0.6073E-01  0.1626E+00  0.7597E-01
     15.035  0.3733E-01  0.1289E+00  0.6487E-01
     15.184  0.3772E-01  0.1353E+00  0.6237E-01
     15.332  0.4907E-01  0.1541E+00  0.6097E-01
     15.481  0.4130E-01  0.1433E+00  0.5958E-01
     15.629  0.2681E-01  0.1395E+00  0.6981E-01
     15.778  0.3438E-01  0.1904E+00  0.9868E-01
     15.926  0.4519E-01  0.2154E+00  0.9705E-01
     16.074  0.3855E-01  0.2009E+00  0.7828E-01
     16.223  0.2722E-01  0.1899E+00  0.7977E-01
     16.371  0.2523E-01  0.1955E+00  0.8142E-01
     16.520  0.3387E-01  0.2085E+00  0.8656E-01
     16.668  0.3462E-01  0.2036E+00  0.8634E-01
     16.817  0.2918E-01  0.2100E+00  0.9238E-01
     16.965  0.2639E-01  0.2185E+00  0.1016E+00
     17.114  0.2561E-01  0.1986E+00  0.8430E-01
     17.262  0.2406E-01  0.1695E+00  0.6776E-01
     17.411  0.2421E-01  0.1999E+00  0.8876E-01
     17.559  0.2648E-01  0.2242E+00  0.1047E+00
     17.707  0.2588E-01  0.1897E+00  0.8597E-01
     17.856  0.2230E-01  0.1917E+00  0.8515E-01
     18.004  0.1963E-01  0.2121E+00  0.9834E-01
     18.153  0.2108E-01  0.1857E+00  0.8635E-01
     18.301  0.2303E-01  0.1764E+00  0.8160E-01
     18.450  0.1914E-01  0.1884E+00  0.8911E-01
     18.598  0.1568E-01  0.1971E+00  0.9301E-01
     18.747  0.1767E-01  0.1877E+00  0.8845E-01
     18.895  0.2274E-01  0.2006E+00  0.9429E-01
     19.044  0.1852E-01  0.1802E+00  0.8839E-01
     19.192  0.1357E-01  0.1646E+00  0.8685E-01
     19.341  0.1312E-01  0.1664E+00  0.8543E-01
     19.489  0.1546E-01  0.1768E+00  0.8253E-01
     19.637  0.1691E-01  0.1935E+00  0.9147E-01
     19.786  0.1482E-01  0.1860E+00  0.9656E-01
     19.934  0.1236E-01  0.1513E+00  0.8194E-01
     20.083  0.1368E-01  0.1504E+00  0.8394E-01
     20.231  0.1422E-01  0.1712E+00  0.9672E-01
     20.380  0.1020E-01  0.1617E+00  0.9210E-01
     20.528  0.7524E-02  0.1569E+00  0.8104E-01
     20.677  0.9253E-02  0.1525E+00  0.8101E-01
     20.825  0.1271E-01  0.1427E+00  0.9034E-01
     20.974  0.1263E-01  0.1333E+00  0.8923E-01
     21.122  0.1001E-01  0.1246E+00  0.7796E-01
     21.270  0.8710E-02  0.1273E+00  0.7506E-01
     21.419  0.6873E-02  0.1153E+00  0.6641E-01
     21.567  0.5340E-02  0.1106E+00  0.6198E-01
     21.716  0.7038E-02  0.1144E+00  0.6699E-01
     21.864  0.1118E-01  0.1268E+00  0.8324E-01
     22.013  0.1091E-01  0.1142E+00  0.7801E-01
     22.161  0.8069E-02  0.9210E-01  0.5567E-01
     22.310  0.7575E-02  0.9083E-01  0.4929E-01
     22.458  0.6684E-02  0.1037E+00  0.4337E-01
     22.607  0.8715E-02  0.1184E+00  0.4773E-01
     22.755  0.1259E-01  0.1210E+00  0.5736E-01
     22.904  0.1330E-01  0.1298E+00  0.5797E-01
     23.052  0.1634E-01  0.1634E+00  0.6245E-01
     23.200  0.2306E-01  0.1847E+00  0.7845E-01
     23.349  0.2657E-01  0.1885E+00  0.9440E-01
     23.497  0.3119E-01  0.2023E+00  0.1131E+00
     23.646  0.3474E-01  0.2159E+00  0.1317E+00
     23.794  0.3432E-01  0.1969E+00  0.1323E+00
     23.943  0.3627E-01  0.1760E+00  0.1361E+00
     24.091  0.3089E-01  0.1689E+00  0.1296E+00
     24.240  0.2024E-01  0.1831E+00  0.1072E+00
     24.388  0.2097E-01  0.2023E+00  0.1068E+00
     24.537  0.2429E-01  0.1874E+00  0.1096E+00
     24.685  0.1914E-01  0.1722E+00  0.9993E-01
     24.833  0.1274E-01  0.1456E+00  0.8657E-01
     24.982  0.9644E-02  0.1362E+00  0.8139E-01
     25.130  0.1156E-01  0.1491E+00  0.8667E-01
     25.279  0.1577E-01  0.1402E+00  0.8980E-01
     25.427  0.1583E-01  0.1266E+00  0.9484E-01
     25.576  0.1304E-01  0.1321E+00  0.1026E+00
     25.724  0.8759E-02  0.1160E+00  0.1053E+00
     25.873  0.8239E-02  0.1009E+00  0.1167E+00
     26.021  0.8966E-02  0.9739E-01  0.1138E+00
     26.170  0.1287E-01  0.1119E+00  0.1129E+00
     26.318  0.1372E-01  0.1102E+00  0.1025E+00
     26.466  0.9587E-02  0.8412E-01  0.7833E-01
     26.615  0.7872E-02  0.6903E-01  0.7998E-01
     26.763  0.7890E-02  0.7316E-01  0.6142E-01
     26.912  0.1008E-01  0.7271E-01  0.4942E-01
     27.060  0.1524E-01  0.8542E-01  0.8012E-01
     27.209  0.1502E-01  0.8892E-01  0.8276E-01
     27.357  0.7179E-02  0.6032E-01  0.4210E-01
     27.506  0.4026E-02  0.5039E-01  0.2872E-01
     27.654  0.7333E-02  0.7275E-01  0.4469E-01
     27.803  0.1544E-01  0.1104E+00  0.7935E-01
     27.951  0.1769E-01  0.1261E+00  0.8294E-01
     28.100  0.1254E-01  0.1192E+00  0.4798E-01
     28.248  0.8557E-02  0.1092E+00  0.3974E-01
     28.396  0.5099E-02  0.9478E-01  0.4531E-01
     28.545  0.9948E-02  0.9419E-01  0.6411E-01
     28.693  0.1481E-01  0.8067E-01  0.7885E-01
     28.842  0.8784E-02  0.6535E-01  0.6190E-01
     28.990  0.2955E-02  0.4937E-01  0.5075E-01
     29.139  0.2303E-02  0.4204E-01  0.5343E-01
     29.287  0.3841E-02  0.3842E-01  0.6132E-01
     29.436  0.9884E-02  0.5435E-01  0.9385E-01
     29.584  0.1215E-01  0.6629E-01  0.1153E+00
     29.733  0.5753E-02  0.5071E-01  0.1076E+00
     29.881  0.2740E-02  0.4494E-01  0.1103E+00
     30.029  0.3688E-02  0.5037E-01  0.1222E+00
     30.178  0.6013E-02  0.5099E-01  0.1349E+00
     30.326  0.9938E-02  0.4682E-01  0.1530E+00
     30.475  0.1002E-01  0.5150E-01  0.1727E+00
     30.623  0.7138E-02  0.5836E-01  0.2027E+00
     30.772  0.5248E-02  0.4101E-01  0.2291E+00
     30.920  0.5043E-02  0.3112E-01  0.2251E+00
     31.069  0.7220E-02  0.4281E-01  0.2089E+00
     31.217  0.9578E-02  0.4392E-01  0.1949E+00
     31.366  0.8821E-02  0.4473E-01  0.1760E+00
     31.514  0.7501E-02  0.4430E-01  0.1613E+00
     31.662  0.8700E-02  0.3517E-01  0.1598E+00
     31.811  0.1114E-01  0.3347E-01  0.1536E+00
     31.959  0.1440E-01  0.3120E-01  0.1585E+00
     32.108  0.2022E-01  0.3257E-01  0.1849E+00
     32.256  0.2495E-01  0.4009E-01  0.2079E+00
     32.405  0.2423E-01  0.3434E-01  0.1895E+00
     32.553  0.1788E-01  0.2654E-01  0.1526E+00
     32.702  0.1369E-01  0.2032E-01  0.1341E+00
     32.850  0.1090E-01  0.1554E-01  0.1126E+00
     32.999  0.1150E-01  0.1823E-01  0.9435E-01
     33.147  0.1369E-01  0.2359E-01  0.9001E-01
     33.296  0.1232E-01  0.2132E-01  0.7641E-01
     33.444  0.8193E-02  0.1452E-01  0.5185E-01
     33.592  0.5658E-02  0.1116E-01  0.4477E-01
     33.741  0.4563E-02  0.9741E-02  0.4203E-01
     33.889  0.4417E-02  0.7294E-02  0.2617E-01
     34.038  0.7191E-02  0.1095E-01  0.2858E-01
     34.186  0.5087E-02  0.1085E-01  0.2825E-01
     34.335  0.1812E-02  0.5269E-02  0.2011E-01
     34.483  0.1653E-02  0.3244E-02  0.1284E-01
     34.632  0.1479E-02  0.2791E-02  0.7197E-02
     34.780  0.6609E-03  0.1440E-02  0.6136E-02
     34.929  0.1221E-03  0.5450E-03  0.5519E-02
     35.077  0.1530E-04  0.2085E-03  0.2959E-02
     35.225  0.9240E-05  0.2400E-03  0.1389E-02
     35.374  0.2421E-04  0.4596E-03  0.2055E-02
     35.522  0.2261E-04  0.3214E-03  0.1853E-02
     35.671  0.1175E-04  0.9770E-04  0.9492E-03
     35.819  0.6615E-06 -0.1529E-05  0.2042E-03
     35.968 -0.7385E-06  0.2965E-05  0.1981E-03
     36.116  0.1807E-05  0.1067E-03  0.3141E-03
     36.265  0.3510E-05  0.1706E-03  0.1930E-03
     36.413  0.1104E-05  0.5065E-04  0.2276E-04
     36.562 -0.1608E-06 -0.7836E-05 -0.9436E-05
     36.710 -0.5321E-07 -0.2499E-05 -0.1886E-05
     36.859 -0.2735E-08 -0.1277E-06 -0.8756E-07
     37.007 -0.3894E-10 -0.1816E-08 -0.1207E-08
     37.155 -0.1699E-12 -0.7919E-11 -0.5211E-11
     37.304 -0.2354E-15 -0.1097E-13 -0.7190E-14
     37.452 -0.1058E-18 -0.4927E-17 -0.3223E-17
     37.601  0.0000E+00  0.0000E+00  0.0000E+00
     37.749  0.0000E+00  0.0000E+00  0.0000E+00
     37.898  0.0000E+00  0.0000E+00  0.0000E+00
     38.046  0.0000E+00  0.0000E+00  0.0000E+00
     38.195  0.0000E+00  0.0000E+00  0.0000E+00
