    1    1    1    1
  0.1677775E+02  0.2873533E-09  0.2873533E-09  0.2873533E-09  0.5000000E-15
  1.000000000000000E-004
  CAR 
 FCC Au                                  
     11    770     12
 
  0.2500000E-01  0.2500000E-01  0.2500000E-01  0.2500000E-03
    1       -4.318199   1.000000
    2        0.955991   1.000000
    3        0.971681   1.000000
    4        0.971681   1.000000
    5        2.530461   1.000000
    6        2.530461   1.000000
    7       21.112509   0.000000
    8       24.830886   0.000000
    9       25.043519   0.000000
   10       25.043519   0.000000
   11       29.592020   0.000000
   12       33.793308   0.000000
 
  0.7500000E-01  0.2500000E-01  0.2500000E-01  0.7500000E-03
    1       -4.199895   1.000000
    2        0.912098   1.000000
    3        1.008961   1.000000
    4        1.023285   1.000000
    5        2.488374   1.000000
    6        2.536271   1.000000
    7       21.242459   0.000000
    8       24.082706   0.000000
    9       24.958360   0.000000
   10       25.283184   0.000000
   11       30.185302   0.000000
   12       32.843661   0.000000
 
  0.1250000E+00  0.2500000E-01  0.2500000E-01  0.7500000E-03
    1       -3.911648   1.000000
    2        0.826709   1.000000
    3        1.100008   1.000000
    4        1.118371   1.000000
    5        2.433182   1.000000
    6        2.530900   1.000000
    7       21.461847   0.000000
    8       22.685960   0.000000
    9       25.101759   0.000000
   10       25.693052   0.000000
   11       29.885738   0.000000
   12       32.191850   0.000000
 
  0.1750000E+00  0.2500000E-01  0.2500000E-01  0.7500000E-03
    1       -3.476396   1.000000
    2        0.732871   1.000000
    3        1.209613   1.000000
    4        1.221320   1.000000
    5        2.400490   1.000000
    6        2.549886   1.000000
    7       20.621535   0.000000
    8       22.121077   0.000000
    9       25.345150   0.000000
   10       26.214856   0.000000
   11       28.700434   0.000000
   12       31.274152   0.000000
 
  0.2250000E+00  0.2500000E-01  0.2500000E-01  0.7500000E-03
    1       -2.943775   1.000000
    2        0.699321   1.000000
    3        1.273998   1.000000
    4        1.275895   1.000000
    5        2.457983   1.000000
    6        2.653748   1.000000
    7       18.784617   0.000000
    8       22.211539   0.000000
    9       25.511298   0.000000
   10       26.695339   0.000000
   11       27.944945   0.000000
   12       30.121299   0.000000
 
  0.2750000E+00  0.2500000E-01  0.2500000E-01  0.7500000E-03
    1       -2.410385   1.000000
    2        0.834164   1.000000
    3        1.250938   1.000000
    4        1.255749   1.000000
    5        2.645933   1.000000
    6        2.860564   1.000000
    7       16.792044   0.000000
    8       21.997193   0.000000
    9       25.329407   0.000000
   10       26.701583   0.000000
   11       28.042737   0.000000
   12       29.428610   0.000000
 
  0.3250000E+00  0.2500000E-01  0.2500000E-01  0.7500000E-03
    1       -2.010666   1.000000
    2        1.151977   1.000000
    3        1.174129   1.000000
    4        1.297261   1.000000
    5        2.927339   1.000000
    6        3.145372   1.000000
    7       14.754389   0.000000
    8       21.544908   0.000000
    9       24.785777   0.000000
   10       25.957213   0.000000
   11       28.817199   0.000000
   12       29.594851   0.000000
 
  0.3750000E+00  0.2500000E-01  0.2500000E-01  0.7500000E-03
    1       -1.808495   1.000000
    2        1.068468   1.000000
    3        1.077728   1.000000
    4        2.075137   1.000000
    5        3.237048   1.000000
    6        3.458318   1.000000
    7       12.756650   0.000000
    8       21.067599   0.000000
    9       24.142198   0.000000
   10       24.997723   0.000000
   11       29.772879   0.000000
   12       30.075686   0.000000
 
  0.4250000E+00  0.2500000E-01  0.2500000E-01  0.7500000E-03
    1       -1.742614   1.000000
    2        0.984080   1.000000
    3        0.995414   1.000000
    4        3.024500   1.000000
    5        3.516141   1.000000
    6        3.819257   1.000000
    7       10.905956  -0.000000
    8       20.689479   0.000000
    9       23.610191   0.000000
   10       24.172886   0.000000
   11       30.430537   0.000000
   12       30.510501   0.000000
 
  0.4750000E+00  0.2500000E-01  0.2500000E-01  0.7500000E-03
    1       -1.732160   1.000000
    2        0.928329   1.000000
    3        0.945440   1.000000
    4        3.558697   1.000000
    5        3.711139   1.000000
    6        4.482401   1.000000
    7        9.417856  -0.000000
    8       20.461778   0.000000
    9       23.318362   0.000000
   10       23.610992   0.000000
   11       30.762029   0.000000
   12       30.768833   0.000000
 
 -0.4750000E+00  0.2500000E-01  0.2500000E-01  0.7500000E-03
    1       -1.732626   1.000000
    2        0.910114   1.000000
    3        0.935133   1.000000
    4        3.619681   1.000000
    5        3.783579   1.000000
    6        4.828307   1.000000
    7        8.913366  -0.000000
    8       20.403466   0.000000
    9       23.334761   0.000000
   10       23.368695   0.000000
   11       30.826333   0.000000
   12       30.849277   0.000000
 
 -0.4250000E+00  0.2500000E-01  0.2500000E-01  0.7500000E-03
    1       -1.733059   1.000000
    2        0.935120   1.000000
    3        0.965741   1.000000
    4        3.408417   1.000000
    5        3.732361   1.000000
    6        4.205738   1.000000
    7        9.848743  -0.000000
    8       20.520116   0.000000
    9       23.457744   0.000000
   10       23.681474   0.000000
   11       30.693990   0.000000
   12       30.722918   0.000000
 
 -0.3750000E+00  0.2500000E-01  0.2500000E-01  0.7500000E-03
    1       -1.755349   1.000000
    2        0.998142   1.000000
    3        1.033017   1.000000
    4        2.697386   1.000000
    5        3.555960   1.000000
    6        3.575970   1.000000
    7       11.496125   0.000000
    8       20.803776   0.000000
    9       23.842133   0.000000
   10       24.328468   0.000000
   11       30.330424   0.000000
   12       30.413084   0.000000
 
 -0.3250000E+00  0.2500000E-01  0.2500000E-01  0.7500000E-03
    1       -1.856392   1.000000
    2        1.087774   1.000000
    3        1.122266   1.000000
    4        1.773010   1.000000
    5        3.192930   1.000000
    6        3.300684   1.000000
    7       13.411990   0.000000
    8       21.225507   0.000000
    9       24.425839   0.000000
   10       25.202254   0.000000
   11       29.538868   0.000000
   12       30.071564   0.000000
 
 -0.2750000E+00  0.2500000E-01  0.2500000E-01  0.7500000E-03
    1       -2.122233   1.000000
    2        1.077464   1.000000
    3        1.202674   1.000000
    4        1.214639   1.000000
    5        2.858180   1.000000
    6        3.018004   1.000000
    7       15.433982   0.000000
    8       21.716422   0.000000
    9       25.044102   0.000000
   10       26.144297   0.000000
   11       28.536226   0.000000
   12       29.814419   0.000000
 
 -0.2250000E+00  0.2500000E-01  0.2500000E-01  0.7500000E-03
    1       -2.580091   1.000000
    2        0.760186   1.000000
    3        1.264053   1.000000
    4        1.274586   1.000000
    5        2.585675   1.000000
    6        2.765894   1.000000
    7       17.466083   0.000000
    8       22.116886   0.000000
    9       25.450029   0.000000
   10       26.753204   0.000000
   11       27.868520   0.000000
   12       29.864537   0.000000
 
 -0.1750000E+00  0.2500000E-01  0.2500000E-01  0.7500000E-03
    1       -3.127327   1.000000
    2        0.696006   1.000000
    3        1.262543   1.000000
    4        1.267843   1.000000
    5        2.429728   1.000000
    6        2.604828   1.000000
    7       19.424494   0.000000
    8       22.216886   0.000000
    9       25.498991   0.000000
   10       26.492480   0.000000
   11       28.153277   0.000000
   12       30.552121   0.000000
 
 -0.1250000E+00  0.2500000E-01  0.2500000E-01  0.7500000E-03
    1       -3.635444   1.000000
    2        0.758862   1.000000
    3        1.179516   1.000000
    4        1.189359   1.000000
    5        2.401808   1.000000
    6        2.540546   1.000000
    7       21.125715   0.000000
    8       22.125979   0.000000
    9       25.313924   0.000000
   10       25.939148   0.000000
   11       29.147652   0.000000
   12       31.492004   0.000000
 
 -0.7500000E-01  0.2500000E-01  0.2500000E-01  0.7500000E-03
    1       -4.025541   1.000000
    2        0.856287   1.000000
    3        1.072507   1.000000
    4        1.080777   1.000000
    5        2.444722   1.000000
    6        2.538307   1.000000
    7       21.404344   0.000000
    8       23.183233   0.000000
    9       25.098170   0.000000
   10       25.439691   0.000000
   11       30.252271   0.000000
   12       32.444968   0.000000
 
 -0.2500000E-01  0.2500000E-01  0.2500000E-01  0.7500000E-03
    1       -4.258803   1.000000
    2        0.927216   1.000000
    3        0.996497   1.000000
    4        0.998669   1.000000
    5        2.497317   1.000000
    6        2.544365   1.000000
    7       21.180194   0.000000
    8       24.507219   0.000000
    9       24.988512   0.000000
   10       25.080966   0.000000
   11       29.975776   0.000000
   12       33.154992   0.000000
 
  0.7500000E-01  0.7500000E-01  0.2500000E-01  0.7500000E-03
    1       -4.140815   1.000000
    2        0.866366   1.000000
    3        1.050511   1.000000
    4        1.052470   1.000000
    5        2.432695   1.000000
    6        2.571904   1.000000
    7       21.312885   0.000000
    8       24.085570   0.000000
    9       24.866024   0.000000
   10       25.011256   0.000000
   11       30.601067   0.000000
   12       32.635810   0.000000
 
  0.1250000E+00  0.7500000E-01  0.2500000E-01  0.1500000E-02
    1       -3.909284   1.000000
    2        0.777130   1.000000
    3        1.132927   1.000000
    4        1.148603   1.000000
    5        2.343732   1.000000
    6        2.601450   1.000000
    7       21.536471   0.000000
    8       23.099549   0.000000
    9       24.642658   0.000000
   10       25.355670   0.000000
   11       30.398895   0.000000
   12       32.108411   0.000000
 
  0.1750000E+00  0.7500000E-01  0.2500000E-01  0.1500000E-02
    1       -3.521878   1.000000
    2        0.671288   1.000000
    3        1.244565   1.000000
    4        1.256557   1.000000
    5        2.270333   1.000000
    6        2.642736   1.000000
    7       21.233172   0.000000
    8       22.126870   0.000000
    9       24.619783   0.000000
   10       25.945998   0.000000
   11       29.001543   0.000000
   12       31.458923   0.000000
 
  0.2250000E+00  0.7500000E-01  0.2500000E-01  0.1500000E-02
    1       -3.016160   1.000000
    2        0.594738   1.000000
    3        1.309669   1.000000
    4        1.340127   1.000000
    5        2.293638   1.000000
    6        2.742637   1.000000
    7       19.501789   0.000000
    8       22.228281   0.000000
    9       24.606730   0.000000
   10       26.567869   0.000000
   11       27.908883   0.000000
   12       30.631249   0.000000
 
  0.2750000E+00  0.7500000E-01  0.2500000E-01  0.1500000E-02
    1       -2.469469   1.000000
    2        0.632347   1.000000
    3        1.275615   1.000000
    4        1.352489   1.000000
    5        2.483035   1.000000
    6        2.937075   1.000000
    7       17.535303   0.000000
    8       22.118442   0.000000
    9       24.393304   0.000000
   10       26.793641   0.000000
   11       27.690616   0.000000
   12       29.935415   0.000000
 
  0.3250000E+00  0.7500000E-01  0.2500000E-01  0.1500000E-02
    1       -2.011438   1.000000
    2        0.899009   1.000000
    3        1.183005   1.000000
    4        1.295409   1.000000
    5        2.812475   1.000000
    6        3.214880   1.000000
    7       15.496244   0.000000
    8       21.740442   0.000000
    9       23.943904   0.000000
   10       26.122360   0.000000
   11       28.470529   0.000000
   12       29.880738   0.000000
 
  0.3750000E+00  0.7500000E-01  0.2500000E-01  0.1500000E-02
    1       -1.748740   1.000000
    2        1.034606   1.000000
    3        1.201243   1.000000
    4        1.513639   1.000000
    5        3.209072   1.000000
    6        3.556126   1.000000
    7       13.467897   0.000000
    8       21.278229   0.000000
    9       23.437957   0.000000
   10       25.133332   0.000000
   11       29.522095   0.000000
   12       30.223722   0.000000
 
  0.4250000E+00  0.7500000E-01  0.2500000E-01  0.1500000E-02
    1       -1.652380   1.000000
    2        0.938747   1.000000
    3        1.113270   1.000000
    4        2.245576   1.000000
    5        3.551533   1.000000
    6        4.058872   1.000000
    7       11.544268   0.000000
    8       20.878207   0.000000
    9       23.030148   0.000000
   10       24.182572   0.000000
   11       30.389916   0.000000
   12       30.661675   0.000000
 
  0.4750000E+00  0.7500000E-01  0.2500000E-01  0.1500000E-02
    1       -1.632960   1.000000
    2        0.871651   1.000000
    3        1.045164   1.000000
    4        2.836216   1.000000
    5        3.735292   1.000000
    6        4.824577   1.000000
    7        9.875497  -0.000000
    8       20.604907   0.000000
    9       22.807936   0.000000
   10       23.453012   0.000000
   11       30.780085   0.000000
   12       31.029679   0.000000
 
 -0.4750000E+00  0.7500000E-01  0.2500000E-01  0.1500000E-02
    1       -1.633127   1.000000
    2        0.846513   1.000000
    3        1.012758   1.000000
    4        3.099227   1.000000
    5        3.771625   1.000000
    6        5.455929   1.021177
    7        8.902561  -0.000000
    8       20.488165   0.000000
    9       22.704113   0.000000
   10       23.165852   0.000000
   11       30.909419   0.000000
   12       31.128105   0.000000
 
 -0.4250000E+00  0.7500000E-01  0.2500000E-01  0.1500000E-02
    1       -1.631496   1.000000
    2        0.865877   1.000000
    3        1.021559   1.000000
    4        3.010127   1.000000
    5        3.688227   1.000000
    6        5.115489   1.000012
    7        9.437354  -0.000000
    8       20.534874   0.000000
    9       22.614455   0.000000
   10       23.494609   0.000000
   11       30.776123   0.000000
   12       31.021573   0.000000
 
 -0.3750000E+00  0.7500000E-01  0.2500000E-01  0.1500000E-02
    1       -1.638788   1.000000
    2        0.925925   1.000000
    3        1.071134   1.000000
    4        2.537392   1.000000
    5        3.476786   1.000000
    6        4.372474   1.000000
    7       10.955885  -0.000000
    8       20.738967   0.000000
    9       22.749858   0.000000
   10       24.207943   0.000000
   11       30.270850   0.000000
   12       30.753341   0.000000
 
 -0.3250000E+00  0.7500000E-01  0.2500000E-01  0.1500000E-02
    1       -1.699664   1.000000
    2        1.014231   1.000000
    3        1.151557   1.000000
    4        1.799874   1.000000
    5        3.160693   1.000000
    6        3.824787   1.000000
    7       12.816562   0.000000
    8       21.077013   0.000000
    9       23.128566   0.000000
   10       25.194011   0.000000
   11       29.408152   0.000000
   12       30.295448   0.000000
 
 -0.2750000E+00  0.7500000E-01  0.2500000E-01  0.1500000E-02
    1       -1.897948   1.000000
    2        1.027488   1.000000
    3        1.208976   1.000000
    4        1.258710   1.000000
    5        2.811578   1.000000
    6        3.419537   1.000000
    7       14.817299   0.000000
    8       21.496797   0.000000
    9       23.683644   0.000000
   10       26.327228   0.000000
   11       28.406075   0.000000
   12       29.712138   0.000000
 
 -0.2250000E+00  0.7500000E-01  0.2500000E-01  0.1500000E-02
    1       -2.298223   1.000000
    2        0.705181   1.000000
    3        1.255184   1.000000
    4        1.332678   1.000000
    5        2.502435   1.000000
    6        3.084198   1.000000
    7       16.856926   0.000000
    8       21.886688   0.000000
    9       24.290948   0.000000
   10       27.030766   0.000000
   11       27.854410   0.000000
   12       29.330755   0.000000
 
 -0.1750000E+00  0.7500000E-01  0.2500000E-01  0.1500000E-02
    1       -2.832957   1.000000
    2        0.605323   1.000000
    3        1.301909   1.000000
    4        1.348073   1.000000
    5        2.306981   1.000000
    6        2.823787   1.000000
    7       18.849143   0.000000
    8       22.092048   0.000000
    9       24.651111   0.000000
   10       26.954247   0.000000
   11       27.671071   0.000000
   12       30.117592   0.000000
 
 -0.1250000E+00  0.7500000E-01  0.2500000E-01  0.1500000E-02
    1       -3.364346   1.000000
    2        0.657125   1.000000
    3        1.266174   1.000000
    4        1.273595   1.000000
    5        2.271421   1.000000
    6        2.666508   1.000000
    7       20.688095   0.000000
    8       22.037020   0.000000
    9       24.602848   0.000000
   10       26.597805   0.000000
   11       28.212858   0.000000
   12       31.472416   0.000000
 
 -0.7500000E-01  0.7500000E-01  0.2500000E-01  0.1500000E-02
    1       -3.797024   1.000000
    2        0.762858   1.000000
    3        1.146940   1.000000
    4        1.179497   1.000000
    5        2.340830   1.000000
    6        2.595598   1.000000
    7       21.583781   0.000000
    8       22.498858   0.000000
    9       24.569832   0.000000
   10       25.945698   0.000000
   11       29.559687   0.000000
   12       32.143197   0.000000
 
 -0.2500000E-01  0.7500000E-01  0.2500000E-01  0.1500000E-02
    1       -4.082868   1.000000
    2        0.860728   1.000000
    3        1.055168   1.000000
    4        1.073779   1.000000
    5        2.434208   1.000000
    6        2.558358   1.000000
    7       21.363984   0.000000
    8       23.592013   0.000000
    9       24.842069   0.000000
   10       25.395246   0.000000
   11       30.433446   0.000000
   12       32.547495   0.000000
 
  0.1250000E+00  0.1250000E+00  0.2500000E-01  0.7500000E-03
    1       -3.736564   1.000000
    2        0.665252   1.000000
    3        1.238172   1.000000
    4        1.239079   1.000000
    5        2.218191   1.000000
    6        2.665555   1.000000
    7       21.749804   0.000000
    8       23.205846   0.000000
    9       24.334240   0.000000
   10       24.555466   0.000000
   11       30.700264   0.000000
   12       31.726936   0.000000
 
  0.1750000E+00  0.1250000E+00  0.2500000E-01  0.1500000E-02
    1       -3.404848   1.000000
    2        0.537571   1.000000
    3        1.357967   1.000000
    4        1.368474   1.000000
    5        2.110653   1.000000
    6        2.730049   1.000000
    7       21.888610   0.000000
    8       22.270363   0.000000
    9       23.950451   0.000000
   10       24.808675   0.000000
   11       29.247933   0.000000
   12       31.486699   0.000000
 
  0.2250000E+00  0.1250000E+00  0.2500000E-01  0.1500000E-02
    1       -2.941631   1.000000
    2        0.422480   1.000000
    3        1.403090   1.000000
    4        1.489236   1.000000
    5        2.130999   1.000000
    6        2.832394   1.000000
    7       20.322988   0.000000
    8       22.291019   0.000000
    9       23.731115   0.000000
   10       25.315748   0.000000
   11       28.003114   0.000000
   12       30.993144   0.000000
 
  0.2750000E+00  0.1250000E+00  0.2500000E-01  0.1500000E-02
    1       -2.404739   1.000000
    2        0.374883   1.000000
    3        1.307673   1.000000
    4        1.537216   1.000000
    5        2.381430   1.000000
    6        3.012509   1.000000
    7       18.371853   0.000000
    8       22.210425   0.000000
    9       23.434578   0.000000
   10       25.483103   0.000000
   11       27.726935   0.000000
   12       30.623061   0.000000
 
  0.3250000E+00  0.1250000E+00  0.2500000E-01  0.1500000E-02
    1       -1.905913   1.000000
    2        0.493374   1.000000
    3        1.144890   1.000000
    4        1.507184   1.000000
    5        2.802323   1.000000
    6        3.278763   1.000000
    7       16.318052   0.000000
    8       21.904099   0.000000
    9       22.959980   0.000000
   10       25.081798   0.000000
   11       28.488692   0.000000
   12       30.528554   0.000000
 
  0.3750000E+00  0.1250000E+00  0.2500000E-01  0.1500000E-02
    1       -1.582028   1.000000
    2        0.874255   1.000000
    3        0.980616   1.000000
    4        1.429941   1.000000
    5        3.286162   1.000000
    6        3.652935   1.000000
    7       14.256527   0.000000
    8       21.490781   0.000000
    9       22.468488   0.000000
   10       24.372403   0.000000
   11       29.711211   0.000000
   12       30.692430   0.000000
 
  0.4250000E+00  0.1250000E+00  0.2500000E-01  0.1500000E-02
    1       -1.451080   1.000000
    2        0.844386   1.000000
    3        1.322574   1.000000
    4        1.469925   1.000000
    5        3.615598   1.000000
    6        4.304367   1.000000
    7       12.270478   0.000000
    8       21.074360   0.000000
    9       22.109395   0.000000
   10       23.576331   0.000000
   11       30.708884   0.000000
   12       31.150587   0.000000
 
  0.4750000E+00  0.1250000E+00  0.2500000E-01  0.1500000E-02
    1       -1.419892   1.000000
    2        0.751495   1.000000
    3        1.251243   1.000000
    4        2.029538   1.000000
    5        3.769626   1.000000
    6        5.219727   1.000244
    7       10.460737  -0.000000
    8       20.721590   0.000000
    9       21.926748   0.000000
   10       22.914945   0.000000
   11       30.995546   0.000000
   12       31.585218   0.000000
 
 -0.4750000E+00  0.1250000E+00  0.2500000E-01  0.1500000E-02
    1       -1.415817   1.000000
    2        0.709574   1.000000
    3        1.199912   1.000000
    4        2.404035   1.000000
    5        3.779566   1.000000
    6        6.159367  -0.011684
    7        9.087900  -0.000000
    8       20.462147   0.000000
    9       21.816242   0.000000
   10       22.677104   0.000000
   11       31.088991   0.000000
   12       31.584700   0.000000
 
 -0.4250000E+00  0.1250000E+00  0.2500000E-01  0.1500000E-02
    1       -1.409328   1.000000
    2        0.720314   1.000000
    3        1.184802   1.000000
    4        2.475836   1.000000
    5        3.660832   1.000000
    6        6.172125  -0.009662
    7        9.128700  -0.000000
    8       20.307816   0.000000
    9       21.710632   0.000000
   10       23.026135   0.000000
   11       30.872211   0.000000
   12       31.452412   0.000000
 
 -0.3750000E+00  0.1250000E+00  0.2500000E-01  0.1500000E-02
    1       -1.401285   1.000000
    2        0.778925   1.000000
    3        1.209705   1.000000
    4        2.196837   1.000000
    5        3.426128   1.000000
    6        5.339368   1.003632
    7       10.528960  -0.000000
    8       20.276093   0.000000
    9       21.797876   0.000000
   10       23.789899   0.000000
   11       30.203785   0.000000
   12       31.293727   0.000000
 
 -0.3250000E+00  0.1250000E+00  0.2500000E-01  0.1500000E-02
    1       -1.423595   1.000000
    2        0.870793   1.000000
    3        1.271828   1.000000
    4        1.647464   1.000000
    5        3.100196   1.000000
    6        4.600568   1.000000
    7       12.332388   0.000000
    8       20.376400   0.000000
    9       22.141807   0.000000
   10       24.847887   0.000000
   11       29.213215   0.000000
   12       31.010628   0.000000
 
 -0.2750000E+00  0.1250000E+00  0.2500000E-01  0.1500000E-02
    1       -1.554093   1.000000
    2        0.878674   1.000000
    3        1.144747   1.000000
    4        1.379736   1.000000
    5        2.733798   1.000000
    6        4.030792   1.000000
    7       14.293257   0.000000
    8       20.588057   0.000000
    9       22.732551   0.000000
   10       26.081994   0.000000
   11       28.112248   0.000000
   12       30.508891   0.000000
 
 -0.2250000E+00  0.1250000E+00  0.2500000E-01  0.1500000E-02
    1       -1.888508   1.000000
    2        0.575924   1.000000
    3        1.188758   1.000000
    4        1.476318   1.000000
    5        2.387425   1.000000
    6        3.564747   1.000000
    7       16.311891   0.000000
    8       20.864215   0.000000
    9       23.533533   0.000000
   10       26.547725   0.000000
   11       27.982647   0.000000
   12       29.760324   0.000000
 
 -0.1750000E+00  0.1250000E+00  0.2500000E-01  0.1500000E-02
    1       -2.401183   1.000000
    2        0.469173   1.000000
    3        1.285712   1.000000
    4        1.520590   1.000000
    5        2.150922   1.000000
    6        3.174728   1.000000
    7       18.286654   0.000000
    8       21.159010   0.000000
    9       24.350625   0.000000
   10       25.901922   0.000000
   11       28.842204   0.000000
   12       29.432454   0.000000
 
 -0.1250000E+00  0.1250000E+00  0.2500000E-01  0.1500000E-02
    1       -2.946779   1.000000
    2        0.525538   1.000000
    3        1.323892   1.000000
    4        1.426390   1.000000
    5        2.124545   1.000000
    6        2.878987   1.000000
    7       20.056338   0.000000
    8       21.443830   0.000000
    9       24.378986   0.000000
   10       26.377966   0.000000
   11       27.957058   0.000000
   12       31.008774   0.000000
 
 -0.7500000E-01  0.1250000E+00  0.2500000E-01  0.1500000E-02
    1       -3.412734   1.000000
    2        0.645035   1.000000
    3        1.271464   1.000000
    4        1.277829   1.000000
    5        2.230486   1.000000
    6        2.686580   1.000000
    7       21.226652   0.000000
    8       21.785923   0.000000
    9       24.323136   0.000000
   10       26.612367   0.000000
   11       28.198773   0.000000
   12       32.075169   0.000000
 
 -0.2500000E-01  0.1250000E+00  0.2500000E-01  0.1500000E-02
    1       -3.742891   1.000000
    2        0.764361   1.000000
    3        1.157970   1.000000
    4        1.179030   1.000000
    5        2.364225   1.000000
    6        2.573916   1.000000
    7       21.465623   0.000000
    8       22.269612   0.000000
    9       24.920377   0.000000
   10       25.921298   0.000000
   11       29.435368   0.000000
   12       31.802708   0.000000
 
  0.1750000E+00  0.1750000E+00  0.2500000E-01  0.7500000E-03
    1       -3.134269   1.000000
    2        0.384186   1.000000
    3        1.516303   1.000000
    4        1.524452   1.000000
    5        1.953935   1.000000
    6        2.805913   1.000000
    7       22.248333   0.000000
    8       22.532629   0.000000
    9       23.330909   0.000000
   10       23.705688   0.000000
   11       28.165604   0.000000
   12       31.528834   0.000000
 
  0.2250000E+00  0.1750000E+00  0.2500000E-01  0.1500000E-02
    1       -2.730764   1.000000
    2        0.236090   1.000000
    3        1.546685   1.000000
    4        1.695035   1.000000
    5        1.975230   1.000000
    6        2.903162   1.000000
    7       21.210720   0.000000
    8       22.186991   0.000000
    9       23.219277   0.000000
   10       23.900887   0.000000
   11       26.825829   0.000000
   12       31.433811   0.000000
 
  0.2750000E+00  0.1750000E+00  0.2500000E-01  0.1500000E-02
    1       -2.236144   1.000000
    2        0.127271   1.000000
    3        1.371101   1.000000
    4        1.795715   1.000000
    5        2.310913   1.000000
    6        3.067348   1.000000
    7       19.284207   0.000000
    8       21.831001   0.000000
    9       23.011531   0.000000
   10       24.295519   0.000000
   11       26.390459   0.000000
   12       31.349738   0.000000
 
  0.3250000E+00  0.1750000E+00  0.2500000E-01  0.1500000E-02
    1       -1.734370   1.000000
    2        0.122633   1.000000
    3        1.159374   1.000000
    4        1.803352   1.000000
    5        2.811232   1.000000
    6        3.321874   1.000000
    7       17.207186   0.000000
    8       21.450322   0.000000
    9       22.449367   0.000000
   10       24.045014   0.000000
   11       27.309473   0.000000
   12       31.334138   0.000000
 
  0.3750000E+00  0.1750000E+00  0.2500000E-01  0.1500000E-02
    1       -1.363907   1.000000
    2        0.317741   1.000000
    3        0.970809   1.000000
    4        1.743244   1.000000
    5        3.353670   1.000000
    6        3.724588   1.000000
    7       15.107965   0.000000
    8       21.129619   0.000000
    9       21.700673   0.000000
   10       23.606957   0.000000
   11       28.801794   0.000000
   12       31.403017   0.000000
 
  0.4250000E+00  0.1750000E+00  0.2500000E-01  0.1500000E-02
    1       -1.197091   1.000000
    2        0.617689   1.000000
    3        0.938936   1.000000
    4        1.654604   1.000000
    5        3.664956   1.000000
    6        4.493082   1.000000
    7       13.071553   0.000000
    8       20.877421   0.000000
    9       21.011031   0.000000
   10       23.115017   0.000000
   11       30.482878   0.000000
   12       31.562817   0.000000
 
  0.4750000E+00  0.1750000E+00  0.2500000E-01  0.1500000E-02
    1       -1.147690   1.000000
    2        0.594853   1.000000
    3        1.339682   1.000000
    4        1.571138   1.000000
    5        3.803516   1.000000
    6        5.525092   1.034762
    7       11.173347  -0.000000
    8       20.234414   0.000000
    9       20.957394   0.000000
   10       22.674481   0.000000
   11       31.367258   0.000000
   12       32.282674   0.000000
 
 -0.4750000E+00  0.1750000E+00  0.2500000E-01  0.1500000E-02
    1       -1.129705   1.000000
    2        0.539041   1.000000
    3        1.480434   1.000000
    4        1.752531   1.000000
    5        3.796678   1.000000
    6        6.697697  -0.000000
    7        9.523251  -0.000000
    8       19.626934   0.000000
    9       21.159801   0.000000
   10       22.412288   0.000000
   11       31.395443   0.000000