 running on    4 total cores
 distrk:  each k-point on    4 cores,    1 groups
 distr:  one band on    1 cores,    4 groups
 using from now: INCAR     
 vasp.5.4.4.18Apr17-6-g9f103f2a35 (build May 18 2018 14:42:58) complex          
  
 POSCAR found type information on POSCAR  Au
 POSCAR found :  1 types and       1 ions
 scaLAPACK will be used
 LDA part: xc-table for Ceperly-Alder, standard interpolation
 POSCAR, INCAR and KPOINTS ok, starting setup
 FFT: planning ...
 WAVECAR not read
 reading imaginary part of occupancies ...
 charge-density read from file: fcc                                     
 entering main loop
       N       E                     dE             d eps       ncg     rms          rms(c)
DAV:   1     0.317082874506E+02    0.31708E+02   -0.35704E+03 22500   0.431E+02
DAV:   2    -0.404893208152E+01   -0.35757E+02   -0.33433E+02 21460   0.146E+02
DAV:   3    -0.439027434542E+01   -0.34134E+00   -0.34121E+00 22312   0.149E+01
DAV:   4    -0.439123605331E+01   -0.96171E-03   -0.96168E-03 22156   0.821E-01
DAV:   5    -0.439124315529E+01   -0.71020E-05   -0.71022E-05 21144   0.685E-02
DAV:   6    -0.439124331710E+01   -0.16181E-06   -0.16191E-06 15816   0.967E-03
   1 F= -.43912433E+01 E0= -.43912791E+01  d E =0.107327E-03
 writing wavefunctions
