PROCAR new format
# of k-points:  770         # of bands:   12         # of ions:    1

 k-point     1 :    0.02500000 0.02500000 0.02500000     weight = 0.00025000

band     1 # energy   -4.31819898 # occ.  2.00000000
 
ion      s      p      d    tot
    1  0.690  0.001  0.000  0.691
 
band     2 # energy    0.95599077 # occ.  2.00000000
 
ion      s      p      d    tot
    1  0.000  0.000  0.948  0.948
 
band     3 # energy    0.97168092 # occ.  2.00000000
 
ion      s      p      d    tot
    1  0.000  0.000  0.948  0.948
 
band     4 # energy    0.97168092 # occ.  2.00000000
 
ion      s      p      d    tot
    1  0.000  0.000  0.948  0.948
 
band     5 # energy    2.53046124 # occ.  2.00000000
 
ion      s      p      d    tot
    1  0.000  0.000  0.968  0.968
 
band     6 # energy    2.53046124 # occ.  2.00000000
 
ion      s      p      d    tot
    1  0.000  0.000  0.968  0.968
 
band     7 # energy   21.11250945 # occ.  0.00000000
 
ion      s      p      d    tot
    1  0.000  0.000  0.003  0.003
 
band     8 # energy   24.83088627 # occ.  0.00000000
 
ion      s      p      d    tot
    1  0.004  0.215  0.004  0.223
 
band     9 # energy   25.04351857 # occ.  0.00000000
 
ion      s      p      d    tot
    1  0.000  0.221  0.002  0.223
 
band    10 # energy   25.04351857 # occ.  0.00000000
 
ion      s      p      d    tot
    1  0.000  0.221  0.002  0.223
 
band    11 # energy   29.59201958 # occ.  0.00000000
 
ion      s      p      d    tot
    1  0.061  0.014  0.001  0.075
 
band    12 # energy   33.79330779 # occ.  0.00000000
 
ion      s      p      d    tot
    1  0.001  0.063  0.588  0.652
 

 k-point     2 :    0.07500000 0.02500000 0.02500000     weight = 0.00075000

band     1 # energy   -4.19989503 # occ.  2.00000000
 
ion      s      p      d    tot
    1  0.683  0.008  0.000  0.691
 
band     2 # energy    0.91209847 # occ.  2.00000000
 
ion      s      p      d    tot
    1  0.000  0.001  0.944  0.945
 
band     3 # energy    1.00896147 # occ.  2.00000000
 
ion      s      p      d    tot
    1  0.000  0.000  0.948  0.948
 
band     4 # energy    1.02328526 # occ.  2.00000000
 
ion      s      p      d    tot
    1  0.000  0.001  0.947  0.948
 
band     5 # energy    2.48837405 # occ.  2.00000000
 
ion      s      p      d    tot
    1  0.000  0.000  0.966  0.966
 
band     6 # energy    2.53627140 # occ.  2.00000000
 
ion      s      p      d    tot
    1  0.000  0.000  0.968  0.968
 
band     7 # energy   21.24245914 # occ.  0.00000000
 
ion      s      p      d    tot
    1  0.000  0.001  0.018  0.018
 
band     8 # energy   24.08270553 # occ.  0.00000000
 
ion      s      p      d    tot
    1  0.020  0.201  0.018  0.239
 
band     9 # energy   24.95835977 # occ.  0.00000000
 
ion      s      p      d    tot
    1  0.000  0.239  0.018  0.257
 
band    10 # energy   25.28318355 # occ.  0.00000000
 
ion      s      p      d    tot
    1  0.000  0.219  0.010  0.229
 
band    11 # energy   30.18530233 # occ.  0.00000000
 
ion      s      p      d    tot
    1  0.036  0.093  0.030  0.158
 
band    12 # energy   32.84366103 # occ.  0.00000000
 
ion      s      p      d    tot
    1  0.018  0.144  0.350  0.512
 

 k-point     3 :    0.12500000 0.02500000 0.02500000     weight = 0.00075000

band     1 # energy   -3.91164848 # occ.  2.00000000
 
ion      s      p      d    tot
    1  0.667  0.023  0.003  0.692
 
band     2 # energy    0.82670944 # occ.  2.00000000
 
ion      s      p      d    tot
    1  0.001  0.006  0.933  0.939
 
band     3 # energy    1.10000760 # occ.  2.00000000
 
ion      s      p      d    tot
    1  0.000  0.000  0.948  0.948
 
band     4 # energy    1.11837141 # occ.  2.00000000
 
ion      s      p      d    tot
    1  0.000  0.002  0.945  0.947
 
band     5 # energy    2.43318212 # occ.  2.00000000
 
ion      s      p      d    tot
    1  0.000  0.000  0.963  0.963
 
band     6 # energy    2.53090041 # occ.  2.00000000
 
ion      s      p      d    tot
    1  0.000  0.000  0.965  0.966
 
band     7 # energy   21.46184733 # occ.  0.00000000
 
ion      s      p      d    tot
    1  0.003  0.025  0.071  0.098
 
band     8 # energy   22.68596026 # occ.  0.00000000
 
ion      s      p      d    tot
    1  0.039  0.188  0.025  0.252
 
band     9 # energy   25.10175865 # occ.  0.00000000
 
ion      s      p      d    tot
    1  0.000  0.264  0.046  0.311
 
band    10 # energy   25.69305235 # occ.  0.00000000
 
ion      s      p      d    tot
    1  0.000  0.228  0.034  0.262
 
band    11 # energy   29.88573761 # occ.  0.00000000
 
ion      s      p      d    tot
    1  0.000  0.271  0.134  0.406
 
band    12 # energy   32.19184979 # occ.  0.00000000
 
ion      s      p      d    tot
    1  0.001  0.177  0.306  0.485
 

 k-point     4 :    0.17500000 0.02500000 0.02500000     weight = 0.00075000

band     1 # energy   -3.47639612 # occ.  2.00000000
 
ion      s      p      d    tot
    1  0.638  0.044  0.014  0.696
 
band     2 # energy    0.73287143 # occ.  2.00000000
 
ion      s      p      d    tot
    1  0.004  0.016  0.909  0.928
 
band     3 # energy    1.20961252 # occ.  2.00000000
 
ion      s      p      d    tot
    1  0.000  0.001  0.947  0.948
 
band     4 # energy    1.22132013 # occ.  2.00000000
 
ion      s      p      d    tot
    1  0.000  0.004  0.943  0.947
 
band     5 # energy    2.40048977 # occ.  2.00000000
 
ion      s      p      d    tot
    1  0.000  0.000  0.959  0.959
 
band     6 # energy    2.54988595 # occ.  2.00000000
 
ion      s      p      d    tot
    1  0.000  0.001  0.962  0.963
 
band     7 # energy   20.62153470 # occ.  0.00000000
 
ion      s      p      d    tot
    1  0.057  0.229  0.139  0.424
 
band     8 # energy   22.12107697 # occ.  0.00000000
 
ion      s      p      d    tot
    1  0.010  0.015  0.033  0.058
 
band     9 # energy   25.34515028 # occ.  0.00000000
 
ion      s      p      d    tot
    1  0.000  0.307  0.086  0.393
 
band    10 # energy   26.21485565 # occ.  0.00000000
 
ion      s      p      d    tot
    1  0.000  0.259  0.073  0.332
 
band    11 # energy   28.70043416 # occ.  0.00000000
 
ion      s      p      d    tot
    1  0.009  0.280  0.080  0.369
 
band    12 # energy   31.27415233 # occ.  0.00000000
 
ion      s      p      d    tot
    1  0.000  0.172  0.213  0.385
 

 k-point     5 :    0.22500000 0.02500000 0.02500000     weight = 0.00075000

band     1 # energy   -2.94377535 # occ.  2.00000000
 
ion      s      p      d    tot
    1  0.592  0.063  0.051  0.706
 
band     2 # energy    0.69932075 # occ.  2.00000000
 
ion      s      p      d    tot
    1  0.017  0.037  0.856  0.910
 
band     3 # energy    1.27399761 # occ.  2.00000000
 
ion      s      p      d    tot
    1  0.001  0.004  0.941  0.945
 
band     4 # energy    1.27589545 # occ.  2.00000000
 
ion      s      p      d    tot
    1  0.000  0.001  0.945  0.947
 
band     5 # energy    2.45798253 # occ.  2.00000000
 
ion      s      p      d    tot
    1  0.000  0.001  0.956  0.957
 
band     6 # energy    2.65374778 # occ.  2.00000000
 
ion      s      p      d    tot
    1  0.001  0.002  0.958  0.961
 
band     7 # energy   18.78461725 # occ.  0.00000000
 
ion      s      p      d    tot
    1  0.097  0.280  0.159  0.536
 
band     8 # energy   22.21153931 # occ.  0.00000000
 
ion      s      p      d    tot
    1  0.003  0.006  0.077  0.085
 
band     9 # energy   25.51129821 # occ.  0.00000000
 
ion      s      p      d    tot
    1  0.001  0.381  0.128  0.510
 
band    10 # energy   26.69533948 # occ.  0.00000000
 
ion      s      p      d    tot
    1  0.000  0.340  0.121  0.461
 
band    11 # energy   27.94494540 # occ.  0.00000000
 
ion      s      p      d    tot
    1  0.022  0.226  0.025  0.273
 
band    12 # energy   30.12129896 # occ.  0.00000000
 
ion      s      p      d    tot
    1  0.000  0.189  0.210  0.399
 

 k-point     6 :    0.27500000 0.02500000 0.02500000     weight = 0.00075000

band     1 # energy   -2.41038504 # occ.  2.00000000
 
ion      s      p      d    tot
    1  0.515  0.069  0.146  0.730
 
band     2 # energy    0.83416406 # occ.  2.00000000
 
ion      s      p      d    tot
    1  0.050  0.082  0.745  0.877
 
band     3 # energy    1.25093795 # occ.  2.00000000
 
ion      s      p      d    tot
    1  0.001  0.005  0.936  0.942
 
band     4 # energy    1.25574943 # occ.  2.00000000
 
ion      s      p      d    tot
    1  0.000  0.001  0.944  0.945
 
band     5 # energy    2.64593266 # occ.  2.00000000
 
ion      s      p      d    tot
    1  0.000  0.002  0.955  0.957
 
band     6 # energy    2.86056360 # occ.  2.00000000
 
ion      s      p      d    tot
    1  0.002  0.003  0.955  0.960
 
band     7 # energy   16.79204446 # occ.  0.00000000
 
ion      s      p      d    tot
    1  0.140  0.301  0.183  0.624
 
band     8 # energy   21.99719333 # occ.  0.00000000
 
ion      s      p      d    tot
    1  0.001  0.018  0.076  0.095
 
band     9 # energy   25.32940702 # occ.  0.00000000
 
ion      s      p      d    tot
    1  0.002  0.463  0.142  0.607
 
band    10 # energy   26.70158256 # occ.  0.00000000
 
ion      s      p      d    tot
    1  0.000  0.484  0.136  0.620
 
band    11 # energy   28.04273707 # occ.  0.00000000
 
ion      s      p      d    tot
    1  0.031  0.149  0.034  0.214
 
band    12 # energy   29.42861025 # occ.  0.00000000
 
ion      s      p      d    tot
    1  0.000  0.048  0.223  0.271
 

 k-point     7 :    0.32500000 0.02500000 0.02500000     weight = 0.00075000

band     1 # energy   -2.01066628 # occ.  2.00000000
 
ion      s      p      d    tot
    1  0.407  0.052  0.312  0.771
 
band     2 # energy    1.15197726 # occ.  2.00000000
 
ion      s      p      d    tot
    1  0.009  0.014  0.910  0.933
 
band     3 # energy    1.17412901 # occ.  2.00000000
 
ion      s      p      d    tot
    1  0.000  0.000  0.942  0.942
 
band     4 # energy    1.29726084 # occ.  2.00000000
 
ion      s      p      d    tot
    1  0.097  0.151  0.583  0.831
 
band     5 # energy    2.92733946 # occ.  2.00000000
 
ion      s      p      d    tot
    1  0.000  0.003  0.957  0.960
 
band     6 # energy    3.14537201 # occ.  2.00000000
 
ion      s      p      d    tot
    1  0.004  0.006  0.951  0.962
 
band     7 # energy   14.75438942 # occ.  0.00000000
 
ion      s      p      d    tot
    1  0.191  0.297  0.205  0.694
 
band     8 # energy   21.54490849 # occ.  0.00000000
 
ion      s      p      d    tot
    1  0.000  0.025  0.052  0.077
 
band     9 # energy   24.78577662 # occ.  0.00000000
 
ion      s      p      d    tot
    1  0.003  0.502  0.114  0.619
 
band    10 # energy   25.95721330 # occ.  0.00000000
 
ion      s      p      d    tot
    1  0.000  0.529  0.098  0.628
 
band    11 # energy   28.81719872 # occ.  0.00000000
 
ion      s      p      d    tot
    1  0.037  0.091  0.109  0.238
 
band    12 # energy   29.59485144 # occ.  0.00000000
 
ion      s      p      d    tot
    1  0.000  0.001  0.313  0.314
 

 k-point     8 :    0.37500000 0.02500000 0.02500000     weight = 0.00075000

band     1 # energy   -1.80849520 # occ.  2.00000000
 
ion      s      p      d    tot
    1  0.307  0.027  0.477  0.812
 
band     2 # energy    1.06846798 # occ.  2.00000000
 
ion      s      p      d    tot
    1  0.000  0.001  0.939  0.940
 
band     3 # energy    1.07772768 # occ.  2.00000000
 
ion      s      p      d    tot
    1  0.000  0.000  0.940  0.940
 
band     4 # energy    2.07513660 # occ.  2.00000000
 
ion      s      p      d    tot
    1  0.138  0.255  0.377  0.770
 
band     5 # energy    3.23704836 # occ.  2.00000000
 
ion      s      p      d    tot
    1  0.000  0.002  0.963  0.965
 
band     6 # energy    3.45831837 # occ.  2.00000000
 
ion      s      p      d    tot
    1  0.010  0.015  0.933  0.959
 
band     7 # energy   12.75664964 # occ.  0.00000000
 
ion      s      p      d    tot
    1  0.252  0.264  0.232  0.748
 
band     8 # energy   21.06759930 # occ.  0.00000000
 
ion      s      p      d    tot
    1  0.000  0.026  0.029  0.055
 
band     9 # energy   24.14219777 # occ.  0.00000000
 
ion      s      p      d    tot
    1  0.003  0.512  0.073  0.588
 
band    10 # energy   24.99772283 # occ.  0.00000000
 
ion      s      p      d    tot
    1  0.000  0.523  0.058  0.580
 
band    11 # energy   29.77287851 # occ.  0.00000000
 
ion      s      p      d    tot
    1  0.032  0.038  0.254  0.324
 
band    12 # energy   30.07568573 # occ.  0.00000000
 
ion      s      p      d    tot
    1  0.000  0.002  0.417  0.419
 

 k-point     9 :    0.42500000 0.02500000 0.02500000     weight = 0.00075000

band     1 # energy   -1.74261403 # occ.  2.00000000
 
ion      s      p      d    tot
    1  0.245  0.011  0.582  0.837
 
band     2 # energy    0.98408027 # occ.  2.00000000
 
ion      s      p      d    tot
    1  0.000  0.001  0.937  0.938
 
band     3 # energy    0.99541371 # occ.  2.00000000
 
ion      s      p      d    tot
    1  0.000  0.000  0.939  0.939
 
band     4 # energy    3.02450031 # occ.  2.00000000
 
ion      s      p      d    tot
    1  0.094  0.291  0.384  0.769
 
band     5 # energy    3.51614052 # occ.  2.00000000
 
ion      s      p      d    tot
    1  0.000  0.001  0.969  0.970
 
band     6 # energy    3.81925729 # occ.  2.00000000
 
ion      s      p      d    tot
    1  0.038  0.095  0.777  0.910
 
band     7 # energy   10.90595577 # occ. -0.00000000
 
ion      s      p      d    tot
    1  0.331  0.194  0.274  0.800
 
band     8 # energy   20.68947893 # occ.  0.00000000
 
ion      s      p      d    tot
    1  0.000  0.024  0.014  0.038
 
band     9 # energy   23.61019137 # occ.  0.00000000
 
ion      s      p      d    tot
    1  0.003  0.514  0.037  0.554
 
band    10 # energy   24.17288582 # occ.  0.00000000
 
ion      s      p      d    tot
    1  0.000  0.517  0.026  0.544
 
band    11 # energy   30.43053727 # occ.  0.00000000
 
ion      s      p      d    tot
    1  0.009  0.005  0.428  0.441
 
band    12 # energy   30.51050143 # occ.  0.00000000
 
ion      s      p      d    tot
    1  0.000  0.002  0.503  0.505
 

 k-point    10 :    0.47500000 0.02500000 0.02500000     weight = 0.00075000

band     1 # energy   -1.73216047 # occ.  2.00000000
 
ion      s      p      d    tot
    1  0.215  0.003  0.632  0.849
 
band     2 # energy    0.92832937 # occ.  2.00000000
 
ion      s      p      d    tot
    1  0.000  0.000  0.937  0.937
 
band     3 # energy    0.94543978 # occ.  2.00000000
 
ion      s      p      d    tot
    1  0.000  0.000  0.938  0.938
 
band     4 # energy    3.55869723 # occ.  2.00000000
 
ion      s      p      d    tot
    1  0.009  0.114  0.778  0.902
 
band     5 # energy    3.71113907 # occ.  2.00000000
 
ion      s      p      d    tot
    1  0.000  0.000  0.974  0.975
 
band     6 # energy    4.48240075 # occ.  2.00000000
 
ion      s      p      d    tot
    1  0.046  0.414  0.259  0.720
 
band     7 # energy    9.41785564 # occ. -0.00000000
 
ion      s      p      d    tot
    1  0.437  0.075  0.347  0.860
 
band     8 # energy   20.46177838 # occ.  0.00000000
 
ion      s      p      d    tot
    1  0.000  0.023  0.006  0.029
 
band     9 # energy   23.31836188 # occ.  0.00000000
 
ion      s      p      d    tot
    1  0.003  0.513  0.015  0.531
 
band    10 # energy   23.61099189 # occ.  0.00000000
 
ion      s      p      d    tot
    1  0.000  0.516  0.008  0.524
 
band    11 # energy   30.76202928 # occ.  0.00000000
 
ion      s      p      d    tot
    1  0.002  0.000  0.519  0.521
 
band    12 # energy   30.76883302 # occ.  0.00000000
 
ion      s      p      d    tot
    1  0.000  0.001  0.551  0.552
 

 k-point    11 :   -0.47500000 0.02500000 0.02500000     weight = 0.00075000

band     1 # energy   -1.73262589 # occ.  2.00000000
 
ion      s      p      d    tot
    1  0.208  0.001  0.643  0.852
 
band     2 # energy    0.91011380 # occ.  2.00000000
 
ion      s      p      d    tot
    1  0.000  0.000  0.937  0.937
 
band     3 # energy    0.93513275 # occ.  2.00000000
 
ion      s      p      d    tot
    1  0.000  0.000  0.937  0.938
 
band     4 # energy    3.61968141 # occ.  2.00000000
 
ion      s      p      d    tot
    1  0.000  0.073  0.856  0.930
 
band     5 # energy    3.78357885 # occ.  2.00000000
 
ion      s      p      d    tot
    1  0.000  0.000  0.977  0.977
 
band     6 # energy    4.82830745 # occ.  2.00000000
 
ion      s      p      d    tot
    1  0.003  0.533  0.124  0.659
 
band     7 # energy    8.91336559 # occ. -0.00000000
 
ion      s      p      d    tot
    1  0.496  0.004  0.392  0.892
 
band     8 # energy   20.40346611 # occ.  0.00000000
 
ion      s      p      d    tot
    1  0.000  0.023  0.004  0.026
 
band     9 # energy   23.33476117 # occ.  0.00000000
 
ion      s      p      d    tot
    1  0.003  0.513  0.008  0.523
 
band    10 # energy   23.36869543 # occ.  0.00000000
 
ion      s      p      d    tot
    1  0.000  0.516  0.004  0.520
 
band    11 # energy   30.82633254 # occ.  0.00000000
 
ion      s      p      d    tot
    1  0.000  0.000  0.551  0.551
 
band    12 # energy   30.84927730 # occ.  0.00000000
 
ion      s      p      d    tot
    1  0.000  0.001  0.553  0.554
 

 k-point    12 :   -0.42500000 0.02500000 0.02500000     weight = 0.00075000

band     1 # energy   -1.73305884 # occ.  2.00000000
 
ion      s      p      d    tot
    1  0.222  0.005  0.620  0.846
 
band     2 # energy    0.93511962 # occ.  2.00000000
 
ion      s      p      d    tot
    1  0.000  0.000  0.937  0.937
 
band     3 # energy    0.96574063 # occ.  2.00000000
 
ion      s      p      d    tot
    1  0.000  0.000  0.938  0.938
 
band     4 # energy    3.40841695 # occ.  2.00000000
 
ion      s      p      d    tot
    1  0.023  0.149  0.703  0.875
 
band     5 # energy    3.73236079 # occ.  2.00000000
 
ion      s      p      d    tot
    1  0.000  0.000  0.975  0.975
 
band     6 # energy    4.20573779 # occ.  2.00000000
 
ion      s      p      d    tot
    1  0.064  0.330  0.371  0.765
 
band     7 # energy    9.84874336 # occ. -0.00000000
 
ion      s      p      d    tot
    1  0.399  0.120  0.319  0.838
 
band     8 # energy   20.52011591 # occ.  0.00000000
 
ion      s      p      d    tot
    1  0.000  0.023  0.007  0.031
 
band     9 # energy   23.45774365 # occ.  0.00000000
 
ion      s      p      d    tot
    1  0.000  0.517  0.017  0.535
 
band    10 # energy   23.68147387 # occ.  0.00000000
 
ion      s      p      d    tot
    1  0.003  0.512  0.017  0.532
 
band    11 # energy   30.69398956 # occ.  0.00000000
 
ion      s      p      d    tot
    1  0.000  0.000  0.504  0.504
 
band    12 # energy   30.72291787 # occ.  0.00000000
 
ion      s      p      d    tot
    1  0.000  0.002  0.534  0.536
 

 k-point    13 :   -0.37500000 0.02500000 0.02500000     weight = 0.00075000

band     1 # energy   -1.75534899 # occ.  2.00000000
 
ion      s      p      d    tot
    1  0.261  0.015  0.554  0.830
 
band     2 # energy    0.99814202 # occ.  2.00000000
 
ion      s      p      d    tot
    1  0.000  0.000  0.938  0.938
 
band     3 # energy    1.03301679 # occ.  2.00000000
 
ion      s      p      d    tot
    1  0.000  0.001  0.938  0.939
 
band     4 # energy    2.69738564 # occ.  2.00000000
 
ion      s      p      d    tot
    1  0.116  0.286  0.362  0.763
 
band     5 # energy    3.55596040 # occ.  2.00000000
 
ion      s      p      d    tot
    1  0.000  0.001  0.970  0.972
 
band     6 # energy    3.57596997 # occ.  2.00000000
 
ion      s      p      d    tot
    1  0.029  0.060  0.841  0.930
 
band     7 # energy   11.49612544 # occ.  0.00000000
 
ion      s      p      d    tot
    1  0.302  0.223  0.257  0.782
 
band     8 # energy   20.80377606 # occ.  0.00000000
 
ion      s      p      d    tot
    1  0.000  0.024  0.017  0.042
 
band     9 # energy   23.84213316 # occ.  0.00000000
 
ion      s      p      d    tot
    1  0.000  0.518  0.046  0.564
 
band    10 # energy   24.32846810 # occ.  0.00000000
 
ion      s      p      d    tot
    1  0.003  0.513  0.041  0.557
 
band    11 # energy   30.33042382 # occ.  0.00000000
 
ion      s      p      d    tot
    1  0.007  0.012  0.442  0.461
 
band    12 # energy   30.41308409 # occ.  0.00000000
 
ion      s      p      d    tot
    1  0.000  0.000  0.421  0.421
 

 k-point    14 :   -0.32500000 0.02500000 0.02500000     weight = 0.00075000

band     1 # energy   -1.85639191 # occ.  2.00000000
 
ion      s      p      d    tot
    1  0.337  0.035  0.428  0.800
 
band     2 # energy    1.08777397 # occ.  2.00000000
 
ion      s      p      d    tot
    1  0.000  0.000  0.940  0.940
 
band     3 # energy    1.12226640 # occ.  2.00000000
 
ion      s      p      d    tot
    1  0.000  0.001  0.940  0.941
 
band     4 # energy    1.77301018 # occ.  2.00000000
 
ion      s      p      d    tot
    1  0.133  0.222  0.432  0.787
 
band     5 # energy    3.19292988 # occ.  2.00000000
 
ion      s      p      d    tot
    1  0.009  0.013  0.935  0.956
 
band     6 # energy    3.30068355 # occ.  2.00000000
 
ion      s      p      d    tot
    1  0.000  0.002  0.965  0.967
 
band     7 # energy   13.41198952 # occ.  0.00000000
 
ion      s      p      d    tot
    1  0.230  0.279  0.222  0.731
 
band     8 # energy   21.22550667 # occ.  0.00000000
 
ion      s      p      d    tot
    1  0.000  0.025  0.035  0.060
 
band     9 # energy   24.42583893 # occ.  0.00000000
 
ion      s      p      d    tot
    1  0.000  0.516  0.087  0.603
 
band    10 # energy   25.20225397 # occ.  0.00000000
 
ion      s      p      d    tot
    1  0.004  0.516  0.074  0.594
 
band    11 # energy   29.53886805 # occ.  0.00000000
 
ion      s      p      d    tot
    1  0.030  0.059  0.232  0.322
 
band    12 # energy   30.07156359 # occ.  0.00000000
 
ion      s      p      d    tot
    1  0.000  0.003  0.317  0.321
 

 k-point    15 :   -0.27500000 0.02500000 0.02500000     weight = 0.00075000

band     1 # energy   -2.12223284 # occ.  2.00000000
 
ion      s      p      d    tot
    1  0.445  0.059  0.252  0.756
 
band     2 # energy    1.07746381 # occ.  2.00000000
 
ion      s      p      d    tot
    1  0.076  0.113  0.667  0.856
 
band     3 # energy    1.20267400 # occ.  2.00000000
 
ion      s      p      d    tot
    1  0.011  0.020  0.897  0.928
 
band     4 # energy    1.21463942 # occ.  2.00000000
 
ion      s      p      d    tot
    1  0.000  0.002  0.941  0.943
 
band     5 # energy    2.85817989 # occ.  2.00000000
 
ion      s      p      d    tot
    1  0.004  0.006  0.948  0.957
 
band     6 # energy    3.01800440 # occ.  2.00000000
 
ion      s      p      d    tot
    1  0.000  0.002  0.960  0.963
 
band     7 # energy   15.43398162 # occ.  0.00000000
 
ion      s      p      d    tot
    1  0.173  0.302  0.198  0.673
 
band     8 # energy   21.71642215 # occ.  0.00000000
 
ion      s      p      d    tot
    1  0.000  0.022  0.059  0.081
 
band     9 # energy   25.04410227 # occ.  0.00000000
 
ion      s      p      d    tot
    1  0.000  0.498  0.131  0.629
 
band    10 # energy   26.14429741 # occ.  0.00000000
 
ion      s      p      d    tot
    1  0.006  0.514  0.110  0.630
 
band    11 # energy   28.53622618 # occ.  0.00000000
 
ion      s      p      d    tot
    1  0.029  0.107  0.104  0.240
 
band    12 # energy   29.81441896 # occ.  0.00000000
 
ion      s      p      d    tot
    1  0.009  0.039  0.214  0.262
 

 k-point    16 :   -0.22500000 0.02500000 0.02500000     weight = 0.00075000

band     1 # energy   -2.58009149 # occ.  2.00000000
 
ion      s      p      d    tot
    1  0.545  0.069  0.106  0.720
 
band     2 # energy    0.76018617 # occ.  2.00000000
 
ion      s      p      d    tot
    1  0.036  0.064  0.790  0.890
 
band     3 # energy    1.26405255 # occ.  2.00000000
 
ion      s      p      d    tot
    1  0.001  0.003  0.940  0.944
 
band     4 # energy    1.27458623 # occ.  2.00000000
 
ion      s      p      d    tot
    1  0.000  0.003  0.943  0.945
 
band     5 # energy    2.58567474 # occ.  2.00000000
 
ion      s      p      d    tot
    1  0.002  0.003  0.951  0.956
 
band     6 # energy    2.76589395 # occ.  2.00000000
 
ion      s      p      d    tot
    1  0.000  0.002  0.959  0.961
 
band     7 # energy   17.46608268 # occ.  0.00000000
 
ion      s      p      d    tot
    1  0.125  0.297  0.176  0.597
 
band     8 # energy   22.11688555 # occ.  0.00000000
 
ion      s      p      d    tot
    1  0.001  0.011  0.079  0.091
 
band     9 # energy   25.45002889 # occ.  0.00000000
 
ion      s      p      d    tot
    1  0.000  0.441  0.150  0.591
 
band    10 # energy   26.75320416 # occ.  0.00000000
 
ion      s      p      d    tot
    1  0.003  0.445  0.132  0.581
 
band    11 # energy   27.86852047 # occ.  0.00000000
 
ion      s      p      d    tot
    1  0.026  0.165  0.037  0.228
 
band    12 # energy   29.86453718 # occ.  0.00000000
 
ion      s      p      d    tot
    1  0.003  0.111  0.171  0.285
 

 k-point    17 :   -0.17500000 0.02500000 0.02500000     weight = 0.00075000

band     1 # energy   -3.12732664 # occ.  2.00000000
 
ion      s      p      d    tot
    1  0.610  0.057  0.034  0.701
 
band     2 # energy    0.69600644 # occ.  2.00000000
 
ion      s      p      d    tot
    1  0.011  0.028  0.879  0.917
 
band     3 # energy    1.26254345 # occ.  2.00000000
 
ion      s      p      d    tot
    1  0.000  0.002  0.943  0.946
 
band     4 # energy    1.26784257 # occ.  2.00000000
 
ion      s      p      d    tot
    1  0.000  0.003  0.944  0.947
 
band     5 # energy    2.42972778 # occ.  2.00000000
 
ion      s      p      d    tot
    1  0.001  0.001  0.955  0.957
 
band     6 # energy    2.60482750 # occ.  2.00000000
 
ion      s      p      d    tot
    1  0.000  0.001  0.960  0.961
 
band     7 # energy   19.42449351 # occ.  0.00000000
 
ion      s      p      d    tot
    1  0.084  0.268  0.152  0.503
 
band     8 # energy   22.21688635 # occ.  0.00000000
 
ion      s      p      d    tot
    1  0.004  0.002  0.065  0.071
 
band     9 # energy   25.49899129 # occ.  0.00000000
 
ion      s      p      d    tot
    1  0.000  0.358  0.123  0.481
 
band    10 # energy   26.49247971 # occ.  0.00000000
 
ion      s      p      d    tot
    1  0.000  0.294  0.098  0.392
 
band    11 # energy   28.15327727 # occ.  0.00000000
 
ion      s      p      d    tot
    1  0.019  0.267  0.042  0.328
 
band    12 # energy   30.55212130 # occ.  0.00000000
 
ion      s      p      d    tot
    1  0.000  0.141  0.185  0.325
 

 k-point    18 :   -0.12500000 0.02500000 0.02500000     weight = 0.00075000

band     1 # energy   -3.63544376 # occ.  2.00000000
 
ion      s      p      d    tot
    1  0.650  0.036  0.008  0.694
 
band     2 # energy    0.75886237 # occ.  2.00000000
 
ion      s      p      d    tot
    1  0.002  0.011  0.919  0.933
 
band     3 # energy    1.17951623 # occ.  2.00000000
 
ion      s      p      d    tot
    1  0.000  0.002  0.945  0.947
 
band     4 # energy    1.18935921 # occ.  2.00000000
 
ion      s      p      d    tot
    1  0.000  0.002  0.945  0.947
 
band     5 # energy    2.40180835 # occ.  2.00000000
 
ion      s      p      d    tot
    1  0.000  0.000  0.960  0.960
 
band     6 # energy    2.54054590 # occ.  2.00000000
 
ion      s      p      d    tot
    1  0.000  0.000  0.964  0.964
 
band     7 # energy   21.12571472 # occ.  0.00000000
 
ion      s      p      d    tot
    1  0.038  0.181  0.135  0.354
 
band     8 # energy   22.12597925 # occ.  0.00000000
 
ion      s      p      d    tot
    1  0.020  0.050  0.009  0.079
 
band     9 # energy   25.31392445 # occ.  0.00000000
 
ion      s      p      d    tot
    1  0.000  0.293  0.076  0.369
 
band    10 # energy   25.93914768 # occ.  0.00000000
 
ion      s      p      d    tot
    1  0.000  0.244  0.057  0.301
 
band    11 # energy   29.14765213 # occ.  0.00000000
 
ion      s      p      d    tot
    1  0.005  0.293  0.099  0.397
 
band    12 # energy   31.49200373 # occ.  0.00000000
 
ion      s      p      d    tot
    1  0.000  0.179  0.257  0.436
 

 k-point    19 :   -0.07500000 0.02500000 0.02500000     weight = 0.00075000

band     1 # energy   -4.02554147 # occ.  2.00000000
 
ion      s      p      d    tot
    1  0.674  0.017  0.001  0.692
 
band     2 # energy    0.85628702 # occ.  2.00000000
 
ion      s      p      d    tot
    1  0.000  0.004  0.938  0.942
 
band     3 # energy    1.07250653 # occ.  2.00000000
 
ion      s      p      d    tot
    1  0.000  0.001  0.947  0.948
 
band     4 # energy    1.08077735 # occ.  2.00000000
 
ion      s      p      d    tot
    1  0.000  0.002  0.946  0.948
 
band     5 # energy    2.44472202 # occ.  2.00000000
 
ion      s      p      d    tot
    1  0.000  0.000  0.964  0.964
 
band     6 # energy    2.53830691 # occ.  2.00000000
 
ion      s      p      d    tot
    1  0.000  0.000  0.967  0.967
 
band     7 # energy   21.40434435 # occ.  0.00000000
 
ion      s      p      d    tot
    1  0.000  0.008  0.045  0.053
 
band     8 # energy   23.18323312 # occ.  0.00000000
 
ion      s      p      d    tot
    1  0.033  0.198  0.028  0.260
 
band     9 # energy   25.09817029 # occ.  0.00000000
 
ion      s      p      d    tot
    1  0.000  0.253  0.036  0.290
 
band    10 # energy   25.43969086 # occ.  0.00000000
 
ion      s      p      d    tot
    1  0.001  0.226  0.025  0.252
 
band    11 # energy   30.25227075 # occ.  0.00000000
 
ion      s      p      d    tot
    1  0.005  0.231  0.113  0.349
 
band    12 # energy   32.44496829 # occ.  0.00000000
 
ion      s      p      d    tot
    1  0.000  0.172  0.357  0.529
 

 k-point    20 :   -0.02500000 0.02500000 0.02500000     weight = 0.00075000

band     1 # energy   -4.25880270 # occ.  2.00000000
 
ion      s      p      d    tot
    1  0.687  0.004  0.000  0.691
 
band     2 # energy    0.92721640 # occ.  2.00000000
 
ion      s      p      d    tot
    1  0.000  0.000  0.946  0.947
 