   1   1   1   0
  0.1987675E+02  0.3040559E-09  0.3040559E-09  0.3040559E-09  0.5000000E-15
  1.000000000000000E-004
  CAR 
 FCC Au                                  
     34.38989422     -6.57853133 3001      4.61820083      1.00000000
     -6.579  0.0000E+00  0.0000E+00
     -6.565  0.0000E+00  0.0000E+00
     -6.551  0.0000E+00  0.0000E+00
     -6.538  0.0000E+00  0.0000E+00
     -6.524  0.0000E+00  0.0000E+00
     -6.510  0.0000E+00  0.0000E+00
     -6.497  0.0000E+00  0.0000E+00
     -6.483  0.0000E+00  0.0000E+00
     -6.469  0.0000E+00  0.0000E+00
     -6.456  0.0000E+00  0.0000E+00
     -6.442  0.0000E+00  0.0000E+00
     -6.428  0.0000E+00  0.0000E+00
     -6.415  0.0000E+00  0.0000E+00
     -6.401  0.0000E+00  0.0000E+00
     -6.387  0.0000E+00  0.0000E+00
     -6.374  0.0000E+00  0.0000E+00
     -6.360  0.0000E+00  0.0000E+00
     -6.346  0.0000E+00  0.0000E+00
     -6.333  0.0000E+00  0.0000E+00
     -6.319  0.0000E+00  0.0000E+00
     -6.305  0.0000E+00  0.0000E+00
     -6.292  0.0000E+00  0.0000E+00
     -6.278  0.0000E+00  0.0000E+00
     -6.264  0.0000E+00  0.0000E+00
     -6.251  0.0000E+00  0.0000E+00
     -6.237  0.0000E+00  0.0000E+00
     -6.223  0.0000E+00  0.0000E+00
     -6.210  0.0000E+00  0.0000E+00
     -6.196  0.0000E+00  0.0000E+00
     -6.183 -0.7732E-27 -0.1056E-28
     -6.169 -0.1724E-26 -0.3411E-28
     -6.155 -0.5179E-26 -0.1048E-27
     -6.142 -0.1460E-25 -0.3042E-27
     -6.128 -0.4176E-25 -0.8745E-27
     -6.114 -0.1183E-24 -0.2490E-26
     -6.101 -0.3325E-24 -0.7031E-26
     -6.087 -0.9243E-24 -0.1965E-25
     -6.073 -0.2546E-23 -0.5443E-25
     -6.060 -0.6948E-23 -0.1493E-24
     -6.046 -0.1878E-22 -0.4058E-24
     -6.032 -0.5029E-22 -0.1093E-23
     -6.019 -0.1334E-21 -0.2914E-23
     -6.005 -0.3504E-21 -0.7700E-23
     -5.991 -0.9121E-21 -0.2015E-22
     -5.978 -0.2351E-20 -0.5227E-22
     -5.964 -0.6005E-20 -0.1343E-21
     -5.950 -0.1519E-19 -0.3417E-21
     -5.937 -0.3807E-19 -0.8616E-21
     -5.923 -0.9449E-19 -0.2152E-20
     -5.909 -0.2323E-18 -0.5325E-20
     -5.896 -0.5659E-18 -0.1305E-19
     -5.882 -0.1365E-17 -0.3170E-19
     -5.868 -0.3263E-17 -0.7626E-19
     -5.855 -0.7724E-17 -0.1817E-18
     -5.841 -0.1811E-16 -0.4291E-18
     -5.827 -0.4207E-16 -0.1004E-17
     -5.814 -0.9678E-16 -0.2325E-17
     -5.800 -0.2206E-15 -0.5337E-17
     -5.786 -0.4979E-15 -0.1214E-16
     -5.773 -0.1113E-14 -0.2734E-16
     -5.759 -0.2303E-14 -0.5878E-16
     -5.746 -0.5408E-14 -0.1326E-15
     -5.732 -0.1126E-13 -0.2865E-15
     -5.718 -0.2456E-13 -0.6218E-15
     -5.705 -0.5221E-13 -0.1335E-14
     -5.691 -0.1102E-12 -0.2840E-14
     -5.677 -0.2302E-12 -0.5983E-14
     -5.664 -0.4766E-12 -0.1249E-13
     -5.650 -0.9768E-12 -0.2583E-13
     -5.636 -0.1983E-11 -0.5292E-13
     -5.623 -0.3988E-11 -0.1074E-12
     -5.609 -0.7943E-11 -0.2159E-12
     -5.595 -0.1567E-10 -0.4298E-12
     -5.582 -0.3061E-10 -0.8478E-12
     -5.568 -0.5922E-10 -0.1657E-11
     -5.554 -0.1135E-09 -0.3206E-11
     -5.541 -0.2153E-09 -0.6147E-11
     -5.527 -0.4047E-09 -0.1167E-10
     -5.513 -0.7533E-09 -0.2196E-10
     -5.500 -0.1388E-08 -0.4092E-10
     -5.486 -0.2534E-08 -0.7553E-10
     -5.472 -0.4581E-08 -0.1381E-09
     -5.459 -0.8201E-08 -0.2501E-09
     -5.445 -0.1454E-07 -0.4486E-09
     -5.431 -0.2552E-07 -0.7972E-09
     -5.418 -0.4437E-07 -0.1403E-08
     -5.404 -0.7637E-07 -0.2446E-08
     -5.390 -0.1302E-06 -0.4223E-08
     -5.377 -0.2197E-06 -0.7224E-08
     -5.363 -0.3671E-06 -0.1224E-07
     -5.349 -0.6075E-06 -0.2053E-07
     -5.336 -0.9953E-06 -0.3413E-07
     -5.322 -0.1615E-05 -0.5617E-07
     -5.309 -0.2593E-05 -0.9158E-07
     -5.295 -0.4123E-05 -0.1479E-06
     -5.281 -0.6491E-05 -0.2365E-06
     -5.268 -0.1012E-04 -0.3747E-06
     -5.254 -0.1561E-04 -0.5878E-06
     -5.240 -0.2384E-04 -0.9133E-06
     -5.227 -0.3604E-04 -0.1405E-05
     -5.213 -0.5394E-04 -0.2142E-05
     -5.199 -0.7990E-04 -0.3233E-05
     -5.186 -0.1171E-03 -0.4833E-05
     -5.172 -0.1700E-03 -0.7155E-05
     -5.158 -0.2442E-03 -0.1049E-04
     -5.145 -0.3471E-03 -0.1523E-04
     -5.131 -0.4882E-03 -0.2190E-04
     -5.117 -0.6795E-03 -0.3118E-04
     -5.104 -0.9359E-03 -0.4396E-04
     -5.090 -0.1275E-02 -0.6137E-04
     -5.076 -0.1719E-02 -0.8485E-04
     -5.063 -0.2293E-02 -0.1162E-03
     -5.049 -0.3025E-02 -0.1575E-03
     -5.035 -0.3947E-02 -0.2114E-03
     -5.022 -0.5093E-02 -0.2809E-03
     -5.008 -0.6500E-02 -0.3697E-03
     -4.994 -0.8200E-02 -0.4817E-03
     -4.981 -0.1023E-01 -0.6213E-03
     -4.967 -0.1261E-01 -0.7935E-03
     -4.953 -0.1536E-01 -0.1003E-02
     -4.940 -0.1848E-01 -0.1256E-02
     -4.926 -0.2197E-01 -0.1556E-02
     -4.912 -0.2578E-01 -0.1908E-02
     -4.899 -0.2985E-01 -0.2315E-02
     -4.885 -0.3409E-01 -0.2781E-02
     -4.872 -0.3837E-01 -0.3305E-02
     -4.858 -0.4252E-01 -0.3885E-02
     -4.844 -0.4634E-01 -0.4518E-02
     -4.831 -0.4957E-01 -0.5195E-02
     -4.817 -0.5194E-01 -0.5904E-02
     -4.803 -0.5309E-01 -0.6629E-02
     -4.790 -0.5268E-01 -0.7349E-02
     -4.776 -0.5027E-01 -0.8035E-02
     -4.762 -0.4543E-01 -0.8656E-02
     -4.749 -0.3766E-01 -0.9170E-02
     -4.735 -0.2645E-01 -0.9531E-02
     -4.721 -0.1122E-01 -0.9684E-02
     -4.708  0.8635E-02 -0.9566E-02
     -4.694  0.3376E-01 -0.9105E-02
     -4.680  0.6486E-01 -0.8220E-02
     -4.667  0.1027E+00 -0.6817E-02
     -4.653  0.1480E+00 -0.4796E-02
     -4.639  0.2016E+00 -0.2043E-02
     -4.626  0.2643E+00  0.1566E-02
     -4.612  0.3370E+00  0.6168E-02
     -4.598  0.4203E+00  0.1191E-01
     -4.585  0.5148E+00  0.1894E-01
     -4.571  0.6212E+00  0.2742E-01
     -4.557  0.7395E+00  0.3752E-01
     -4.544  0.8698E+00  0.4940E-01
     -4.530  0.1012E+01  0.6321E-01
     -4.516  0.1164E+01  0.7911E-01
     -4.503  0.1327E+01  0.9723E-01
     -4.489  0.1497E+01  0.1177E+00
     -4.475  0.1674E+01  0.1405E+00
     -4.462  0.1854E+01  0.1659E+00
     -4.448  0.2035E+01  0.1936E+00
     -4.435  0.2213E+01  0.2239E+00
     -4.421  0.2387E+01  0.2565E+00
     -4.407  0.2552E+01  0.2913E+00
     -4.394  0.2706E+01  0.3283E+00
     -4.380  0.2845E+01  0.3671E+00
     -4.366  0.2969E+01  0.4077E+00
     -4.353  0.3075E+01  0.4497E+00
     -4.339  0.3162E+01  0.4928E+00
     -4.325  0.3230E+01  0.5370E+00
     -4.312  0.3279E+01  0.5817E+00
     -4.298  0.3310E+01  0.6269E+00
     -4.284  0.3325E+01  0.6724E+00
     -4.271  0.3325E+01  0.7178E+00
     -4.257  0.3312E+01  0.7630E+00
     -4.243  0.3289E+01  0.8079E+00
     -4.230  0.3259E+01  0.8524E+00
     -4.216  0.3223E+01  0.8964E+00
     -4.202  0.3184E+01  0.9399E+00
     -4.189  0.3143E+01  0.9828E+00
     -4.175  0.3102E+01  0.1025E+01
     -4.161  0.3063E+01  0.1067E+01
     -4.148  0.3024E+01  0.1108E+01
     -4.134  0.2987E+01  0.1149E+01
     -4.120  0.2951E+01  0.1189E+01
     -4.107  0.2916E+01  0.1229E+01
     -4.093  0.2881E+01  0.1269E+01
     -4.079  0.2846E+01  0.1307E+01
     -4.066  0.2809E+01  0.1346E+01
     -4.052  0.2770E+01  0.1384E+01
     -4.038  0.2730E+01  0.1421E+01
     -4.025  0.2687E+01  0.1458E+01
     -4.011  0.2643E+01  0.1494E+01
     -3.998  0.2597E+01  0.1529E+01
     -3.984  0.2552E+01  0.1564E+01
     -3.970  0.2508E+01  0.1598E+01
     -3.957  0.2466E+01  0.1632E+01
     -3.943  0.2429E+01  0.1665E+01
     -3.929  0.2399E+01  0.1698E+01
     -3.916  0.2377E+01  0.1730E+01
     -3.902  0.2366E+01  0.1763E+01
     -3.888  0.2366E+01  0.1795E+01
     -3.875  0.2380E+01  0.1827E+01
     -3.861  0.2408E+01  0.1860E+01
     -3.847  0.2450E+01  0.1894E+01
     -3.834  0.2506E+01  0.1928E+01
     -3.820  0.2576E+01  0.1963E+01
     -3.806  0.2658E+01  0.1999E+01
     -3.793  0.2749E+01  0.2037E+01
     -3.779  0.2848E+01  0.2076E+01
     -3.765  0.2951E+01  0.2116E+01
     -3.752  0.3054E+01  0.2158E+01
     -3.738  0.3154E+01  0.2201E+01
     -3.724  0.3248E+01  0.2245E+01
     -3.711  0.3331E+01  0.2291E+01
     -3.697  0.3400E+01  0.2337E+01
     -3.683  0.3453E+01  0.2384E+01
     -3.670  0.3487E+01  0.2432E+01
     -3.656  0.3500E+01  0.2480E+01
     -3.642  0.3493E+01  0.2528E+01
     -3.629  0.3466E+01  0.2575E+01
     -3.615  0.3420E+01  0.2622E+01
     -3.601  0.3358E+01  0.2667E+01
     -3.588  0.3284E+01  0.2712E+01
     -3.574  0.3203E+01  0.2756E+01
     -3.561  0.3121E+01  0.2799E+01
     -3.547  0.3042E+01  0.2840E+01
     -3.533  0.2974E+01  0.2881E+01
     -3.520  0.2923E+01  0.2921E+01
     -3.506  0.2895E+01  0.2960E+01
     -3.492  0.2896E+01  0.3000E+01
     -3.479  0.2931E+01  0.3040E+01
     -3.465  0.3002E+01  0.3081E+01
     -3.451  0.3112E+01  0.3123E+01
     -3.438  0.3262E+01  0.3168E+01
     -3.424  0.3450E+01  0.3215E+01
     -3.410  0.3673E+01  0.3265E+01
     -3.397  0.3925E+01  0.3319E+01
     -3.383  0.4202E+01  0.3376E+01
     -3.369  0.4495E+01  0.3437E+01
     -3.356  0.4794E+01  0.3503E+01
     -3.342  0.5092E+01  0.3572E+01
     -3.328  0.5378E+01  0.3646E+01
     -3.315  0.5642E+01  0.3723E+01
     -3.301  0.5877E+01  0.3803E+01
     -3.287  0.6073E+01  0.3886E+01
     -3.274  0.6225E+01  0.3971E+01
     -3.260  0.6327E+01  0.4058E+01
     -3.246  0.6377E+01  0.4145E+01
     -3.233  0.6372E+01  0.4232E+01
     -3.219  0.6314E+01  0.4318E+01
     -3.205  0.6204E+01  0.4403E+01
     -3.192  0.6046E+01  0.4485E+01
     -3.178  0.5845E+01  0.4565E+01
     -3.164  0.5606E+01  0.4642E+01
     -3.151  0.5336E+01  0.4714E+01
     -3.137  0.5043E+01  0.4783E+01
     -3.124  0.4733E+01  0.4848E+01
     -3.110  0.4414E+01  0.4908E+01
     -3.096  0.4091E+01  0.4964E+01
     -3.083  0.3771E+01  0.5016E+01
     -3.069  0.3459E+01  0.5063E+01
     -3.055  0.3161E+01  0.5106E+01
     -3.042  0.2879E+01  0.5145E+01
     -3.028  0.2616E+01  0.5181E+01
     -3.014  0.2375E+01  0.5213E+01
     -3.001  0.2156E+01  0.5243E+01
     -2.987  0.1961E+01  0.5270E+01
     -2.973  0.1790E+01  0.5294E+01
     -2.960  0.1641E+01  0.5317E+01
     -2.946  0.1514E+01  0.5337E+01
     -2.932  0.1407E+01  0.5356E+01
     -2.919  0.1319E+01  0.5374E+01
     -2.905  0.1247E+01  0.5391E+01
     -2.891  0.1191E+01  0.5408E+01
     -2.878  0.1147E+01  0.5423E+01
     -2.864  0.1115E+01  0.5439E+01
     -2.850  0.1091E+01  0.5454E+01
     -2.837  0.1076E+01  0.5468E+01
     -2.823  0.1066E+01  0.5483E+01
     -2.809  0.1062E+01  0.5497E+01
     -2.796  0.1062E+01  0.5512E+01
     -2.782  0.1066E+01  0.5526E+01
     -2.768  0.1075E+01  0.5541E+01
     -2.755  0.1087E+01  0.5556E+01
     -2.741  0.1104E+01  0.5571E+01
     -2.727  0.1128E+01  0.5586E+01
     -2.714  0.1158E+01  0.5602E+01
     -2.700  0.1198E+01  0.5618E+01
     -2.687  0.1248E+01  0.5636E+01
     -2.673  0.1311E+01  0.5653E+01
     -2.659  0.1388E+01  0.5672E+01
     -2.646  0.1482E+01  0.5693E+01
     -2.632  0.1593E+01  0.5714E+01
     -2.618  0.1724E+01  0.5738E+01
     -2.605  0.1875E+01  0.5764E+01
     -2.591  0.2046E+01  0.5791E+01
     -2.577  0.2237E+01  0.5822E+01
     -2.564  0.2446E+01  0.5855E+01
     -2.550  0.2671E+01  0.5892E+01
     -2.536  0.2911E+01  0.5932E+01
     -2.523  0.3160E+01  0.5975E+01
     -2.509  0.3416E+01  0.6021E+01
     -2.495  0.3672E+01  0.6072E+01
     -2.482  0.3926E+01  0.6125E+01
     -2.468  0.4170E+01  0.6182E+01
     -2.454  0.4401E+01  0.6242E+01
     -2.441  0.4613E+01  0.6305E+01
     -2.427  0.4803E+01  0.6371E+01
     -2.413  0.4965E+01  0.6439E+01
     -2.400  0.5098E+01  0.6508E+01
     -2.386  0.5199E+01  0.6579E+01
     -2.372  0.5266E+01  0.6651E+01
     -2.359  0.5300E+01  0.6724E+01
     -2.345  0.5300E+01  0.6796E+01
     -2.331  0.5269E+01  0.6868E+01
     -2.318  0.5207E+01  0.6939E+01
     -2.304  0.5117E+01  0.7009E+01
     -2.291  0.5003E+01  0.7077E+01
     -2.277  0.4867E+01  0.7144E+01
     -2.263  0.4713E+01  0.7208E+01
     -2.250  0.4544E+01  0.7270E+01
     -2.236  0.4363E+01  0.7330E+01
     -2.222  0.4174E+01  0.7387E+01
     -2.209  0.3979E+01  0.7441E+01
     -2.195  0.3781E+01  0.7493E+01
     -2.181  0.3583E+01  0.7542E+01
     -2.168  0.3388E+01  0.7588E+01
     -2.154  0.3197E+01  0.7631E+01
     -2.140  0.3013E+01  0.7673E+01
     -2.127  0.2838E+01  0.7711E+01
     -2.113  0.2673E+01  0.7748E+01
     -2.099  0.2520E+01  0.7782E+01
     -2.086  0.2382E+01  0.7815E+01
     -2.072  0.2260E+01  0.7846E+01
     -2.058  0.2155E+01  0.7875E+01
     -2.045  0.2070E+01  0.7903E+01
     -2.031  0.2005E+01  0.7931E+01
     -2.017  0.1962E+01  0.7958E+01
     -2.004  0.1943E+01  0.7984E+01
     -1.990  0.1948E+01  0.8011E+01
     -1.976  0.1978E+01  0.8038E+01
     -1.963  0.2035E+01  0.8065E+01
     -1.949  0.2117E+01  0.8094E+01
     -1.935  0.2224E+01  0.8125E+01
     -1.922  0.2356E+01  0.8157E+01
     -1.908  0.2511E+01  0.8191E+01
     -1.894  0.2687E+01  0.8228E+01
     -1.881  0.2881E+01  0.8267E+01
     -1.867  0.3091E+01  0.8309E+01
     -1.854  0.3311E+01  0.8355E+01
     -1.840  0.3537E+01  0.8403E+01
     -1.826  0.3766E+01  0.8454E+01
     -1.813  0.3992E+01  0.8509E+01
     -1.799  0.4211E+01  0.8566E+01
     -1.785  0.4418E+01  0.8627E+01
     -1.772  0.4609E+01  0.8690E+01
     -1.758  0.4782E+01  0.8755E+01
     -1.744  0.4933E+01  0.8822E+01
     -1.731  0.5062E+01  0.8892E+01
     -1.717  0.5167E+01  0.8962E+01
     -1.703  0.5249E+01  0.9034E+01
     -1.690  0.5308E+01  0.9106E+01
     -1.676  0.5346E+01  0.9179E+01
     -1.662  0.5364E+01  0.9252E+01
     -1.649  0.5364E+01  0.9326E+01
     -1.635  0.5346E+01  0.9399E+01
     -1.621  0.5313E+01  0.9471E+01
     -1.608  0.5263E+01  0.9543E+01
     -1.594  0.5198E+01  0.9614E+01
     -1.580  0.5116E+01  0.9684E+01
     -1.567  0.5017E+01  0.9753E+01
     -1.553  0.4898E+01  0.9819E+01
     -1.539  0.4758E+01  0.9884E+01
     -1.526  0.4595E+01  0.9947E+01
     -1.512  0.4410E+01  0.1001E+02
     -1.498  0.4201E+01  0.1006E+02
     -1.485  0.3968E+01  0.1012E+02
     -1.471  0.3714E+01  0.1017E+02
     -1.457  0.3441E+01  0.1022E+02
     -1.444  0.3152E+01  0.1026E+02
     -1.430  0.2852E+01  0.1030E+02
     -1.417  0.2546E+01  0.1033E+02
     -1.403  0.2238E+01  0.1036E+02
     -1.389  0.1936E+01  0.1039E+02
     -1.376  0.1643E+01  0.1041E+02
     -1.362  0.1365E+01  0.1043E+02
     -1.348  0.1107E+01  0.1045E+02
     -1.335  0.8715E+00  0.1046E+02
     -1.321  0.6611E+00  0.1047E+02
     -1.307  0.4774E+00  0.1047E+02
     -1.294  0.3207E+00  0.1048E+02
     -1.280  0.1906E+00  0.1048E+02
     -1.266  0.8585E-01  0.1048E+02
     -1.253  0.4431E-02  0.1048E+02
     -1.239 -0.5607E-01  0.1048E+02
     -1.225 -0.9836E-01  0.1048E+02
     -1.212 -0.1253E+00  0.1048E+02
     -1.198 -0.1397E+00  0.1048E+02
     -1.184 -0.1443E+00  0.1047E+02
     -1.171 -0.1414E+00  0.1047E+02
     -1.157 -0.1332E+00  0.1047E+02
     -1.143 -0.1214E+00  0.1047E+02
     -1.130 -0.1075E+00  0.1047E+02
     -1.116 -0.9239E-01  0.1047E+02
     -1.102 -0.7697E-01  0.1047E+02
     -1.089 -0.6175E-01  0.1046E+02
     -1.075 -0.4703E-01  0.1046E+02
     -1.061 -0.3299E-01  0.1046E+02
     -1.048 -0.1970E-01  0.1046E+02
     -1.034 -0.7165E-02  0.1046E+02
     -1.020  0.4628E-02  0.1046E+02
     -1.007  0.1570E-01  0.1046E+02
     -0.993  0.2606E-01  0.1046E+02
     -0.980  0.3570E-01  0.1046E+02
     -0.966  0.4458E-01  0.1046E+02
     -0.952  0.5266E-01  0.1047E+02
     -0.939  0.5990E-01  0.1047E+02
     -0.925  0.6625E-01  0.1047E+02
     -0.911  0.7169E-01  0.1047E+02
     -0.898  0.7620E-01  0.1047E+02
     -0.884  0.7982E-01  0.1047E+02
     -0.870  0.8260E-01  0.1047E+02
     -0.857  0.8463E-01  0.1047E+02
     -0.843  0.8602E-01  0.1047E+02
     -0.829  0.8689E-01  0.1047E+02
     -0.816  0.8737E-01  0.1048E+02
     -0.802  0.8760E-01  0.1048E+02
     -0.788  0.8767E-01  0.1048E+02
     -0.775  0.8768E-01  0.1048E+02
     -0.761  0.8767E-01  0.1048E+02
     -0.747  0.8765E-01  0.1048E+02
     -0.734  0.8760E-01  0.1048E+02
     -0.720  0.8745E-01  0.1048E+02
     -0.706  0.8713E-01  0.1049E+02
     -0.693  0.8654E-01  0.1049E+02
     -0.679  0.8556E-01  0.1049E+02
     -0.665  0.8410E-01  0.1049E+02
     -0.652  0.8209E-01  0.1049E+02
     -0.638  0.7949E-01  0.1049E+02
     -0.624  0.7630E-01  0.1049E+02
     -0.611  0.7256E-01  0.1049E+02
     -0.597  0.6837E-01  0.1049E+02
     -0.583  0.6387E-01  0.1050E+02
     -0.570  0.5922E-01  0.1050E+02
     -0.556  0.5464E-01  0.1050E+02
     -0.543  0.5034E-01  0.1050E+02
     -0.529  0.4654E-01  0.1050E+02
     -0.515  0.4342E-01  0.1050E+02
     -0.502  0.4116E-01  0.1050E+02
     -0.488  0.3988E-01  0.1050E+02
     -0.474  0.3966E-01  0.1050E+02
     -0.461  0.4050E-01  0.1050E+02
     -0.447  0.4236E-01  0.1050E+02
     -0.433  0.4512E-01  0.1050E+02
     -0.420  0.4862E-01  0.1050E+02
     -0.406  0.5265E-01  0.1050E+02
     -0.392  0.5697E-01  0.1050E+02
     -0.379  0.6131E-01  0.1051E+02
     -0.365  0.6543E-01  0.1051E+02
     -0.351  0.6907E-01  0.1051E+02
     -0.338  0.7203E-01  0.1051E+02
     -0.324  0.7415E-01  0.1051E+02
     -0.310  0.7531E-01  0.1051E+02
     -0.297  0.7547E-01  0.1051E+02
     -0.283  0.7467E-01  0.1051E+02
     -0.269  0.7298E-01  0.1051E+02
     -0.256  0.7055E-01  0.1051E+02
     -0.242  0.6757E-01  0.1051E+02
     -0.228  0.6428E-01  0.1052E+02
     -0.215  0.6092E-01  0.1052E+02
     -0.201  0.5774E-01  0.1052E+02
     -0.187  0.5496E-01  0.1052E+02
     -0.174  0.5280E-01  0.1052E+02
     -0.160  0.5141E-01  0.1052E+02
     -0.146  0.5087E-01  0.1052E+02
     -0.133  0.5123E-01  0.1052E+02
     -0.119  0.5246E-01  0.1052E+02
     -0.106  0.5445E-01  0.1052E+02
     -0.092  0.5708E-01  0.1052E+02
     -0.078  0.6013E-01  0.1052E+02
     -0.065  0.6339E-01  0.1052E+02
     -0.051  0.6663E-01  0.1053E+02
     -0.037  0.6960E-01  0.1053E+02
     -0.024  0.7212E-01  0.1053E+02
     -0.010  0.7399E-01  0.1053E+02
      0.004  0.7510E-01  0.1053E+02
      0.017  0.7538E-01  0.1053E+02
      0.031  0.7483E-01  0.1053E+02
      0.045  0.7351E-01  0.1053E+02
      0.058  0.7154E-01  0.1053E+02
      0.072  0.6908E-01  0.1053E+02
      0.086  0.6635E-01  0.1054E+02
      0.099  0.6357E-01  0.1054E+02
      0.113  0.6096E-01  0.1054E+02
      0.127  0.5874E-01  0.1054E+02
      0.140  0.5709E-01  0.1054E+02
      0.154  0.5616E-01  0.1054E+02
      0.168  0.5604E-01  0.1054E+02
      0.181  0.5674E-01  0.1054E+02
      0.195  0.5822E-01  0.1054E+02
      0.209  0.6038E-01  0.1054E+02
      0.222  0.6307E-01  0.1054E+02
      0.236  0.6608E-01  0.1054E+02
      0.250  0.6918E-01  0.1055E+02
      0.263  0.7212E-01  0.1055E+02
      0.277  0.7464E-01  0.1055E+02
      0.291  0.7654E-01  0.1055E+02
      0.304  0.7759E-01  0.1055E+02
      0.318  0.7767E-01  0.1055E+02
      0.331  0.7667E-01  0.1055E+02
      0.345  0.7456E-01  0.1055E+02
      0.359  0.7138E-01  0.1055E+02
      0.372  0.6721E-01  0.1055E+02
      0.386  0.6220E-01  0.1056E+02
      0.400  0.5655E-01  0.1056E+02
      0.413  0.5049E-01  0.1056E+02
      0.427  0.4428E-01  0.1056E+02
      0.441  0.3818E-01  0.1056E+02
      0.454  0.3246E-01  0.1056E+02
      0.468  0.2736E-01  0.1056E+02
      0.482  0.2311E-01  0.1056E+02
      0.495  0.1989E-01  0.1056E+02
      0.509  0.1783E-01  0.1056E+02
      0.523  0.1702E-01  0.1056E+02
      0.536  0.1750E-01  0.1056E+02
      0.550  0.1924E-01  0.1056E+02
      0.564  0.2215E-01  0.1056E+02
      0.577  0.2612E-01  0.1056E+02
      0.591  0.3098E-01  0.1056E+02
      0.605  0.3651E-01  0.1056E+02
      0.618  0.4249E-01  0.1056E+02
      0.632  0.4868E-01  0.1056E+02
      0.646  0.5484E-01  0.1056E+02
      0.659  0.6073E-01  0.1056E+02
      0.673  0.6616E-01  0.1057E+02
      0.687  0.7095E-01  0.1057E+02
      0.700  0.7498E-01  0.1057E+02
      0.714  0.7818E-01  0.1057E+02
      0.728  0.8053E-01  0.1057E+02
      0.741  0.8207E-01  0.1057E+02
      0.755  0.8288E-01  0.1057E+02
      0.768  0.8307E-01  0.1057E+02
      0.782  0.8281E-01  0.1057E+02
      0.796  0.8226E-01  0.1058E+02
      0.809  0.8159E-01  0.1058E+02
      0.823  0.8095E-01  0.1058E+02
      0.837  0.8048E-01  0.1058E+02
      0.850  0.8027E-01  0.1058E+02
      0.864  0.8036E-01  0.1058E+02
      0.878  0.8075E-01  0.1058E+02
      0.891  0.8140E-01  0.1058E+02
      0.905  0.8222E-01  0.1058E+02
      0.919  0.8306E-01  0.1059E+02
      0.932  0.8378E-01  0.1059E+02
      0.946  0.8420E-01  0.1059E+02
      0.960  0.8417E-01  0.1059E+02
      0.973  0.8352E-01  0.1059E+02
      0.987  0.8214E-01  0.1059E+02
      1.001  0.7993E-01  0.1059E+02
      1.014  0.7685E-01  0.1059E+02
      1.028  0.7290E-01  0.1059E+02
      1.042  0.6813E-01  0.1060E+02
      1.055  0.6263E-01  0.1060E+02
      1.069  0.5653E-01  0.1060E+02
      1.083  0.4998E-01  0.1060E+02
      1.096  0.4315E-01  0.1060E+02
      1.110  0.3623E-01  0.1060E+02
      1.124  0.2941E-01  0.1060E+02
      1.137  0.2286E-01  0.1060E+02
      1.151  0.1675E-01  0.1060E+02
      1.165  0.1121E-01  0.1060E+02
      1.178  0.6392E-02  0.1060E+02
      1.192  0.2379E-02  0.1060E+02
      1.205 -0.7424E-03  0.1060E+02
      1.219 -0.2914E-02  0.1060E+02
      1.233 -0.4096E-02  0.1060E+02
      1.246 -0.4266E-02  0.1060E+02
      1.260 -0.3421E-02  0.1060E+02
      1.274 -0.1573E-02  0.1060E+02
      1.287  0.1250E-02  0.1060E+02
      1.301  0.5003E-02  0.1060E+02
      1.315  0.9625E-02  0.1060E+02
      1.328  0.1504E-01  0.1060E+02
      1.342  0.2114E-01  0.1060E+02
      1.356  0.2782E-01  0.1060E+02
      1.369  0.3496E-01  0.1060E+02
      1.383  0.4242E-01  0.1060E+02
      1.397  0.5004E-01  0.1060E+02
      1.410  0.5768E-01  0.1060E+02
      1.424  0.6520E-01  0.1060E+02
      1.438  0.7246E-01  0.1061E+02
      1.451  0.7934E-01  0.1061E+02
      1.465  0.8572E-01  0.1061E+02
      1.479  0.9153E-01  0.1061E+02
      1.492  0.9671E-01  0.1061E+02
      1.506  0.1012E+00  0.1061E+02
      1.520  0.1050E+00  0.1061E+02
      1.533  0.1081E+00  0.1061E+02
      1.547  0.1106E+00  0.1062E+02
      1.561  0.1123E+00  0.1062E+02
      1.574  0.1134E+00  0.1062E+02
      1.588  0.1138E+00  0.1062E+02
      1.601  0.1136E+00  0.1062E+02
      1.615  0.1127E+00  0.1062E+02
      1.629  0.1112E+00  0.1063E+02
      1.642  0.1090E+00  0.1063E+02
      1.656  0.1061E+00  0.1063E+02
      1.670  0.1025E+00  0.1063E+02
      1.683  0.9831E-01  0.1063E+02
      1.697  0.9342E-01  0.1063E+02
      1.711  0.8791E-01  0.1063E+02
      1.724  0.8184E-01  0.1063E+02
      1.738  0.7529E-01  0.1064E+02
      1.752  0.6836E-01  0.1064E+02
      1.765  0.6117E-01  0.1064E+02
      1.779  0.5384E-01  0.1064E+02
      1.793  0.4650E-01  0.1064E+02
      1.806  0.3929E-01  0.1064E+02
      1.820  0.3234E-01  0.1064E+02
      1.834  0.2575E-01  0.1064E+02
      1.847  0.1962E-01  0.1064E+02
      1.861  0.1401E-01  0.1064E+02
      1.875  0.8974E-02  0.1064E+02
      1.888  0.4538E-02  0.1064E+02
      1.902  0.7017E-03  0.1064E+02
      1.916 -0.2550E-02  0.1064E+02
      1.929 -0.5246E-02  0.1064E+02
      1.943 -0.7422E-02  0.1064E+02
      1.957 -0.9116E-02  0.1064E+02
      1.970 -0.1036E-01  0.1064E+02
      1.984 -0.1119E-01  0.1064E+02
      1.998 -0.1161E-01  0.1064E+02
      2.011 -0.1161E-01  0.1064E+02
      2.025 -0.1119E-01  0.1064E+02
      2.038 -0.1030E-01  0.1064E+02
      2.052 -0.8899E-02  0.1064E+02
      2.066 -0.6910E-02  0.1064E+02
      2.079 -0.4265E-02  0.1064E+02
      2.093 -0.8911E-03  0.1064E+02
      2.107  0.3283E-02  0.1064E+02
      2.120  0.8317E-02  0.1064E+02
      2.134  0.1425E-01  0.1064E+02
      2.148  0.2110E-01  0.1064E+02
      2.161  0.2885E-01  0.1064E+02
      2.175  0.3746E-01  0.1064E+02
      2.189  0.4683E-01  0.1064E+02
      2.202  0.5685E-01  0.1064E+02
      2.216  0.6734E-01  0.1064E+02
      2.230  0.7811E-01  0.1064E+02
      2.243  0.8894E-01  0.1065E+02
      2.257  0.9956E-01  0.1065E+02
      2.271  0.1097E+00  0.1065E+02
      2.284  0.1192E+00  0.1065E+02
      2.298  0.1277E+00  0.1065E+02
      2.312  0.1349E+00  0.1065E+02
      2.325  0.1407E+00  0.1066E+02
      2.339  0.1449E+00  0.1066E+02
      2.353  0.1474E+00  0.1066E+02
      2.366  0.1481E+00  0.1066E+02
      2.380  0.1470E+00  0.1066E+02
      2.394  0.1441E+00  0.1067E+02
      2.407  0.1394E+00  0.1067E+02
      2.421  0.1333E+00  0.1067E+02
      2.435  0.1257E+00  0.1067E+02
      2.448  0.1170E+00  0.1067E+02
      2.462  0.1074E+00  0.1067E+02
      2.475  0.9707E-01  0.1068E+02
      2.489  0.8641E-01  0.1068E+02
      2.503  0.7563E-01  0.1068E+02
      2.516  0.6498E-01  0.1068E+02
      2.530  0.5467E-01  0.1068E+02
      2.544  0.4491E-01  0.1068E+02
      2.557  0.3584E-01  0.1068E+02
      2.571  0.2760E-01  0.1068E+02
      2.585  0.2025E-01  0.1068E+02
      2.598  0.1383E-01  0.1068E+02
      2.612  0.8354E-02  0.1068E+02
      2.626  0.3783E-02  0.1068E+02
      2.639  0.6256E-04  0.1068E+02
      2.653 -0.2887E-02  0.1068E+02
      2.667 -0.5161E-02  0.1068E+02
      2.680 -0.6864E-02  0.1068E+02
      2.694 -0.8102E-02  0.1068E+02
      2.708 -0.8983E-02  0.1068E+02
      2.721 -0.9604E-02  0.1068E+02
      2.735 -0.1005E-01  0.1068E+02
      2.749 -0.1040E-01  0.1068E+02
      2.762 -0.1069E-01  0.1068E+02
      2.776 -0.1097E-01  0.1068E+02
      2.790 -0.1123E-01  0.1068E+02
      2.803 -0.1146E-01  0.1068E+02
      2.817 -0.1161E-01  0.1068E+02
      2.831 -0.1162E-01  0.1068E+02
      2.844 -0.1139E-01  0.1068E+02
      2.858 -0.1080E-01  0.1068E+02
      2.872 -0.9711E-02  0.1068E+02
      2.885 -0.7984E-02  0.1068E+02
      2.899 -0.5461E-02  0.1068E+02
      2.912 -0.1989E-02  0.1068E+02
      2.926  0.2573E-02  0.1068E+02
      2.940  0.8341E-02  0.1068E+02
      2.953  0.1540E-01  0.1068E+02
      2.967  0.2379E-01  0.1068E+02
      2.981  0.3349E-01  0.1068E+02
      2.994  0.4443E-01  0.1068E+02
      3.008  0.5646E-01  0.1068E+02
      3.022  0.6936E-01  0.1068E+02
      3.035  0.8286E-01  0.1068E+02
      3.049  0.9661E-01  0.1068E+02
      3.063  0.1102E+00  0.1069E+02
      3.076  0.1233E+00  0.1069E+02
      3.090  0.1354E+00  0.1069E+02
      3.104  0.1461E+00  0.1069E+02
      3.117  0.1550E+00  0.1069E+02
      3.131  0.1618E+00  0.1070E+02
      3.145  0.1661E+00  0.1070E+02
      3.158  0.1678E+00  0.1070E+02
      3.172  0.1669E+00  0.1070E+02
      3.186  0.1632E+00  0.1070E+02
      3.199  0.1570E+00  0.1071E+02
      3.213  0.1484E+00  0.1071E+02
      3.227  0.1377E+00  0.1071E+02
      3.240  0.1253E+00  0.1071E+02
      3.254  0.1115E+00  0.1071E+02
      3.268  0.9681E-01  0.1072E+02
      3.281  0.8167E-01  0.1072E+02
      3.295  0.6652E-01  0.1072E+02
      3.309  0.5178E-01  0.1072E+02
      3.322  0.3786E-01  0.1072E+02
      3.336  0.2511E-01  0.1072E+02
      3.349  0.1387E-01  0.1072E+02
      3.363  0.4425E-02  0.1072E+02
      3.377 -0.2988E-02  0.1072E+02
      3.390 -0.8155E-02  0.1072E+02
      3.404 -0.1090E-01  0.1072E+02
      3.418 -0.1108E-01  0.1072E+02
      3.431 -0.8589E-02  0.1072E+02
      3.445 -0.3352E-02  0.1072E+02
      3.459  0.4661E-02  0.1072E+02
      3.472  0.1543E-01  0.1072E+02
      3.486  0.2888E-01  0.1072E+02
      3.500  0.4488E-01  0.1072E+02
      3.513  0.6319E-01  0.1072E+02
      3.527  0.8355E-01  0.1072E+02
      3.541  0.1056E+00  0.1072E+02
      3.554  0.1288E+00  0.1073E+02
      3.568  0.1527E+00  0.1073E+02
      3.582  0.1768E+00  0.1073E+02
      3.595  0.2003E+00  0.1073E+02
      3.609  0.2228E+00  0.1074E+02
      3.623  0.2437E+00  0.1074E+02
      3.636  0.2622E+00  0.1074E+02
      3.650  0.2781E+00  0.1075E+02
      3.664  0.2909E+00  0.1075E+02
      3.677  0.3003E+00  0.1075E+02
      3.691  0.3061E+00  0.1076E+02
      3.705  0.3085E+00  0.1076E+02
      3.718  0.3075E+00  0.1077E+02
      3.732  0.3035E+00  0.1077E+02
      3.746  0.2967E+00  0.1078E+02
      3.759  0.2876E+00  0.1078E+02
      3.773  0.2769E+00  0.1078E+02
      3.786  0.2650E+00  0.1079E+02
      3.800  0.2525E+00  0.1079E+02
      3.814  0.2400E+00  0.1079E+02
      3.827  0.2280E+00  0.1080E+02
      3.841  0.2170E+00  0.1080E+02
      3.855  0.2071E+00  0.1080E+02
      3.868  0.1988E+00  0.1080E+02
      3.882  0.1921E+00  0.1081E+02
      3.896  0.1870E+00  0.1081E+02
      3.909  0.1835E+00  0.1081E+02
      3.923  0.1815E+00  0.1081E+02
      3.937  0.1806E+00  0.1082E+02
      3.950  0.1805E+00  0.1082E+02
      3.964  0.1811E+00  0.1082E+02
      3.978  0.1818E+00  0.1082E+02
      3.991  0.1823E+00  0.1083E+02
      4.005  0.1824E+00  0.1083E+02
      4.019  0.1817E+00  0.1083E+02
      4.032  0.1800E+00  0.1083E+02
      4.046  0.1771E+00  0.1084E+02
      4.060  0.1729E+00  0.1084E+02
      4.073  0.1674E+00  0.1084E+02
      4.087  0.1606E+00  0.1084E+02
      4.101  0.1526E+00  0.1085E+02
      4.114  0.1436E+00  0.1085E+02
      4.128  0.1338E+00  0.1085E+02
      4.142  0.1235E+00  0.1085E+02
      4.155  0.1130E+00  0.1085E+02
      4.169  0.1026E+00  0.1085E+02
      4.183  0.9261E-01  0.1086E+02
      4.196  0.8345E-01  0.1086E+02
      4.210  0.7542E-01  0.1086E+02
      4.223  0.6888E-01  0.1086E+02
      4.237  0.6416E-01  0.1086E+02
      4.251  0.6161E-01  0.1086E+02
      4.264  0.6155E-01  0.1086E+02
      4.278  0.6433E-01  0.1086E+02
      4.292  0.7025E-01  0.1086E+02
      4.305  0.7962E-01  0.1086E+02
      4.319  0.9270E-01  0.1087E+02
      4.333  0.1097E+00  0.1087E+02
      4.346  0.1308E+00  0.1087E+02
      4.360  0.1560E+00  0.1087E+02
      4.374  0.1853E+00  0.1087E+02
      4.387  0.2185E+00  0.1088E+02
      4.401  0.2553E+00  0.1088E+02
      4.415  0.2951E+00  0.1088E+02
      4.428  0.3372E+00  0.1089E+02
      4.442  0.3810E+00  0.1089E+02
      4.456  0.4253E+00  0.1090E+02
      4.469  0.4691E+00  0.1091E+02
      4.483  0.5114E+00  0.1091E+02
      4.497  0.5509E+00  0.1092E+02
      4.510  0.5866E+00  0.1093E+02
      4.524  0.6176E+00  0.1094E+02
      4.538  0.6429E+00  0.1095E+02
      4.551  0.6621E+00  0.1095E+02
      4.565  0.6746E+00  0.1096E+02
      4.579  0.6803E+00  0.1097E+02
      4.592  0.6794E+00  0.1098E+02
      4.606  0.6723E+00  0.1099E+02
      4.620  0.6596E+00  0.1100E+02
      4.633  0.6421E+00  0.1101E+02
      4.647  0.6207E+00  0.1102E+02
      4.660  0.5966E+00  0.1103E+02
      4.674  0.5707E+00  0.1103E+02
      4.688  0.5442E+00  0.1104E+02