    1    1    1    1
  0.1987675E+02  0.3040559E-09  0.3040559E-09  0.3040559E-09  0.5000000E-15
  1.000000000000000E-004
  CAR 
 FCC Au                                  
     11    100     12
 
  0.5000000E+00  0.2500000E+00  0.7500000E+00  0.1000000E-01
    1       -3.710562   1.000000
    2       -3.304225   1.000000
    3       -3.304216   1.000000
    4       -2.334936   1.000000
    5       -1.503001   1.000000
    6        7.008841  -0.000000
    7        9.067958  -0.000000
    8        9.067961  -0.000000
    9       11.532929   0.000000
   10       25.455621   0.000000
   11       25.455627   0.000000
   12       26.206963   0.000000
 
  0.5000000E+00  0.2631579E+00  0.7368421E+00  0.1000000E-01
    1       -3.708636   1.000000
    2       -3.311921   1.000000
    3       -3.294871   1.000000
    4       -2.334432   1.000000
    5       -1.511541   1.000000
    6        6.913931  -0.000000
    7        8.967390  -0.000000
    8        9.203454  -0.000000
    9       11.643011   0.000000
   10       25.144733   0.000000
   11       25.460967   0.000000
   12       26.528576   0.000000
 
  0.5000000E+00  0.2763158E+00  0.7236842E+00  0.1000000E-01
    1       -3.702717   1.000000
    2       -3.334560   1.000000
    3       -3.267150   1.000000
    4       -2.333970   1.000000
    5       -1.536147   1.000000
    6        6.684613  -0.000000
    7        8.706951  -0.000000
    8        9.553887  -0.000000
    9       11.931939   0.000000
   10       24.633231   0.000000
   11       25.476671   0.000000
   12       27.072225   0.000000
 
  0.5000000E+00  0.2894737E+00  0.7105263E+00  0.1000000E-01
    1       -3.693467   1.000000
    2       -3.370747   1.000000
    3       -3.221771   1.000000
    4       -2.337238   1.000000
    5       -1.572259   1.000000
    6        6.404719  -0.000000
    7        8.356523  -0.000000
    8       10.033629  -0.000000
    9       12.327546   0.000000
   10       24.105428   0.000000
   11       25.502040   0.000000
   12       27.653773   0.000000
 
  0.5000000E+00  0.3026316E+00  0.6973684E+00  0.1000000E-01
    1       -3.676820   1.000000
    2       -3.418882   1.000000
    3       -3.162862   1.000000
    4       -2.347867   1.000000
    5       -1.619212   1.000000
    6        6.122107  -0.000000
    7        7.964424  -0.000000
    8       10.591756   0.000000
    9       12.788324   0.000000
   10       23.581035   0.000000
   11       25.535556   0.000000
   12       28.246580   0.000000
 
  0.5000000E+00  0.3157895E+00  0.6842105E+00  0.1000000E-01
    1       -3.657238   1.000000
    2       -3.476798   1.000000
    3       -3.087624   1.000000
    4       -2.372984   1.000000
    5       -1.665816   1.000000
    6        5.857097  -0.000000
    7        7.554378  -0.000000
    8       11.203708   0.000000
    9       13.281897   0.000000
   10       23.074010   0.000000
   11       25.575345   0.000000
   12       28.850787   0.000000
 
  0.5000000E+00  0.3289474E+00  0.6710526E+00  0.1000000E-01
    1       -3.632644   1.000000
    2       -3.542643   1.000000
    3       -2.998893   1.000000
    4       -2.417034   1.000000
    5       -1.705294   1.000000
    6        5.618662  -0.000000
    7        7.140521  -0.000000
    8       11.855376   0.000000
    9       13.797652   0.000000
   10       22.586392   0.000000
   11       25.619622   0.000000
   12       29.304971   0.000000
 
  0.5000000E+00  0.3421053E+00  0.6578947E+00  0.1000000E-01
    1       -3.619380   1.000000
    2       -3.604645   1.000000
    3       -2.902440   1.000000
    4       -2.484809   1.000000
    5       -1.737756   1.000000
    6        5.408110  -0.000000
    7        6.729095  -0.000000
    8       12.533101   0.000000
    9       14.325580   0.000000
   10       22.120130   0.000000
   11       25.657961   0.000000
   12       29.503686   0.000000
 
  0.5000000E+00  0.3552632E+00  0.6447368E+00  0.1000000E-01
    1       -3.696639   1.000000
    2       -3.571423   1.000000
    3       -2.791080   1.000000
    4       -2.563393   1.000000
    5       -1.751427   1.000000
    6        5.228215  -0.000070
    7        6.328804  -0.000000
    8       13.240073   0.000000
    9       14.863674   0.000000
   10       21.681204   0.000000
   11       25.710457   0.000000
   12       29.731121   0.000000
 
  0.5000000E+00  0.3684211E+00  0.6315789E+00  0.1000000E-01
    1       -3.778119   1.000000
    2       -3.540034   1.000000
    3       -2.672844   1.000000
    4       -2.662914   1.000000
    5       -1.758078   1.000000
    6        5.074147  -0.002926
    7        5.940998  -0.000000
    8       13.961120   0.000000
    9       15.396599   0.000000
   10       21.267277   0.000000
   11       25.755997   0.000000
   12       29.963092   0.000000
 
  0.5000000E+00  0.3815789E+00  0.6184211E+00  0.1000000E-01
    1       -3.861238   1.000000
    2       -3.503108   1.000000
    3       -2.763991   1.000000
    4       -2.546483   1.000000
    5       -1.755501   1.000000
    6        4.946208  -0.021226
    7        5.570203  -0.000000
    8       14.696725   0.000000
    9       15.934923   0.000000
   10       20.889576   0.000000
   11       25.799396   0.000000
   12       29.341233   0.000000
 
  0.5000000E+00  0.3947368E+00  0.6052632E+00  0.1000000E-01
    1       -3.944768   1.000000
    2       -3.461960   1.000000
    3       -2.862440   1.000000
    4       -2.411014   1.000000
    5       -1.746139   1.000000
    6        4.840775  -0.033223
    7        5.221309  -0.000086
    8       15.438469   0.000000
    9       16.468307   0.000000
   10       20.548160   0.000000
   11       25.840801   0.000000
   12       28.768998   0.000000
 
  0.5000000E+00  0.4078947E+00  0.5921053E+00  0.1000000E-01
    1       -4.026817   1.000000
    2       -3.425539   1.000000
    3       -2.956122   1.000000
    4       -2.279482   1.000000
    5       -1.737094   1.000000
    6        4.754749   0.046297
    7        4.893799  -0.032546
    8       16.179044   0.000000
    9       16.982804   0.000000
   10       20.246401   0.000000
   11       25.874635   0.000000
   12       28.208556   0.000000
 
  0.5000000E+00  0.4210526E+00  0.5789474E+00  0.1000000E-01
    1       -4.106330   1.000000
    2       -3.391178   1.000000
    3       -3.040454   1.000000
    4       -2.154922   1.000000
    5       -1.727354   1.000000
    6        4.593482   0.603714
    7        4.684978   0.234146
    8       16.908940   0.000000
    9       17.469799   0.000000
   10       19.991108   0.000000
   11       25.895078   0.000000
   12       27.674393   0.000000
 
  0.5000000E+00  0.4342105E+00  0.5657895E+00  0.1000000E-01
    1       -4.178362   1.000000
    2       -3.359433   1.000000
    3       -3.112933   1.000000
    4       -2.032648   1.000000
    5       -1.717886   1.000000
    6        4.326306   1.029415
    7        4.630457   0.448247
    8       17.616802   0.000000
    9       17.912928   0.000000
   10       19.792590   0.000000
   11       25.912167   0.000000
   12       27.175600   0.000000
 
  0.5000000E+00  0.4473684E+00  0.5526316E+00  0.1000000E-01
    1       -4.241519   1.000000
    2       -3.331085   1.000000
    3       -3.172369   1.000000
    4       -1.921485   1.000000
    5       -1.703397   1.000000
    6        4.096686   1.000707
    7        4.588574   0.623847
    8       18.283089   0.000000
    9       18.284394   0.000000
   10       19.668161   0.000000
   11       25.916639   0.000000
   12       26.724825   0.000000
 
  0.5000000E+00  0.4605263E+00  0.5394737E+00  0.1000000E-01
    1       -4.293413   1.000000
    2       -3.308431   1.000000
    3       -3.218828   1.000000
    4       -1.826942   1.000000
    5       -1.696657   1.000000
    6        3.909931   1.000003
    7        4.557694   0.743497
    8       18.539513   0.000000
    9       18.884824   0.000000
   10       19.640768   0.000000
   11       25.900770   0.000000
   12       26.334530   0.000000
 
  0.5000000E+00  0.4736842E+00  0.5263158E+00  0.1000000E-01
    1       -4.332016   1.000000
    2       -3.290819   1.000000
    3       -3.251611   1.000000
    4       -1.750973   1.000000
    5       -1.688822   1.000000
    6        3.771676   1.000000
    7        4.536548   0.815643
    8       18.667043   0.000000
    9       19.378305   0.000000
   10       19.704747   0.000000
   11       25.858980   0.000000
   12       26.031115   0.000000
 
  0.5000000E+00  0.4868421E+00  0.5131579E+00  0.1000000E-01
    1       -4.355810   1.000000
    2       -3.280515   1.000000
    3       -3.270403   1.000000
    4       -1.699732   1.000000
    5       -1.685239   1.000000
    6        3.686426   1.000000
    7        4.524223   0.853114
    8       18.708481   0.000000
    9       19.711528   0.000000
   10       19.792470   0.000000
   11       25.798733   0.000000
   12       25.832755   0.000000
 
  0.5000000E+00  0.5000000E+00  0.5000000E+00  0.1000000E-01
    1       -4.363853   1.000000
    2       -3.277047   1.000000
    3       -3.277047   1.000000
    4       -1.684291   1.000000
    5       -1.684291   1.000000
    6        3.657532   1.000000
    7        4.520173   0.864633
    8       18.716176   0.000000
    9       19.830695   0.000000
   10       19.830695   0.000000
   11       25.763711   0.000000
   12       25.763728   0.000000
 
  0.5000000E+00  0.5000000E+00  0.5000000E+00  0.1000000E-01
    1       -4.363853   1.000000
    2       -3.277047   1.000000
    3       -3.277047   1.000000
    4       -1.684291   1.000000
    5       -1.684291   1.000000
    6        3.657532   1.000000
    7        4.520173   0.864633
    8       18.716176   0.000000
    9       19.830695   0.000000
   10       19.830695   0.000000
   11       25.763711   0.000000
   12       25.763765   0.000000
 
  0.4736842E+00  0.4736842E+00  0.4736842E+00  0.1000000E-01
    1       -4.358590   1.000000
    2       -3.273859   1.000000
    3       -3.273859   1.000000
    4       -1.693589   1.000000
    5       -1.693589   1.000000
    6        3.156263   1.000000
    7        5.057273  -0.004045
    8       18.733838   0.000000
    9       19.860222   0.000000
   10       19.860222   0.000000
   11       25.760113   0.000000
   12       25.760474   0.000000
 
  0.4473684E+00  0.4473684E+00  0.4473684E+00  0.1000000E-01
    1       -4.343023   1.000000
    2       -3.266305   1.000000
    3       -3.266305   1.000000
    4       -1.730895   1.000000
    5       -1.730895   1.000000
    6        2.413860   1.000000
    7        5.906919  -0.000000
    8       18.786386   0.000000
    9       19.947570   0.000000
   10       19.947570   0.000000
   11       25.740567   0.000000
   12       25.740592   0.000000
 
  0.4210526E+00  0.4210526E+00  0.4210526E+00  0.1000000E-01
    1       -4.317507   1.000000
    2       -3.251488   1.000000
    3       -3.251488   1.000000
    4       -1.776586   1.000000
    5       -1.776586   1.000000
    6        1.678651   1.000000
    7        6.820582  -0.000000
    8       18.872481   0.000000
    9       20.089434   0.000000
   10       20.089434   0.000000
   11       25.724313   0.000000
   12       25.724374   0.000000
 
  0.3947368E+00  0.3947368E+00  0.3947368E+00  0.1000000E-01
    1       -4.276390   1.000000
    2       -3.231033   1.000000
    3       -3.231033   1.000000
    4       -1.829562   1.000000
    5       -1.829562   1.000000
    6        0.978439   1.000000
    7        7.776984  -0.000000
    8       18.990743   0.000000
    9       20.281375   0.000000
   10       20.281375   0.000000
   11       25.711497   0.000000
   12       25.713676   0.000000
 
  0.3684211E+00  0.3684211E+00  0.3684211E+00  0.1000000E-01
    1       -4.235076   1.000000
    2       -3.207458   1.000000
    3       -3.207458   1.000000
    4       -1.903745   1.000000
    5       -1.903745   1.000000
    6        0.312412   1.000000
    7        8.760579  -0.000000
    8       19.135322   0.000000
    9       20.512774   0.000000
   10       20.512774   0.000000
   11       25.695709   0.000000
   12       25.756494   0.000000
 
  0.3421053E+00  0.3421053E+00  0.3421053E+00  0.1000000E-01
    1       -4.186781   1.000000
    2       -3.181400   1.000000
    3       -3.181400   1.000000
    4       -1.986120   1.000000
    5       -1.986120   1.000000
    6       -0.312023   1.000000
    7        9.771314  -0.000000
    8       19.300939   0.000000
    9       20.773605   0.000000
   10       20.773605   0.000000
   11       25.662188   0.000000
   12       25.690050   0.000000
 
  0.3157895E+00  0.3157895E+00  0.3157895E+00  0.1000000E-01
    1       -4.133491   1.000000
    2       -3.154820   1.000000
    3       -3.154820   1.000000
    4       -2.072615   1.000000
    5       -2.072615   1.000000
    6       -0.892348   1.000000
    7       10.805159   0.000000
    8       19.478687   0.000000
    9       21.049597   0.000000
   10       21.049597   0.000000
   11       25.383086   0.000000
   12       25.704368   0.000000
 
  0.2894737E+00  0.2894737E+00  0.2894737E+00  0.1000000E-01
    1       -4.077855   1.000000
    2       -3.130250   1.000000
    3       -3.130250   1.000000
    4       -2.158632   1.000000
    5       -2.158632   1.000000
    6       -1.425993   1.000000
    7       11.858057   0.000000
    8       19.655987   0.000000
    9       21.323360   0.000000
   10       21.323360   0.000000
   11       25.129258   0.000000
   12       25.751357   0.000000
 
  0.2631579E+00  0.2631579E+00  0.2631579E+00  0.1000000E-01
    1       -4.023744   1.000000
    2       -3.110807   1.000000
    3       -3.110807   1.000000
    4       -2.239073   1.000000
    5       -2.239073   1.000000
    6       -1.909689   1.000000
    7       12.925146   0.000000
    8       19.816345   0.000000
    9       21.575502   0.000000
   10       21.575502   0.000000
   11       24.931005   0.000000
   12       25.845408   0.000000
 
  0.2368421E+00  0.2368421E+00  0.2368421E+00  0.1000000E-01
    1       -3.980563   1.000000
    2       -3.099438   1.000000
    3       -3.099438   1.000000
    4       -2.339908   1.000000
    5       -2.307179   1.000000
    6       -2.307179   1.000000
    7       13.994451   0.000000
    8       19.938374   0.000000
    9       21.789247   0.000000
   10       21.789247   0.000000
   11       24.820748   0.000000
   12       26.000498   0.000000
 
  0.2105263E+00  0.2105263E+00  0.2105263E+00  0.1000000E-01
    1       -3.952156   1.000000
    2       -3.100305   1.000000
    3       -3.100305   1.000000
    4       -2.705909   1.000000
    5       -2.362563   1.000000
    6       -2.362563   1.000000
    7       15.069329   0.000000
    8       20.011300   0.000000
    9       21.948100   0.000000
   10       21.948100   0.000000
   11       24.831564   0.000000
   12       26.221265   0.000000
 
  0.1842105E+00  0.1842105E+00  0.1842105E+00  0.1000000E-01
    1       -3.957909   1.000000
    2       -3.119001   1.000000
    3       -3.119001   1.000000
    4       -2.994120   1.000000
    5       -2.403822   1.000000
    6       -2.403822   1.000000
    7       16.132358   0.000000
    8       20.028258   0.000000
    9       22.045138   0.000000
   10       22.045138   0.000000
   11       24.973560   0.000000
   12       26.497006   0.000000
 
  0.1578947E+00  0.1578947E+00  0.1578947E+00  0.1000000E-01
    1       -4.017425   1.000000
    2       -3.184143   1.000000
    3       -3.144906   1.000000
    4       -3.144906   1.000000
    5       -2.423834   1.000000
    6       -2.423834   1.000000
    7       17.170027   0.000000
    8       20.007035   0.000000
    9       22.097851   0.000000
   10       22.097851   0.000000
   11       25.244098   0.000000
   12       26.824048   0.000000
 
  0.1315789E+00  0.1315789E+00  0.1315789E+00  0.1000000E-01
    1       -4.131634   1.000000
    2       -3.277553   1.000000
    3       -3.177923   1.000000
    4       -3.177923   1.000000
    5       -2.429950   1.000000
    6       -2.429950   1.000000
    7       18.142798   0.000000
    8       19.989953   0.000000
    9       22.113028   0.000000
   10       22.113028   0.000000
   11       25.621111   0.000000
   12       27.168098   0.000000
 
  0.1052632E+00  0.1052632E+00  0.1052632E+00  0.1000000E-01
    1       -4.269104   1.000000
    2       -3.307277   1.000000
    3       -3.214388   1.000000
    4       -3.214388   1.000000
    5       -2.435683   1.000000
    6       -2.435683   1.000000
    7       18.928110   0.000000
    8       20.103606   0.000000
    9       22.102338   0.000000
   10       22.102338   0.000000
   11       26.066093   0.000000
   12       27.486034   0.000000
 
  0.7894737E-01  0.7894737E-01  0.7894737E-01  0.1000000E-01
    1       -4.396702   1.000000
    2       -3.309319   1.000000
    3       -3.246509   1.000000
    4       -3.246509   1.000000
    5       -2.433645   1.000000
    6       -2.433645   1.000000
    7       19.275781   0.000000
    8       20.588588   0.000000
    9       22.082258   0.000000
   10       22.082258   0.000000
   11       26.507068   0.000000
   12       27.762596   0.000000
 
  0.5263158E-01  0.5263158E-01  0.5263158E-01  0.1000000E-01
    1       -4.495728   1.000000
    2       -3.303900   1.000000
    3       -3.271863   1.000000
    4       -3.271863   1.000000
    5       -2.427507   1.000000
    6       -2.427506   1.000000
    7       19.326606   0.000000
    8       21.267906   0.000000
    9       22.061283   0.000000
   10       22.061283   0.000000
   11       26.768473   0.000000
   12       27.972072   0.000000
 
  0.2631579E-01  0.2631579E-01  0.2631579E-01  0.1000000E-01
    1       -4.557595   1.000000
    2       -3.296421   1.000000
    3       -3.288008   1.000000
    4       -3.288008   1.000000
    5       -2.422922   1.000000
    6       -2.422922   1.000000
    7       19.317523   0.000000
    8       21.821811   0.000000
    9       22.045971   0.000000
   10       22.045971   0.000000
   11       26.654750   0.000000
   12       28.074976   0.000000
 
  0.0000000E+00  0.0000000E+00  0.0000000E+00  0.1000000E-01
    1       -4.578531   1.000000
    2       -3.293536   1.000000
    3       -3.293536   1.000000
    4       -3.293514   1.000000
    5       -2.421244   1.000000
    6       -2.421244   1.000000
    7       19.310414   0.000000
    8       22.040418   0.000000
    9       22.040418   0.000000
   10       22.040419   0.000000
   11       26.526785   0.000000
   12       28.137350   0.000000
 
  0.0000000E+00  0.0000000E+00  0.0000000E+00  0.1000000E-01
    1       -4.578531   1.000000
    2       -3.293536   1.000000
    3       -3.293536   1.000000
    4       -3.293514   1.000000
    5       -2.421244   1.000000
    6       -2.421244   1.000000
    7       19.310415   0.000000
    8       22.040418   0.000000
    9       22.040418   0.000000
   10       22.040419   0.000000
   11       26.526788   0.000000
   12       28.137371   0.000000
 
  0.2631579E-01  0.0000000E+00  0.2631579E-01  0.1000000E-01
    1       -4.550560   1.000000
    2       -3.302149   1.000000
    3       -3.283810   1.000000
    4       -3.283795   1.000000
    5       -2.430196   1.000000
    6       -2.416775   1.000000
    7       19.320951   0.000000
    8       21.910491   0.000000
    9       21.963097   0.000000
   10       21.963098   0.000000
   11       26.720113   0.000000
   12       28.013964   0.000000
 
  0.5263158E-01  0.0000000E+00  0.5263158E-01  0.1000000E-01
    1       -4.467303   1.000000
    2       -3.327690   1.000000
    3       -3.254715   1.000000
    4       -3.254700   1.000000
    5       -2.456021   1.000000
    6       -2.403464   1.000000
    7       19.351999   0.000000
    8       21.580570   0.000000
    9       21.732096   0.000000
   10       21.732098   0.000000
   11       27.197812   0.000000
   12       27.770686   0.000000
 
  0.7894737E-01  0.0000000E+00  0.7894737E-01  0.1000000E-01
    1       -4.331531   1.000000
    2       -3.369211   1.000000
    3       -3.205798   1.000000
    4       -3.205782   1.000000
    5       -2.487186   1.000000
    6       -2.381621   1.000000
    7       19.402008   0.000000
    8       21.159740   0.000000
    9       21.355524   0.000000
   10       21.355527   0.000000
   11       27.252267   0.000000
   12       27.596520   0.000000
 
  0.1052632E+00  0.0000000E+00  0.1052632E+00  0.1000000E-01
    1       -4.149346   1.000000
    2       -3.422305   1.000000
    3       -3.135718   1.000000
    4       -3.135705   1.000000
    5       -2.534828   1.000000
    6       -2.351756   1.000000
    7       19.473811   0.000000
    8       20.719978   0.000000
    9       20.855782   0.000000
   10       20.855785   0.000000
   11       26.072801   0.000000
   12       27.554181   0.000000
 
  0.1315789E+00  0.0000000E+00  0.1315789E+00  0.1000000E-01
    1       -3.934812   1.000000
    2       -3.491714   1.000000
    3       -3.052488   1.000000
    4       -3.052474   1.000000
    5       -2.572279   1.000000
    6       -2.314547   1.000000
    7       19.553830   0.000000
    8       20.254438   0.000000
    9       20.254441   0.000000
   10       20.303361   0.000000
   11       24.677367   0.000000
   12       27.645674   0.000000
 
  0.1578947E+00  0.0000000E+00  0.1578947E+00  0.1000000E-01
    1       -3.719913   1.000000
    2       -3.571340   1.000000
    3       -2.952823   1.000000
    4       -2.952808   1.000000
    5       -2.565387   1.000000
    6       -2.270882   1.000000
    7       19.589350   0.000000
    8       19.589354   0.000000
    9       19.643321   0.000000
   10       19.928526   0.000000
   11       23.235973   0.000000
   12       27.866518   0.000000
 
  0.1842105E+00  0.0000000E+00  0.1842105E+00  0.1000000E-01
    1       -3.658664   1.000000
    2       -3.565537   1.000000
    3       -2.838280   1.000000
    4       -2.838265   1.000000
    5       -2.451022   1.000000
    6       -2.221806   1.000000
    7       18.890450   0.000000
    8       18.890454   0.000000
    9       19.599541   0.000000
   10       19.738749   0.000000
   11       21.793439   0.000000
   12       28.201405   0.000000
 
  0.2105263E+00  0.0000000E+00  0.2105263E+00  0.1000000E-01
    1       -3.751001   1.000000
    2       -3.520780   1.000000
    3       -2.710727   1.000000
    4       -2.710712   1.000000
    5       -2.177326   1.000000
    6       -2.168498   1.000000
    7       18.181841   0.000000
    8       18.181846   0.000000
    9       19.293301   0.000000
   10       19.836784   0.000000
   11       20.392915   0.000000
   12       28.636634   0.000000
 
  0.2368421E+00  0.0000000E+00  0.2368421E+00  0.1000000E-01
    1       -3.845696   1.000000
    2       -3.564939   1.000000
    3       -2.572624   1.000000
    4       -2.572608   1.000000
    5       -2.112297   1.000000
    6       -1.762396   1.000000
    7       17.482431   0.000000
    8       17.482435   0.000000
    9       18.686995   0.000000
   10       19.366011   0.000000
   11       19.934440   0.000000
   12       29.161563   0.000000
 
  0.2631579E+00  0.0000000E+00  0.2631579E+00  0.1000000E-01
    1       -3.938097   1.000000
    2       -3.650514   1.000000
    3       -2.425434   1.000000
    4       -2.425418   1.000000
    5       -2.042722   1.000000
    6       -1.244609   1.000000
    7       16.808662   0.000000
    8       16.808665   0.000000
    9       17.413940   0.000000
   10       19.096261   0.000000
   11       20.038488   0.000000
   12       29.775137   0.000000
 
  0.2894737E+00  0.0000000E+00  0.2894737E+00  0.1000000E-01
    1       -4.030030   1.000000
    2       -3.760558   1.000000
    3       -2.277200   1.000000
    4       -2.277184   1.000000
    5       -1.987212   1.000000
    6       -0.652194   1.000000
    7       16.062529   0.000000
    8       16.168800   0.000000
    9       16.168803   0.000000
   10       18.965387   0.000000
   11       20.128019   0.000000
   12       30.456824   0.000000
 
  0.3157895E+00  0.0000000E+00  0.3157895E+00  0.1000000E-01
    1       -4.116775   1.000000
    2       -3.875522   1.000000
    3       -2.128599   1.000000
    4       -2.128583   1.000000
    5       -1.933366   1.000000
    6        0.005342   1.000000
    7       14.728752   0.000000
    8       15.575961   0.000000
    9       15.575964   0.000000
   10       18.889653   0.000000
   11       20.210674   0.000000
   12       31.208581   0.000000
 
  0.3421053E+00  0.0000000E+00  0.3421053E+00  0.1000000E-01
    1       -4.196214   1.000000
    2       -3.988911   1.000000
    3       -1.984017   1.000000
    4       -1.984001   1.000000
    5       -1.882709   1.000000
    6        0.720088   1.000000
    7       13.426103   0.000000
    8       15.039490   0.000000
    9       15.039492   0.000000
   10       18.846824   0.000000
   11       20.285131   0.000000
   12       32.029035   0.000000
 
  0.3684211E+00  0.0000000E+00  0.3684211E+00  0.1000000E-01
    1       -4.267057   1.000000
    2       -4.094820   1.000000
    3       -1.859153   1.000000
    4       -1.859137   1.000000
    5       -1.838625   1.000000
    6        1.486847   1.000000
    7       12.160847   0.000000
    8       14.565637   0.000000
    9       14.565638   0.000000
   10       18.823141   0.000000
   11       20.347901   0.000000
   12       32.389894   0.000000
 
  0.3947368E+00  0.0000000E+00  0.3947368E+00  0.1000000E-01
    1       -4.326771   1.000000
    2       -4.184358   1.000000
    3       -1.799174   1.000000
    4       -1.740580   1.000000
    5       -1.740566   1.000000
    6        2.301585   1.000000
    7       10.939992   0.000000
    8       14.167271   0.000000
    9       14.167272   0.000000
   10       18.825495   0.000000
   11       20.402267   0.000000
   12       32.139376   0.000000
 
  0.4210526E+00  0.0000000E+00  0.4210526E+00  0.1000000E-01
    1       -4.374471   1.000000
    2       -4.256984   1.000000
    3       -1.767025   1.000000
    4       -1.641476   1.000000
    5       -1.641461   1.000000
    6        3.154362   1.000000
    7        9.771633  -0.000000
    8       13.848941   0.000000
    9       13.848941   0.000000
   10       18.837308   0.000000
   11       20.445787   0.000000
   12       31.946158   0.000000
 
  0.4473684E+00  0.0000000E+00  0.4473684E+00  0.1000000E-01
    1       -4.405713   1.000000
    2       -4.310269   1.000000
    3       -1.739038   1.000000
    4       -1.556591   1.000000
    5       -1.556580   1.000000
    6        4.025070   1.000113
    7        8.676014  -0.000000
    8       13.617285   0.000000
    9       13.617285   0.000000
   10       18.851784   0.000000
   11       20.501708   0.000000
   12       31.806772   0.000000
 
  0.4736842E+00  0.0000000E+00  0.4736842E+00  0.1000000E-01
    1       -4.427291   1.000000
    2       -4.338287   1.000000
    3       -1.724609   1.000000
    4       -1.507425   1.000000
    5       -1.507414   1.000000
    6        4.843968  -0.033849
    7        7.725682  -0.000000
    8       13.475630   0.000000
    9       13.475630   0.000000
   10       18.879798   0.000000
   11       20.519360   0.000000
   12       31.721942   0.000000
 
  0.5000000E+00  0.0000000E+00  0.5000000E+00  0.1000000E-01
    1       -4.434535   1.000000
    2       -4.349669   1.000000
    3       -1.719848   1.000000
    4       -1.492036   1.000000
    5       -1.492025   1.000000
    6        5.281997  -0.000014
    7        7.242414  -0.000000
    8       13.428050   0.000000
    9       13.428050   0.000000
   10       18.883314   0.000000
   11       20.525259   0.000000
   12       31.693498   0.000000
 
  0.5000000E+00  0.0000000E+00  0.5000000E+00  0.1000000E-01
    1       -4.434535   1.000000
    2       -4.349669   1.000000
    3       -1.719848   1.000000
    4       -1.492036   1.000000
    5       -1.492025   1.000000
    6        5.281997  -0.000014
    7        7.242414  -0.000000
    8       13.428050   0.000000
    9       13.428050   0.000000
   10       18.883314   0.000000
   11       20.525259   0.000000
   12       31.693441   0.000000
 
  0.5000000E+00  0.1315789E-01  0.5131579E+00  0.1000000E-01
    1       -4.431195   1.000000
    2       -4.346372   1.000000
    3       -1.722822   1.000000
    4       -1.500808   1.000000
    5       -1.491981   1.000000
    6        5.296762  -0.000009
    7        7.240950  -0.000000
    8       13.406091   0.000000
    9       13.407483   0.000000
   10       18.924414   0.000000
   11       20.546176   0.000000
   12       31.672906   0.000000
 
  0.5000000E+00  0.2631579E-01  0.5263158E+00  0.1000000E-01
    1       -4.421191   1.000000
    2       -4.336516   1.000000
    3       -1.731708   1.000000
    4       -1.526876   1.000000
    5       -1.491837   1.000000
    6        5.340783  -0.000002
    7        7.236583  -0.000000
    8       13.342451   0.000000
    9       13.346493   0.000000
   10       19.045424   0.000000
   11       20.608253   0.000000
   12       31.609592   0.000000
 
  0.5000000E+00  0.3947368E-01  0.5394737E+00  0.1000000E-01
    1       -4.404530   1.000000
    2       -4.320216   1.000000
    3       -1.746399   1.000000
    4       -1.569458   1.000000
    5       -1.491599   1.000000
    6        5.413264  -0.000000
    7        7.229414  -0.000000
    8       13.243149   0.000000
    9       13.247097   0.000000
   10       19.240159   0.000000
   11       20.709617   0.000000
   12       31.499277   0.000000
 
  0.5000000E+00  0.5263158E-01  0.5526316E+00  0.1000000E-01
    1       -4.383167   1.000000
    2       -4.297665   1.000000
    3       -1.768731   1.000000
    4       -1.636458   1.000000
    5       -1.493769   1.000000
    6        5.512388  -0.000000
    7        7.219505  -0.000000
    8       13.112147   0.000000
    9       13.116280   0.000000
   10       19.500173   0.000000
   11       20.835568   0.000000