 vasp.5.4.4.18Apr17-6-g9f103f2a35 (build Jul 01 2019 03:25:34) complex          
  
 executed on             LinuxIFC date 2020.07.08  01:50:36
 running on    4 total cores
 distrk:  each k-point on    4 cores,    1 groups
 distr:  one band on NCORES_PER_BAND=   1 cores,    4 groups


--------------------------------------------------------------------------------------------------------


 INCAR:
 POTCAR:   PAW Au 04Feb1998                       
 POTCAR:   PAW Au 04Feb1998                       
   VRHFIN =Au: s1d10                                                            
   LEXCH  = CA                                                                  
   EATOM  =   929.4667 eV,   68.3139 Ry                                         
                                                                                
   TITEL  = PAW Au 04Feb1998                                                    
   LULTRA =        F    use ultrasoft PP ?                                      
   IUNSCR =        1    unscreen: 0-lin 1-nonlin 2-no                           
   RPACOR =    2.330    partial core radius                                     
   POMASS =  196.966; ZVAL   =   11.000    mass and valenz                      
   RCORE  =    2.500    outmost cutoff radius                                   
   RWIGS  =    2.840; RWIGS  =    1.503    wigner-seitz radius (au A)           
   ENMAX  =  229.869; ENMIN  =  172.402 eV                                      
   RCLOC  =    1.964    cutoff for local pot                                    
   LCOR   =        T    correct aug charges                                     
   LPAW   =        T    paw PP                                                  
   EAUG   =  356.670                                                            
   DEXC   =    -.020                                                            
   RMAX   =    3.041    core radius for proj-oper                               
   RDEP   =    2.598    core radius for depl-charge                             
   QCUT   =   -4.110; QGAM   =    8.221    optimization parameters              
                                                                                
   Description                                                                  
     l     E      TYP  RCUT    TYP  RCUT                                        
     2   .000     23  2.500                                                     
     2   .000     23  2.500                                                     
     0   .000     23  2.500                                                     
     0   .000     23  2.500                                                     
     1  -.200     23  2.500                                                     
     1   .000     23  2.500                                                     
     3   .000      7   .000                                                     
  local pseudopotential read in
  partial core-charges read in
  atomic valenz-charges read in
  non local Contribution for L=           2  read in
    real space projection operators read in
  non local Contribution for L=           2  read in
    real space projection operators read in
  non local Contribution for L=           0  read in
    real space projection operators read in
  non local Contribution for L=           0  read in
    real space projection operators read in
  non local Contribution for L=           1  read in
    real space projection operators read in
  non local Contribution for L=           1  read in
    real space projection operators read in
    PAW grid and wavefunctions read in
 
   number of l-projection  operators is LMAX  =           6
   number of lm-projection operators is LMMAX =          18
 
 PAW Au 04Feb1998                       :
 energy of atom  1       EATOM= -929.4667
 kinetic energy error for atom=    0.0704 (will be added to EATOM!!)
 
 
 POSCAR: Au bulk FCC                             
  positions in direct lattice
  No initial velocities read in
 exchange correlation table for  LEXCH =        2
   RHO(1)=    0.500       N(1)  =     2000
   RHO(2)=  100.500       N(2)  =     4000
 


--------------------------------------------------------------------------------------------------------


 ion  position               nearest neighbor table
   1  0.000  0.000  0.000-
 
  LATTYP: Found a face centered cubic cell.
 ALAT       =     4.3000000000
  
  Lattice vectors:
  
 A1 = (   0.0000000000,   2.1500000000,   2.1500000000)
 A2 = (   2.1500000000,   0.0000000000,   2.1500000000)
 A3 = (   2.1500000000,   2.1500000000,   0.0000000000)


Analysis of symmetry for initial positions (statically):
=====================================================================
 Subroutine PRICEL returns:
 Original cell was already a primitive cell.
 

 Routine SETGRP: Setting up the symmetry group for a 
 face centered cubic supercell.


 Subroutine GETGRP returns: Found 48 space group operations
 (whereof 48 operations were pure point group operations)
 out of a pool of 48 trial point group operations.


The static configuration has the point symmetry O_h .


Analysis of symmetry for dynamics (positions and initial velocities):
=====================================================================
 Subroutine PRICEL returns:
 Original cell was already a primitive cell.
 

 Routine SETGRP: Setting up the symmetry group for a 
 face centered cubic supercell.


 Subroutine GETGRP returns: Found 48 space group operations
 (whereof 48 operations were pure point group operations)
 out of a pool of 48 trial point group operations.


The dynamic configuration has the point symmetry O_h .


 Subroutine INISYM returns: Found 48 space group operations
 (whereof 48 operations are pure point group operations),
 and found     1 'primitive' translations

 
 
 KPOINTS: K-pts along …… line FCC             
  interpolating k-points between supplied coordinates
  k-points in cartesian coordinates
Space group operators:
 irot       det(A)        alpha          n_x          n_y          n_z        tau_x        tau_y        tau_z
    1     1.000000     0.000000     1.000000     0.000000     0.000000     0.000000     0.000000     0.000000
    2    -1.000000     0.000000     1.000000     0.000000     0.000000     0.000000     0.000000     0.000000
    3     1.000000   120.000000    -0.577350    -0.577350    -0.577350     0.000000     0.000000     0.000000
    4    -1.000000   120.000000    -0.577350    -0.577350    -0.577350     0.000000     0.000000     0.000000
    5     1.000000   120.000000     0.577350     0.577350     0.577350     0.000000     0.000000     0.000000
    6    -1.000000   120.000000     0.577350     0.577350     0.577350     0.000000     0.000000     0.000000
    7     1.000000    90.000000     0.000000     0.000000    -1.000000     0.000000     0.000000     0.000000
    8    -1.000000    90.000000     0.000000     0.000000    -1.000000     0.000000     0.000000     0.000000
    9     1.000000   180.000000     0.000000     0.707107     0.707107     0.000000     0.000000     0.000000
   10    -1.000000   180.000000     0.000000     0.707107     0.707107     0.000000     0.000000     0.000000
   11     1.000000    90.000000     0.000000     1.000000     0.000000     0.000000     0.000000     0.000000
   12    -1.000000    90.000000     0.000000     1.000000     0.000000     0.000000     0.000000     0.000000
   13     1.000000   180.000000     0.000000     0.000000     1.000000     0.000000     0.000000     0.000000
   14    -1.000000   180.000000     0.000000     0.000000     1.000000     0.000000     0.000000     0.000000
   15     1.000000   120.000000    -0.577350     0.577350     0.577350     0.000000     0.000000     0.000000
   16    -1.000000   120.000000    -0.577350     0.577350     0.577350     0.000000     0.000000     0.000000
   17     1.000000   120.000000    -0.577350     0.577350    -0.577350     0.000000     0.000000     0.000000
   18    -1.000000   120.000000    -0.577350     0.577350    -0.577350     0.000000     0.000000     0.000000
   19     1.000000    90.000000     0.000000     0.000000     1.000000     0.000000     0.000000     0.000000
   20    -1.000000    90.000000     0.000000     0.000000     1.000000     0.000000     0.000000     0.000000
   21     1.000000    90.000000    -1.000000     0.000000     0.000000     0.000000     0.000000     0.000000
   22    -1.000000    90.000000    -1.000000     0.000000     0.000000     0.000000     0.000000     0.000000
   23     1.000000   180.000000     0.707107     0.000000     0.707107     0.000000     0.000000     0.000000
   24    -1.000000   180.000000     0.707107     0.000000     0.707107     0.000000     0.000000     0.000000
   25     1.000000   120.000000     0.577350    -0.577350     0.577350     0.000000     0.000000     0.000000
   26    -1.000000   120.000000     0.577350    -0.577350     0.577350     0.000000     0.000000     0.000000
   27     1.000000   120.000000    -0.577350    -0.577350     0.577350     0.000000     0.000000     0.000000
   28    -1.000000   120.000000    -0.577350    -0.577350     0.577350     0.000000     0.000000     0.000000
   29     1.000000   180.000000     1.000000     0.000000     0.000000     0.000000     0.000000     0.000000
   30    -1.000000   180.000000     1.000000     0.000000     0.000000     0.000000     0.000000     0.000000
   31     1.000000    90.000000     0.000000    -1.000000     0.000000     0.000000     0.000000     0.000000
   32    -1.000000    90.000000     0.000000    -1.000000     0.000000     0.000000     0.000000     0.000000
   33     1.000000   180.000000     0.707107     0.707107     0.000000     0.000000     0.000000     0.000000
   34    -1.000000   180.000000     0.707107     0.707107     0.000000     0.000000     0.000000     0.000000
   35     1.000000    90.000000     1.000000     0.000000     0.000000     0.000000     0.000000     0.000000
   36    -1.000000    90.000000     1.000000     0.000000     0.000000     0.000000     0.000000     0.000000
   37     1.000000   120.000000     0.577350    -0.577350    -0.577350     0.000000     0.000000     0.000000
   38    -1.000000   120.000000     0.577350    -0.577350    -0.577350     0.000000     0.000000     0.000000
   39     1.000000   180.000000     0.000000     1.000000     0.000000     0.000000     0.000000     0.000000
   40    -1.000000   180.000000     0.000000     1.000000     0.000000     0.000000     0.000000     0.000000
   41     1.000000   120.000000     0.577350     0.577350    -0.577350     0.000000     0.000000     0.000000
   42    -1.000000   120.000000     0.577350     0.577350    -0.577350     0.000000     0.000000     0.000000
   43     1.000000   180.000000     0.000000    -0.707107     0.707107     0.000000     0.000000     0.000000
   44    -1.000000   180.000000     0.000000    -0.707107     0.707107     0.000000     0.000000     0.000000
   45     1.000000   180.000000     0.707107    -0.707107     0.000000     0.000000     0.000000     0.000000
   46    -1.000000   180.000000     0.707107    -0.707107     0.000000     0.000000     0.000000     0.000000
   47     1.000000   180.000000     0.707107     0.000000    -0.707107     0.000000     0.000000     0.000000
   48    -1.000000   180.000000     0.707107     0.000000    -0.707107     0.000000     0.000000     0.000000


--------------------------------------------------------------------------------------------------------




 Dimension of arrays:
   k-points           NKPTS =    100   k-points in BZ     NKDIM =    100   number of bands    NBANDS=     12
   number of dos      NEDOS =   3001   number of ions     NIONS =      1
   non local maximal  LDIM  =      6   non local SUM 2l+1 LMDIM =     18
   total plane-waves  NPLWV =   1728
   max r-space proj   IRMAX =      1   max aug-charges    IRDMAX=   5515
   dimension x,y,z NGX =    12 NGY =   12 NGZ =   12
   dimension x,y,z NGXF=    24 NGYF=   24 NGZF=   24
   support grid    NGXF=    24 NGYF=   24 NGZF=   24
   ions per type =               1
   NGX,Y,Z   is equivalent  to a cutoff of   6.56,  6.56,  6.56 a.u.
   NGXF,Y,Z  is equivalent  to a cutoff of  13.12, 13.12, 13.12 a.u.

 SYSTEM =  FCC Au                                  
 POSCAR =  Au bulk FCC                             

 Startparameter for this run:
   NWRITE =      2    write-flag & timer
   PREC   = normal    normal or accurate (medium, high low for compatibility)
   ISTART =      0    job   : 0-new  1-cont  2-samecut
   ICHARG =     11    charge: 1-file 2-atom 10-const
   ISPIN  =      1    spin polarized calculation?
   LNONCOLLINEAR =      F non collinear calculations
   LSORBIT =      F    spin-orbit coupling
   INIWAV =      1    electr: 0-lowe 1-rand  2-diag
   LASPH  =      F    aspherical Exc in radial PAW
   METAGGA=      F    non-selfconsistent MetaGGA calc.

 Electronic Relaxation 1
   ENCUT  =  230.0 eV  16.90 Ry    4.11 a.u.   3.76  3.76  3.76*2*pi/ulx,y,z
   ENINI  =  230.0     initial cutoff
   ENAUG  =  356.7 eV  augmentation charge cutoff
   NELM   =     60;   NELMIN=  2; NELMDL= -5     # of ELM steps 
   EDIFF  = 0.1E-03   stopping-criterion for ELM
   LREAL  =      F    real-space projection
   NLSPLINE    = F    spline interpolate recip. space projectors
   LCOMPAT=      F    compatible to vasp.4.4
   GGA_COMPAT  = T    GGA compatible to vasp.4.4-vasp.4.6
   LMAXPAW     = -100 max onsite density
   LMAXMIX     =    2 max onsite mixed and CHGCAR
   VOSKOWN=      0    Vosko Wilk Nusair interpolation
   ROPT   =    0.00000
 Ionic relaxation
   EDIFFG = 0.1E-02   stopping-criterion for IOM
   NSW    =      0    number of steps for IOM
   NBLOCK =      1;   KBLOCK =      1    inner block; outer block 
   IBRION =     -1    ionic relax: 0-MD 1-quasi-New 2-CG
   NFREE  =      0    steps in history (QN), initial steepest desc. (CG)
   ISIF   =      2    stress and relaxation
   IWAVPR =     10    prediction:  0-non 1-charg 2-wave 3-comb
   ISYM   =      2    0-nonsym 1-usesym 2-fastsym
   LCORR  =      T    Harris-Foulkes like correction to forces

   POTIM  = 0.5000    time-step for ionic-motion
   TEIN   =    0.0    initial temperature
   TEBEG  =    0.0;   TEEND  =   0.0 temperature during run
   SMASS  =  -3.00    Nose mass-parameter (am)
   estimated Nose-frequenzy (Omega)   =  0.10E-29 period in steps =****** mass=  -0.211E-27a.u.
   SCALEE = 1.0000    scale energy and forces
   NPACO  =    256;   APACO  = 16.0  distance and # of slots for P.C.
   PSTRESS=    0.0 pullay stress

  Mass of Ions in am
   POMASS = 196.97
  Ionic Valenz
   ZVAL   =  11.00
  Atomic Wigner-Seitz radii
   RWIGS  =   1.50
  virtual crystal weights 
   VCA    =   1.00
   NELECT =      11.0000    total number of electrons
   NUPDOWN=      -1.0000    fix difference up-down

 DOS related values:
   EMIN   =  10.00;   EMAX   =-10.00  energy-range for DOS
   EFERMI =   0.00
   ISMEAR =     1;   SIGMA  =   0.20  broadening in eV -4-tet -1-fermi 0-gaus

 Electronic relaxation 2 (details)
   IALGO  =     38    algorithm
   LDIAG  =      T    sub-space diagonalisation (order eigenvalues)
   LSUBROT=      F    optimize rotation matrix (better conditioning)
   TURBO    =      0    0=normal 1=particle mesh
   IRESTART =      0    0=no restart 2=restart with 2 vectors
   NREBOOT  =      0    no. of reboots
   NMIN     =      0    reboot dimension
   EREF     =   0.00    reference energy to select bands
   IMIX   =      4    mixing-type and parameters
     AMIX     =   0.40;   BMIX     =  1.00
     AMIX_MAG =   1.60;   BMIX_MAG =  1.00
     AMIN     =   0.10
     WC   =   100.;   INIMIX=   1;  MIXPRE=   1;  MAXMIX= -45

 Intra band minimization:
   WEIMIN = 0.0000     energy-eigenvalue tresh-hold
   EBREAK =  0.21E-05  absolut break condition
   DEPER  =   0.30     relativ break condition  

   TIME   =   0.40     timestep for ELM

  volume/ion in A,a.u.               =      19.88       134.13
  Fermi-wavevector in a.u.,A,eV,Ry     =   1.344076  2.539936 24.579485  1.806541
  Thomas-Fermi vector in A             =   2.472099
 
 Write flags
   LWAVE        =      T    write WAVECAR
   LDOWNSAMPLE  =      F    k-point downsampling of WAVECAR
   LCHARG       =      F    write CHGCAR
   LVTOT        =      F    write LOCPOT, total local potential
   LVHAR        =      F    write LOCPOT, Hartree potential only
   LELF         =      F    write electronic localiz. function (ELF)
   LORBIT       =      0    0 simple, 1 ext, 2 COOP (PROOUT), +10 PAW based schemes


 Dipole corrections
   LMONO  =      F    monopole corrections only (constant potential shift)
   LDIPOL =      F    correct potential (dipole corrections)
   IDIPOL =      0    1-x, 2-y, 3-z, 4-all directions 
   EPSILON=  1.0000000 bulk dielectric constant

 Exchange correlation treatment:
   GGA     =    --    GGA type
   LEXCH   =     2    internal setting for exchange type
   VOSKOWN=      0    Vosko Wilk Nusair interpolation
   LHFCALC =     F    Hartree Fock is set to
   LHFONE  =     F    Hartree Fock one center treatment
   AEXX    =    0.0000 exact exchange contribution

 Linear response parameters
   LEPSILON=     F    determine dielectric tensor
   LRPA    =     F    only Hartree local field effects (RPA)
   LNABLA  =     F    use nabla operator in PAW spheres
   LVEL    =     F    velocity operator in full k-point grid
   LINTERFAST=   F  fast interpolation
   KINTER  =     0    interpolate to denser k-point grid
   CSHIFT  =0.1000    complex shift for real part using Kramers Kronig
   OMEGAMAX=  -1.0    maximum frequency
   DEG_THRESHOLD= 0.2000000E-02 threshold for treating states as degnerate
   RTIME   =   -0.100 relaxation time in fs
  (WPLASMAI=    0.000 imaginary part of plasma frequency in eV, 0.658/RTIME)
   DFIELD  = 0.0000000 0.0000000 0.0000000 field for delta impulse in time
 
 Orbital magnetization related:
   ORBITALMAG=     F  switch on orbital magnetization
   LCHIMAG   =     F  perturbation theory with respect to B field
   DQ        =  0.001000  dq finite difference perturbation B field
   LLRAUG    =     F  two centre corrections for induced B field



--------------------------------------------------------------------------------------------------------


 Static calculation
 charge density and potential remain constant during run
 non-spin polarized calculation
 Variant of blocked Davidson
 Davidson routine will perform the subspace rotation
 perform sub-space diagonalisation
    after iterative eigenvector-optimisation
 no mixing
 using additional bands            6
 reciprocal scheme for non local part
 use partial core corrections
 calculate Harris-corrections to forces 
   (improved forces if not selfconsistent)
 use of overlap-Matrix (Vanderbilt PP)
 Methfessel and Paxton  Order N= 1 SIGMA  =   0.20


--------------------------------------------------------------------------------------------------------


  energy-cutoff  :      230.00
  volume of cell :       19.88
      direct lattice vectors                 reciprocal lattice vectors
     0.000000000  2.150000000  2.150000000    -0.232558140  0.232558140  0.232558140
     2.150000000  0.000000000  2.150000000     0.232558140 -0.232558140  0.232558140
     2.150000000  2.150000000  0.000000000     0.232558140  0.232558140 -0.232558140

  length of vectors
     3.040559159  3.040559159  3.040559159     0.402802513  0.402802513  0.402802513


 
 k-points in units of 2pi/SCALE and weight: K-pts along …… line FCC             
   0.50000000  1.00000000  0.00000000       0.010
   0.50000000  0.97368421  0.02631579       0.010
   0.50000000  0.94736842  0.05263158       0.010
   0.50000000  0.92105263  0.07894737       0.010
   0.50000000  0.89473684  0.10526316       0.010
   0.50000000  0.86842105  0.13157895       0.010
   0.50000000  0.84210526  0.15789474       0.010
   0.50000000  0.81578947  0.18421053       0.010
   0.50000000  0.78947368  0.21052632       0.010
   0.50000000  0.76315789  0.23684211       0.010
   0.50000000  0.73684211  0.26315789       0.010
   0.50000000  0.71052632  0.28947368       0.010
   0.50000000  0.68421053  0.31578947       0.010
   0.50000000  0.65789474  0.34210526       0.010
   0.50000000  0.63157895  0.36842105       0.010
   0.50000000  0.60526316  0.39473684       0.010
   0.50000000  0.57894737  0.42105263       0.010
   0.50000000  0.55263158  0.44736842       0.010
   0.50000000  0.52631579  0.47368421       0.010
   0.50000000  0.50000000  0.50000000       0.010
   0.50000000  0.50000000  0.50000000       0.010
   0.47368421  0.47368421  0.47368421       0.010
   0.44736842  0.44736842  0.44736842       0.010
   0.42105263  0.42105263  0.42105263       0.010
   0.39473684  0.39473684  0.39473684       0.010
   0.36842105  0.36842105  0.36842105       0.010
   0.34210526  0.34210526  0.34210526       0.010
   0.31578947  0.31578947  0.31578947       0.010
   0.28947368  0.28947368  0.28947368       0.010
   0.26315789  0.26315789  0.26315789       0.010
   0.23684211  0.23684211  0.23684211       0.010
   0.21052632  0.21052632  0.21052632       0.010
   0.18421053  0.18421053  0.18421053       0.010
   0.15789474  0.15789474  0.15789474       0.010
   0.13157895  0.13157895  0.13157895       0.010
   0.10526316  0.10526316  0.10526316       0.010
   0.07894737  0.07894737  0.07894737       0.010
   0.05263158  0.05263158  0.05263158       0.010
   0.02631579  0.02631579  0.02631579       0.010
   0.00000000  0.00000000  0.00000000       0.010
   0.00000000  0.00000000  0.00000000       0.010
   0.00000000  0.05263158  0.00000000       0.010
   0.00000000  0.10526316  0.00000000       0.010
   0.00000000  0.15789474  0.00000000       0.010
   0.00000000  0.21052632  0.00000000       0.010
   0.00000000  0.26315789  0.00000000       0.010
   0.00000000  0.31578947  0.00000000       0.010
   0.00000000  0.36842105  0.00000000       0.010
   0.00000000  0.42105263  0.00000000       0.010
   0.00000000  0.47368421  0.00000000       0.010
   0.00000000  0.52631579  0.00000000       0.010
   0.00000000  0.57894737  0.00000000       0.010
   0.00000000  0.63157895  0.00000000       0.010
   0.00000000  0.68421053  0.00000000       0.010
   0.00000000  0.73684211  0.00000000       0.010
   0.00000000  0.78947368  0.00000000       0.010
   0.00000000  0.84210526  0.00000000       0.010
   0.00000000  0.89473684  0.00000000       0.010
   0.00000000  0.94736842  0.00000000       0.010
   0.00000000  1.00000000  0.00000000       0.010
   0.00000000  1.00000000  0.00000000       0.010
   0.02631579  1.00000000 -0.00000000       0.010
   0.05263158  1.00000000  0.00000000       0.010
   0.07894737  1.00000000  0.00000000       0.010
   0.10526316  1.00000000  0.00000000       0.010
   0.13157895  1.00000000  0.00000000       0.010
   0.15789474  1.00000000  0.00000000       0.010
   0.18421053  1.00000000  0.00000000       0.010
   0.21052632  1.00000000  0.00000000       0.010
   0.23684211  1.00000000 -0.00000000       0.010
   0.26315789  1.00000000  0.00000000       0.010
   0.28947368  1.00000000  0.00000000       0.010
   0.31578947  1.00000000  0.00000000       0.010
   0.34210526  1.00000000  0.00000000       0.010
   0.36842105  1.00000000  0.00000000       0.010
   0.39473684  1.00000000 -0.00000000       0.010
   0.42105263  1.00000000  0.00000000       0.010
   0.44736842  1.00000000  0.00000000       0.010
   0.47368421  1.00000000  0.00000000       0.010
   0.50000000  1.00000000  0.00000000       0.010
   0.50000000  1.00000000  0.00000000       0.010
   0.51315789  0.98684211  0.00000000       0.010
   0.52631579  0.97368421  0.00000000       0.010
   0.53947368  0.96052632 -0.00000000       0.010
   0.55263158  0.94736842 -0.00000000       0.010
   0.56578947  0.93421053 -0.00000000       0.010
   0.57894737  0.92105263  0.00000000       0.010
   0.59210526  0.90789474  0.00000000       0.010
   0.60526316  0.89473684  0.00000000       0.010
   0.61842105  0.88157895  0.00000000       0.010
   0.63157895  0.86842105  0.00000000       0.010
   0.64473684  0.85526316 -0.00000000       0.010
   0.65789474  0.84210526 -0.00000000       0.010
   0.67105263  0.82894737 -0.00000000       0.010
   0.68421053  0.81578947 -0.00000000       0.010
   0.69736842  0.80263158 -0.00000000       0.010
   0.71052632  0.78947368 -0.00000000       0.010
   0.72368421  0.77631579  0.00000000       0.010
   0.73684211  0.76315789  0.00000000       0.010
   0.75000000  0.75000000  0.00000000       0.010
 
 k-points in reciprocal lattice and weights: K-pts along …… line FCC             
   0.50000000  0.25000000  0.75000000       0.010
   0.50000000  0.26315789  0.73684211       0.010
   0.50000000  0.27631579  0.72368421       0.010
   0.50000000  0.28947368  0.71052632       0.010
   0.50000000  0.30263158  0.69736842       0.010
   0.50000000  0.31578947  0.68421053       0.010
   0.50000000  0.32894737  0.67105263       0.010
   0.50000000  0.34210526  0.65789474       0.010
   0.50000000  0.35526316  0.64473684       0.010
   0.50000000  0.36842105  0.63157895       0.010
   0.50000000  0.38157895  0.61842105       0.010
   0.50000000  0.39473684  0.60526316       0.010
   0.50000000  0.40789474  0.59210526       0.010
   0.50000000  0.42105263  0.57894737       0.010
   0.50000000  0.43421053  0.56578947       0.010
   0.50000000  0.44736842  0.55263158       0.010
   0.50000000  0.46052632  0.53947368       0.010
   0.50000000  0.47368421  0.52631579       0.010
   0.50000000  0.48684211  0.51315789       0.010
   0.50000000  0.50000000  0.50000000       0.010
   0.50000000  0.50000000  0.50000000       0.010
   0.47368421  0.47368421  0.47368421       0.010
   0.44736842  0.44736842  0.44736842       0.010
   0.42105263  0.42105263  0.42105263       0.010
   0.39473684  0.39473684  0.39473684       0.010
   0.36842105  0.36842105  0.36842105       0.010
   0.34210526  0.34210526  0.34210526       0.010
   0.31578947  0.31578947  0.31578947       0.010
   0.28947368  0.28947368  0.28947368       0.010
   0.26315789  0.26315789  0.26315789       0.010
   0.23684211  0.23684211  0.23684211       0.010
   0.21052632  0.21052632  0.21052632       0.010
   0.18421053  0.18421053  0.18421053       0.010
   0.15789474  0.15789474  0.15789474       0.010
   0.13157895  0.13157895  0.13157895       0.010
   0.10526316  0.10526316  0.10526316       0.010
   0.07894737  0.07894737  0.07894737       0.010
   0.05263158  0.05263158  0.05263158       0.010
   0.02631579  0.02631579  0.02631579       0.010
   0.00000000  0.00000000  0.00000000       0.010
   0.00000000  0.00000000  0.00000000       0.010
   0.02631579  0.00000000  0.02631579       0.010
   0.05263158  0.00000000  0.05263158       0.010
   0.07894737  0.00000000  0.07894737       0.010
   0.10526316  0.00000000  0.10526316       0.010
   0.13157895  0.00000000  0.13157895       0.010
   0.15789474  0.00000000  0.15789474       0.010
   0.18421053  0.00000000  0.18421053       0.010
   0.21052632  0.00000000  0.21052632       0.010
   0.23684211  0.00000000  0.23684211       0.010
   0.26315789  0.00000000  0.26315789       0.010
   0.28947368  0.00000000  0.28947368       0.010
   0.31578947  0.00000000  0.31578947       0.010
   0.34210526  0.00000000  0.34210526       0.010
   0.36842105  0.00000000  0.36842105       0.010
   0.39473684  0.00000000  0.39473684       0.010
   0.42105263  0.00000000  0.42105263       0.010
   0.44736842  0.00000000  0.44736842       0.010
   0.47368421  0.00000000  0.47368421       0.010
   0.50000000  0.00000000  0.50000000       0.010
   0.50000000  0.00000000  0.50000000       0.010
   0.50000000  0.01315789  0.51315789       0.010
   0.50000000  0.02631579  0.52631579       0.010
   0.50000000  0.03947368  0.53947368       0.010
   0.50000000  0.05263158  0.55263158       0.010
   0.50000000  0.06578947  0.56578947       0.010
   0.50000000  0.07894737  0.57894737       0.010
   0.50000000  0.09210526  0.59210526       0.010
   0.50000000  0.10526316  0.60526316       0.010
   0.50000000  0.11842105  0.61842105       0.010
   0.50000000  0.13157895  0.63157895       0.010
   0.50000000  0.14473684  0.64473684       0.010
   0.50000000  0.15789474  0.65789474       0.010
   0.50000000  0.17105263  0.67105263       0.010
   0.50000000  0.18421053  0.68421053       0.010
   0.50000000  0.19736842  0.69736842       0.010
   0.50000000  0.21052632  0.71052632       0.010
   0.50000000  0.22368421  0.72368421       0.010
   0.50000000  0.23684211  0.73684211       0.010
   0.50000000  0.25000000  0.75000000       0.010
   0.50000000  0.25000000  0.75000000       0.010
   0.49342105  0.25657895  0.75000000       0.010
   0.48684211  0.26315789  0.75000000       0.010
   0.48026316  0.26973684  0.75000000       0.010
   0.47368421  0.27631579  0.75000000       0.010
   0.46710526  0.28289474  0.75000000       0.010
   0.46052632  0.28947368  0.75000000       0.010
   0.45394737  0.29605263  0.75000000       0.010
   0.44736842  0.30263158  0.75000000       0.010
   0.44078947  0.30921053  0.75000000       0.010
   0.43421053  0.31578947  0.75000000       0.010
   0.42763158  0.32236842  0.75000000       0.010
   0.42105263  0.32894737  0.75000000       0.010
   0.41447368  0.33552632  0.75000000       0.010
   0.40789474  0.34210526  0.75000000       0.010
   0.40131579  0.34868421  0.75000000       0.010
   0.39473684  0.35526316  0.75000000       0.010
   0.38815789  0.36184211  0.75000000       0.010
   0.38157895  0.36842105  0.75000000       0.010
   0.37500000  0.37500000  0.75000000       0.010
 
 position of ions in fractional coordinates (direct lattice) 
   0.00000000  0.00000000  0.00000000
 
 position of ions in cartesian coordinates  (Angst):
   0.00000000  0.00000000  0.00000000
 


--------------------------------------------------------------------------------------------------------


 k-point  1 :   0.5000 0.2500 0.7500  plane waves:     156
 k-point  2 :   0.5000 0.2632 0.7368  plane waves:     156
 k-point  3 :   0.5000 0.2763 0.7237  plane waves:     156
 k-point  4 :   0.5000 0.2895 0.7105  plane waves:     156
 k-point  5 :   0.5000 0.3026 0.6974  plane waves:     156
 k-point  6 :   0.5000 0.3158 0.6842  plane waves:     156
 k-point  7 :   0.5000 0.3289 0.6711  plane waves:     156
 k-point  8 :   0.5000 0.3421 0.6579  plane waves:     162
 k-point  9 :   0.5000 0.3553 0.6447  plane waves:     160
 k-point 10 :   0.5000 0.3684 0.6316  plane waves:     164
 k-point 11 :   0.5000 0.3816 0.6184  plane waves:     164
 k-point 12 :   0.5000 0.3947 0.6053  plane waves:     160
 k-point 13 :   0.5000 0.4079 0.5921  plane waves:     160
 k-point 14 :   0.5000 0.4211 0.5789  plane waves:     162
 k-point 15 :   0.5000 0.4342 0.5658  plane waves:     162
 k-point 16 :   0.5000 0.4474 0.5526  plane waves:     160
 k-point 17 :   0.5000 0.4605 0.5395  plane waves:     160
 k-point 18 :   0.5000 0.4737 0.5263  plane waves:     158
 k-point 19 :   0.5000 0.4868 0.5132  plane waves:     156
 k-point 20 :   0.5000 0.5000 0.5000  plane waves:     156
 k-point 21 :   0.5000 0.5000 0.5000  plane waves:     156
 k-point 22 :   0.4737 0.4737 0.4737  plane waves:     156
 k-point 23 :   0.4474 0.4474 0.4474  plane waves:     162
 k-point 24 :   0.4211 0.4211 0.4211  plane waves:     162
 k-point 25 :   0.3947 0.3947 0.3947  plane waves:     153
 k-point 26 :   0.3684 0.3684 0.3684  plane waves:     153
 k-point 27 :   0.3421 0.3421 0.3421  plane waves:     153
 k-point 28 :   0.3158 0.3158 0.3158  plane waves:     153
 k-point 29 :   0.2895 0.2895 0.2895  plane waves:     153
 k-point 30 :   0.2632 0.2632 0.2632  plane waves:     153
 k-point 31 :   0.2368 0.2368 0.2368  plane waves:     153
 k-point 32 :   0.2105 0.2105 0.2105  plane waves:     153
 k-point 33 :   0.1842 0.1842 0.1842  plane waves:     159
 k-point 34 :   0.1579 0.1579 0.1579  plane waves:     159
 k-point 35 :   0.1316 0.1316 0.1316  plane waves:     159
 k-point 36 :   0.1053 0.1053 0.1053  plane waves:     165
 k-point 37 :   0.0789 0.0789 0.0789  plane waves:     168
 k-point 38 :   0.0526 0.0526 0.0526  plane waves:     169
 k-point 39 :   0.0263 0.0263 0.0263  plane waves:     169
 k-point 40 :   0.0000 0.0000 0.0000  plane waves:     169
 k-point 41 :   0.0000 0.0000 0.0000  plane waves:     169
 k-point 42 :   0.0263 0.0000 0.0263  plane waves:     169
 k-point 43 :   0.0526 0.0000 0.0526  plane waves:     169
 k-point 44 :   0.0789 0.0000 0.0789  plane waves:     165
 k-point 45 :   0.1053 0.0000 0.1053  plane waves:     161
 k-point 46 :   0.1316 0.0000 0.1316  plane waves:     161
 k-point 47 :   0.1579 0.0000 0.1579  plane waves:     161
 k-point 48 :   0.1842 0.0000 0.1842  plane waves:     161
 k-point 49 :   0.2105 0.0000 0.2105  plane waves:     161
 k-point 50 :   0.2368 0.0000 0.2368  plane waves:     161
 k-point 51 :   0.2632 0.0000 0.2632  plane waves:     153
 k-point 52 :   0.2895 0.0000 0.2895  plane waves:     153
 k-point 53 :   0.3158 0.0000 0.3158  plane waves:     153
 k-point 54 :   0.3421 0.0000 0.3421  plane waves:     154
 k-point 55 :   0.3684 0.0000 0.3684  plane waves:     162
 k-point 56 :   0.3947 0.0000 0.3947  plane waves:     162
 k-point 57 :   0.4211 0.0000 0.4211  plane waves:     162
 k-point 58 :   0.4474 0.0000 0.4474  plane waves:     154
 k-point 59 :   0.4737 0.0000 0.4737  plane waves:     150
 k-point 60 :   0.5000 0.0000 0.5000  plane waves:     150
 k-point 61 :   0.5000 0.0000 0.5000  plane waves:     150
 k-point 62 :   0.5000 0.0132 0.5132  plane waves:     150
 k-point 63 :   0.5000 0.0263 0.5263  plane waves:     150
 k-point 64 :   0.5000 0.0395 0.5395  plane waves:     150
 k-point 65 :   0.5000 0.0526 0.5526  plane waves:     154
 k-point 66 :   0.5000 0.0658 0.5658  plane waves:     154
 k-point 67 :   0.5000 0.0789 0.5789  plane waves:     154
 k-point 68 :   0.5000 0.0921 0.5921  plane waves:     158
 k-point 69 :   0.5000 0.1053 0.6053  plane waves:     164
 k-point 70 :   0.5000 0.1184 0.6184  plane waves:     162
 k-point 71 :   0.5000 0.1316 0.6316  plane waves:     162
 k-point 72 :   0.5000 0.1447 0.6447  plane waves:     162
 k-point 73 :   0.5000 0.1579 0.6579  plane waves:     162
 k-point 74 :   0.5000 0.1711 0.6711  plane waves:     162
 k-point 75 :   0.5000 0.1842 0.6842  plane waves:     158
 k-point 76 :   0.5000 0.1974 0.6974  plane waves:     156
 k-point 77 :   0.5000 0.2105 0.7105  plane waves:     156
 k-point 78 :   0.5000 0.2237 0.7237  plane waves:     156
 k-point 79 :   0.5000 0.2368 0.7368  plane waves:     156
 k-point 80 :   0.5000 0.2500 0.7500  plane waves:     156
 k-point 81 :   0.5000 0.2500 0.7500  plane waves:     156
 k-point 82 :   0.4934 0.2566 0.7500  plane waves:     156
 k-point 83 :   0.4868 0.2632 0.7500  plane waves:     156
 k-point 84 :   0.4803 0.2697 0.7500  plane waves:     156
 k-point 85 :   0.4737 0.2763 0.7500  plane waves:     156
 k-point 86 :   0.4671 0.2829 0.7500  plane waves:     156
 k-point 87 :   0.4605 0.2895 0.7500  plane waves:     156
 k-point 88 :   0.4539 0.2961 0.7500  plane waves:     154
 k-point 89 :   0.4474 0.3026 0.7500  plane waves:     154
 k-point 90 :   0.4408 0.3092 0.7500  plane waves:     160
 k-point 91 :   0.4342 0.3158 0.7500  plane waves:     160
 k-point 92 :   0.4276 0.3224 0.7500  plane waves:     159
 k-point 93 :   0.4211 0.3289 0.7500  plane waves:     159
 k-point 94 :   0.4145 0.3355 0.7500  plane waves:     159
 k-point 95 :   0.4079 0.3421 0.7500  plane waves:     159
 k-point 96 :   0.4013 0.3487 0.7500  plane waves:     159
 k-point 97 :   0.3947 0.3553 0.7500  plane waves:     159
 k-point 98 :   0.3882 0.3618 0.7500  plane waves:     163
 k-point 99 :   0.3816 0.3684 0.7500  plane waves:     163
 k-point ** :   0.3750 0.3750 0.7500  plane waves:     168

 maximum and minimum number of plane-waves per node :       169      150

 maximum number of plane-waves:       169
 maximum index in each direction: 
   IXMAX=    3   IYMAX=    3   IZMAX=    3
   IXMIN=   -4   IYMIN=   -4   IZMIN=   -4


 serial   3D FFT for wavefunctions
 parallel 3D FFT for charge:
    minimum data exchange during FFTs selected (reduces bandwidth)


 total amount of memory used by VASP MPI-rank0    33984. kBytes
=======================================================================

   base      :      30000. kBytes
   nonl-proj :       2479. kBytes
   fftplans  :        238. kBytes
   grid      :        331. kBytes
   one-center:         15. kBytes
   wavefun   :        921. kBytes
 
     INWAV:  cpu time    0.0000: real time    0.0000
 initial charge density was supplied:
 number of electron      11.0000047 magnetization 
 keeping initial charge density in first step


--------------------------------------------------------------------------------------------------------


 Maximum index for augmentation-charges         1261 (set IRDMAX)


--------------------------------------------------------------------------------------------------------


 First call to EWALD:  gamma=   0.654
 Maximum number of real-space cells 3x 3x 3
 Maximum number of reciprocal cells 3x 3x 3

    FEWALD:  cpu time    0.0014: real time    0.0140


--------------------------------------- Iteration      1(   1)  ---------------------------------------


    POTLOK:  cpu time    0.0018: real time    0.0029
    SETDIJ:  cpu time    0.0008: real time    0.0045
     EDDAV:  cpu time    0.2320: real time    0.4624
       DOS:  cpu time    0.0039: real time    0.0039
    --------------------------------------------
      LOOP:  cpu time    0.2386: real time    0.4737

 eigenvalue-minimisations  :  2928
 total energy-change (2. order) : 0.3137029E+02  (-0.3669192E+03)
 number of electron      11.0000047 magnetization 
 augmentation part       11.0000047 magnetization 

 Free energy of the ion-electron system (eV)
  ---------------------------------------------------
  alpha Z        PSCENC =        92.46377501
  Ewald energy   TEWEN  =      -928.90065159
  -Hartree energ DENC   =      -103.66432549
  -exchange      EXHF   =         0.00000000
  -V(xc)+E(xc)   XCENC  =        14.01532632
  PAW double counting   =       754.78164889     -736.97215285
  entropy T*S    EENTRO =        -0.00046314
  eigenvalues    EBANDS =        10.25080546
  atomic energy  EATOM  =       929.39633208
  Solvation  Ediel_sol  =         0.00000000
  ---------------------------------------------------
  free energy    TOTEN  =        31.37029470 eV

  energy without entropy =       31.37075784  energy(sigma->0) =       31.37044908


--------------------------------------------------------------------------------------------------------




--------------------------------------- Iteration      1(   2)  ---------------------------------------


     EDDAV:  cpu time    0.2508: real time    0.5087
       DOS:  cpu time    0.0046: real time    0.0046
    --------------------------------------------
      LOOP:  cpu time    0.2554: real time    0.5133

 eigenvalue-minimisations  :  2836
 total energy-change (2. order) :-0.3841792E+02  (-0.3614324E+02)
 number of electron      11.0000047 magnetization 
 augmentation part       11.0000047 magnetization 

 Free energy of the ion-electron system (eV)
  ---------------------------------------------------
  alpha Z        PSCENC =        92.46377501
  Ewald energy   TEWEN  =      -928.90065159
  -Hartree energ DENC   =      -103.66432549
  -exchange      EXHF   =         0.00000000
  -V(xc)+E(xc)   XCENC  =        14.01532632
  PAW double counting   =       754.78164889     -736.97215285
  entropy T*S    EENTRO =        -0.00141104
  eigenvalues    EBANDS =       -28.16617042
  atomic energy  EATOM  =       929.39633208
  Solvation  Ediel_sol  =         0.00000000
  ---------------------------------------------------
  free energy    TOTEN  =        -7.04762908 eV

  energy without entropy =       -7.04621804  energy(sigma->0) =       -7.04715873


--------------------------------------------------------------------------------------------------------




--------------------------------------- Iteration      1(   3)  ---------------------------------------


     EDDAV:  cpu time    0.2836: real time    0.5758
       DOS:  cpu time    0.0051: real time    0.0051
    --------------------------------------------
      LOOP:  cpu time    0.2887: real time    0.5809

 eigenvalue-minimisations  :  2876
 total energy-change (2. order) :-0.4245627E+00  (-0.4236993E+00)
 number of electron      11.0000047 magnetization 
 augmentation part       11.0000047 magnetization 

 Free energy of the ion-electron system (eV)
  ---------------------------------------------------
  alpha Z        PSCENC =        92.46377501
  Ewald energy   TEWEN  =      -928.90065159
  -Hartree energ DENC   =      -103.66432549
  -exchange      EXHF   =         0.00000000
  -V(xc)+E(xc)   XCENC  =        14.01532632
  PAW double counting   =       754.78164889     -736.97215285
  entropy T*S    EENTRO =        -0.00230409
  eigenvalues    EBANDS =       -28.58984010
  atomic energy  EATOM  =       929.39633208
  Solvation  Ediel_sol  =         0.00000000
  ---------------------------------------------------
  free energy    TOTEN  =        -7.47219181 eV

  energy without entropy =       -7.46988772  energy(sigma->0) =       -7.47142378


--------------------------------------------------------------------------------------------------------




--------------------------------------- Iteration      1(   4)  ---------------------------------------


     EDDAV:  cpu time    0.2803: real time    0.5685
       DOS:  cpu time    0.0050: real time    0.0054
    --------------------------------------------
      LOOP:  cpu time    0.2852: real time    0.5739

 eigenvalue-minimisations  :  2884
 total energy-change (2. order) :-0.1500142E-02  (-0.1500089E-02)
 number of electron      11.0000047 magnetization 
 augmentation part       11.0000047 magnetization 

 Free energy of the ion-electron system (eV)
  ---------------------------------------------------
  alpha Z        PSCENC =        92.46377501
  Ewald energy   TEWEN  =      -928.90065159
  -Hartree energ DENC   =      -103.66432549
  -exchange      EXHF   =         0.00000000
  -V(xc)+E(xc)   XCENC  =        14.01532632
  PAW double counting   =       754.78164889     -736.97215285
  entropy T*S    EENTRO =        -0.00230391
  eigenvalues    EBANDS =       -28.59134042
  atomic energy  EATOM  =       929.39633208
  Solvation  Ediel_sol  =         0.00000000
  ---------------------------------------------------
  free energy    TOTEN  =        -7.47369195 eV

  energy without entropy =       -7.47138805  energy(sigma->0) =       -7.47292398


--------------------------------------------------------------------------------------------------------




--------------------------------------- Iteration      1(   5)  ---------------------------------------


     EDDAV:  cpu time    0.2851: real time    0.5783
       DOS:  cpu time    0.0050: real time    0.0098
    --------------------------------------------
      LOOP:  cpu time    0.2901: real time    0.5881

 eigenvalue-minimisations  :  2876
 total energy-change (2. order) :-0.1512925E-04  (-0.1512853E-04)
 number of electron      11.0000047 magnetization 
 augmentation part       11.0000047 magnetization 

 Free energy of the ion-electron system (eV)
  ---------------------------------------------------
  alpha Z        PSCENC =        92.46377501
  Ewald energy   TEWEN  =      -928.90065159
  -Hartree energ DENC   =      -103.66432549
  -exchange      EXHF   =         0.00000000
  -V(xc)+E(xc)   XCENC  =        14.01532632
  PAW double counting   =       754.78164889     -736.97215285
  entropy T*S    EENTRO =        -0.00230390
  eigenvalues    EBANDS =       -28.59135556
  atomic energy  EATOM  =       929.39633208
  Solvation  Ediel_sol  =         0.00000000
  ---------------------------------------------------
  free energy    TOTEN  =        -7.47370708 eV

  energy without entropy =       -7.47140318  energy(sigma->0) =       -7.47293912


--------------------------------------------------------------------------------------------------------




--------------------------------------- Iteration      1(   6)  ---------------------------------------


     EDDAV:  cpu time    0.2365: real time    0.4768
       DOS:  cpu time    0.0052: real time    0.0100
    --------------------------------------------
      LOOP:  cpu time    0.2417: real time    0.4867

 eigenvalue-minimisations  :  2128
 total energy-change (2. order) :-0.2075232E-06  (-0.2080340E-06)
 number of electron      11.0000047 magnetization 
 augmentation part       11.0000047 magnetization 

 Free energy of the ion-electron system (eV)
  ---------------------------------------------------
  alpha Z        PSCENC =        92.46377501
  Ewald energy   TEWEN  =      -928.90065159
  -Hartree energ DENC   =      -103.66432549
  -exchange      EXHF   =         0.00000000
  -V(xc)+E(xc)   XCENC  =        14.01532632
  PAW double counting   =       754.78164889     -736.97215285
  entropy T*S    EENTRO =        -0.00230390
  eigenvalues    EBANDS =       -28.59135576
  atomic energy  EATOM  =       929.39633208
  Solvation  Ediel_sol  =         0.00000000
  ---------------------------------------------------
  free energy    TOTEN  =        -7.47370729 eV

  energy without entropy =       -7.47140339  energy(sigma->0) =       -7.47293932


--------------------------------------------------------------------------------------------------------




 average (electrostatic) potential at core
  the test charge radii are     1.2098
  (the norm of the test charge is              1.0000)
       1 -52.1942
 
 
 
 E-fermi :   4.6182     XC(G=0): -12.3787     alpha+bet : -8.8234


 k-point     1 :       0.5000    0.2500    0.7500
  band No.  band energies     occupation 
      1      -3.7106      2.00000
      2      -3.3042      2.00000
      3      -3.3042      2.00000
      4      -2.3349      2.00000
      5      -1.5030      2.00000
      6       7.0088     -0.00000
      7       9.0680     -0.00000
      8       9.0680     -0.00000
      9      11.5329      0.00000
     10      25.4556      0.00000
     11      25.4556      0.00000
     12      26.2070      0.00000

 k-point     2 :       0.5000    0.2632    0.7368
  band No.  band energies     occupation 
      1      -3.7086      2.00000
      2      -3.3119      2.00000
      3      -3.2949      2.00000
      4      -2.3344      2.00000
      5      -1.5115      2.00000
      6       6.9139     -0.00000
      7       8.9674     -0.00000
      8       9.2035     -0.00000
      9      11.6430      0.00000
     10      25.1447      0.00000
     11      25.4610      0.00000
     12      26.5286      0.00000

 k-point     3 :       0.5000    0.2763    0.7237
  band No.  band energies     occupation 
      1      -3.7027      2.00000
      2      -3.3346      2.00000
      3      -3.2671      2.00000
      4      -2.3340      2.00000
      5      -1.5361      2.00000
      6       6.6846     -0.00000
      7       8.7070     -0.00000
      8       9.5539     -0.00000
      9      11.9319      0.00000
     10      24.6332      0.00000
     11      25.4767      0.00000
     12      27.0722      0.00000

 k-point     4 :       0.5000    0.2895    0.7105
  band No.  band energies     occupation 
      1      -3.6935      2.00000
      2      -3.3707      2.00000
      3      -3.2218      2.00000
      4      -2.3372      2.00000
      5      -1.5723      2.00000
      6       6.4047     -0.00000
      7       8.3565     -0.00000
      8      10.0336     -0.00000
      9      12.3275      0.00000
     10      24.1054      0.00000
     11      25.5020      0.00000
     12      27.6538      0.00000

 k-point     5 :       0.5000    0.3026    0.6974
  band No.  band energies     occupation 
      1      -3.6768      2.00000
      2      -3.4189      2.00000
      3      -3.1629      2.00000
      4      -2.3479      2.00000
      5      -1.6192      2.00000
      6       6.1221     -0.00000
      7       7.9644     -0.00000
      8      10.5918      0.00000
      9      12.7883      0.00000
     10      23.5810      0.00000
     11      25.5356      0.00000
     12      28.2466      0.00000

 k-point     6 :       0.5000    0.3158    0.6842
  band No.  band energies     occupation 
      1      -3.6572      2.00000
      2      -3.4768      2.00000
      3      -3.0876      2.00000
      4      -2.3730      2.00000
      5      -1.6658      2.00000
      6       5.8571     -0.00000
      7       7.5544     -0.00000
      8      11.2037      0.00000
      9      13.2819      0.00000
     10      23.0740      0.00000
     11      25.5753      0.00000
     12      28.8508      0.00000

 k-point     7 :       0.5000    0.3289    0.6711
  band No.  band energies     occupation 
      1      -3.6326      2.00000
      2      -3.5426      2.00000
      3      -2.9989      2.00000
      4      -2.4170      2.00000
      5      -1.7053      2.00000
      6       5.6187     -0.00000
      7       7.1405     -0.00000
      8      11.8554      0.00000
      9      13.7977      0.00000
     10      22.5864      0.00000
     11      25.6196      0.00000
     12      29.3050      0.00000

 k-point     8 :       0.5000    0.3421    0.6579
  band No.  band energies     occupation 
      1      -3.6194      2.00000
      2      -3.6046      2.00000
      3      -2.9024      2.00000
      4      -2.4848      2.00000
      5      -1.7378      2.00000
      6       5.4081     -0.00000
      7       6.7291     -0.00000
      8      12.5331      0.00000
      9      14.3256      0.00000
     10      22.1201      0.00000
     11      25.6580      0.00000
     12      29.5037      0.00000

 k-point     9 :       0.5000    0.3553    0.6447
  band No.  band energies     occupation 
      1      -3.6966      2.00000
      2      -3.5714      2.00000
      3      -2.7911      2.00000
      4      -2.5634      2.00000
      5      -1.7514      2.00000
      6       5.2282     -0.00014
      7       6.3288     -0.00000
      8      13.2401      0.00000
      9      14.8637      0.00000
     10      21.6812      0.00000
     11      25.7105      0.00000
     12      29.7311      0.00000

 k-point    10 :       0.5000    0.3684    0.6316
  band No.  band energies     occupation 
      1      -3.7781      2.00000
      2      -3.5400      2.00000
      3      -2.6728      2.00000
      4      -2.6629      2.00000
      5      -1.7581      2.00000
      6       5.0741     -0.00585
      7       5.9410     -0.00000
      8      13.9611      0.00000
      9      15.3966      0.00000
     10      21.2673      0.00000
     11      25.7560      0.00000
     12      29.9631      0.00000

 k-point    11 :       0.5000    0.3816    0.6184
  band No.  band energies     occupation 
      1      -3.8612      2.00000
      2      -3.5031      2.00000
      3      -2.7640      2.00000
      4      -2.5465      2.00000
      5      -1.7555      2.00000
      6       4.9462     -0.04245
      7       5.5702     -0.00000
      8      14.6967      0.00000
      9      15.9349      0.00000
     10      20.8896      0.00000
     11      25.7994      0.00000
     12      29.3412      0.00000

 k-point    12 :       0.5000    0.3947    0.6053
  band No.  band energies     occupation 
      1      -3.9448      2.00000
      2      -3.4620      2.00000
      3      -2.8624      2.00000
      4      -2.4110      2.00000
      5      -1.7461      2.00000
      6       4.8408     -0.06645
      7       5.2213     -0.00017
      8      15.4385      0.00000
      9      16.4683      0.00000
     10      20.5482      0.00000
     11      25.8408      0.00000
     12      28.7690      0.00000

 k-point    13 :       0.5000    0.4079    0.5921
  band No.  band energies     occupation 
      1      -4.0268      2.00000
      2      -3.4255      2.00000
      3      -2.9561      2.00000
      4      -2.2795      2.00000
      5      -1.7371      2.00000
      6       4.7547      0.09259
      7       4.8938     -0.06509
      8      16.1790      0.00000
      9      16.9828      0.00000
     10      20.2464      0.00000
     11      25.8746      0.00000
     12      28.2086      0.00000

 k-point    14 :       0.5000    0.4211    0.5789
  band No.  band energies     occupation 
      1      -4.1063      2.00000
      2      -3.3912      2.00000
      3      -3.0405      2.00000
      4      -2.1549      2.00000
      5      -1.7274      2.00000
      6       4.5935      1.20743
      7       4.6850      0.46829
      8      16.9089      0.00000
      9      17.4698      0.00000
     10      19.9911      0.00000
     11      25.8951      0.00000
     12      27.6744      0.00000

 k-point    15 :       0.5000    0.4342    0.5658
  band No.  band energies     occupation 
      1      -4.1784      2.00000
      2      -3.3594      2.00000
      3      -3.1129      2.00000
      4      -2.0326      2.00000
      5      -1.7179      2.00000
      6       4.3263      2.05883
      7       4.6305      0.89649
      8      17.6168      0.00000
      9      17.9129      0.00000
     10      19.7926      0.00000
     11      25.9122      0.00000
     12      27.1756      0.00000

 k-point    16 :       0.5000    0.4474    0.5526
  band No.  band energies     occupation 
      1      -4.2415      2.00000
      2      -3.3311      2.00000
      3      -3.1724      2.00000
      4      -1.9215      2.00000
      5      -1.7034      2.00000
      6       4.0967      2.00141
      7       4.5886      1.24769
      8      18.2831      0.00000
      9      18.2844      0.00000
     10      19.6682      0.00000
     11      25.9166      0.00000
     12      26.7248      0.00000

 k-point    17 :       0.5000    0.4605    0.5395
  band No.  band energies     occupation 
      1      -4.2934      2.00000
      2      -3.3084      2.00000
      3      -3.2188      2.00000
      4      -1.8269      2.00000
      5      -1.6967      2.00000
      6       3.9099      2.00001
      7       4.5577      1.48699
      8      18.5395      0.00000
      9      18.8848      0.00000
     10      19.6408      0.00000
     11      25.9008      0.00000
     12      26.3345      0.00000

 k-point    18 :       0.5000    0.4737    0.5263
  band No.  band energies     occupation 
      1      -4.3320      2.00000
      2      -3.2908      2.00000
      3      -3.2516      2.00000
      4      -1.7510      2.00000
      5      -1.6888      2.00000
      6       3.7717      2.00000
      7       4.5365      1.63129
      8      18.6670      0.00000
      9      19.3783      0.00000
     10      19.7047      0.00000
     11      25.8590      0.00000
     12      26.0311      0.00000

 k-point    19 :       0.5000    0.4868    0.5132
  band No.  band energies     occupation 
      1      -4.3558      2.00000
      2      -3.2805      2.00000
      3      -3.2704      2.00000
      4      -1.6997      2.00000
      5      -1.6852      2.00000
      6       3.6864      2.00000
      7       4.5242      1.70623
      8      18.7085      0.00000
      9      19.7115      0.00000
     10      19.7925      0.00000
     11      25.7987      0.00000
     12      25.8328      0.00000

 k-point    20 :       0.5000    0.5000    0.5000
  band No.  band energies     occupation 
      1      -4.3639      2.00000
      2      -3.2770      2.00000
      3      -3.2770      2.00000
      4      -1.6843      2.00000
      5      -1.6843      2.00000
      6       3.6575      2.00000
      7       4.5202      1.72927
      8      18.7162      0.00000
      9      19.8307      0.00000
     10      19.8307      0.00000
     11      25.7637      0.00000
     12      25.7637      0.00000

 k-point    21 :       0.5000    0.5000    0.5000
  band No.  band energies     occupation 
      1      -4.3639      2.00000
      2      -3.2770      2.00000
      3      -3.2770      2.00000
      4      -1.6843      2.00000
      5      -1.6843      2.00000
      6       3.6575      2.00000
      7       4.5202      1.72927
      8      18.7162      0.00000
      9      19.8307      0.00000
     10      19.8307      0.00000
     11      25.7637      0.00000
     12      25.7638      0.00000

 k-point    22 :       0.4737    0.4737    0.4737
  band No.  band energies     occupation 
      1      -4.3586      2.00000
      2      -3.2739      2.00000
      3      -3.2739      2.00000
      4      -1.6936      2.00000
      5      -1.6936      2.00000
      6       3.1563      2.00000
      7       5.0573     -0.00809
      8      18.7338      0.00000
      9      19.8602      0.00000
     10      19.8602      0.00000
     11      25.7601      0.00000
     12      25.7605      0.00000

 k-point    23 :       0.4474    0.4474    0.4474
  band No.  band energies     occupation 
      1      -4.3430      2.00000
      2      -3.2663      2.00000
      3      -3.2663      2.00000
      4      -1.7309      2.00000
      5      -1.7309      2.00000
      6       2.4139      2.00000
      7       5.9069     -0.00000
      8      18.7864      0.00000
      9      19.9476      0.00000
     10      19.9476      0.00000
     11      25.7406      0.00000
     12      25.7406      0.00000

 k-point    24 :       0.4211    0.4211    0.4211
  band No.  band energies     occupation 
      1      -4.3175      2.00000
      2      -3.2515      2.00000
      3      -3.2515      2.00000
      4      -1.7766      2.00000
      5      -1.7766      2.00000
      6       1.6787      2.00000
      7       6.8206     -0.00000
      8      18.8725      0.00000
      9      20.0894      0.00000
     10      20.0894      0.00000
     11      25.7243      0.00000
     12      25.7244      0.00000

 k-point    25 :       0.3947    0.3947    0.3947
  band No.  band energies     occupation 
      1      -4.2764      2.00000
      2      -3.2310      2.00000
      3      -3.2310      2.00000
      4      -1.8296      2.00000
      5      -1.8296      2.00000
      6       0.9784      2.00000
      7       7.7770     -0.00000
      8      18.9907      0.00000
      9      20.2814      0.00000
     10      20.2814      0.00000
     11      25.7115      0.00000
     12      25.7137      0.00000

 k-point    26 :       0.3684    0.3684    0.3684
  band No.  band energies     occupation 
      1      -4.2351      2.00000
      2      -3.2075      2.00000
      3      -3.2075      2.00000
      4      -1.9037      2.00000
      5      -1.9037      2.00000
      6       0.3124      2.00000
      7       8.7606     -0.00000
      8      19.1353      0.00000
      9      20.5128      0.00000
     10      20.5128      0.00000
     11      25.6957      0.00000
     12      25.7565      0.00000

 k-point    27 :       0.3421    0.3421    0.3421
  band No.  band energies     occupation 
      1      -4.1868      2.00000
      2      -3.1814      2.00000
      3      -3.1814      2.00000
      4      -1.9861      2.00000
      5      -1.9861      2.00000
      6      -0.3120      2.00000
      7       9.7713     -0.00000
      8      19.3009      0.00000
      9      20.7736      0.00000
     10      20.7736      0.00000
     11      25.6622      0.00000
     12      25.6900      0.00000

 k-point    28 :       0.3158    0.3158    0.3158
  band No.  band energies     occupation 
      1      -4.1335      2.00000
      2      -3.1548      2.00000
      3      -3.1548      2.00000
      4      -2.0726      2.00000
      5      -2.0726      2.00000
      6      -0.8923      2.00000
      7      10.8052      0.00000
      8      19.4787      0.00000
      9      21.0496      0.00000
     10      21.0496      0.00000
     11      25.3831      0.00000
     12      25.7044      0.00000

 k-point    29 :       0.2895    0.2895    0.2895
  band No.  band energies     occupation 
      1      -4.0779      2.00000
      2      -3.1303      2.00000
      3      -3.1303      2.00000
      4      -2.1586      2.00000
      5      -2.1586      2.00000
      6      -1.4260      2.00000
      7      11.8581      0.00000
      8      19.6560      0.00000
      9      21.3234      0.00000
     10      21.3234      0.00000
     11      25.1293      0.00000
     12      25.7514      0.00000

 k-point    30 :       0.2632    0.2632    0.2632
  band No.  band energies     occupation 
      1      -4.0237      2.00000
      2      -3.1108      2.00000
      3      -3.1108      2.00000
      4      -2.2391      2.00000
      5      -2.2391      2.00000
      6      -1.9097      2.00000
      7      12.9251      0.00000
      8      19.8163      0.00000
      9      21.5755      0.00000
     10      21.5755      0.00000
     11      24.9310      0.00000
     12      25.8454      0.00000

 k-point    31 :       0.2368    0.2368    0.2368
  band No.  band energies     occupation 
      1      -3.9806      2.00000
      2      -3.0994      2.00000
      3      -3.0994      2.00000
      4      -2.3399      2.00000
      5      -2.3072      2.00000
      6      -2.3072      2.00000
      7      13.9945      0.00000
      8      19.9384      0.00000
      9      21.7892      0.00000
     10      21.7892      0.00000
     11      24.8207      0.00000
     12      26.0005      0.00000

 k-point    32 :       0.2105    0.2105    0.2105
  band No.  band energies     occupation 
      1      -3.9522      2.00000
      2      -3.1003      2.00000
      3      -3.1003      2.00000
      4      -2.7059      2.00000
      5      -2.3626      2.00000
      6      -2.3626      2.00000
      7      15.0693      0.00000
      8      20.0113      0.00000
      9      21.9481      0.00000
     10      21.9481      0.00000
     11      24.8316      0.00000
     12      26.2213      0.00000

 k-point    33 :       0.1842    0.1842    0.1842
  band No.  band energies     occupation 
      1      -3.9579      2.00000
      2      -3.1190      2.00000
      3      -3.1190      2.00000
      4      -2.9941      2.00000
      5      -2.4038      2.00000
      6      -2.4038      2.00000
      7      16.1324      0.00000
      8      20.0283      0.00000
      9      22.0451      0.00000
     10      22.0451      0.00000
     11      24.9736      0.00000
     12      26.4970      0.00000

 k-point    34 :       0.1579    0.1579    0.1579
  band No.  band energies     occupation 
      1      -4.0174      2.00000
      2      -3.1841      2.00000
      3      -3.1449      2.00000
      4      -3.1449      2.00000
      5      -2.4238      2.00000
      6      -2.4238      2.00000
      7      17.1700      0.00000
      8      20.0070      0.00000
      9      22.0979      0.00000
     10      22.0979      0.00000
     11      25.2441      0.00000
     12      26.8240      0.00000

 k-point    35 :       0.1316    0.1316    0.1316
  band No.  band energies     occupation 
      1      -4.1316      2.00000
      2      -3.2776      2.00000
      3      -3.1779      2.00000
      4      -3.1779      2.00000
      5      -2.4299      2.00000
      6      -2.4299      2.00000
      7      18.1428      0.00000
      8      19.9900      0.00000
      9      22.1130      0.00000
     10      22.1130      0.00000
     11      25.6211      0.00000
     12      27.1681      0.00000

 k-point    36 :       0.1053    0.1053    0.1053
  band No.  band energies     occupation 
      1      -4.2691      2.00000
      2      -3.3073      2.00000
      3      -3.2144      2.00000
      4      -3.2144      2.00000
      5      -2.4357      2.00000
      6      -2.4357      2.00000
      7      18.9281      0.00000
      8      20.1036      0.00000
      9      22.1023      0.00000
     10      22.1023      0.00000
     11      26.0661      0.00000
     12      27.4860      0.00000

 k-point    37 :       0.0789    0.0789    0.0789
  band No.  band energies     occupation 
      1      -4.3967      2.00000
      2      -3.3093      2.00000
      3      -3.2465      2.00000
      4      -3.2465      2.00000
      5      -2.4336      2.00000
      6      -2.4336      2.00000
      7      19.2758      0.00000
      8      20.5886      0.00000
      9      22.0823      0.00000
     10      22.0823      0.00000
     11      26.5071      0.00000
     12      27.7626      0.00000

 k-point    38 :       0.0526    0.0526    0.0526
  band No.  band energies     occupation 
      1      -4.4957      2.00000
      2      -3.3039      2.00000
      3      -3.2719      2.00000
      4      -3.2719      2.00000
      5      -2.4275      2.00000
      6      -2.4275      2.00000
      7      19.3266      0.00000
      8      21.2679      0.00000
      9      22.0613      0.00000
     10      22.0613      0.00000
     11      26.7685      0.00000
     12      27.9721      0.00000

 k-point    39 :       0.0263    0.0263    0.0263
  band No.  band energies     occupation 
      1      -4.5576      2.00000
      2      -3.2964      2.00000
      3      -3.2880      2.00000
      4      -3.2880      2.00000
      5      -2.4229      2.00000
      6      -2.4229      2.00000
      7      19.3175      0.00000
      8      21.8218      0.00000
      9      22.0460      0.00000
     10      22.0460      0.00000
     11      26.6548      0.00000
     12      28.0750      0.00000

 k-point    40 :       0.0000    0.0000    0.0000
  band No.  band energies     occupation 
      1      -4.5785      2.00000
      2      -3.2935      2.00000
      3      -3.2935      2.00000
      4      -3.2935      2.00000
      5      -2.4212      2.00000
      6      -2.4212      2.00000
      7      19.3104      0.00000
      8      22.0404      0.00000
      9      22.0404      0.00000
     10      22.0404      0.00000
     11      26.5268      0.00000
     12      28.1374      0.00000

 k-point    41 :       0.0000    0.0000    0.0000
  band No.  band energies     occupation 
      1      -4.5785      2.00000
      2      -3.2935      2.00000
      3      -3.2935      2.00000
      4      -3.2935      2.00000
      5      -2.4212      2.00000
      6      -2.4212      2.00000
      7      19.3104      0.00000
      8      22.0404      0.00000
      9      22.0404      0.00000
     10      22.0404      0.00000
     11      26.5268      0.00000
     12      28.1374      0.00000

 k-point    42 :       0.0263    0.0000    0.0263
  band No.  band energies     occupation 
      1      -4.5506      2.00000
      2      -3.3021      2.00000
      3      -3.2838      2.00000
      4      -3.2838      2.00000
      5      -2.4302      2.00000
      6      -2.4168      2.00000
      7      19.3210      0.00000
      8      21.9105      0.00000
      9      21.9631      0.00000
     10      21.9631      0.00000
     11      26.7201      0.00000
     12      28.0140      0.00000

 k-point    43 :       0.0526    0.0000    0.0526
  band No.  band energies     occupation 
      1      -4.4673      2.00000
      2      -3.3277      2.00000
      3      -3.2547      2.00000
      4      -3.2547      2.00000
      5      -2.4560      2.00000
      6      -2.4035      2.00000
      7      19.3520      0.00000
      8      21.5806      0.00000
      9      21.7321      0.00000
     10      21.7321      0.00000
     11      27.1978      0.00000
     12      27.7707      0.00000

 k-point    44 :       0.0789    0.0000    0.0789
  band No.  band energies     occupation 
      1      -4.3315      2.00000
      2      -3.3692      2.00000
      3      -3.2058      2.00000
      4      -3.2058      2.00000
      5      -2.4872      2.00000
      6      -2.3816      2.00000
      7      19.4020      0.00000
      8      21.1597      0.00000
      9      21.3555      0.00000
     10      21.3555      0.00000
     11      27.2523      0.00000
     12      27.5965      0.00000

 k-point    45 :       0.1053    0.0000    0.1053
  band No.  band energies     occupation 
      1      -4.1493      2.00000
      2      -3.4223      2.00000
      3      -3.1357      2.00000
      4      -3.1357      2.00000
      5      -2.5348      2.00000
      6      -2.3518      2.00000
      7      19.4738      0.00000
      8      20.7200      0.00000
      9      20.8558      0.00000
     10      20.8558      0.00000
     11      26.0728      0.00000
     12      27.5542      0.00000

 k-point    46 :       0.1316    0.0000    0.1316
  band No.  band energies     occupation 
      1      -3.9348      2.00000
      2      -3.4917      2.00000
      3      -3.0525      2.00000
      4      -3.0525      2.00000
      5      -2.5723      2.00000
      6      -2.3145      2.00000
      7      19.5538      0.00000
      8      20.2544      0.00000
      9      20.2544      0.00000
     10      20.3034      0.00000
     11      24.6774      0.00000
     12      27.6457      0.00000

 k-point    47 :       0.1579    0.0000    0.1579
  band No.  band energies     occupation 
      1      -3.7199      2.00000
      2      -3.5713      2.00000
      3      -2.9528      2.00000
      4      -2.9528      2.00000
      5      -2.5654      2.00000
      6      -2.2709      2.00000
      7      19.5893      0.00000
      8      19.5894      0.00000
      9      19.6433      0.00000
     10      19.9285      0.00000
     11      23.2360      0.00000
     12      27.8665      0.00000

 k-point    48 :       0.1842    0.0000    0.1842
  band No.  band energies     occupation 
      1      -3.6587      2.00000
      2      -3.5655      2.00000
      3      -2.8383      2.00000
      4      -2.8383      2.00000
      5      -2.4510      2.00000
      6      -2.2218      2.00000
      7      18.8905      0.00000
      8      18.8905      0.00000
      9      19.5995      0.00000
     10      19.7387      0.00000
     11      21.7934      0.00000
     12      28.2014      0.00000

 k-point    49 :       0.2105    0.0000    0.2105
  band No.  band energies     occupation 
      1      -3.7510      2.00000
      2      -3.5208      2.00000
      3      -2.7107      2.00000
      4      -2.7107      2.00000
      5      -2.1773      2.00000
      6      -2.1685      2.00000
      7      18.1818      0.00000
      8      18.1818      0.00000
      9      19.2933      0.00000
     10      19.8368      0.00000
     11      20.3929      0.00000
     12      28.6366      0.00000

 k-point    50 :       0.2368    0.0000    0.2368
  band No.  band energies     occupation 
      1      -3.8457      2.00000
      2      -3.5649      2.00000
      3      -2.5726      2.00000
      4      -2.5726      2.00000
      5      -2.1123      2.00000
      6      -1.7624      2.00000
      7      17.4824      0.00000
      8      17.4824      0.00000
      9      18.6870      0.00000
     10      19.3660      0.00000
     11      19.9344      0.00000
     12      29.1616      0.00000

 k-point    51 :       0.2632    0.0000    0.2632
  band No.  band energies     occupation 
      1      -3.9381      2.00000
      2      -3.6505      2.00000
      3      -2.4254      2.00000
      4      -2.4254      2.00000
      5      -2.0427      2.00000
      6      -1.2446      2.00000
      7      16.8087      0.00000
      8      16.8087      0.00000
      9      17.4139      0.00000
     10      19.0963      0.00000
     11      20.0385      0.00000
     12      29.7751      0.00000

 k-point    52 :       0.2895    0.0000    0.2895
  band No.  band energies     occupation 
      1      -4.0300      2.00000
      2      -3.7606      2.00000
      3      -2.2772      2.00000
      4      -2.2772      2.00000
      5      -1.9872      2.00000
      6      -0.6522      2.00000
      7      16.0625      0.00000
      8      16.1688      0.00000
      9      16.1688      0.00000
     10      18.9654      0.00000
     11      20.1280      0.00000
     12      30.4568      0.00000

 k-point    53 :       0.3158    0.0000    0.3158
  band No.  band energies     occupation 
      1      -4.1168      2.00000
      2      -3.8755      2.00000
      3      -2.1286      2.00000
      4      -2.1286      2.00000
      5      -1.9334      2.00000
      6       0.0053      2.00000
      7      14.7288      0.00000
      8      15.5760      0.00000
      9      15.5760      0.00000
     10      18.8897      0.00000
     11      20.2107      0.00000
     12      31.2086      0.00000

 k-point    54 :       0.3421    0.0000    0.3421
  band No.  band energies     occupation 
      1      -4.1962      2.00000
      2      -3.9889      2.00000
      3      -1.9840      2.00000
      4      -1.9840      2.00000
      5      -1.8827      2.00000
      6       0.7201      2.00000
      7      13.4261      0.00000
      8      15.0395      0.00000
      9      15.0395      0.00000
     10      18.8468      0.00000
     11      20.2851      0.00000
     12      32.0290      0.00000

 k-point    55 :       0.3684    0.0000    0.3684
  band No.  band energies     occupation 
      1      -4.2671      2.00000
      2      -4.0948      2.00000
      3      -1.8592      2.00000
      4      -1.8591      2.00000
      5      -1.8386      2.00000
      6       1.4868      2.00000
      7      12.1608      0.00000
      8      14.5656      0.00000
      9      14.5656      0.00000
     10      18.8231      0.00000
     11      20.3479      0.00000
     12      32.3899      0.00000

 k-point    56 :       0.3947    0.0000    0.3947
  band No.  band energies     occupation 
      1      -4.3268      2.00000
      2      -4.1844      2.00000
      3      -1.7992      2.00000
      4      -1.7406      2.00000
      5      -1.7406      2.00000
      6       2.3016      2.00000
      7      10.9400      0.00000
      8      14.1673      0.00000
      9      14.1673      0.00000
     10      18.8255      0.00000
     11      20.4023      0.00000
     12      32.1394      0.00000

 k-point    57 :       0.4211    0.0000    0.4211
  band No.  band energies     occupation 
      1      -4.3745      2.00000
      2      -4.2570      2.00000
      3      -1.7670      2.00000
      4      -1.6415      2.00000
      5      -1.6415      2.00000
      6       3.1544      2.00000
      7       9.7716     -0.00000
      8      13.8489      0.00000
      9      13.8489      0.00000
     10      18.8373      0.00000
     11      20.4458      0.00000
     12      31.9462      0.00000

 k-point    58 :       0.4474    0.0000    0.4474
  band No.  band energies     occupation 
      1      -4.4057      2.00000
      2      -4.3103      2.00000
      3      -1.7390      2.00000
      4      -1.5566      2.00000
      5      -1.5566      2.00000
      6       4.0251      2.00023
      7       8.6760     -0.00000
      8      13.6173      0.00000
      9      13.6173      0.00000
     10      18.8518      0.00000
     11      20.5017      0.00000
     12      31.8068      0.00000

 k-point    59 :       0.4737    0.0000    0.4737
  band No.  band energies     occupation 
      1      -4.4273      2.00000
      2      -4.3383      2.00000
      3      -1.7246      2.00000
      4      -1.5074      2.00000
      5      -1.5074      2.00000
      6       4.8440     -0.06770
      7       7.7257     -0.00000
      8      13.4756      0.00000
      9      13.4756      0.00000
     10      18.8798      0.00000
     11      20.5194      0.00000
     12      31.7219      0.00000

 k-point    60 :       0.5000    0.0000    0.5000
  band No.  band energies     occupation 
      1      -4.4345      2.00000
      2      -4.3497      2.00000
      3      -1.7198      2.00000
      4      -1.4920      2.00000
      5      -1.4920      2.00000
      6       5.2820     -0.00003
      7       7.2424     -0.00000
      8      13.4281      0.00000
      9      13.4281      0.00000
     10      18.8833      0.00000
     11      20.5253      0.00000
     12      31.6935      0.00000

 k-point    61 :       0.5000    0.0000    0.5000
  band No.  band energies     occupation 
      1      -4.4345      2.00000
      2      -4.3497      2.00000
      3      -1.7198      2.00000
      4      -1.4920      2.00000
      5      -1.4920      2.00000
      6       5.2820     -0.00003
      7       7.2424     -0.00000
      8      13.4281      0.00000
      9      13.4281      0.00000
     10      18.8833      0.00000
     11      20.5253      0.00000
     12      31.6934      0.00000

 k-point    62 :       0.5000    0.0132    0.5132
  band No.  band energies     occupation 
      1      -4.4312      2.00000
      2      -4.3464      2.00000
      3      -1.7228      2.00000
      4      -1.5008      2.00000
      5      -1.4920      2.00000
      6       5.2968     -0.00002
      7       7.2409     -0.00000
      8      13.4061      0.00000
      9      13.4075      0.00000
     10      18.9244      0.00000
     11      20.5462      0.00000
     12      31.6729      0.00000

 k-point    63 :       0.5000    0.0263    0.5263
  band No.  band energies     occupation 
      1      -4.4212      2.00000
      2      -4.3365      2.00000
      3      -1.7317      2.00000
      4      -1.5269      2.00000
      5      -1.4918      2.00000
      6       5.3408     -0.00000
      7       7.2366     -0.00000
      8      13.3425      0.00000
      9      13.3465      0.00000
     10      19.0454      0.00000
     11      20.6083      0.00000
     12      31.6096      0.00000

 k-point    64 :       0.5000    0.0395    0.5395
  band No.  band energies     occupation 
      1      -4.4045      2.00000
      2      -4.3202      2.00000
      3      -1.7464      2.00000
      4      -1.5695      2.00000
      5      -1.4916      2.00000
      6       5.4133     -0.00000
      7       7.2294     -0.00000
      8      13.2431      0.00000
      9      13.2471      0.00000
     10      19.2402      0.00000
     11      20.7096      0.00000
     12      31.4993      0.00000

 k-point    65 :       0.5000    0.0526    0.5526
  band No.  band energies     occupation 
      1      -4.3832      2.00000
      2      -4.2977      2.00000
      3      -1.7687      2.00000
      4      -1.6365      2.00000
      5      -1.4938      2.00000
      6       5.5124     -0.00000
      7       7.2195     -0.00000
      8      13.1121      0.00000
      9      13.1163      0.00000
     10      19.5002      0.00000
     11      20.8356      0.00000
     12      31.3365      0.00000

 k-point    66 :       0.5000    0.0658    0.5658
  band No.  band energies     occupation 
      1      -4.3535      2.00000
      2      -4.2691      2.00000
      3      -1.7947      2.00000
      4      -1.7090      2.00000
      5      -1.4936      2.00000
      6       5.6374     -0.00000
      7       7.2072     -0.00000
      8      12.9455      0.00000
      9      12.9707      0.00000
     10      19.8165      0.00000
     11      21.0061      0.00000
     12      31.1178      0.00000

 k-point    67 :       0.5000    0.0789    0.5789
  band No.  band energies     occupation 
      1      -4.3174      2.00000
      2      -4.2350      2.00000
      3      -1.8258      2.00000
      4      -1.7936      2.00000
      5      -1.4935      2.00000
      6       5.7862     -0.00000
      7       7.1928     -0.00000
      8      12.7512      0.00000
      9      12.8143      0.00000
     10      20.1807      0.00000
     11      21.2064      0.00000
     12      30.8432      0.00000

 k-point    68 :       0.5000    0.0921    0.5921
  band No.  band energies     occupation 
      1      -4.2755      2.00000
      2      -4.1964      2.00000
      3      -1.8941      2.00000
      4      -1.8694      2.00000
      5      -1.4935      2.00000
      6       5.9558     -0.00000
      7       7.1755     -0.00000
      8      12.5327      0.00000
      9      12.6538      0.00000
     10      20.5833      0.00000
     11      21.4287      0.00000
     12      30.5176      0.00000

 k-point    69 :       0.5000    0.1053    0.6053
  band No.  band energies     occupation 
      1      -4.2283      2.00000
[...]
  band No.  band energies     occupation 
      1      -3.7172      2.00000
      2      -3.4116      2.00000
      3      -3.1904      2.00000
      4      -2.3287      2.00000
      5      -1.5073      2.00000
      6       6.9711     -0.00000
      7       8.7758     -0.00000
      8       9.3610     -0.00000
      9      11.6075      0.00000
     10      24.8980      0.00000
     11      25.8713      0.00000
     12      26.2157      0.00000

 k-point    84 :       0.4803    0.2697    0.7500
  band No.  band energies     occupation 
      1      -3.7272      2.00000
      2      -3.4594      2.00000
      3      -3.1322      2.00000
      4      -2.3215      2.00000
      5      -1.5127      2.00000
      6       6.9340     -0.00000
      7       8.6394     -0.00000
      8       9.4799     -0.00000
      9      11.7088      0.00000
     10      24.5534      0.00000
     11      26.0851      0.00000
     12      26.2018      0.00000

 k-point    85 :       0.4737    0.2763    0.7500
  band No.  band energies     occupation 
      1      -3.7433      2.00000
      2      -3.5008      2.00000
      3      -3.0735      2.00000
      4      -2.3120      2.00000
      5      -1.5203      2.00000
      6       6.8912     -0.00000
      7       8.5098     -0.00000
      8       9.5704     -0.00000
      9      11.8558      0.00000
     10      24.1866      0.00000
     11      26.1749      0.00000
     12      26.3028      0.00000

 k-point    86 :       0.4671    0.2829    0.7500
  band No.  band energies     occupation 
      1      -3.7666      2.00000
      2      -3.5342      2.00000
      3      -3.0145      2.00000
      4      -2.3008      2.00000
      5      -1.5301      2.00000
      6       6.8454     -0.00000
      7       8.3871     -0.00000
      8       9.6322     -0.00000
      9      12.0453      0.00000
     10      23.8061      0.00000
     11      26.1396      0.00000
     12      26.5245      0.00000

 k-point    87 :       0.4605    0.2895    0.7500
  band No.  band energies     occupation 
      1      -3.7968      2.00000
      2      -3.5592      2.00000
      3      -2.9556      2.00000
      4      -2.2880      2.00000
      5      -1.5419      2.00000
      6       6.7987     -0.00000
      7       8.2716     -0.00000
      8       9.6689     -0.00000
      9      12.2709      0.00000
     10      23.4176      0.00000
     11      26.0999      0.00000
     12      26.7502      0.00000

 k-point    88 :       0.4539    0.2961    0.7500
  band No.  band energies     occupation 
      1      -3.8315      2.00000
      2      -3.5770      2.00000
      3      -2.8967      2.00000
      4      -2.2729      2.00000
      5      -1.5506      2.00000
      6       6.7525     -0.00000
      7       8.1636     -0.00000
      8       9.6863     -0.00000
      9      12.5256      0.00000
     10      23.0263      0.00000
     11      26.0600      0.00000
     12      26.9819      0.00000

 k-point    89 :       0.4474    0.3026    0.7500
  band No.  band energies     occupation 
      1      -3.8696      2.00000
      2      -3.5898      2.00000
      3      -2.8387      2.00000
      4      -2.2586      2.00000
      5      -1.5666      2.00000
      6       6.7076     -0.00000
      7       8.0633     -0.00000
      8       9.6897     -0.00000
      9      12.8003      0.00000
     10      22.6342      0.00000
     11      26.0193      0.00000
     12      27.2155      0.00000

 k-point    90 :       0.4408    0.3092    0.7500
  band No.  band energies     occupation 
      1      -3.9086      2.00000
      2      -3.6013      2.00000
      3      -2.7892      2.00000
      4      -2.2493      2.00000
      5      -1.5884      2.00000
      6       6.6646     -0.00000
      7       7.9681     -0.00000
      8       9.6824     -0.00000
      9      13.0864      0.00000
     10      22.2451      0.00000
     11      25.9789      0.00000
     12      27.4342      0.00000

 k-point    91 :       0.4342    0.3158    0.7500
  band No.  band energies     occupation 
      1      -3.9462      2.00000
      2      -3.6084      2.00000
      3      -2.7343      2.00000
      4      -2.2352      2.00000
      5      -1.6078      2.00000
      6       6.6247     -0.00000
      7       7.8837     -0.00000
      8       9.6707     -0.00000
      9      13.3836      0.00000
     10      21.8623      0.00000
     11      25.9422      0.00000
     12      27.6751      0.00000

 k-point    92 :       0.4276    0.3224    0.7500
  band No.  band energies     occupation 
      1      -3.9816      2.00000
      2      -3.6126      2.00000
      3      -2.6813      2.00000
      4      -2.2203      2.00000
      5      -1.6284      2.00000
      6       6.5881     -0.00000
      7       7.8076     -0.00000
      8       9.6577     -0.00000
      9      13.6845      0.00000
     10      21.4894      0.00000
     11      25.9093      0.00000
     12      27.9194      0.00000

 k-point    93 :       0.4211    0.3289    0.7500
  band No.  band energies     occupation 
      1      -4.0142      2.00000
      2      -3.6171      2.00000
      3      -2.6309      2.00000
      4      -2.2074      2.00000
      5      -1.6495      2.00000
      6       6.5549     -0.00000
      7       7.7400     -0.00000
      8       9.6417     -0.00000
      9      13.9825      0.00000
     10      21.1291      0.00000
     11      25.8790      0.00000
     12      28.1666      0.00000

 k-point    94 :       0.4145    0.3355    0.7500
  band No.  band energies     occupation 
      1      -4.0433      2.00000
      2      -3.6207      2.00000
      3      -2.5838      2.00000
      4      -2.1956      2.00000
      5      -1.6709      2.00000
      6       6.5256     -0.00000
      7       7.6811     -0.00000
      8       9.6259     -0.00000
      9      14.2724      0.00000
     10      20.7867      0.00000
     11      25.8523      0.00000
     12      28.4161      0.00000

 k-point    95 :       0.4079    0.3421    0.7500
  band No.  band energies     occupation 
      1      -4.0684      2.00000
      2      -3.6236      2.00000
      3      -2.5409      2.00000
      4      -2.1850      2.00000
      5      -1.6916      2.00000
      6       6.5004     -0.00000
      7       7.6310     -0.00000
      8       9.6114     -0.00000
      9      14.5475      0.00000
     10      20.4682      0.00000
     11      25.8295      0.00000
     12      28.6666      0.00000

 k-point    96 :       0.4013    0.3487    0.7500
  band No.  band energies     occupation 
      1      -4.0893      2.00000
      2      -3.6258      2.00000
      3      -2.5033      2.00000
      4      -2.1760      2.00000
      5      -1.7108      2.00000
      6       6.4795     -0.00000
      7       7.5898     -0.00000
      8       9.5988     -0.00000
      9      14.7992      0.00000
     10      20.1818      0.00000
     11      25.8107      0.00000
     12      28.9157      0.00000

 k-point    97 :       0.3947    0.3553    0.7500
  band No.  band energies     occupation 
      1      -4.1057      2.00000
      2      -3.6275      2.00000
      3      -2.4719      2.00000
      4      -2.1686      2.00000
      5      -1.7275      2.00000
      6       6.4631     -0.00000
      7       7.5577     -0.00000
      8       9.5886     -0.00000
      9      15.0166      0.00000
     10      19.9378      0.00000
     11      25.7961      0.00000
     12      29.1586      0.00000

 k-point    98 :       0.3882    0.3618    0.7500
  band No.  band energies     occupation 
      1      -4.1192      2.00000
      2      -3.6309      2.00000
      3      -2.4530      2.00000
      4      -2.1638      2.00000
      5      -1.7428      2.00000
      6       6.4512     -0.00000
      7       7.5329     -0.00000
      8       9.5779     -0.00000
      9      15.1861      0.00000
     10      19.7435      0.00000
     11      25.7813      0.00000
     12      29.3799      0.00000

 k-point    99 :       0.3816    0.3684    0.7500
  band No.  band energies     occupation 
      1      -4.1263      2.00000
      2      -3.6316      2.00000
      3      -2.4381      2.00000
      4      -2.1602      2.00000
      5      -1.7510      2.00000
      6       6.4442     -0.00000
      7       7.5192     -0.00000
      8       9.5733     -0.00000
      9      15.2958      0.00000
     10      19.6227      0.00000
     11      25.7749      0.00000
     12      29.5605      0.00000

 k-point   100 :       0.3750    0.3750    0.7500
  band No.  band energies     occupation 
      1      -4.1308      2.00000
      2      -3.6323      2.00000
      3      -2.4336      2.00000
      4      -2.1650      2.00000
      5      -1.7612      2.00000
      6       6.4407     -0.00000
      7       7.5142     -0.00000
      8       9.5710     -0.00000
      9      15.3317      0.00000
     10      19.5746      0.00000
     11      25.7687      0.00000
     12      29.6347      0.00000


--------------------------------------------------------------------------------------------------------


 soft charge-density along one line, spin component           1
         0         1         2         3         4         5         6         7         8         9
 total charge-density along one line
 
 pseudopotential strength for first ion, spin component:           1
-12.543   0.000   0.000   0.000   0.000   0.000   0.000   0.000   0.000   0.000   0.302   0.000  -0.000   0.000  -0.000   0.000
  0.000   0.000 -12.543   0.000  -0.000   0.000   0.000   0.000   0.000   0.000  -0.000   0.000   0.302   0.000   0.000   0.000
  0.000   0.000  -0.000   0.000 -12.539   0.000  -0.000   0.000   0.000   0.000  -0.000   0.000   0.000   0.000   0.301   0.000
  0.000   0.000   0.000   0.000  -0.000   0.000 -12.543   0.000  -0.000   0.000  -0.000   0.000  -0.000   0.000   0.000   0.000
  0.000   0.000   0.000   0.000   0.000   0.000  -0.000   0.000 -12.539   0.000  -0.000   0.000  -0.000   0.000  -0.000   0.000
  0.302   0.000  -0.000   0.000  -0.000   0.000  -0.000   0.000  -0.000   0.000   0.229   0.000   0.000   0.000   0.000   0.000
 -0.000   0.000   0.302   0.000   0.000   0.000  -0.000   0.000  -0.000   0.000   0.000   0.000   0.229   0.000  -0.000   0.000
 -0.000   0.000   0.000   0.000   0.301   0.000   0.000   0.000  -0.000   0.000   0.000   0.000  -0.000   0.000   0.229   0.000
 -0.000   0.000  -0.000   0.000   0.000   0.000   0.302   0.000   0.000   0.000   0.000   0.000   0.000   0.000  -0.000   0.000
 -0.000   0.000  -0.000   0.000  -0.000   0.000   0.000   0.000   0.301   0.000   0.000   0.000   0.000   0.000   0.000   0.000
  0.000   0.000   0.000   0.000   0.000   0.000   0.000   0.000   0.000   0.000   0.000   0.000   0.000   0.000   0.000   0.000
 -0.000   0.000  -0.000   0.000  -0.000   0.000  -0.000   0.000  -0.000   0.000   0.000   0.000   0.000   0.000   0.000   0.000
 -0.000   0.000   0.000   0.000   0.000   0.000   0.000   0.000  -0.000   0.000   0.000   0.000  -0.000   0.000   0.000   0.000
  0.000   0.000   0.000   0.000   0.000   0.000  -0.000   0.000   0.000   0.000  -0.000   0.000  -0.000   0.000  -0.000   0.000
  0.000   0.000   0.000   0.000  -0.000   0.000   0.000   0.000  -0.000   0.000  -0.000   0.000  -0.000   0.000  -0.000   0.000
  0.000   0.000  -0.000   0.000  -0.000   0.000  -0.000   0.000   0.000   0.000  -0.000   0.000   0.000   0.000   0.000   0.000
 -0.000   0.000  -0.000   0.000  -0.000   0.000   0.000   0.000  -0.000   0.000   0.000   0.000   0.000   0.000   0.000   0.000
  0.000   0.000  -0.000   0.000   0.000   0.000  -0.000   0.000   0.000   0.000   0.000   0.000   0.000   0.000  -0.000   0.000
 total augmentation occupancy for first ion, spin component:           1
  2.000   0.000   0.000   0.000   0.000   0.000   0.000   0.000   0.000   0.000   0.000   0.000   0.000   0.000   0.000   0.000
  0.000   2.000   0.000   0.000   0.000   0.000   0.000   0.000   0.000   0.000   0.000   0.000   0.000   0.000   0.000   0.000
  0.000   0.000   2.000   0.000   0.000   0.000   0.000   0.000   0.000   0.000   0.000   0.000   0.000   0.000   0.000   0.000
  0.000   0.000   0.000   2.000   0.000   0.000   0.000   0.000   0.000   0.000   0.000   0.000   0.000   0.000   0.000   0.000
  0.000   0.000   0.000   0.000   2.000   0.000   0.000   0.000   0.000   0.000   0.000   0.000   0.000   0.000   0.000   0.000
  0.000   0.000   0.000   0.000   0.000   0.000   0.000   0.000   0.000   0.000   0.000   0.000   0.000   0.000   0.000   0.000
  0.000   0.000   0.000   0.000   0.000   0.000   0.000   0.000   0.000   0.000   0.000   0.000   0.000   0.000   0.000   0.000
  0.000   0.000   0.000   0.000   0.000   0.000   0.000   0.000   0.000   0.000   0.000   0.000   0.000   0.000   0.000   0.000
  0.000   0.000   0.000   0.000   0.000   0.000   0.000   0.000   0.000   0.000   0.000   0.000   0.000   0.000   0.000   0.000
  0.000   0.000   0.000   0.000   0.000   0.000   0.000   0.000   0.000   0.000   0.000   0.000   0.000   0.000   0.000   0.000
  0.000   0.000   0.000   0.000   0.000   0.000   0.000   0.000   0.000   0.000   1.000   0.000   0.000   0.000   0.000   0.000
  0.000   0.000   0.000   0.000   0.000   0.000   0.000   0.000   0.000   0.000   0.000   0.000   0.000   0.000   0.000   0.000
  0.000   0.000   0.000   0.000   0.000   0.000   0.000   0.000   0.000   0.000   0.000   0.000   0.000   0.000   0.000   0.000
  0.000   0.000   0.000   0.000   0.000   0.000   0.000   0.000   0.000   0.000   0.000   0.000   0.000   0.000   0.000   0.000
  0.000   0.000   0.000   0.000   0.000   0.000   0.000   0.000   0.000   0.000   0.000   0.000   0.000   0.000   0.000   0.000
  0.000   0.000   0.000   0.000   0.000   0.000   0.000   0.000   0.000   0.000   0.000   0.000   0.000   0.000   0.000   0.000
  0.000   0.000   0.000   0.000   0.000   0.000   0.000   0.000   0.000   0.000   0.000   0.000   0.000   0.000   0.000   0.000
  0.000   0.000   0.000   0.000   0.000   0.000   0.000   0.000   0.000   0.000   0.000   0.000   0.000   0.000   0.000   0.000


------------------------ aborting loop because EDIFF is reached ----------------------------------------


    CHARGE:  cpu time    0.0042: real time    0.0104
    FORLOC:  cpu time    0.0002: real time    0.0002
    FORNL :  cpu time    0.0084: real time    0.0143
    STRESS:  cpu time    0.0502: real time    0.0934
    FORCOR:  cpu time    0.0010: real time    0.0082
    FORHAR:  cpu time    0.0023: real time    0.0048
    OFIELD:  cpu time    0.0000: real time    0.0000

  FORCE on cell =-STRESS in cart. coord.  units (eV):
  Direction    XX          YY          ZZ          XY          YZ          ZX
  --------------------------------------------------------------------------------------
  Alpha Z    92.46378    92.46378    92.46378
  Ewald    -309.63356  -309.63356  -309.63356     0.00000    -0.00000     0.00000
  Hartree    58.53121    58.53121    58.53121     0.00000     0.00000     0.00000
  E(xc)     -45.62261   -45.62261   -45.62261     0.00004     0.00004     0.00004
  Local      90.31048    90.31048    90.31048     0.00051     0.00051     0.00051
  n-local   -53.02250   -56.79447   -56.51497    -0.23765     0.28018     0.17357
  augment    58.74000    58.74000    58.74000    -0.00004    -0.00004    -0.00004
  Kinetic   156.50888   159.01555   157.48359     1.35644     1.58437     1.49694
  Fock        0.00000     0.00000     0.00000     0.00000     0.00000     0.00000
  -------------------------------------------------------------------------------------
  Total      47.01466    47.01466    47.01466    -0.00000    -0.00000     0.00000
  in kB    3789.64501  3789.64501  3789.64501    -0.00000    -0.00000     0.00000
  external pressure =     3789.65 kB  Pullay stress =        0.00 kB


 VOLUME and BASIS-vectors are now :
 -----------------------------------------------------------------------------
  energy-cutoff  :      230.00
  volume of cell :       19.88
      direct lattice vectors                 reciprocal lattice vectors
     0.000000000  2.150000000  2.150000000    -0.232558140  0.232558140  0.232558140
     2.150000000  0.000000000  2.150000000     0.232558140 -0.232558140  0.232558140
     2.150000000  2.150000000  0.000000000     0.232558140  0.232558140 -0.232558140

  length of vectors
     3.040559159  3.040559159  3.040559159     0.402802513  0.402802513  0.402802513


 FORCES acting on ions
    electron-ion (+dipol)            ewald-force                    non-local-force                 convergence-correction
 -----------------------------------------------------------------------------------------------
   -.588E-15 0.175E-14 0.150E-15   0.229E-15 0.993E-15 0.227E-14   0.000E+00 0.000E+00 0.000E+00   0.114E-14 -.915E-14 -.950E-14
 -----------------------------------------------------------------------------------------------
   -.588E-15 0.175E-14 0.150E-15   0.229E-15 0.993E-15 0.227E-14   0.000E+00 0.000E+00 0.000E+00   0.114E-14 -.915E-14 -.950E-14
 
 
 POSITION                                       TOTAL-FORCE (eV/Angst)
 -----------------------------------------------------------------------------------
      0.00000      0.00000      0.00000         0.000000      0.000000      0.000000
 -----------------------------------------------------------------------------------
    total drift:                                0.000000     -0.000000     -0.000000


--------------------------------------------------------------------------------------------------------



  FREE ENERGIE OF THE ION-ELECTRON SYSTEM (eV)
  ---------------------------------------------------
  free  energy   TOTEN  =        -7.47370729 eV

  energy  without entropy=       -7.47140339  energy(sigma->0) =       -7.47293932
 


--------------------------------------------------------------------------------------------------------


    POTLOK:  cpu time    0.0032: real time    0.0072


--------------------------------------------------------------------------------------------------------


 writing wavefunctions
     LOOP+:  cpu time    1.7149: real time    3.4486
    4ORBIT:  cpu time    0.0000: real time    0.0000

volume of typ            1:    71.6 %
 
total charge     
 
# of ion       s       p       d       tot
------------------------------------------
    1        0.472   0.216   9.338  10.026
 
orbital moment (x)
 
# of ion     s             p             d             tot
-----------------------------------------------------------------
    1     0.000000E+00  0.410903E-08  0.555865E-07  0.596955E-07
 
orbital moment (y)
 
# of ion     s             p             d             tot
-----------------------------------------------------------------
    1     0.000000E+00 -0.124163E-07  0.271709E-07  0.147546E-07
 
orbital moment (z)
 
# of ion     s             p             d             tot
-----------------------------------------------------------------
    1     0.000000E+00 -0.598905E-09  0.716551E-07  0.710562E-07
 

 total amount of memory used by VASP MPI-rank0    33984. kBytes
=======================================================================

   base      :      30000. kBytes
   nonl-proj :       2479. kBytes
   fftplans  :        238. kBytes
   grid      :        331. kBytes
   one-center:         15. kBytes
   wavefun   :        921. kBytes
 
  
  
 General timing and accounting informations for this job:
 ========================================================
  
                  Total CPU time used (sec):        2.174
                            User time (sec):        1.801
                          System time (sec):        0.373
                         Elapsed time (sec):        4.366
  
                   Maximum memory used (kb):       64888.
                   Average memory used (kb):           0.
  
                          Minor page faults:        15742
                          Major page faults:            0
                 Voluntary context switches:          935
