PROCAR new format
# of k-points:  100         # of bands:   12         # of ions:    1

 k-point     1 :    0.50000000 0.25000000 0.75000000     weight = 0.01000000

band     1 # energy   -3.71056187 # occ.  2.00000000
 
ion      s      p      d    tot
    1  0.000  0.017  0.874  0.891
 
band     2 # energy   -3.30422502 # occ.  2.00000000
 
ion      s      p      d    tot
    1  0.000  0.023  0.895  0.917
 
band     3 # energy   -3.30421601 # occ.  2.00000000
 
ion      s      p      d    tot
    1  0.000  0.023  0.895  0.917
 
band     4 # energy   -2.33493598 # occ.  2.00000000
 
ion      s      p      d    tot
    1  0.011  0.000  0.941  0.952
 
band     5 # energy   -1.50300097 # occ.  2.00000000
 
ion      s      p      d    tot
    1  0.000  0.000  0.981  0.981
 
band     6 # energy    7.00884074 # occ. -0.00000000
 
ion      s      p      d    tot
    1  0.737  0.000  0.037  0.775
 
band     7 # energy    9.06795779 # occ. -0.00000000
 
ion      s      p      d    tot
    1  0.000  0.491  0.118  0.609
 
band     8 # energy    9.06796082 # occ. -0.00000000
 
ion      s      p      d    tot
    1  0.000  0.491  0.118  0.609
 
band     9 # energy   11.53292926 # occ.  0.00000000
 
ion      s      p      d    tot
    1  0.000  0.308  0.230  0.539
 
band    10 # energy   25.45562083 # occ.  0.00000000
 
ion      s      p      d    tot
    1  0.000  0.030  0.206  0.237
 
band    11 # energy   25.45562714 # occ.  0.00000000
 
ion      s      p      d    tot
    1  0.000  0.030  0.206  0.237
 
band    12 # energy   26.20696324 # occ.  0.00000000
 
ion      s      p      d    tot
    1  0.000  0.398  0.053  0.451
 

 k-point     2 :    0.50000000 0.26315789 0.73684211     weight = 0.01000000

band     1 # energy   -3.70863596 # occ.  2.00000000
 
ion      s      p      d    tot
    1  0.000  0.017  0.875  0.892
 
band     2 # energy   -3.31192143 # occ.  2.00000000
 
ion      s      p      d    tot
    1  0.001  0.022  0.894  0.917
 
band     3 # energy   -3.29487115 # occ.  2.00000000
 
ion      s      p      d    tot
    1  0.000  0.023  0.894  0.917
 
band     4 # energy   -2.33443166 # occ.  2.00000000
 
ion      s      p      d    tot
    1  0.011  0.000  0.941  0.952
 
band     5 # energy   -1.51154089 # occ.  2.00000000
 
ion      s      p      d    tot
    1  0.000  0.000  0.981  0.981
 
band     6 # energy    6.91393090 # occ. -0.00000000
 
ion      s      p      d    tot
    1  0.709  0.016  0.043  0.769
 
band     7 # energy    8.96738997 # occ. -0.00000000
 
ion      s      p      d    tot
    1  0.000  0.486  0.121  0.607
 
band     8 # energy    9.20345380 # occ. -0.00000000
 
ion      s      p      d    tot
    1  0.028  0.474  0.114  0.616
 
band     9 # energy   11.64301075 # occ.  0.00000000
 
ion      s      p      d    tot
    1  0.000  0.313  0.226  0.540
 
band    10 # energy   25.14473260 # occ.  0.00000000
 
ion      s      p      d    tot
    1  0.000  0.116  0.164  0.280
 
band    11 # energy   25.46096693 # occ.  0.00000000
 
ion      s      p      d    tot
    1  0.000  0.030  0.208  0.239
 
band    12 # energy   26.52857619 # occ.  0.00000000
 
ion      s      p      d    tot
    1  0.000  0.312  0.094  0.407
 

 k-point     3 :    0.50000000 0.27631579 0.72368421     weight = 0.01000000

band     1 # energy   -3.70271660 # occ.  2.00000000
 
ion      s      p      d    tot
    1  0.000  0.016  0.878  0.894
 
band     2 # energy   -3.33456031 # occ.  2.00000000
 
ion      s      p      d    tot
    1  0.003  0.022  0.891  0.916
 
band     3 # energy   -3.26714973 # occ.  2.00000000
 
ion      s      p      d    tot
    1  0.000  0.024  0.892  0.916
 
band     4 # energy   -2.33397020 # occ.  2.00000000
 
ion      s      p      d    tot
    1  0.009  0.001  0.942  0.953
 
band     5 # energy   -1.53614737 # occ.  2.00000000
 
ion      s      p      d    tot
    1  0.000  0.000  0.980  0.980
 
band     6 # energy    6.68461342 # occ. -0.00000000
 
ion      s      p      d    tot
    1  0.661  0.043  0.055  0.759
 
band     7 # energy    8.70695133 # occ. -0.00000000
 
ion      s      p      d    tot
    1  0.000  0.476  0.127  0.603
 
band     8 # energy    9.55388697 # occ. -0.00000000
 
ion      s      p      d    tot
    1  0.074  0.446  0.107  0.627
 
band     9 # energy   11.93193864 # occ.  0.00000000
 
ion      s      p      d    tot
    1  0.000  0.323  0.219  0.541
 
band    10 # energy   24.63323078 # occ.  0.00000000
 
ion      s      p      d    tot
    1  0.000  0.162  0.136  0.298
 
band    11 # energy   25.47667077 # occ.  0.00000000
 
ion      s      p      d    tot
    1  0.002  0.029  0.214  0.244
 
band    12 # energy   27.07222467 # occ.  0.00000000
 
ion      s      p      d    tot
    1  0.000  0.267  0.119  0.386
 

 k-point     4 :    0.50000000 0.28947368 0.71052632     weight = 0.01000000

band     1 # energy   -3.69346708 # occ.  2.00000000
 
ion      s      p      d    tot
    1  0.000  0.015  0.882  0.897
 
band     2 # energy   -3.37074677 # occ.  2.00000000
 
ion      s      p      d    tot
    1  0.006  0.021  0.886  0.914
 
band     3 # energy   -3.22177126 # occ.  2.00000000
 
ion      s      p      d    tot
    1  0.000  0.025  0.890  0.915
 
band     4 # energy   -2.33723819 # occ.  2.00000000
 
ion      s      p      d    tot
    1  0.008  0.002  0.944  0.953
 
band     5 # energy   -1.57225852 # occ.  2.00000000
 
ion      s      p      d    tot
    1  0.000  0.001  0.978  0.979
 
band     6 # energy    6.40471921 # occ. -0.00000000
 
ion      s      p      d    tot
    1  0.626  0.059  0.067  0.752
 
band     7 # energy    8.35652283 # occ. -0.00000000
 
ion      s      p      d    tot
    1  0.000  0.467  0.132  0.599
 
band     8 # energy   10.03362859 # occ. -0.00000000
 
ion      s      p      d    tot
    1  0.107  0.428  0.102  0.636
 
band     9 # energy   12.32754563 # occ.  0.00000000
 
ion      s      p      d    tot
    1  0.000  0.330  0.211  0.541
 
band    10 # energy   24.10542834 # occ.  0.00000000
 
ion      s      p      d    tot
    1  0.000  0.182  0.119  0.301
 
band    11 # energy   25.50204045 # occ.  0.00000000
 
ion      s      p      d    tot
    1  0.004  0.028  0.222  0.254
 
band    12 # energy   27.65377344 # occ.  0.00000000
 
ion      s      p      d    tot
    1  0.000  0.247  0.133  0.380
 

 k-point     5 :    0.50000000 0.30263158 0.69736842     weight = 0.01000000

band     1 # energy   -3.67682027 # occ.  2.00000000
 
ion      s      p      d    tot
    1  0.000  0.013  0.887  0.900
 
band     2 # energy   -3.41888239 # occ.  2.00000000
 
ion      s      p      d    tot
    1  0.011  0.021  0.880  0.911
 
band     3 # energy   -3.16286248 # occ.  2.00000000
 
ion      s      p      d    tot
    1  0.000  0.027  0.888  0.915
 
band     4 # energy   -2.34786705 # occ.  2.00000000
 
ion      s      p      d    tot
    1  0.006  0.003  0.945  0.953
 
band     5 # energy   -1.61921209 # occ.  2.00000000
 
ion      s      p      d    tot
    1  0.001  0.001  0.976  0.978
 
band     6 # energy    6.12210678 # occ. -0.00000000
 
ion      s      p      d    tot
    1  0.606  0.065  0.080  0.751
 
band     7 # energy    7.96442360 # occ. -0.00000000
 
ion      s      p      d    tot
    1  0.000  0.462  0.133  0.595
 
band     8 # energy   10.59175646 # occ.  0.00000000
 
ion      s      p      d    tot
    1  0.123  0.418  0.100  0.642
 
band     9 # energy   12.78832444 # occ.  0.00000000
 
ion      s      p      d    tot
    1  0.000  0.333  0.205  0.538
 
band    10 # energy   23.58103545 # occ.  0.00000000
 
ion      s      p      d    tot
    1  0.000  0.194  0.105  0.298
 
band    11 # energy   25.53555639 # occ.  0.00000000
 
ion      s      p      d    tot
    1  0.007  0.026  0.234  0.267
 
band    12 # energy   28.24658032 # occ.  0.00000000
 
ion      s      p      d    tot
    1  0.000  0.236  0.141  0.377
 

 k-point     6 :    0.50000000 0.31578947 0.68421053     weight = 0.01000000

band     1 # energy   -3.65723775 # occ.  2.00000000
 
ion      s      p      d    tot
    1  0.000  0.011  0.892  0.903
 
band     2 # energy   -3.47679823 # occ.  2.00000000
 
ion      s      p      d    tot
    1  0.016  0.020  0.873  0.908
 
band     3 # energy   -3.08762408 # occ.  2.00000000
 
ion      s      p      d    tot
    1  0.000  0.028  0.887  0.915
 
band     4 # energy   -2.37298433 # occ.  2.00000000
 
ion      s      p      d    tot
    1  0.003  0.004  0.945  0.953
 
band     5 # energy   -1.66581602 # occ.  2.00000000
 
ion      s      p      d    tot
    1  0.001  0.001  0.974  0.976
 
band     6 # energy    5.85709748 # occ. -0.00000000
 
ion      s      p      d    tot
    1  0.595  0.064  0.093  0.752
 
band     7 # energy    7.55437816 # occ. -0.00000000
 
ion      s      p      d    tot
    1  0.000  0.459  0.132  0.592
 
band     8 # energy   11.20370810 # occ.  0.00000000
 
ion      s      p      d    tot
    1  0.129  0.416  0.099  0.644
 
band     9 # energy   13.28189653 # occ.  0.00000000
 
ion      s      p      d    tot
    1  0.000  0.333  0.199  0.533
 
band    10 # energy   23.07400974 # occ.  0.00000000
 
ion      s      p      d    tot
    1  0.000  0.202  0.091  0.294
 
band    11 # energy   25.57534452 # occ.  0.00000000
 
ion      s      p      d    tot
    1  0.010  0.023  0.248  0.282
 
band    12 # energy   28.85078717 # occ.  0.00000000
 
ion      s      p      d    tot
    1  0.002  0.226  0.146  0.375
 

 k-point     7 :    0.50000000 0.32894737 0.67105263     weight = 0.01000000

band     1 # energy   -3.63264363 # occ.  2.00000000
 
ion      s      p      d    tot
    1  0.000  0.010  0.897  0.907
 
band     2 # energy   -3.54264259 # occ.  2.00000000
 
ion      s      p      d    tot
    1  0.022  0.019  0.864  0.905
 
band     3 # energy   -2.99889284 # occ.  2.00000000
 
ion      s      p      d    tot
    1  0.000  0.029  0.886  0.915
 
band     4 # energy   -2.41703398 # occ.  2.00000000
 
ion      s      p      d    tot
    1  0.002  0.005  0.946  0.952
 
band     5 # energy   -1.70529377 # occ.  2.00000000
 
ion      s      p      d    tot
    1  0.001  0.001  0.973  0.975
 
band     6 # energy    5.61866213 # occ. -0.00000000
 
ion      s      p      d    tot
    1  0.589  0.059  0.107  0.755
 
band     7 # energy    7.14052057 # occ. -0.00000000
 
ion      s      p      d    tot
    1  0.000  0.458  0.130  0.588
 
band     8 # energy   11.85537593 # occ.  0.00000000
 
ion      s      p      d    tot
    1  0.129  0.417  0.099  0.645
 
band     9 # energy   13.79765163 # occ.  0.00000000
 
ion      s      p      d    tot
    1  0.000  0.331  0.194  0.525
 
band    10 # energy   22.58639211 # occ.  0.00000000
 
ion      s      p      d    tot
    1  0.000  0.209  0.079  0.288
 
band    11 # energy   25.61962155 # occ.  0.00000000
 
ion      s      p      d    tot
    1  0.014  0.020  0.265  0.300
 
band    12 # energy   29.30497108 # occ.  0.00000000
 
ion      s      p      d    tot
    1  0.151  0.028  0.132  0.311
 

 k-point     8 :    0.50000000 0.34210526 0.65789474     weight = 0.01000000

band     1 # energy   -3.61937966 # occ.  2.00000000
 
ion      s      p      d    tot
    1  0.028  0.018  0.855  0.901
 
band     2 # energy   -3.60464508 # occ.  2.00000000
 
ion      s      p      d    tot
    1  0.000  0.008  0.903  0.911
 
band     3 # energy   -2.90244010 # occ.  2.00000000
 
ion      s      p      d    tot
    1  0.000  0.030  0.886  0.917
 
band     4 # energy   -2.48480852 # occ.  2.00000000
 
ion      s      p      d    tot
    1  0.001  0.006  0.945  0.951
 
band     5 # energy   -1.73775589 # occ.  2.00000000
 
ion      s      p      d    tot
    1  0.002  0.000  0.973  0.975
 
band     6 # energy    5.40810975 # occ. -0.00000035
 
ion      s      p      d    tot
    1  0.586  0.053  0.121  0.760
 
band     7 # energy    6.72909474 # occ. -0.00000000
 
ion      s      p      d    tot
    1  0.000  0.459  0.125  0.584
 
band     8 # energy   12.53310149 # occ.  0.00000000
 
ion      s      p      d    tot
    1  0.124  0.419  0.100  0.643
 
band     9 # energy   14.32558031 # occ.  0.00000000
 
ion      s      p      d    tot
    1  0.000  0.327  0.189  0.516
 
band    10 # energy   22.12012964 # occ.  0.00000000
 
ion      s      p      d    tot
    1  0.000  0.215  0.067  0.282
 
band    11 # energy   25.65796137 # occ.  0.00000000
 
ion      s      p      d    tot
    1  0.019  0.018  0.283  0.319
 
band    12 # energy   29.50368617 # occ.  0.00000000
 
ion      s      p      d    tot
    1  0.154  0.023  0.113  0.290
 

 k-point     9 :    0.50000000 0.35526316 0.64473684     weight = 0.01000000

band     1 # energy   -3.69663933 # occ.  2.00000000
 
ion      s      p      d    tot
    1  0.035  0.017  0.845  0.897
 
band     2 # energy   -3.57142311 # occ.  2.00000000
 
ion      s      p      d    tot
    1  0.000  0.007  0.908  0.915
 
band     3 # energy   -2.79107991 # occ.  2.00000000
 
ion      s      p      d    tot
    1  0.000  0.031  0.888  0.919
 
band     4 # energy   -2.56339278 # occ.  2.00000000
 
ion      s      p      d    tot
    1  0.000  0.006  0.944  0.950
 
band     5 # energy   -1.75142696 # occ.  2.00000000
 
ion      s      p      d    tot
    1  0.002  0.000  0.973  0.974
 
band     6 # energy    5.22821487 # occ. -0.00014079
 
ion      s      p      d    tot
    1  0.584  0.045  0.136  0.766
 
band     7 # energy    6.32880381 # occ. -0.00000000
 
ion      s      p      d    tot
    1  0.000  0.460  0.119  0.579
 
band     8 # energy   13.24007336 # occ.  0.00000000
 
ion      s      p      d    tot
    1  0.117  0.424  0.100  0.641
 
band     9 # energy   14.86367382 # occ.  0.00000000
 
ion      s      p      d    tot
    1  0.000  0.322  0.182  0.504
 
band    10 # energy   21.68120402 # occ.  0.00000000
 
ion      s      p      d    tot
    1  0.000  0.222  0.055  0.277
 
band    11 # energy   25.71045741 # occ.  0.00000000
 
ion      s      p      d    tot
    1  0.023  0.015  0.301  0.339
 
band    12 # energy   29.73112098 # occ.  0.00000000
 
ion      s      p      d    tot
    1  0.153  0.024  0.093  0.269
 

 k-point    10 :    0.50000000 0.36842105 0.63157895     weight = 0.01000000

band     1 # energy   -3.77811921 # occ.  2.00000000
 
ion      s      p      d    tot
    1  0.042  0.015  0.835  0.893
 
band     2 # energy   -3.54003398 # occ.  2.00000000
 
ion      s      p      d    tot
    1  0.000  0.005  0.913  0.919
 
band     3 # energy   -2.67284413 # occ.  2.00000000
 
ion      s      p      d    tot
    1  0.000  0.031  0.891  0.922
 
band     4 # energy   -2.66291368 # occ.  2.00000000
 
ion      s      p      d    tot
    1  0.000  0.005  0.943  0.948
 
band     5 # energy   -1.75807756 # occ.  2.00000000
 
ion      s      p      d    tot
    1  0.001  0.000  0.973  0.975
 
band     6 # energy    5.07414687 # occ. -0.00585149
 
ion      s      p      d    tot
    1  0.583  0.038  0.151  0.772
 
band     7 # energy    5.94099774 # occ. -0.00000000
 
ion      s      p      d    tot
    1  0.000  0.463  0.112  0.574
 
band     8 # energy   13.96111988 # occ.  0.00000000
 
ion      s      p      d    tot
    1  0.108  0.429  0.100  0.637
 
band     9 # energy   15.39659917 # occ.  0.00000000
 
ion      s      p      d    tot
    1  0.000  0.314  0.175  0.489
 
band    10 # energy   21.26727730 # occ.  0.00000000
 
ion      s      p      d    tot
    1  0.000  0.229  0.044  0.273
 
band    11 # energy   25.75599693 # occ.  0.00000000
 
ion      s      p      d    tot
    1  0.028  0.011  0.320  0.359
 
band    12 # energy   29.96309177 # occ.  0.00000000
 
ion      s      p      d    tot
    1  0.152  0.021  0.074  0.247
 

 k-point    11 :    0.50000000 0.38157895 0.61842105     weight = 0.01000000

band     1 # energy   -3.86123751 # occ.  2.00000000
 
ion      s      p      d    tot
    1  0.050  0.014  0.825  0.889
 
band     2 # energy   -3.50310755 # occ.  2.00000000
 
ion      s      p      d    tot
    1  0.000  0.004  0.918  0.922
 
band     3 # energy   -2.76399059 # occ.  2.00000000
 
ion      s      p      d    tot
    1  0.000  0.005  0.942  0.947
 
band     4 # energy   -2.54648277 # occ.  2.00000000
 
ion      s      p      d    tot
    1  0.000  0.030  0.896  0.926
 
band     5 # energy   -1.75550138 # occ.  2.00000000
 
ion      s      p      d    tot
    1  0.001  0.000  0.974  0.975
 
band     6 # energy    4.94620760 # occ. -0.04245208
 
ion      s      p      d    tot
    1  0.582  0.031  0.165  0.778
 
band     7 # energy    5.57020258 # occ. -0.00000000
 
ion      s      p      d    tot
    1  0.000  0.466  0.102  0.568
 
band     8 # energy   14.69672501 # occ.  0.00000000
 
ion      s      p      d    tot
    1  0.097  0.435  0.099  0.631
 
band     9 # energy   15.93492338 # occ.  0.00000000
 
ion      s      p      d    tot
    1  0.000  0.305  0.166  0.470
 
band    10 # energy   20.88957597 # occ.  0.00000000
 
ion      s      p      d    tot
    1  0.000  0.238  0.033  0.271
 
band    11 # energy   25.79939582 # occ.  0.00000000
 
ion      s      p      d    tot
    1  0.031  0.008  0.338  0.378
 
band    12 # energy   29.34123317 # occ.  0.00000000
 
ion      s      p      d    tot
    1  0.000  0.007  0.190  0.198
 

 k-point    12 :    0.50000000 0.39473684 0.60526316     weight = 0.01000000

band     1 # energy   -3.94476786 # occ.  2.00000000
 
ion      s      p      d    tot
    1  0.058  0.012  0.815  0.884
 
band     2 # energy   -3.46195997 # occ.  2.00000000
 
ion      s      p      d    tot
    1  0.000  0.003  0.922  0.926
 
band     3 # energy   -2.86243970 # occ.  2.00000000
 
ion      s      p      d    tot
    1  0.000  0.004  0.942  0.946
 
band     4 # energy   -2.41101407 # occ.  2.00000000
 
ion      s      p      d    tot
    1  0.000  0.028  0.903  0.931
 
band     5 # energy   -1.74613859 # occ.  2.00000000
 
ion      s      p      d    tot
    1  0.001  0.000  0.975  0.975
 
band     6 # energy    4.84077472 # occ. -0.06644657
 
ion      s      p      d    tot
    1  0.581  0.024  0.179  0.784
 
band     7 # energy    5.22130925 # occ. -0.00017120
 
ion      s      p      d    tot
    1  0.000  0.470  0.092  0.562
 
band     8 # energy   15.43846932 # occ.  0.00000000
 
ion      s      p      d    tot
    1  0.087  0.442  0.096  0.624
 
band     9 # energy   16.46830688 # occ.  0.00000000
 
ion      s      p      d    tot
    1  0.000  0.293  0.154  0.447
 
band    10 # energy   20.54816010 # occ.  0.00000000
 
ion      s      p      d    tot
    1  0.000  0.249  0.024  0.273
 
band    11 # energy   25.84080117 # occ.  0.00000000
 
ion      s      p      d    tot
    1  0.035  0.006  0.355  0.395
 
band    12 # energy   28.76899827 # occ.  0.00000000
 
ion      s      p      d    tot
    1  0.000  0.010  0.223  0.233
 

 k-point    13 :    0.50000000 0.40789474 0.59210526     weight = 0.01000000

band     1 # energy   -4.02681706 # occ.  2.00000000
 
ion      s      p      d    tot
    1  0.065  0.010  0.806  0.881
 
band     2 # energy   -3.42553921 # occ.  2.00000000
 
ion      s      p      d    tot
    1  0.000  0.002  0.927  0.929
 
band     3 # energy   -2.95612193 # occ.  2.00000000
 
ion      s      p      d    tot
    1  0.000  0.003  0.942  0.945
 
band     4 # energy   -2.27948152 # occ.  2.00000000
 
ion      s      p      d    tot
    1  0.000  0.025  0.911  0.937
 
band     5 # energy   -1.73709380 # occ.  2.00000000
 
ion      s      p      d    tot
    1  0.000  0.000  0.975  0.976
 
band     6 # energy    4.75474884 # occ.  0.09259412
 
ion      s      p      d    tot
    1  0.580  0.018  0.191  0.790
 
band     7 # energy    4.89379936 # occ. -0.06509200
 
ion      s      p      d    tot
    1  0.000  0.475  0.079  0.554
 
band     8 # energy   16.17904387 # occ.  0.00000000
 
ion      s      p      d    tot
    1  0.075  0.449  0.091  0.616
 
band     9 # energy   16.98280441 # occ.  0.00000000
 
ion      s      p      d    tot
    1  0.000  0.276  0.141  0.416
 
band    10 # energy   20.24640127 # occ.  0.00000000
 
ion      s      p      d    tot
    1  0.000  0.266  0.015  0.281
 
band    11 # energy   25.87463543 # occ.  0.00000000
 
ion      s      p      d    tot
    1  0.036  0.003  0.371  0.411
 
band    12 # energy   28.20855582 # occ.  0.00000000
 
ion      s      p      d    tot
    1  0.000  0.012  0.257  0.269
 

 k-point    14 :    0.50000000 0.42105263 0.57894737     weight = 0.01000000

band     1 # energy   -4.10632954 # occ.  2.00000000
 
ion      s      p      d    tot
    1  0.072  0.008  0.797  0.877
 
band     2 # energy   -3.39117843 # occ.  2.00000000
 
ion      s      p      d    tot
    1  0.000  0.002  0.930  0.932
 
band     3 # energy   -3.04045417 # occ.  2.00000000
 
ion      s      p      d    tot
    1  0.000  0.002  0.942  0.944
 
band     4 # energy   -2.15492174 # occ.  2.00000000
 
ion      s      p      d    tot
    1  0.000  0.022  0.922  0.944
 
band     5 # energy   -1.72735375 # occ.  2.00000000
 
ion      s      p      d    tot
    1  0.000  0.000  0.976  0.976
 
band     6 # energy    4.59348192 # occ.  1.20742833
 
ion      s      p      d    tot
    1  0.000  0.480  0.065  0.546
 
band     7 # energy    4.68497776 # occ.  0.46829267
 
ion      s      p      d    tot
    1  0.579  0.013  0.203  0.795
 
band     8 # energy   16.90894032 # occ.  0.00000000
 
ion      s      p      d    tot
    1  0.063  0.458  0.084  0.606
 
band     9 # energy   17.46979917 # occ.  0.00000000
 
ion      s      p      d    tot
    1  0.000  0.251  0.123  0.374
 
band    10 # energy   19.99110810 # occ.  0.00000000
 
ion      s      p      d    tot
    1  0.000  0.291  0.008  0.299
 
band    11 # energy   25.89507794 # occ.  0.00000000
 
ion      s      p      d    tot
    1  0.037  0.002  0.386  0.425
 
band    12 # energy   27.67439270 # occ.  0.00000000
 
ion      s      p      d    tot
    1  0.000  0.013  0.293  0.306
 

 k-point    15 :    0.50000000 0.43421053 0.56578947     weight = 0.01000000

band     1 # energy   -4.17836238 # occ.  2.00000000
 
ion      s      p      d    tot
    1  0.078  0.006  0.790  0.874
 
band     2 # energy   -3.35943315 # occ.  2.00000000
 
ion      s      p      d    tot
    1  0.000  0.001  0.934  0.935
 
band     3 # energy   -3.11293259 # occ.  2.00000000
 
ion      s      p      d    tot
    1  0.000  0.001  0.942  0.943
 
band     4 # energy   -2.03264841 # occ.  2.00000000
 
ion      s      p      d    tot
    1  0.000  0.017  0.934  0.951
 
band     5 # energy   -1.71788551 # occ.  2.00000000
 
ion      s      p      d    tot
    1  0.000  0.000  0.977  0.977
 
band     6 # energy    4.32630634 # occ.  2.05882988
 
ion      s      p      d    tot
    1  0.000  0.486  0.051  0.537
 
band     7 # energy    4.63045689 # occ.  0.89649494
 
ion      s      p      d    tot
    1  0.578  0.009  0.212  0.799
 
band     8 # energy   17.61680178 # occ.  0.00000000
 
ion      s      p      d    tot
    1  0.051  0.469  0.074  0.594
 
band     9 # energy   17.91292770 # occ.  0.00000000
 
ion      s      p      d    tot
    1  0.000  0.212  0.102  0.314
 
band    10 # energy   19.79258995 # occ.  0.00000000
 
ion      s      p      d    tot
    1  0.000  0.331  0.004  0.335
 
band    11 # energy   25.91216673 # occ.  0.00000000
 
ion      s      p      d    tot
    1  0.035  0.000  0.401  0.436
 
band    12 # energy   27.17559956 # occ.  0.00000000
 
ion      s      p      d    tot
    1  0.000  0.013  0.330  0.343
 

 k-point    16 :    0.50000000 0.44736842 0.55263158     weight = 0.01000000

band     1 # energy   -4.24151894 # occ.  2.00000000
 
ion      s      p      d    tot
    1  0.083  0.004  0.784  0.872
 
band     2 # energy   -3.33108480 # occ.  2.00000000
 
ion      s      p      d    tot
    1  0.000  0.001  0.936  0.937
 
band     3 # energy   -3.17236889 # occ.  2.00000000
 
ion      s      p      d    tot
    1  0.000  0.001  0.942  0.943
 
band     4 # energy   -1.92148513 # occ.  2.00000000
 
ion      s      p      d    tot
    1  0.000  0.013  0.946  0.959
 
band     5 # energy   -1.70339654 # occ.  2.00000000
 
ion      s      p      d    tot
    1  0.000  0.000  0.977  0.977
 
band     6 # energy    4.09668609 # occ.  2.00141314
 
ion      s      p      d    tot
    1  0.000  0.493  0.036  0.528
 
band     7 # energy    4.58857446 # occ.  1.24769489
 
ion      s      p      d    tot
    1  0.577  0.006  0.220  0.803
 
band     8 # energy   18.28308929 # occ.  0.00000000
 
ion      s      p      d    tot
    1  0.000  0.152  0.075  0.227
 
band     9 # energy   18.28439431 # occ.  0.00000000
 
ion      s      p      d    tot
    1  0.038  0.483  0.060  0.582
 
band    10 # energy   19.66816094 # occ.  0.00000000
 
ion      s      p      d    tot
    1  0.000  0.394  0.003  0.397
 
band    11 # energy   25.91663922 # occ.  0.00000000
 
ion      s      p      d    tot
    1  0.030  0.000  0.415  0.445
 
band    12 # energy   26.72482514 # occ.  0.00000000
 
ion      s      p      d    tot
    1  0.000  0.012  0.367  0.379
 

 k-point    17 :    0.50000000 0.46052632 0.53947368     weight = 0.01000000

band     1 # energy   -4.29341329 # occ.  2.00000000
 
ion      s      p      d    tot
    1  0.088  0.002  0.780  0.870
 
band     2 # energy   -3.30843088 # occ.  2.00000000
 
ion      s      p      d    tot
    1  0.000  0.000  0.939  0.939
 
band     3 # energy   -3.21882842 # occ.  2.00000000
 
ion      s      p      d    tot
    1  0.000  0.000  0.942  0.942
 
band     4 # energy   -1.82694153 # occ.  2.00000000
 
ion      s      p      d    tot
    1  0.000  0.008  0.958  0.966
 
band     5 # energy   -1.69665712 # occ.  2.00000000
 
ion      s      p      d    tot
    1  0.000  0.000  0.977  0.977
 
band     6 # energy    3.90993057 # occ.  2.00000660
 
ion      s      p      d    tot
    1  0.000  0.498  0.022  0.520
 
band     7 # energy    4.55769425 # occ.  1.48699415
 
ion      s      p      d    tot
    1  0.576  0.003  0.227  0.806
 
band     8 # energy   18.53951330 # occ.  0.00000000
 
ion      s      p      d    tot
    1  0.000  0.079  0.045  0.123
 
band     9 # energy   18.88482445 # occ.  0.00000000
 
ion      s      p      d    tot
    1  0.025  0.500  0.043  0.569
 
band    10 # energy   19.64076791 # occ.  0.00000000
 
ion      s      p      d    tot
    1  0.000  0.471  0.006  0.477
 
band    11 # energy   25.90077007 # occ.  0.00000000
 
ion      s      p      d    tot
    1  0.021  0.001  0.430  0.451
 
band    12 # energy   26.33453049 # occ.  0.00000000
 
ion      s      p      d    tot
    1  0.000  0.009  0.403  0.412
 

 k-point    18 :    0.50000000 0.47368421 0.52631579     weight = 0.01000000

band     1 # energy   -4.33201606 # occ.  2.00000000
 
ion      s      p      d    tot
    1  0.091  0.001  0.777  0.869
 
band     2 # energy   -3.29081894 # occ.  2.00000000
 
ion      s      p      d    tot
    1  0.000  0.000  0.940  0.940
 
band     3 # energy   -3.25161123 # occ.  2.00000000
 
ion      s      p      d    tot
    1  0.000  0.000  0.942  0.942
 
band     4 # energy   -1.75097333 # occ.  2.00000000
 
ion      s      p      d    tot
    1  0.000  0.004  0.968  0.972
 
band     5 # energy   -1.68882216 # occ.  2.00000000
 
ion      s      p      d    tot
    1  0.000  0.000  0.977  0.977
 
band     6 # energy    3.77167633 # occ.  2.00000004
 
ion      s      p      d    tot
    1  0.000  0.503  0.010  0.514
 
band     7 # energy    4.53654820 # occ.  1.63128575
 
ion      s      p      d    tot
    1  0.575  0.001  0.231  0.808
 
band     8 # energy   18.66704307 # occ.  0.00000000
 
ion      s      p      d    tot
    1  0.000  0.031  0.018  0.049
 
band     9 # energy   19.37830476 # occ.  0.00000000
 
ion      s      p      d    tot
    1  0.013  0.520  0.024  0.556
 
band    10 # energy   19.70474678 # occ.  0.00000000
 
ion      s      p      d    tot
    1  0.000  0.524  0.007  0.531
 
band    11 # energy   25.85897981 # occ.  0.00000000
 
ion      s      p      d    tot
    1  0.009  0.002  0.447  0.457
 
band    12 # energy   26.03111520 # occ.  0.00000000
 
ion      s      p      d    tot
    1  0.000  0.005  0.434  0.439
 

 k-point    19 :    0.50000000 0.48684211 0.51315789     weight = 0.01000000

band     1 # energy   -4.35580973 # occ.  2.00000000
 
ion      s      p      d    tot
    1  0.093  0.000  0.775  0.868
 
band     2 # energy   -3.28051469 # occ.  2.00000000
 
ion      s      p      d    tot
    1  0.000  0.000  0.941  0.941
 
band     3 # energy   -3.27040286 # occ.  2.00000000
 
ion      s      p      d    tot
    1  0.000  0.000  0.942  0.942
 
band     4 # energy   -1.69973197 # occ.  2.00000000
 
ion      s      p      d    tot
    1  0.000  0.001  0.975  0.976
 
band     5 # energy   -1.68523922 # occ.  2.00000000
 
ion      s      p      d    tot
    1  0.000  0.000  0.977  0.977
 
band     6 # energy    3.68642589 # occ.  2.00000000
 
ion      s      p      d    tot
    1  0.000  0.507  0.003  0.509
 
band     7 # energy    4.52422325 # occ.  1.70622706
 
ion      s      p      d    tot
    1  0.575  0.000  0.234  0.809
 
band     8 # energy   18.70848069 # occ.  0.00000000
 
ion      s      p      d    tot
    1  0.000  0.018  0.004  0.022
 
band     9 # energy   19.71152807 # occ.  0.00000000
 
ion      s      p      d    tot
    1  0.004  0.537  0.007  0.547
 
band    10 # energy   19.79247040 # occ.  0.00000000
 
ion      s      p      d    tot
    1  0.000  0.541  0.003  0.544
 
band    11 # energy   25.79873288 # occ.  0.00000000
 
ion      s      p      d    tot
    1  0.001  0.001  0.460  0.462
 
band    12 # energy   25.83275503 # occ.  0.00000000
 
ion      s      p      d    tot
    1  0.000  0.001  0.457  0.458
 

 k-point    20 :    0.50000000 0.50000000 0.50000000     weight = 0.01000000

band     1 # energy   -4.36385270 # occ.  2.00000000
 
ion      s      p      d    tot
    1  0.093  0.000  0.774  0.868
 
band     2 # energy   -3.27704733 # occ.  2.00000000
 
ion      s      p      d    tot
    1  0.000  0.000  0.941  0.941
 