<?xml version="1.0" encoding="ISO-8859-1"?>
<modeling>
 <generator>
  <i name="program" type="string">vasp </i>
  <i name="version" type="string">5.4.4.18Apr17-6-g9f103f2a35  </i>
  <i name="subversion" type="string">(build Jul 01 2019 03:25:34) complex            parallel </i>
  <i name="platform" type="string">LinuxIFC </i>
  <i name="date" type="string">2020 07 08 </i>
  <i name="time" type="string">01:50:36 </i>
 </generator>
 <incar>
  <i type="string" name="SYSTEM"> FCC Au</i>
  <i type="string" name="PREC">normal</i>
  <i type="int" name="ICHARG">    11</i>
  <i name="EDIFF">      0.00010000</i>
  <i name="ENCUT">    230.00000000</i>
  <i type="int" name="NEDOS">  3001</i>
  <v name="RWIGS">      1.50300000</v>
  <i type="logical" name="LCHARG"> F  </i>
  <v type="int" name="KPOINT_BSE">    -1     0     0     0</v>
 </incar>
 <structure name="primitive_cell" >
  <crystal>
   <varray name="basis" >
    <v>       0.00000000       2.15000000       2.15000000 </v>
    <v>       2.15000000       0.00000000       2.15000000 </v>
    <v>       2.15000000       2.15000000       0.00000000 </v>
   </varray>
   <i name="volume">     19.87675000 </i>
   <varray name="rec_basis" >
    <v>      -0.23255814       0.23255814       0.23255814 </v>
    <v>       0.23255814      -0.23255814       0.23255814 </v>
    <v>       0.23255814       0.23255814      -0.23255814 </v>
   </varray>
  </crystal>
  <varray name="positions" >
   <v>       0.00000000       0.00000000       0.00000000 </v>
  </varray>
 </structure>
 <varray name="primitive_index" >
  <v type="int" >        1 </v>
 </varray>
 <kpoints>
  <generation param="listgenerated">
   <i name="divisions" type="int">      20 </i>
   <v>       0.50000000       0.25000000       0.75000000 </v>
   <v>       0.50000000       0.50000000       0.50000000 </v>
   <v>       0.00000000       0.00000000       0.00000000 </v>
   <v>       0.50000000       0.00000000       0.50000000 </v>
   <v>       0.50000000       0.25000000       0.75000000 </v>
   <v>       0.37500000       0.37500000       0.75000000 </v>
  </generation>
  <varray name="kpointlist" >
   <v>       0.50000000       0.25000000       0.75000000 </v>
   <v>       0.50000000       0.26315789       0.73684211 </v>
   <v>       0.50000000       0.27631579       0.72368421 </v>
   <v>       0.50000000       0.28947368       0.71052632 </v>
   <v>       0.50000000       0.30263158       0.69736842 </v>
   <v>       0.50000000       0.31578947       0.68421053 </v>
   <v>       0.50000000       0.32894737       0.67105263 </v>
   <v>       0.50000000       0.34210526       0.65789474 </v>
   <v>       0.50000000       0.35526316       0.64473684 </v>
   <v>       0.50000000       0.36842105       0.63157895 </v>
   <v>       0.50000000       0.38157895       0.61842105 </v>
   <v>       0.50000000       0.39473684       0.60526316 </v>
   <v>       0.50000000       0.40789474       0.59210526 </v>
   <v>       0.50000000       0.42105263       0.57894737 </v>
   <v>       0.50000000       0.43421053       0.56578947 </v>
   <v>       0.50000000       0.44736842       0.55263158 </v>
   <v>       0.50000000       0.46052632       0.53947368 </v>
   <v>       0.50000000       0.47368421       0.52631579 </v>
   <v>       0.50000000       0.48684211       0.51315789 </v>
   <v>       0.50000000       0.50000000       0.50000000 </v>
   <v>       0.50000000       0.50000000       0.50000000 </v>
   <v>       0.47368421       0.47368421       0.47368421 </v>
   <v>       0.44736842       0.44736842       0.44736842 </v>
   <v>       0.42105263       0.42105263       0.42105263 </v>
   <v>       0.39473684       0.39473684       0.39473684 </v>
   <v>       0.36842105       0.36842105       0.36842105 </v>
   <v>       0.34210526       0.34210526       0.34210526 </v>
   <v>       0.31578947       0.31578947       0.31578947 </v>
   <v>       0.28947368       0.28947368       0.28947368 </v>
   <v>       0.26315789       0.26315789       0.26315789 </v>
   <v>       0.23684211       0.23684211       0.23684211 </v>
   <v>       0.21052632       0.21052632       0.21052632 </v>
   <v>       0.18421053       0.18421053       0.18421053 </v>
   <v>       0.15789474       0.15789474       0.15789474 </v>
   <v>       0.13157895       0.13157895       0.13157895 </v>
   <v>       0.10526316       0.10526316       0.10526316 </v>
   <v>       0.07894737       0.07894737       0.07894737 </v>
   <v>       0.05263158       0.05263158       0.05263158 </v>
   <v>       0.02631579       0.02631579       0.02631579 </v>
   <v>       0.00000000       0.00000000       0.00000000 </v>
   <v>       0.00000000       0.00000000       0.00000000 </v>
   <v>       0.02631579       0.00000000       0.02631579 </v>
   <v>       0.05263158       0.00000000       0.05263158 </v>
   <v>       0.07894737       0.00000000       0.07894737 </v>
   <v>       0.10526316       0.00000000       0.10526316 </v>
   <v>       0.13157895       0.00000000       0.13157895 </v>
   <v>       0.15789474       0.00000000       0.15789474 </v>
   <v>       0.18421053       0.00000000       0.18421053 </v>
   <v>       0.21052632       0.00000000       0.21052632 </v>
   <v>       0.23684211       0.00000000       0.23684211 </v>
   <v>       0.26315789       0.00000000       0.26315789 </v>
   <v>       0.28947368       0.00000000       0.28947368 </v>
   <v>       0.31578947       0.00000000       0.31578947 </v>
   <v>       0.34210526       0.00000000       0.34210526 </v>
   <v>       0.36842105       0.00000000       0.36842105 </v>
   <v>       0.39473684       0.00000000       0.39473684 </v>
   <v>       0.42105263       0.00000000       0.42105263 </v>
   <v>       0.44736842       0.00000000       0.44736842 </v>
   <v>       0.47368421       0.00000000       0.47368421 </v>
   <v>       0.50000000       0.00000000       0.50000000 </v>
   <v>       0.50000000       0.00000000       0.50000000 </v>
   <v>       0.50000000       0.01315789       0.51315789 </v>
   <v>       0.50000000       0.02631579       0.52631579 </v>
   <v>       0.50000000       0.03947368       0.53947368 </v>
   <v>       0.50000000       0.05263158       0.55263158 </v>
   <v>       0.50000000       0.06578947       0.56578947 </v>
   <v>       0.50000000       0.07894737       0.57894737 </v>
   <v>       0.50000000       0.09210526       0.59210526 </v>
   <v>       0.50000000       0.10526316       0.60526316 </v>
   <v>       0.50000000       0.11842105       0.61842105 </v>
   <v>       0.50000000       0.13157895       0.63157895 </v>
   <v>       0.50000000       0.14473684       0.64473684 </v>
   <v>       0.50000000       0.15789474       0.65789474 </v>
   <v>       0.50000000       0.17105263       0.67105263 </v>
   <v>       0.50000000       0.18421053       0.68421053 </v>
   <v>       0.50000000       0.19736842       0.69736842 </v>
   <v>       0.50000000       0.21052632       0.71052632 </v>
   <v>       0.50000000       0.22368421       0.72368421 </v>
   <v>       0.50000000       0.23684211       0.73684211 </v>
   <v>       0.50000000       0.25000000       0.75000000 </v>
   <v>       0.50000000       0.25000000       0.75000000 </v>
   <v>       0.49342105       0.25657895       0.75000000 </v>
   <v>       0.48684211       0.26315789       0.75000000 </v>
   <v>       0.48026316       0.26973684       0.75000000 </v>
   <v>       0.47368421       0.27631579       0.75000000 </v>
   <v>       0.46710526       0.28289474       0.75000000 </v>
   <v>       0.46052632       0.28947368       0.75000000 </v>
   <v>       0.45394737       0.29605263       0.75000000 </v>
   <v>       0.44736842       0.30263158       0.75000000 </v>
   <v>       0.44078947       0.30921053       0.75000000 </v>
   <v>       0.43421053       0.31578947       0.75000000 </v>
   <v>       0.42763158       0.32236842       0.75000000 </v>
   <v>       0.42105263       0.32894737       0.75000000 </v>
   <v>       0.41447368       0.33552632       0.75000000 </v>
   <v>       0.40789474       0.34210526       0.75000000 </v>
   <v>       0.40131579       0.34868421       0.75000000 </v>
   <v>       0.39473684       0.35526316       0.75000000 </v>
   <v>       0.38815789       0.36184211       0.75000000 </v>
   <v>       0.38157895       0.36842105       0.75000000 </v>
   <v>       0.37500000       0.37500000       0.75000000 </v>
  </varray>
  <varray name="weights" >
   <v>       0.01000000 </v>
   <v>       0.01000000 </v>
   <v>       0.01000000 </v>
   <v>       0.01000000 </v>
   <v>       0.01000000 </v>
   <v>       0.01000000 </v>
   <v>       0.01000000 </v>
   <v>       0.01000000 </v>
   <v>       0.01000000 </v>
   <v>       0.01000000 </v>
   <v>       0.01000000 </v>
   <v>       0.01000000 </v>
   <v>       0.01000000 </v>
   <v>       0.01000000 </v>
   <v>       0.01000000 </v>
   <v>       0.01000000 </v>
   <v>       0.01000000 </v>
   <v>       0.01000000 </v>
   <v>       0.01000000 </v>
   <v>       0.01000000 </v>
   <v>       0.01000000 </v>
   <v>       0.01000000 </v>
   <v>       0.01000000 </v>
   <v>       0.01000000 </v>
   <v>       0.01000000 </v>
   <v>       0.01000000 </v>
   <v>       0.01000000 </v>
   <v>       0.01000000 </v>
   <v>       0.01000000 </v>
   <v>       0.01000000 </v>
   <v>       0.01000000 </v>
   <v>       0.01000000 </v>
   <v>       0.01000000 </v>
   <v>       0.01000000 </v>
   <v>       0.01000000 </v>
   <v>       0.01000000 </v>
   <v>       0.01000000 </v>
   <v>       0.01000000 </v>
   <v>       0.01000000 </v>
   <v>       0.01000000 </v>
   <v>       0.01000000 </v>
   <v>       0.01000000 </v>
   <v>       0.01000000 </v>
   <v>       0.01000000 </v>
   <v>       0.01000000 </v>
   <v>       0.01000000 </v>
   <v>       0.01000000 </v>
   <v>       0.01000000 </v>
   <v>       0.01000000 </v>
   <v>       0.01000000 </v>
   <v>       0.01000000 </v>
   <v>       0.01000000 </v>
   <v>       0.01000000 </v>
   <v>       0.01000000 </v>
   <v>       0.01000000 </v>
   <v>       0.01000000 </v>
   <v>       0.01000000 </v>
   <v>       0.01000000 </v>
   <v>       0.01000000 </v>
   <v>       0.01000000 </v>
   <v>       0.01000000 </v>
   <v>       0.01000000 </v>
   <v>       0.01000000 </v>
   <v>       0.01000000 </v>
   <v>       0.01000000 </v>
   <v>       0.01000000 </v>
   <v>       0.01000000 </v>
   <v>       0.01000000 </v>
   <v>       0.01000000 </v>
   <v>       0.01000000 </v>
   <v>       0.01000000 </v>
   <v>       0.01000000 </v>
   <v>       0.01000000 </v>
   <v>       0.01000000 </v>
   <v>       0.01000000 </v>
   <v>       0.01000000 </v>
   <v>       0.01000000 </v>
   <v>       0.01000000 </v>
   <v>       0.01000000 </v>
   <v>       0.01000000 </v>
   <v>       0.01000000 </v>
   <v>       0.01000000 </v>
   <v>       0.01000000 </v>
   <v>       0.01000000 </v>
   <v>       0.01000000 </v>
   <v>       0.01000000 </v>
   <v>       0.01000000 </v>
   <v>       0.01000000 </v>
   <v>       0.01000000 </v>
   <v>       0.01000000 </v>
   <v>       0.01000000 </v>
   <v>       0.01000000 </v>
   <v>       0.01000000 </v>
   <v>       0.01000000 </v>
   <v>       0.01000000 </v>
   <v>       0.01000000 </v>
   <v>       0.01000000 </v>
   <v>       0.01000000 </v>
   <v>       0.01000000 </v>
   <v>       0.01000000 </v>
  </varray>
 </kpoints>
 <parameters>
  <separator name="general" >
   <i type="string" name="SYSTEM">FCC Au</i>
   <i type="logical" name="LCOMPAT"> F  </i>
  </separator>
  <separator name="electronic" >
   <i type="string" name="PREC">normal</i>
   <i name="ENMAX">    230.00000000</i>
   <i name="ENAUG">    356.67000000</i>
   <i name="EDIFF">      0.00010000</i>
   <i type="int" name="IALGO">    38</i>
   <i type="int" name="IWAVPR">    10</i>
   <i type="int" name="NBANDS">    12</i>
   <i name="NELECT">     11.00000000</i>
   <i type="int" name="TURBO">     0</i>
   <i type="int" name="IRESTART">     0</i>
   <i type="int" name="NREBOOT">     0</i>
   <i type="int" name="NMIN">     0</i>
   <i name="EREF">      0.00000000</i>
   <separator name="electronic smearing" >
    <i type="int" name="ISMEAR">     1</i>
    <i name="SIGMA">      0.20000000</i>
    <i name="KSPACING">      0.50000000</i>
    <i type="logical" name="KGAMMA"> T  </i>
   </separator>
   <separator name="electronic projectors" >
    <i type="logical" name="LREAL"> F  </i>
    <v name="ROPT">      0.00000000</v>
    <i type="int" name="LMAXPAW">  -100</i>
    <i type="int" name="LMAXMIX">     2</i>
    <i type="logical" name="NLSPLINE"> F  </i>
   </separator>
   <separator name="electronic startup" >
    <i type="int" name="ISTART">     0</i>
    <i type="int" name="ICHARG">    11</i>
    <i type="int" name="INIWAV">     1</i>
   </separator>
   <separator name="electronic spin" >
    <i type="int" name="ISPIN">     1</i>
    <i type="logical" name="LNONCOLLINEAR"> F  </i>
    <v name="MAGMOM">      1.00000000</v>
    <i name="NUPDOWN">     -1.00000000</i>
    <i type="logical" name="LSORBIT"> F  </i>
    <v name="SAXIS">      0.00000000      0.00000000      1.00000000</v>
    <i type="logical" name="LSPIRAL"> F  </i>
    <v name="QSPIRAL">      0.00000000      0.00000000      0.00000000</v>
    <i type="logical" name="LZEROZ"> F  </i>
   </separator>
   <separator name="electronic exchange-correlation" >
    <i type="logical" name="LASPH"> F  </i>
    <i type="logical" name="LMETAGGA"> F  </i>
   </separator>
   <separator name="electronic convergence" >
    <i type="int" name="NELM">    60</i>
    <i type="int" name="NELMDL">    -5</i>
    <i type="int" name="NELMIN">     2</i>
    <i name="ENINI">    230.00000000</i>
    <separator name="electronic convergence detail" >
     <i type="logical" name="LDIAG"> T  </i>
     <i type="logical" name="LSUBROT"> F  </i>
     <i name="WEIMIN">      0.00000000</i>
     <i name="EBREAK">      0.00000208</i>
     <i name="DEPER">      0.30000000</i>
     <i type="int" name="NRMM">     4</i>
     <i name="TIME">      0.40000000</i>
    </separator>
   </separator>
   <separator name="electronic mixer" >
    <i name="AMIX">      0.40000000</i>
    <i name="BMIX">      1.00000000</i>
    <i name="AMIN">      0.10000000</i>
    <i name="AMIX_MAG">      1.60000000</i>
    <i name="BMIX_MAG">      1.00000000</i>
    <separator name="electronic mixer details" >
     <i type="int" name="IMIX">     4</i>
     <i type="logical" name="MIXFIRST"> F  </i>
     <i type="int" name="MAXMIX">   -45</i>
     <i name="WC">    100.00000000</i>
     <i type="int" name="INIMIX">     1</i>
     <i type="int" name="MIXPRE">     1</i>
     <i type="int" name="MREMOVE">     5</i>
    </separator>
   </separator>
   <separator name="electronic dipolcorrection" >
    <i type="logical" name="LDIPOL"> F  </i>
    <i type="logical" name="LMONO"> F  </i>
    <i type="int" name="IDIPOL">     0</i>
    <i name="EPSILON">      1.00000000</i>
    <v name="DIPOL">   -100.00000000   -100.00000000   -100.00000000</v>
    <i name="EFIELD">      0.00000000</i>
   </separator>
  </separator>
  <separator name="grids" >
   <i type="int" name="NGX">    12</i>
   <i type="int" name="NGY">    12</i>
   <i type="int" name="NGZ">    12</i>
   <i type="int" name="NGXF">    24</i>
   <i type="int" name="NGYF">    24</i>
   <i type="int" name="NGZF">    24</i>
   <i type="logical" name="ADDGRID"> F  </i>
  </separator>
  <separator name="ionic" >
   <i type="int" name="NSW">     0</i>
   <i type="int" name="IBRION">    -1</i>
   <i type="int" name="MDALGO">     0</i>
   <i type="int" name="ISIF">     2</i>
   <i name="PSTRESS">      0.00000000</i>
   <i name="EDIFFG">      0.00100000</i>
   <i type="int" name="NFREE">     0</i>
   <i name="POTIM">      0.50000000</i>
   <i name="SMASS">     -3.00000000</i>
   <i name="SCALEE">      1.00000000</i>
  </separator>
  <separator name="ionic md" >
   <i name="TEBEG">      0.00010000</i>
   <i name="TEEND">      0.00010000</i>
   <i type="int" name="NBLOCK">     1</i>
   <i type="int" name="KBLOCK">     1</i>
   <i type="int" name="NPACO">   256</i>
   <i name="APACO">     16.00000000</i>
  </separator>
  <separator name="symmetry" >
   <i type="int" name="ISYM">     2</i>
   <i name="SYMPREC">      0.00001000</i>
  </separator>
  <separator name="dos" >
   <i type="int" name="LORBIT">     0</i>
   <v name="RWIGS">      1.50300000</v>
   <i type="int" name="NEDOS">  3001</i>
   <i name="EMIN">     10.00000000</i>
   <i name="EMAX">    -10.00000000</i>
   <i name="EFERMI">      0.00000000</i>
  </separator>
  <separator name="writing" >
   <i type="int" name="NWRITE">     2</i>
   <i type="logical" name="LWAVE"> T  </i>
   <i type="logical" name="LDOWNSAMPLE"> F  </i>
   <i type="logical" name="LCHARG"> F  </i>
   <i type="logical" name="LPARD"> F  </i>
   <i type="logical" name="LVTOT"> F  </i>
   <i type="logical" name="LVHAR"> F  </i>
   <i type="logical" name="LELF"> F  </i>
   <i type="logical" name="LOPTICS"> F  </i>
   <v name="STM">      0.00000000      0.00000000      0.00000000      0.00000000      0.00000000      0.00000000      0.00000000</v>
  </separator>
  <separator name="performance" >
   <i type="int" name="NPAR">     4</i>
   <i type="int" name="NSIM">     4</i>
   <i type="int" name="NBLK">    -1</i>
   <i type="logical" name="LPLANE"> T  </i>
   <i type="logical" name="LSCALAPACK"> T  </i>
   <i type="logical" name="LSCAAWARE"> F  </i>
   <i type="logical" name="LSCALU"> F  </i>
   <i type="logical" name="LASYNC"> F  </i>
   <i type="logical" name="LORBITALREAL"> F  </i>
  </separator>
  <separator name="miscellaneous" >
   <i type="int" name="IDIOT">     3</i>
   <i type="int" name="ISPECIAL">     0</i>
   <i type="logical" name="LMUSIC"> F  </i>
   <v name="POMASS">    196.96600000</v>
   <v name="DARWINR">      0.00000000</v>
   <v name="DARWINV">      1.00000000</v>
   <i type="logical" name="LCORR"> T  </i>
  </separator>
  <i type="logical" name="GGA_COMPAT"> T  </i>
  <i type="logical" name="LBERRY"> F  </i>
  <i type="int" name="ICORELEVEL">     0</i>
  <i type="logical" name="LDAU"> F  </i>
  <i type="int" name="I_CONSTRAINED_M">     0</i>
  <separator name="electronic exchange-correlation" >
   <i type="string" name="GGA">--</i>
   <i type="int" name="VOSKOWN">     0</i>
   <i type="logical" name="LHFCALC"> F  </i>
   <i type="string" name="PRECFOCK"></i>
   <i type="logical" name="LSYMGRAD"> F  </i>
   <i type="logical" name="LHFONE"> F  </i>
   <i type="logical" name="LRHFCALC"> F  </i>
   <i type="logical" name="LTHOMAS"> F  </i>
   <i type="logical" name="LMODELHF"> F  </i>
   <i name="ENCUT4O">     -1.00000000</i>
   <i type="int" name="EXXOEP">     0</i>
   <i type="int" name="FOURORBIT">     0</i>
   <i name="AEXX">      0.00000000</i>
   <i name="HFALPHA">      0.00000000</i>
   <i name="MCALPHA">      0.00000000</i>
   <i name="ALDAX">      1.00000000</i>
   <i name="AGGAX">      1.00000000</i>
   <i name="ALDAC">      1.00000000</i>
   <i name="AGGAC">      1.00000000</i>
   <i type="int" name="NKREDX">     1</i>
   <i type="int" name="NKREDY">     1</i>
   <i type="int" name="NKREDZ">     1</i>
   <i type="logical" name="SHIFTRED"> F  </i>
   <i type="logical" name="ODDONLY"> F  </i>
   <i type="logical" name="EVENONLY"> F  </i>
   <i type="int" name="LMAXFOCK">     0</i>
   <i type="int" name="NMAXFOCKAE">     0</i>
   <i type="logical" name="LFOCKAEDFT"> F  </i>
   <i name="HFSCREEN">      0.00000000</i>
   <i name="HFSCREENC">      0.00000000</i>
   <i type="int" name="NBANDSGWLOW">     0</i>
  </separator>
  <separator name="vdW DFT" >
   <i type="logical" name="LUSE_VDW"> F  </i>
   <i name="Zab_VDW">     -0.84910000</i>
   <i name="PARAM1">      0.12340000</i>
   <i name="PARAM2">      1.00000000</i>
   <i name="PARAM3">      0.00000000</i>
  </separator>
  <separator name="model GW" >
   <i type="int" name="MODEL_GW">     0</i>
   <i name="MODEL_EPS0">     11.92605000</i>
   <i name="MODEL_ALPHA">      1.00000000</i>
  </separator>
  <separator name="linear response parameters" >
   <i type="logical" name="LEPSILON"> F  </i>
   <i type="logical" name="LRPA"> F  </i>
   <i type="logical" name="LNABLA"> F  </i>
   <i type="logical" name="LVEL"> F  </i>
   <i type="int" name="KINTER">     0</i>
   <i name="CSHIFT">      0.10000000</i>
   <i name="OMEGAMAX">     -1.00000000</i>
   <i name="DEG_THRESHOLD">      0.00200000</i>
   <i name="RTIME">     -0.10000000</i>
   <i name="WPLASMAI">      0.00000000</i>
   <v name="DFIELD">      0.00000000      0.00000000      0.00000000</v>
   <v name="WPLASMA">      0.00000000      0.00000000      0.00000000      0.00000000      0.00000000      0.00000000      0.00000000      0.00000000      0.00000000</v>
  </separator>
  <separator name="orbital magnetization" >
   <i type="logical" name="NUCIND"> F  </i>
   <v name="MAGPOS">      0.00000000      0.00000000      0.00000000</v>
   <i type="logical" name="LNICSALL"> T  </i>
   <i type="logical" name="ORBITALMAG"> F  </i>
   <i type="logical" name="LMAGBLOCH"> F  </i>
   <i type="logical" name="LCHIMAG"> F  </i>
   <i type="logical" name="LGAUGE"> T  </i>
   <i type="int" name="MAGATOM">     0</i>
   <v name="MAGDIPOL">      0.00000000      0.00000000      0.00000000</v>
   <v name="AVECCONST">      0.00000000      0.00000000      0.00000000</v>
  </separator>
  <separator name="response functions" >
   <i type="logical" name="LADDER"> F  </i>
   <i type="logical" name="LRPAFORCE"> F  </i>
   <i type="logical" name="LFXC"> F  </i>
   <i type="logical" name="LHARTREE"> T  </i>
   <i type="int" name="IBSE">     0</i>
   <v type="int" name="KPOINT">    -1     0     0     0</v>
   <i type="logical" name="LTCTE"> F  </i>
   <i type="logical" name="LTETE"> F  </i>
   <i type="logical" name="LTRIPLET"> F  </i>
   <i type="logical" name="LFXCEPS"> F  </i>
   <i type="logical" name="LFXHEG"> F  </i>
   <i type="int" name="NATURALO">     2</i>
   <i type="logical" name="L2ORDER"> F  </i>
   <i type="logical" name="LMP2LT"> F  </i>
   <i type="logical" name="LUSEW"> F  </i>
   <i name="ENCUTGW">     -2.00000000</i>
   <i name="ENCUTGWSOFT">     -2.00000000</i>
   <i name="ENCUTLF">     -1.00000000</i>
   <i type="int" name="LMAXMP2">    -1</i>
   <i name="SCISSOR">      0.00000000</i>
   <i type="int" name="NOMEGA">     0</i>
   <i type="int" name="NOMEGAR">     0</i>
   <i type="int" name="NBANDSGW">    -1</i>
   <i type="int" name="NBANDSO">    -1</i>
   <i type="int" name="NBANDSV">    -1</i>
   <i type="int" name="NELM">     1</i>
   <i type="int" name="NELMHF">     1</i>
   <i type="int" name="DIM">     3</i>
   <i type="int" name="ANTIRES">     0</i>
   <i name="OMEGAMAX">    -30.00000000</i>
   <i name="OMEGAMIN">    -30.00000000</i>
   <i name="OMEGATL">   -200.00000000</i>
   <i type="int" name="OMEGAGRID">   140</i>
   <i name="CSHIFT">     -0.10000000</i>
   <i type="logical" name="SELFENERGY"> F  </i>
   <i type="logical" name="LSPECTRAL"> F  </i>
   <i type="logical" name="LSPECTRALGW"> F  </i>
   <i type="logical" name="LSINGLES"> F  </i>
   <i type="logical" name="LFERMIGW"> F  </i>
   <i type="logical" name="ODDONLYGW"> F  </i>
   <i type="logical" name="EVENONLYGW"> F  </i>
   <i type="int" name="NKREDLFX">     1</i>
   <i type="int" name="NKREDLFY">     1</i>
   <i type="int" name="NKREDLFZ">     1</i>
   <i type="int" name="MAXMEM">  2800</i>
   <i type="int" name="TELESCOPE">     0</i>
   <i type="int" name="TAUPAR">     1</i>
   <i type="int" name="OMEGAPAR">    -1</i>
   <i name="LAMBDA">      1.00000000</i>
  </separator>
  <separator name="External order field" >
   <i name="OFIELD_KAPPA">      0.00000000</i>
   <v name="OFIELD_K">      0.00000000      0.00000000      0.00000000</v>
   <i name="OFIELD_Q6_NEAR">      0.00000000</i>
   <i name="OFIELD_Q6_FAR">      0.00000000</i>
   <i name="OFIELD_A">      0.00000000</i>
  </separator>
 </parameters>
 <atominfo>
  <atoms>       1 </atoms>
  <types>       1 </types>
  <array name="atoms" >
   <dimension dim="1">ion</dimension>
   <field type="string">element</field>
   <field type="int">atomtype</field>
   <set>
    <rc><c>Au</c><c>   1</c></rc>
   </set>
  </array>
  <array name="atomtypes" >
   <dimension dim="1">type</dimension>
   <field type="int">atomspertype</field>
   <field type="string">element</field>
   <field>mass</field>
   <field>valence</field>
   <field type="string">pseudopotential</field>
   <set>
    <rc><c>   1</c><c>Au</c><c>    196.96600000</c><c>     11.00000000</c><c> PAW Au 04Feb1998                       </c></rc>
   </set>
  </array>
 </atominfo>
 <structure name="initialpos" >
  <crystal>
   <varray name="basis" >
    <v>       0.00000000       2.15000000       2.15000000 </v>
    <v>       2.15000000       0.00000000       2.15000000 </v>
    <v>       2.15000000       2.15000000       0.00000000 </v>
   </varray>
   <i name="volume">     19.87675000 </i>
   <varray name="rec_basis" >
    <v>      -0.23255814       0.23255814       0.23255814 </v>
    <v>       0.23255814      -0.23255814       0.23255814 </v>
    <v>       0.23255814       0.23255814      -0.23255814 </v>
   </varray>
  </crystal>
  <varray name="positions" >
   <v>       0.00000000       0.00000000       0.00000000 </v>
  </varray>
 </structure>
 <calculation>
  <scstep>
   <time name="dav">    0.23    0.46</time>
   <time name="total">    0.24    0.47</time>
   <energy>
    <i name="alphaZ">     92.46377501 </i>
    <i name="ewald">   -928.90065159 </i>
    <i name="hartreedc">   -103.66432549 </i>
    <i name="XCdc">     14.01532632 </i>
    <i name="pawpsdc">    754.78164889 </i>
    <i name="pawaedc">   -736.97215285 </i>
    <i name="eentropy">     -0.00046314 </i>
    <i name="bandstr">     10.25080546 </i>
    <i name="atom">    929.39633208 </i>
    <i name="e_fr_energy">     31.37029470 </i>
    <i name="e_wo_entrp">     31.37075784 </i>
    <i name="e_0_energy">     31.37044908 </i>
   </energy>
  </scstep>
  <scstep>
   <time name="dav">    0.25    0.51</time>
   <time name="total">    0.26    0.51</time>
   <energy>
    <i name="e_fr_energy">     -7.04762908 </i>
    <i name="e_wo_entrp">     -7.04621804 </i>
    <i name="e_0_energy">     -7.04715873 </i>
   </energy>
  </scstep>
  <scstep>
   <time name="dav">    0.28    0.58</time>
   <time name="total">    0.29    0.58</time>
   <energy>
    <i name="e_fr_energy">     -7.47219181 </i>
    <i name="e_wo_entrp">     -7.46988772 </i>
    <i name="e_0_energy">     -7.47142378 </i>
   </energy>
  </scstep>
  <scstep>
   <time name="dav">    0.28    0.57</time>
   <time name="total">    0.29    0.57</time>
   <energy>
    <i name="e_fr_energy">     -7.47369195 </i>
    <i name="e_wo_entrp">     -7.47138805 </i>
    <i name="e_0_energy">     -7.47292398 </i>
   </energy>
  </scstep>
  <scstep>
   <time name="dav">    0.29    0.58</time>
   <time name="total">    0.29    0.59</time>
   <energy>
    <i name="e_fr_energy">     -7.47370708 </i>
    <i name="e_wo_entrp">     -7.47140318 </i>
    <i name="e_0_energy">     -7.47293912 </i>
   </energy>
  </scstep>
  <scstep>
   <time name="dav">    0.24    0.48</time>
   <time name="total">    0.24    0.49</time>
   <energy>
    <i name="alphaZ">     92.46377501 </i>
    <i name="ewald">   -928.90065159 </i>
    <i name="hartreedc">   -103.66432549 </i>
    <i name="XCdc">     14.01532632 </i>
    <i name="pawpsdc">    754.78164889 </i>
    <i name="pawaedc">   -736.97215285 </i>
    <i name="eentropy">     -0.00230390 </i>
    <i name="bandstr">    -28.59135576 </i>
    <i name="atom">    929.39633208 </i>
    <i name="e_fr_energy">     -7.47370729 </i>
    <i name="e_wo_entrp">     -7.47140339 </i>
    <i name="e_0_energy">     -7.47293932 </i>
   </energy>
  </scstep>
  <structure>
   <crystal>
    <varray name="basis" >
     <v>       0.00000000       2.15000000       2.15000000 </v>
     <v>       2.15000000       0.00000000       2.15000000 </v>
     <v>       2.15000000       2.15000000       0.00000000 </v>
    </varray>
    <i name="volume">     19.87675000 </i>
    <varray name="rec_basis" >
     <v>      -0.23255814       0.23255814       0.23255814 </v>
     <v>       0.23255814      -0.23255814       0.23255814 </v>
     <v>       0.23255814       0.23255814      -0.23255814 </v>
    </varray>
   </crystal>
   <varray name="positions" >
    <v>       0.00000000       0.00000000       0.00000000 </v>
   </varray>
  </structure>
  <varray name="forces" >
   <v>       0.00000000       0.00000000       0.00000000 </v>
  </varray>
  <varray name="stress" >
   <v>    3789.64500625       0.00000000       0.00000000 </v>
   <v>      -0.00000000    3789.64500625      -0.00000000 </v>
   <v>       0.00000000      -0.00000000    3789.64500625 </v>
  </varray>
  <energy>
   <i name="e_fr_energy">     -7.47370729 </i>
   <i name="e_wo_entrp">     -7.47293932 </i>
   <i name="e_0_energy">     -0.00230390 </i>
  </energy>
  <time name="totalsc">    1.71    3.45</time>
  <eigenvalues>
   <array>
    <dimension dim="1">band</dimension>
    <dimension dim="2">kpoint</dimension>
    <dimension dim="3">spin</dimension>
    <field>eigene</field>
    <field>occ</field>
    <set>
     <set comment="spin 1">
      <set comment="kpoint 1">
       <r>   -3.7106    1.0000 </r>
       <r>   -3.3042    1.0000 </r>
       <r>   -3.3042    1.0000 </r>
       <r>   -2.3349    1.0000 </r>
       <r>   -1.5030    1.0000 </r>
       <r>    7.0088   -0.0000 </r>
       <r>    9.0680   -0.0000 </r>
       <r>    9.0680   -0.0000 </r>
       <r>   11.5329    0.0000 </r>
       <r>   25.4556    0.0000 </r>
       <r>   25.4556    0.0000 </r>
       <r>   26.2070    0.0000 </r>
      </set>
      <set comment="kpoint 2">
       <r>   -3.7086    1.0000 </r>
       <r>   -3.3119    1.0000 </r>
       <r>   -3.2949    1.0000 </r>
       <r>   -2.3344    1.0000 </r>
       <r>   -1.5115    1.0000 </r>
       <r>    6.9139   -0.0000 </r>
       <r>    8.9674   -0.0000 </r>
       <r>    9.2035   -0.0000 </r>
       <r>   11.6430    0.0000 </r>
       <r>   25.1447    0.0000 </r>
       <r>   25.4610    0.0000 </r>
       <r>   26.5286    0.0000 </r>
      </set>
      <set comment="kpoint 3">
       <r>   -3.7027    1.0000 </r>
       <r>   -3.3346    1.0000 </r>
       <r>   -3.2671    1.0000 </r>
       <r>   -2.3340    1.0000 </r>
       <r>   -1.5361    1.0000 </r>
       <r>    6.6846   -0.0000 </r>
       <r>    8.7070   -0.0000 </r>
       <r>    9.5539   -0.0000 </r>
       <r>   11.9319    0.0000 </r>
       <r>   24.6332    0.0000 </r>
       <r>   25.4767    0.0000 </r>
       <r>   27.0722    0.0000 </r>
      </set>
      <set comment="kpoint 4">
       <r>   -3.6935    1.0000 </r>
       <r>   -3.3707    1.0000 </r>
       <r>   -3.2218    1.0000 </r>
       <r>   -2.3372    1.0000 </r>
       <r>   -1.5723    1.0000 </r>
       <r>    6.4047   -0.0000 </r>
       <r>    8.3565   -0.0000 </r>
       <r>   10.0336   -0.0000 </r>
       <r>   12.3275    0.0000 </r>
       <r>   24.1054    0.0000 </r>
       <r>   25.5020    0.0000 </r>
       <r>   27.6538    0.0000 </r>
      </set>
      <set comment="kpoint 5">
       <r>   -3.6768    1.0000 </r>
       <r>   -3.4189    1.0000 </r>
       <r>   -3.1629    1.0000 </r>
       <r>   -2.3479    1.0000 </r>
       <r>   -1.6192    1.0000 </r>
       <r>    6.1221   -0.0000 </r>
       <r>    7.9644   -0.0000 </r>
       <r>   10.5918    0.0000 </r>
       <r>   12.7883    0.0000 </r>
       <r>   23.5810    0.0000 </r>
       <r>   25.5356    0.0000 </r>
       <r>   28.2466    0.0000 </r>
      </set>
      <set comment="kpoint 6">
       <r>   -3.6572    1.0000 </r>
       <r>   -3.4768    1.0000 </r>
       <r>   -3.0876    1.0000 </r>
       <r>   -2.3730    1.0000 </r>
       <r>   -1.6658    1.0000 </r>
       <r>    5.8571   -0.0000 </r>
       <r>    7.5544   -0.0000 </r>
       <r>   11.2037    0.0000 </r>
       <r>   13.2819    0.0000 </r>
       <r>   23.0740    0.0000 </r>
       <r>   25.5753    0.0000 </r>
       <r>   28.8508    0.0000 </r>
      </set>
      <set comment="kpoint 7">
       <r>   -3.6326    1.0000 </r>
       <r>   -3.5426    1.0000 </r>
       <r>   -2.9989    1.0000 </r>
       <r>   -2.4170    1.0000 </r>
       <r>   -1.7053    1.0000 </r>
       <r>    5.6187   -0.0000 </r>
       <r>    7.1405   -0.0000 </r>
       <r>   11.8554    0.0000 </r>
       <r>   13.7977    0.0000 </r>
       <r>   22.5864    0.0000 </r>
       <r>   25.6196    0.0000 </r>
       <r>   29.3050    0.0000 </r>
      </set>
      <set comment="kpoint 8">
       <r>   -3.6194    1.0000 </r>
       <r>   -3.6046    1.0000 </r>
       <r>   -2.9024    1.0000 </r>
       <r>   -2.4848    1.0000 </r>
       <r>   -1.7378    1.0000 </r>
       <r>    5.4081   -0.0000 </r>
       <r>    6.7291   -0.0000 </r>
       <r>   12.5331    0.0000 </r>
       <r>   14.3256    0.0000 </r>
       <r>   22.1201    0.0000 </r>
       <r>   25.6580    0.0000 </r>
       <r>   29.5037    0.0000 </r>
      </set>
      <set comment="kpoint 9">
       <r>   -3.6966    1.0000 </r>
       <r>   -3.5714    1.0000 </r>
       <r>   -2.7911    1.0000 </r>
       <r>   -2.5634    1.0000 </r>
       <r>   -1.7514    1.0000 </r>
       <r>    5.2282   -0.0001 </r>
       <r>    6.3288   -0.0000 </r>
       <r>   13.2401    0.0000 </r>
       <r>   14.8637    0.0000 </r>
       <r>   21.6812    0.0000 </r>
       <r>   25.7105    0.0000 </r>
       <r>   29.7311    0.0000 </r>
      </set>
      <set comment="kpoint 10">
       <r>   -3.7781    1.0000 </r>
       <r>   -3.5400    1.0000 </r>
       <r>   -2.6728    1.0000 </r>
       <r>   -2.6629    1.0000 </r>
       <r>   -1.7581    1.0000 </r>
       <r>    5.0741   -0.0029 </r>
       <r>    5.9410   -0.0000 </r>
       <r>   13.9611    0.0000 </r>
       <r>   15.3966    0.0000 </r>
       <r>   21.2673    0.0000 </r>
       <r>   25.7560    0.0000 </r>
       <r>   29.9631    0.0000 </r>
      </set>
      <set comment="kpoint 11">
       <r>   -3.8612    1.0000 </r>
       <r>   -3.5031    1.0000 </r>
       <r>   -2.7640    1.0000 </r>
       <r>   -2.5465    1.0000 </r>
       <r>   -1.7555    1.0000 </r>
       <r>    4.9462   -0.0212 </r>
       <r>    5.5702   -0.0000 </r>
       <r>   14.6967    0.0000 </r>
       <r>   15.9349    0.0000 </r>
       <r>   20.8896    0.0000 </r>
       <r>   25.7994    0.0000 </r>
       <r>   29.3412    0.0000 </r>
      </set>
      <set comment="kpoint 12">
       <r>   -3.9448    1.0000 </r>
       <r>   -3.4620    1.0000 </r>
       <r>   -2.8624    1.0000 </r>
       <r>   -2.4110    1.0000 </r>
       <r>   -1.7461    1.0000 </r>
       <r>    4.8408   -0.0332 </r>
       <r>    5.2213   -0.0001 </r>
       <r>   15.4385    0.0000 </r>
       <r>   16.4683    0.0000 </r>
       <r>   20.5482    0.0000 </r>
       <r>   25.8408    0.0000 </r>
       <r>   28.7690    0.0000 </r>
      </set>
      <set comment="kpoint 13">
       <r>   -4.0268    1.0000 </r>
       <r>   -3.4255    1.0000 </r>
       <r>   -2.9561    1.0000 </r>
       <r>   -2.2795    1.0000 </r>
       <r>   -1.7371    1.0000 </r>
       <r>    4.7547    0.0463 </r>
       <r>    4.8938   -0.0325 </r>
       <r>   16.1790    0.0000 </r>
       <r>   16.9828    0.0000 </r>
       <r>   20.2464    0.0000 </r>
       <r>   25.8746    0.0000 </r>
       <r>   28.2086    0.0000 </r>
      </set>
      <set comment="kpoint 14">
       <r>   -4.1063    1.0000 </r>
       <r>   -3.3912    1.0000 </r>
       <r>   -3.0405    1.0000 </r>
       <r>   -2.1549    1.0000 </r>
       <r>   -1.7274    1.0000 </r>
       <r>    4.5935    0.6037 </r>
       <r>    4.6850    0.2341 </r>
       <r>   16.9089    0.0000 </r>
       <r>   17.4698    0.0000 </r>
       <r>   19.9911    0.0000 </r>
       <r>   25.8951    0.0000 </r>
       <r>   27.6744    0.0000 </r>
      </set>
      <set comment="kpoint 15">
       <r>   -4.1784    1.0000 </r>
       <r>   -3.3594    1.0000 </r>
       <r>   -3.1129    1.0000 </r>
       <r>   -2.0326    1.0000 </r>
       <r>   -1.7179    1.0000 </r>
       <r>    4.3263    1.0294 </r>
       <r>    4.6305    0.4482 </r>
       <r>   17.6168    0.0000 </r>
       <r>   17.9129    0.0000 </r>
       <r>   19.7926    0.0000 </r>
       <r>   25.9122    0.0000 </r>
       <r>   27.1756    0.0000 </r>
      </set>
      <set comment="kpoint 16">
       <r>   -4.2415    1.0000 </r>
       <r>   -3.3311    1.0000 </r>
       <r>   -3.1724    1.0000 </r>
       <r>   -1.9215    1.0000 </r>
       <r>   -1.7034    1.0000 </r>
       <r>    4.0967    1.0007 </r>
       <r>    4.5886    0.6238 </r>
       <r>   18.2831    0.0000 </r>
       <r>   18.2844    0.0000 </r>
       <r>   19.6682    0.0000 </r>
       <r>   25.9166    0.0000 </r>
       <r>   26.7248    0.0000 </r>
      </set>
      <set comment="kpoint 17">
       <r>   -4.2934    1.0000 </r>
       <r>   -3.3084    1.0000 </r>
       <r>   -3.2188    1.0000 </r>
       <r>   -1.8269    1.0000 </r>
       <r>   -1.6967    1.0000 </r>
       <r>    3.9099    1.0000 </r>
       <r>    4.5577    0.7435 </r>
       <r>   18.5395    0.0000 </r>
       <r>   18.8848    0.0000 </r>
       <r>   19.6408    0.0000 </r>
       <r>   25.9008    0.0000 </r>
       <r>   26.3345    0.0000 </r>
      </set>
      <set comment="kpoint 18">
       <r>   -4.3320    1.0000 </r>
       <r>   -3.2908    1.0000 </r>
       <r>   -3.2516    1.0000 </r>
       <r>   -1.7510    1.0000 </r>
       <r>   -1.6888    1.0000 </r>
       <r>    3.7717    1.0000 </r>
       <r>    4.5365    0.8156 </r>
       <r>   18.6670    0.0000 </r>
       <r>   19.3783    0.0000 </r>
       <r>   19.7047    0.0000 </r>
       <r>   25.8590    0.0000 </r>
       <r>   26.0311    0.0000 </r>
      </set>
      <set comment="kpoint 19">
       <r>   -4.3558    1.0000 </r>
       <r>   -3.2805    1.0000 </r>
       <r>   -3.2704    1.0000 </r>
       <r>   -1.6997    1.0000 </r>
       <r>   -1.6852    1.0000 </r>
       <r>    3.6864    1.0000 </r>
       <r>    4.5242    0.8531 </r>
       <r>   18.7085    0.0000 </r>
       <r>   19.7115    0.0000 </r>
       <r>   19.7925    0.0000 </r>
       <r>   25.7987    0.0000 </r>
       <r>   25.8328    0.0000 </r>
      </set>
      <set comment="kpoint 20">
       <r>   -4.3639    1.0000 </r>
       <r>   -3.2770    1.0000 </r>
       <r>   -3.2770    1.0000 </r>
       <r>   -1.6843    1.0000 </r>
       <r>   -1.6843    1.0000 </r>
       <r>    3.6575    1.0000 </r>
       <r>    4.5202    0.8646 </r>
       <r>   18.7162    0.0000 </r>
       <r>   19.8307    0.0000 </r>
       <r>   19.8307    0.0000 </r>
       <r>   25.7637    0.0000 </r>
       <r>   25.7637    0.0000 </r>
      </set>
      <set comment="kpoint 21">
       <r>   -4.3639    1.0000 </r>
       <r>   -3.2770    1.0000 </r>
       <r>   -3.2770    1.0000 </r>
       <r>   -1.6843    1.0000 </r>
       <r>   -1.6843    1.0000 </r>
       <r>    3.6575    1.0000 </r>
       <r>    4.5202    0.8646 </r>
       <r>   18.7162    0.0000 </r>
       <r>   19.8307    0.0000 </r>
       <r>   19.8307    0.0000 </r>
       <r>   25.7637    0.0000 </r>
       <r>   25.7638    0.0000 </r>
      </set>
      <set comment="kpoint 22">
       <r>   -4.3586    1.0000 </r>
       <r>   -3.2739    1.0000 </r>
       <r>   -3.2739    1.0000 </r>
       <r>   -1.6936    1.0000 </r>
       <r>   -1.6936    1.0000 </r>
       <r>    3.1563    1.0000 </r>
       <r>    5.0573   -0.0040 </r>
       <r>   18.7338    0.0000 </r>
       <r>   19.8602    0.0000 </r>
       <r>   19.8602    0.0000 </r>
       <r>   25.7601    0.0000 </r>
       <r>   25.7605    0.0000 </r>
      </set>
      <set comment="kpoint 23">
       <r>   -4.3430    1.0000 </r>
       <r>   -3.2663    1.0000 </r>
       <r>   -3.2663    1.0000 </r>
       <r>   -1.7309    1.0000 </r>
       <r>   -1.7309    1.0000 </r>
       <r>    2.4139    1.0000 </r>
       <r>    5.9069   -0.0000 </r>
       <r>   18.7864    0.0000 </r>
       <r>   19.9476    0.0000 </r>
       <r>   19.9476    0.0000 </r>
       <r>   25.7406    0.0000 </r>
       <r>   25.7406    0.0000 </r>
      </set>
      <set comment="kpoint 24">
       <r>   -4.3175    1.0000 </r>
       <r>   -3.2515    1.0000 </r>
       <r>   -3.2515    1.0000 </r>
       <r>   -1.7766    1.0000 </r>
       <r>   -1.7766    1.0000 </r>
       <r>    1.6787    1.0000 </r>
       <r>    6.8206   -0.0000 </r>
       <r>   18.8725    0.0000 </r>
       <r>   20.0894    0.0000 </r>
       <r>   20.0894    0.0000 </r>
       <r>   25.7243    0.0000 </r>
       <r>   25.7244    0.0000 </r>
      </set>
      <set comment="kpoint 25">
       <r>   -4.2764    1.0000 </r>
       <r>   -3.2310    1.0000 </r>
       <r>   -3.2310    1.0000 </r>
       <r>   -1.8296    1.0000 </r>
       <r>   -1.8296    1.0000 </r>
       <r>    0.9784    1.0000 </r>
       <r>    7.7770   -0.0000 </r>
       <r>   18.9907    0.0000 </r>
       <r>   20.2814    0.0000 </r>
       <r>   20.2814    0.0000 </r>
       <r>   25.7115    0.0000 </r>
       <r>   25.7137    0.0000 </r>
      </set>
      <set comment="kpoint 26">
       <r>   -4.2351    1.0000 </r>
       <r>   -3.2075    1.0000 </r>
       <r>   -3.2075    1.0000 </r>
       <r>   -1.9037    1.0000 </r>
       <r>   -1.9037    1.0000 </r>
       <r>    0.3124    1.0000 </r>
       <r>    8.7606   -0.0000 </r>
       <r>   19.1353    0.0000 </r>
       <r>   20.5128    0.0000 </r>
       <r>   20.5128    0.0000 </r>
       <r>   25.6957    0.0000 </r>
       <r>   25.7565    0.0000 </r>
      </set>
      <set comment="kpoint 27">
       <r>   -4.1868    1.0000 </r>
       <r>   -3.1814    1.0000 </r>
       <r>   -3.1814    1.0000 </r>
       <r>   -1.9861    1.0000 </r>
       <r>   -1.9861    1.0000 </r>
       <r>   -0.3120    1.0000 </r>
       <r>    9.7713   -0.0000 </r>
       <r>   19.3009    0.0000 </r>
       <r>   20.7736    0.0000 </r>
       <r>   20.7736    0.0000 </r>
       <r>   25.6622    0.0000 </r>
       <r>   25.6900    0.0000 </r>
      </set>
      <set comment="kpoint 28">
       <r>   -4.1335    1.0000 </r>
       <r>   -3.1548    1.0000 </r>
       <r>   -3.1548    1.0000 </r>
       <r>   -2.0726    1.0000 </r>
       <r>   -2.0726    1.0000 </r>
       <r>   -0.8923    1.0000 </r>
       <r>   10.8052    0.0000 </r>
       <r>   19.4787    0.0000 </r>
       <r>   21.0496    0.0000 </r>
       <r>   21.0496    0.0000 </r>
       <r>   25.3831    0.0000 </r>
       <r>   25.7044    0.0000 </r>
      </set>
      <set comment="kpoint 29">
       <r>   -4.0779    1.0000 </r>
       <r>   -3.1303    1.0000 </r>
       <r>   -3.1303    1.0000 </r>
       <r>   -2.1586    1.0000 </r>
       <r>   -2.1586    1.0000 </r>
       <r>   -1.4260    1.0000 </r>
       <r>   11.8581    0.0000 </r>
       <r>   19.6560    0.0000 </r>
       <r>   21.3234    0.0000 </r>
       <r>   21.3234    0.0000 </r>
       <r>   25.1293    0.0000 </r>
       <r>   25.7514    0.0000 </r>
      </set>
      <set comment="kpoint 30">
       <r>   -4.0237    1.0000 </r>
       <r>   -3.1108    1.0000 </r>
       <r>   -3.1108    1.0000 </r>
       <r>   -2.2391    1.0000 </r>
       <r>   -2.2391    1.0000 </r>
       <r>   -1.9097    1.0000 </r>
       <r>   12.9251    0.0000 </r>
       <r>   19.8163    0.0000 </r>
       <r>   21.5755    0.0000 </r>
       <r>   21.5755    0.0000 </r>
       <r>   24.9310    0.0000 </r>
       <r>   25.8454    0.0000 </r>
      </set>
      <set comment="kpoint 31">
       <r>   -3.9806    1.0000 </r>
       <r>   -3.0994    1.0000 </r>
       <r>   -3.0994    1.0000 </r>
       <r>   -2.3399    1.0000 </r>
       <r>   -2.3072    1.0000 </r>
       <r>   -2.3072    1.0000 </r>
       <r>   13.9945    0.0000 </r>
       <r>   19.9384    0.0000 </r>
       <r>   21.7892    0.0000 </r>
       <r>   21.7892    0.0000 </r>
       <r>   24.8207    0.0000 </r>
       <r>   26.0005    0.0000 </r>
      </set>
      <set comment="kpoint 32">
       <r>   -3.9522    1.0000 </r>
       <r>   -3.1003    1.0000 </r>
       <r>   -3.1003    1.0000 </r>
       <r>   -2.7059    1.0000 </r>
       <r>   -2.3626    1.0000 </r>
       <r>   -2.3626    1.0000 </r>
       <r>   15.0693    0.0000 </r>
       <r>   20.0113    0.0000 </r>
       <r>   21.9481    0.0000 </r>
       <r>   21.9481    0.0000 </r>
       <r>   24.8316    0.0000 </r>
       <r>   26.2213    0.0000 </r>
      </set>
      <set comment="kpoint 33">
       <r>   -3.9579    1.0000 </r>
       <r>   -3.1190    1.0000 </r>
       <r>   -3.1190    1.0000 </r>
       <r>   -2.9941    1.0000 </r>
       <r>   -2.4038    1.0000 </r>
       <r>   -2.4038    1.0000 </r>
       <r>   16.1324    0.0000 </r>
       <r>   20.0283    0.0000 </r>
       <r>   22.0451    0.0000 </r>
       <r>   22.0451    0.0000 </r>
       <r>   24.9736    0.0000 </r>
       <r>   26.4970    0.0000 </r>
      </set>
      <set comment="kpoint 34">
       <r>   -4.0174    1.0000 </r>
       <r>   -3.1841    1.0000 </r>
       <r>   -3.1449    1.0000 </r>
       <r>   -3.1449    1.0000 </r>
       <r>   -2.4238    1.0000 </r>
       <r>   -2.4238    1.0000 </r>
       <r>   17.1700    0.0000 </r>
       <r>   20.0070    0.0000 </r>
       <r>   22.0979    0.0000 </r>
       <r>   22.0979    0.0000 </r>
       <r>   25.2441    0.0000 </r>
       <r>   26.8240    0.0000 </r>
      </set>
      <set comment="kpoint 35">
       <r>   -4.1316    1.0000 </r>
       <r>   -3.2776    1.0000 </r>
       <r>   -3.1779    1.0000 </r>
       <r>   -3.1779    1.0000 </r>
       <r>   -2.4299    1.0000 </r>
       <r>   -2.4299    1.0000 </r>
       <r>   18.1428    0.0000 </r>
       <r>   19.9900    0.0000 </r>
       <r>   22.1130    0.0000 </r>
       <r>   22.1130    0.0000 </r>
       <r>   25.6211    0.0000 </r>
       <r>   27.1681    0.0000 </r>
      </set>
      <set comment="kpoint 36">
       <r>   -4.2691    1.0000 </r>
       <r>   -3.3073    1.0000 </r>
       <r>   -3.2144    1.0000 </r>
       <r>   -3.2144    1.0000 </r>
       <r>   -2.4357    1.0000 </r>
       <r>   -2.4357    1.0000 </r>
       <r>   18.9281    0.0000 </r>
       <r>   20.1036    0.0000 </r>
       <r>   22.1023    0.0000 </r>
       <r>   22.1023    0.0000 </r>
       <r>   26.0661    0.0000 </r>
       <r>   27.4860    0.0000 </r>
      </set>
      <set comment="kpoint 37">
       <r>   -4.3967    1.0000 </r>
       <r>   -3.3093    1.0000 </r>
       <r>   -3.2465    1.0000 </r>
       <r>   -3.2465    1.0000 </r>
       <r>   -2.4336    1.0000 </r>
       <r>   -2.4336    1.0000 </r>
       <r>   19.2758    0.0000 </r>
       <r>   20.5886    0.0000 </r>
       <r>   22.0823    0.0000 </r>
       <r>   22.0823    0.0000 </r>
       <r>   26.5071    0.0000 </r>
       <r>   27.7626    0.0000 </r>
      </set>
      <set comment="kpoint 38">
       <r>   -4.4957    1.0000 </r>
       <r>   -3.3039    1.0000 </r>
       <r>   -3.2719    1.0000 </r>
       <r>   -3.2719    1.0000 </r>
       <r>   -2.4275    1.0000 </r>
       <r>   -2.4275    1.0000 </r>
       <r>   19.3266    0.0000 </r>
       <r>   21.2679    0.0000 </r>
       <r>   22.0613    0.0000 </r>
       <r>   22.0613    0.0000 </r>
       <r>   26.7685    0.0000 </r>
       <r>   27.9721    0.0000 </r>
      </set>
      <set comment="kpoint 39">
       <r>   -4.5576    1.0000 </r>
       <r>   -3.2964    1.0000 </r>
       <r>   -3.2880    1.0000 </r>
       <r>   -3.2880    1.0000 </r>
       <r>   -2.4229    1.0000 </r>
       <r>   -2.4229    1.0000 </r>
       <r>   19.3175    0.0000 </r>
       <r>   21.8218    0.0000 </r>
       <r>   22.0460    0.0000 </r>
       <r>   22.0460    0.0000 </r>
       <r>   26.6548    0.0000 </r>
       <r>   28.0750    0.0000 </r>
      </set>
      <set comment="kpoint 40">
       <r>   -4.5785    1.0000 </r>
       <r>   -3.2935    1.0000 </r>
       <r>   -3.2935    1.0000 </r>
       <r>   -3.2935    1.0000 </r>
       <r>   -2.4212    1.0000 </r>
       <r>   -2.4212    1.0000 </r>
       <r>   19.3104    0.0000 </r>
       <r>   22.0404    0.0000 </r>
       <r>   22.0404    0.0000 </r>
       <r>   22.0404    0.0000 </r>
       <r>   26.5268    0.0000 </r>
       <r>   28.1374    0.0000 </r>
      </set>
      <set comment="kpoint 41">
       <r>   -4.5785    1.0000 </r>
       <r>   -3.2935    1.0000 </r>
       <r>   -3.2935    1.0000 </r>
       <r>   -3.2935    1.0000 </r>
       <r>   -2.4212    1.0000 </r>
       <r>   -2.4212    1.0000 </r>
       <r>   19.3104    0.0000 </r>
       <r>   22.0404    0.0000 </r>
       <r>   22.0404    0.0000 </r>
       <r>   22.0404    0.0000 </r>
       <r>   26.5268    0.0000 </r>
       <r>   28.1374    0.0000 </r>
      </set>
      <set comment="kpoint 42">
       <r>   -4.5506    1.0000 </r>
       <r>   -3.3021    1.0000 </r>
       <r>   -3.2838    1.0000 </r>
       <r>   -3.2838    1.0000 </r>
       <r>   -2.4302    1.0000 </r>
       <r>   -2.4168    1.0000 </r>
       <r>   19.3210    0.0000 </r>
       <r>   21.9105    0.0000 </r>
       <r>   21.9631    0.0000 </r>
       <r>   21.9631    0.0000 </r>
       <r>   26.7201    0.0000 </r>
       <r>   28.0140    0.0000 </r>
      </set>
      <set comment="kpoint 43">
       <r>   -4.4673    1.0000 </r>
       <r>   -3.3277    1.0000 </r>
       <r>   -3.2547    1.0000 </r>
       <r>   -3.2547    1.0000 </r>
       <r>   -2.4560    1.0000 </r>
       <r>   -2.4035    1.0000 </r>
       <r>   19.3520    0.0000 </r>
       <r>   21.5806    0.0000 </r>
       <r>   21.7321    0.0000 </r>
       <r>   21.7321    0.0000 </r>
       <r>   27.1978    0.0000 </r>
       <r>   27.7707    0.0000 </r>
      </set>
      <set comment="kpoint 44">
       <r>   -4.3315    1.0000 </r>
       <r>   -3.3692    1.0000 </r>
       <r>   -3.2058    1.0000 </r>
       <r>   -3.2058    1.0000 </r>
       <r>   -2.4872    1.0000 </r>
       <r>   -2.3816    1.0000 </r>
       <r>   19.4020    0.0000 </r>
       <r>   21.1597    0.0000 </r>
       <r>   21.3555    0.0000 </r>
       <r>   21.3555    0.0000 </r>
       <r>   27.2523    0.0000 </r>
       <r>   27.5965    0.0000 </r>
      </set>
      <set comment="kpoint 45">
       <r>   -4.1493    1.0000 </r>
       <r>   -3.4223    1.0000 </r>
       <r>   -3.1357    1.0000 </r>
       <r>   -3.1357    1.0000 </r>
       <r>   -2.5348    1.0000 </r>
       <r>   -2.3518    1.0000 </r>
       <r>   19.4738    0.0000 </r>
       <r>   20.7200    0.0000 </r>
       <r>   20.8558    0.0000 </r>
       <r>   20.8558    0.0000 </r>
       <r>   26.0728    0.0000 </r>
       <r>   27.5542    0.0000 </r>
      </set>
      <set comment="kpoint 46">
       <r>   -3.9348    1.0000 </r>
       <r>   -3.4917    1.0000 </r>
       <r>   -3.0525    1.0000 </r>
       <r>   -3.0525    1.0000 </r>
       <r>   -2.5723    1.0000 </r>
       <r>   -2.3145    1.0000 </r>
       <r>   19.5538    0.0000 </r>
       <r>   20.2544    0.0000 </r>
       <r>   20.2544    0.0000 </r>
       <r>   20.3034    0.0000 </r>
       <r>   24.6774    0.0000 </r>
       <r>   27.6457    0.0000 </r>
      </set>
      <set comment="kpoint 47">
       <r>   -3.7199    1.0000 </r>
       <r>   -3.5713    1.0000 </r>
       <r>   -2.9528    1.0000 </r>
       <r>   -2.9528    1.0000 </r>
       <r>   -2.5654    1.0000 </r>
       <r>   -2.2709    1.0000 </r>
       <r>   19.5893    0.0000 </r>
       <r>   19.5894    0.0000 </r>
       <r>   19.6433    0.0000 </r>
       <r>   19.9285    0.0000 </r>
       <r>   23.2360    0.0000 </r>
       <r>   27.8665    0.0000 </r>
      </set>
      <set comment="kpoint 48">
       <r>   -3.6587    1.0000 </r>
       <r>   -3.5655    1.0000 </r>
       <r>   -2.8383    1.0000 </r>
       <r>   -2.8383    1.0000 </r>
       <r>   -2.4510    1.0000 </r>
       <r>   -2.2218    1.0000 </r>
       <r>   18.8905    0.0000 </r>
       <r>   18.8905    0.0000 </r>
       <r>   19.5995    0.0000 </r>
       <r>   19.7387    0.0000 </r>
       <r>   21.7934    0.0000 </r>
       <r>   28.2014    0.0000 </r>
      </set>
      <set comment="kpoint 49">
       <r>   -3.7510    1.0000 </r>
       <r>   -3.5208    1.0000 </r>
       <r>   -2.7107    1.0000 </r>
       <r>   -2.7107    1.0000 </r>
       <r>   -2.1773    1.0000 </r>
       <r>   -2.1685    1.0000 </r>
       <r>   18.1818    0.0000 </r>
       <r>   18.1818    0.0000 </r>
       <r>   19.2933    0.0000 </r>
       <r>   19.8368    0.0000 </r>
       <r>   20.3929    0.0000 </r>
       <r>   28.6366    0.0000 </r>
      </set>
      <set comment="kpoint 50">
       <r>   -3.8457    1.0000 </r>
       <r>   -3.5649    1.0000 </r>
       <r>   -2.5726    1.0000 </r>
       <r>   -2.5726    1.0000 </r>
       <r>   -2.1123    1.0000 </r>
       <r>   -1.7624    1.0000 </r>
       <r>   17.4824    0.0000 </r>
       <r>   17.4824    0.0000 </r>
       <r>   18.6870    0.0000 </r>
       <r>   19.3660    0.0000 </r>
       <r>   19.9344    0.0000 </r>
       <r>   29.1616    0.0000 </r>
      </set>
      <set comment="kpoint 51">
       <r>   -3.9381    1.0000 </r>
       <r>   -3.6505    1.0000 </r>
       <r>   -2.4254    1.0000 </r>
       <r>   -2.4254    1.0000 </r>
       <r>   -2.0427    1.0000 </r>
       <r>   -1.2446    1.0000 </r>
       <r>   16.8087    0.0000 </r>
       <r>   16.8087    0.0000 </r>
       <r>   17.4139    0.0000 </r>
       <r>   19.0963    0.0000 </r>
       <r>   20.0385    0.0000 </r>
       <r>   29.7751    0.0000 </r>
      </set>
      <set comment="kpoint 52">
       <r>   -4.0300    1.0000 </r>
       <r>   -3.7606    1.0000 </r>
       <r>   -2.2772    1.0000 </r>
       <r>   -2.2772    1.0000 </r>
       <r>   -1.9872    1.0000 </r>
       <r>   -0.6522    1.0000 </r>
       <r>   16.0625    0.0000 </r>
       <r>   16.1688    0.0000 </r>
       <r>   16.1688    0.0000 </r>
       <r>   18.9654    0.0000 </r>
       <r>   20.1280    0.0000 </r>
       <r>   30.4568    0.0000 </r>
      </set>
      <set comment="kpoint 53">
       <r>   -4.1168    1.0000 </r>
       <r>   -3.8755    1.0000 </r>
       <r>   -2.1286    1.0000 </r>
       <r>   -2.1286    1.0000 </r>
       <r>   -1.9334    1.0000 </r>
       <r>    0.0053    1.0000 </r>
       <r>   14.7288    0.0000 </r>
       <r>   15.5760    0.0000 </r>
       <r>   15.5760    0.0000 </r>
       <r>   18.8897    0.0000 </r>
       <r>   20.2107    0.0000 </r>
       <r>   31.2086    0.0000 </r>
      </set>
      <set comment="kpoint 54">
       <r>   -4.1962    1.0000 </r>
       <r>   -3.9889    1.0000 </r>
       <r>   -1.9840    1.0000 </r>
       <r>   -1.9840    1.0000 </r>
       <r>   -1.8827    1.0000 </r>
       <r>    0.7201    1.0000 </r>
       <r>   13.4261    0.0000 </r>
       <r>   15.0395    0.0000 </r>
       <r>   15.0395    0.0000 </r>
       <r>   18.8468    0.0000 </r>
       <r>   20.2851    0.0000 </r>
       <r>   32.0290    0.0000 </r>
      </set>
      <set comment="kpoint 55">
       <r>   -4.2671    1.0000 </r>
       <r>   -4.0948    1.0000 </r>
       <r>   -1.8592    1.0000 </r>
       <r>   -1.8591    1.0000 </r>
       <r>   -1.8386    1.0000 </r>
       <r>    1.4868    1.0000 </r>
       <r>   12.1608    0.0000 </r>
       <r>   14.5656    0.0000 </r>
       <r>   14.5656    0.0000 </r>
       <r>   18.8231    0.0000 </r>
       <r>   20.3479    0.0000 </r>
       <r>   32.3899    0.0000 </r>
      </set>
      <set comment="kpoint 56">
       <r>   -4.3268    1.0000 </r>
       <r>   -4.1844    1.0000 </r>
       <r>   -1.7992    1.0000 </r>
       <r>   -1.7406    1.0000 </r>
       <r>   -1.7406    1.0000 </r>
       <r>    2.3016    1.0000 </r>
       <r>   10.9400    0.0000 </r>
       <r>   14.1673    0.0000 </r>
       <r>   14.1673    0.0000 </r>
       <r>   18.8255    0.0000 </r>
       <r>   20.4023    0.0000 </r>
       <r>   32.1394    0.0000 </r>
      </set>
      <set comment="kpoint 57">
       <r>   -4.3745    1.0000 </r>
       <r>   -4.2570    1.0000 </r>
       <r>   -1.7670    1.0000 </r>
       <r>   -1.6415    1.0000 </r>
       <r>   -1.6415    1.0000 </r>
       <r>    3.1544    1.0000 </r>
       <r>    9.7716   -0.0000 </r>
       <r>   13.8489    0.0000 </r>
       <r>   13.8489    0.0000 </r>
       <r>   18.8373    0.0000 </r>
       <r>   20.4458    0.0000 </r>
       <r>   31.9462    0.0000 </r>
      </set>
      <set comment="kpoint 58">
       <r>   -4.4057    1.0000 </r>
       <r>   -4.3103    1.0000 </r>
       <r>   -1.7390    1.0000 </r>
       <r>   -1.5566    1.0000 </r>
       <r>   -1.5566    1.0000 </r>
       <r>    4.0251    1.0001 </r>
       <r>    8.6760   -0.0000 </r>
       <r>   13.6173    0.0000 </r>
       <r>   13.6173    0.0000 </r>
       <r>   18.8518    0.0000 </r>
       <r>   20.5017    0.0000 </r>
       <r>   31.8068    0.0000 </r>
      </set>
      <set comment="kpoint 59">
       <r>   -4.4273    1.0000 </r>
       <r>   -4.3383    1.0000 </r>
       <r>   -1.7246    1.0000 </r>
       <r>   -1.5074    1.0000 </r>
       <r>   -1.5074    1.0000 </r>
       <r>    4.8440   -0.0338 </r>
       <r>    7.7257   -0.0000 </r>
       <r>   13.4756    0.0000 </r>
       <r>   13.4756    0.0000 </r>
       <r>   18.8798    0.0000 </r>
       <r>   20.5194    0.0000 </r>
       <r>   31.7219    0.0000 </r>
      </set>
      <set comment="kpoint 60">
       <r>   -4.4345    1.0000 </r>
       <r>   -4.3497    1.0000 </r>
       <r>   -1.7198    1.0000 </r>
       <r>   -1.4920    1.0000 </r>
       <r>   -1.4920    1.0000 </r>
       <r>    5.2820   -0.0000 </r>
       <r>    7.2424   -0.0000 </r>
       <r>   13.4281    0.0000 </r>
       <r>   13.4281    0.0000 </r>
       <r>   18.8833    0.0000 </r>
       <r>   20.5253    0.0000 </r>
       <r>   31.6935    0.0000 </r>
      </set>
      <set comment="kpoint 61">
       <r>   -4.4345    1.0000 </r>
       <r>   -4.3497    1.0000 </r>
       <r>   -1.7198    1.0000 </r>
       <r>   -1.4920    1.0000 </r>
       <r>   -1.4920    1.0000 </r>
       <r>    5.2820   -0.0000 </r>
       <r>    7.2424   -0.0000 </r>
       <r>   13.4281    0.0000 </r>
       <r>   13.4281    0.0000 </r>
       <r>   18.8833    0.0000 </r>
       <r>   20.5253    0.0000 </r>
       <r>   31.6934    0.0000 </r>
      </set>
      <set comment="kpoint 62">
       <r>   -4.4312    1.0000 </r>
       <r>   -4.3464    1.0000 </r>
       <r>   -1.7228    1.0000 </r>
       <r>   -1.5008    1.0000 </r>
       <r>   -1.4920    1.0000 </r>
       <r>    5.2968   -0.0000 </r>
       <r>    7.2409   -0.0000 </r>
       <r>   13.4061    0.0000 </r>
       <r>   13.4075    0.0000 </r>
       <r>   18.9244    0.0000 </r>
       <r>   20.5462    0.0000 </r>
       <r>   31.6729    0.0000 </r>
      </set>
      <set comment="kpoint 63">
       <r>   -4.4212    1.0000 </r>
       <r>   -4.3365    1.0000 </r>
       <r>   -1.7317    1.0000 </r>
       <r>   -1.5269    1.0000 </r>
       <r>   -1.4918    1.0000 </r>
       <r>    5.3408   -0.0000 </r>
       <r>    7.2366   -0.0000 </r>
       <r>   13.3425    0.0000 </r>
       <r>   13.3465    0.0000 </r>
       <r>   19.0454    0.0000 </r>
       <r>   20.6083    0.0000 </r>
       <r>   31.6096    0.0000 </r>
      </set>
      <set comment="kpoint 64">
       <r>   -4.4045    1.0000 </r>
       <r>   -4.3202    1.0000 </r>
       <r>   -1.7464    1.0000 </r>
       <r>   -1.5695    1.0000 </r>
       <r>   -1.4916    1.0000 </r>
       <r>    5.4133   -0.0000 </r>
       <r>    7.2294   -0.0000 </r>
       <r>   13.2431    0.0000 </r>
       <r>   13.2471    0.0000 </r>
       <r>   19.2402    0.0000 </r>
       <r>   20.7096    0.0000 </r>
       <r>   31.4993    0.0000 </r>
      </set>
      <set comment="kpoint 65">
       <r>   -4.3832    1.0000 </r>
       <r>   -4.2977    1.0000 </r>
       <r>   -1.7687    1.0000 </r>
       <r>   -1.6365    1.0000 </r>
       <r>   -1.4938    1.0000 </r>
       <r>    5.5124   -0.0000 </r>
       <r>    7.2195   -0.0000 </r>
       <r>   13.1121    0.0000 </r>
       <r>   13.1163    0.0000 </r>
       <r>   19.5002    0.0000 </r>
       <r>   20.8356    0.0000 </r>
       <r>   31.3365    0.0000 </r>
      </set>
      <set comment="kpoint 66">
       <r>   -4.3535    1.0000 </r>
       <r>   -4.2691    1.0000 </r>
       <r>   -1.7947    1.0000 </r>
       <r>   -1.7090    1.0000 </r>
       <r>   -1.4936    1.0000 </r>
       <r>    5.6374   -0.0000 </r>
       <r>    7.2072   -0.0000 </r>
       <r>   12.9455    0.0000 </r>
       <r>   12.9707    0.0000 </r>
       <r>   19.8165    0.0000 </r>
       <r>   21.0061    0.0000 </r>
       <r>   31.1178    0.0000 </r>
      </set>
      <set comment="kpoint 67">
       <r>   -4.3174    1.0000 </r>
       <r>   -4.2350    1.0000 </r>
       <r>   -1.8258    1.0000 </r>
       <r>   -1.7936    1.0000 </r>
       <r>   -1.4935    1.0000 </r>
       <r>    5.7862   -0.0000 </r>
       <r>    7.1928   -0.0000 </r>
       <r>   12.7512    0.0000 </r>
       <r>   12.8143    0.0000 </r>
       <r>   20.1807    0.0000 </r>
       <r>   21.2064    0.0000 </r>
       <r>   30.8432    0.0000 </r>
      </set>
      <set comment="kpoint 68">
       <r>   -4.2755    1.0000 </r>
       <r>   -4.1964    1.0000 </r>
       <r>   -1.8941    1.0000 </r>
       <r>   -1.8694    1.0000 </r>
       <r>   -1.4935    1.0000 </r>
       <r>    5.9558   -0.0000 </r>
       <r>    7.1755   -0.0000 </r>
       <r>   12.5327    0.0000 </r>
       <r>   12.6538    0.0000 </r>
       <r>   20.5833    0.0000 </r>
       <r>   21.4287    0.0000 </r>
       <r>   30.5176    0.0000 </r>
      </set>
      <set comment="kpoint 69">
       <r>   -4.2283    1.0000 </r>
       <r>   -4.1556    1.0000 </r>
       <r>   -2.0017    1.0000 </r>
       <r>   -1.9128    1.0000 </r>
       <r>   -1.5029    1.0000 </r>
       <r>    6.1448   -0.0000 </r>
       <r>    7.1562   -0.0000 </r>
       <r>   12.2935    0.0000 </r>
       <r>   12.4919    0.0000 </r>
       <r>   21.0140    0.0000 </r>
       <r>   21.6709    0.0000 </r>
       <r>   30.1467    0.0000 </r>
      </set>
      <set comment="kpoint 70">
       <r>   -4.1727    1.0000 </r>
       <r>   -4.1076    1.0000 </r>
       <r>   -2.1126    1.0000 </r>
       <r>   -1.9531    1.0000 </r>
       <r>   -1.5031    1.0000 </r>
       <r>    6.3527   -0.0000 </r>
       <r>    7.1387   -0.0000 </r>
       <r>   12.0385    0.0000 </r>
       <r>   12.3380    0.0000 </r>
       <r>   21.4830    0.0000 </r>
       <r>   21.9429    0.0000 </r>
       <r>   29.7487    0.0000 </r>
      </set>
      <set comment="kpoint 71">
       <r>   -4.1114    1.0000 </r>
       <r>   -4.0574    1.0000 </r>
       <r>   -2.2286    1.0000 </r>
       <r>   -2.0016    1.0000 </r>
       <r>   -1.5032    1.0000 </r>
       <r>    6.5765   -0.0000 </r>
       <r>    7.1194   -0.0000 </r>
       <r>   11.7691    0.0000 </r>
       <r>   12.1929    0.0000 </r>
       <r>   21.9749    0.0000 </r>
       <r>   22.2321    0.0000 </r>
       <r>   29.3290    0.0000 </r>
      </set>
      <set comment="kpoint 72">
       <r>   -4.0440    1.0000 </r>
       <r>   -4.0053    1.0000 </r>
       <r>   -2.3485    1.0000 </r>
       <r>   -2.0520    1.0000 </r>
       <r>   -1.5034    1.0000 </r>
       <r>    6.8147   -0.0000 </r>
       <r>    7.1002   -0.0000 </r>
       <r>   11.4885    0.0000 </r>
       <r>   12.0590    0.0000 </r>
       <r>   22.4873    0.0000 </r>
       <r>   22.5381    0.0000 </r>
       <r>   28.8956    0.0000 </r>
      </set>
      <set comment="kpoint 73">
       <r>   -3.9706    1.0000 </r>
       <r>   -3.9524    1.0000 </r>
       <r>   -2.4707    1.0000 </r>
       <r>   -2.1032    1.0000 </r>
       <r>   -1.5035    1.0000 </r>
       <r>    7.0656   -0.0000 </r>
       <r>    7.0815   -0.0000 </r>
       <r>   11.1990    0.0000 </r>
       <r>   11.9381    0.0000 </r>
       <r>   22.8593    0.0000 </r>
       <r>   23.0162    0.0000 </r>
       <r>   28.4547    0.0000 </r>
      </set>
      <set comment="kpoint 74">
       <r>   -3.9003    1.0000 </r>
       <r>   -3.8913    1.0000 </r>
       <r>   -2.5941    1.0000 </r>
       <r>   -2.1537    1.0000 </r>
       <r>   -1.5035    1.0000 </r>
       <r>    7.0640   -0.0000 </r>
       <r>    7.3278   -0.0000 </r>
       <r>   10.9025    0.0000 </r>
       <r>   11.8317    0.0000 </r>
       <r>   23.1945    0.0000 </r>
       <r>   23.5575    0.0000 </r>
       <r>   28.0109    0.0000 </r>
      </set>
      <set comment="kpoint 75">
       <r>   -3.8491    1.0000 </r>
       <r>   -3.8060    1.0000 </r>
       <r>   -2.7101    1.0000 </r>
       <r>   -2.2012    1.0000 </r>
       <r>   -1.5026    1.0000 </r>
       <r>    7.0482   -0.0000 </r>
       <r>    7.6022   -0.0000 </r>
       <r>   10.6012    0.0000 </r>
       <r>   11.7430    0.0000 </r>
       <r>   23.5439    0.0000 </r>
       <r>   24.1064    0.0000 </r>
       <r>   27.5844    0.0000 </r>
      </set>
      <set comment="kpoint 76">
       <r>   -3.8039    1.0000 </r>
       <r>   -3.7156    1.0000 </r>
       <r>   -2.8303    1.0000 </r>
       <r>   -2.2431    1.0000 </r>
       <r>   -1.5028    1.0000 </r>
       <r>    7.0349   -0.0000 </r>
       <r>    7.8842   -0.0000 </r>
       <r>   10.2961    0.0000 </r>
       <r>   11.6681    0.0000 </r>
       <r>   23.9042    0.0000 </r>
       <r>   24.6533    0.0000 </r>
       <r>   27.1536    0.0000 </r>
      </set>
      <set comment="kpoint 77">
       <r>   -3.7654    1.0000 </r>
       <r>   -3.6200    1.0000 </r>
       <r>   -2.9530    1.0000 </r>
       <r>   -2.2810    1.0000 </r>
       <r>   -1.5029    1.0000 </r>
       <r>    7.0238   -0.0000 </r>
       <r>    8.1720   -0.0000 </r>
       <r>    9.9890   -0.0000 </r>
       <r>   11.6091    0.0000 </r>
       <r>   24.2761    0.0000 </r>
       <r>   25.1850    0.0000 </r>
       <r>   26.7182    0.0000 </r>
      </set>
      <set comment="kpoint 78">
       <r>   -3.7357    1.0000 </r>
       <r>   -3.5193    1.0000 </r>
       <r>   -3.0733    1.0000 </r>
       <r>   -2.3101    1.0000 </r>
       <r>   -1.5029    1.0000 </r>
       <r>    7.0156   -0.0000 </r>
       <r>    8.4660   -0.0000 </r>
       <r>    9.6811   -0.0000 </r>
       <r>   11.5669    0.0000 </r>
       <r>   24.6590    0.0000 </r>
       <r>   25.6728    0.0000 </r>
       <r>   26.2893    0.0000 </r>
      </set>
      <set comment="kpoint 79">
       <r>   -3.7170    1.0000 </r>
       <r>   -3.4139    1.0000 </r>
       <r>   -3.1905    1.0000 </r>
       <r>   -2.3286    1.0000 </r>
       <r>   -1.5030    1.0000 </r>
       <r>    7.0105   -0.0000 </r>
       <r>    8.7650   -0.0000 </r>
       <r>    9.3737   -0.0000 </r>
       <r>   11.5414    0.0000 </r>
       <r>   25.0524    0.0000 </r>
       <r>   25.8682    0.0000 </r>
       <r>   26.0528    0.0000 </r>
      </set>
      <set comment="kpoint 80">
       <r>   -3.7106    1.0000 </r>
       <r>   -3.3042    1.0000 </r>
       <r>   -3.3042    1.0000 </r>
       <r>   -2.3349    1.0000 </r>
       <r>   -1.5030    1.0000 </r>
       <r>    7.0088   -0.0000 </r>
       <r>    9.0680   -0.0000 </r>
       <r>    9.0680   -0.0000 </r>
       <r>   11.5329    0.0000 </r>
       <r>   25.4556    0.0000 </r>
       <r>   25.4556    0.0000 </r>
       <r>   26.2070    0.0000 </r>
      </set>
      <set comment="kpoint 81">
       <r>   -3.7106    1.0000 </r>
       <r>   -3.3042    1.0000 </r>
       <r>   -3.3042    1.0000 </r>
       <r>   -2.3349    1.0000 </r>
       <r>   -1.5030    1.0000 </r>
       <r>    7.0088   -0.0000 </r>
       <r>    9.0680   -0.0000 </r>
       <r>    9.0680   -0.0000 </r>
       <r>   11.5329    0.0000 </r>
       <r>   25.4556    0.0000 </r>
       <r>   25.4556    0.0000 </r>
       <r>   26.2070    0.0000 </r>
      </set>
      <set comment="kpoint 82">
       <r>   -3.7121    1.0000 </r>
       <r>   -3.3593    1.0000 </r>
       <r>   -3.2478    1.0000 </r>
       <r>   -2.3333    1.0000 </r>
       <r>   -1.5041    1.0000 </r>
       <r>    6.9981   -0.0000 </r>
       <r>    8.9188   -0.0000 </r>
       <r>    9.2198   -0.0000 </r>
       <r>   11.5505    0.0000 </r>
       <r>   25.2071    0.0000 </r>
       <r>   25.6615    0.0000 </r>
       <r>   26.2142    0.0000 </r>
      </set>
      <set comment="kpoint 83">
       <r>   -3.7172    1.0000 </r>
       <r>   -3.4116    1.0000 </r>
       <r>   -3.1904    1.0000 </r>
       <r>   -2.3287    1.0000 </r>
       <r>   -1.5073    1.0000 </r>
       <r>    6.9711   -0.0000 </r>
       <r>    8.7758   -0.0000 </r>
       <r>    9.3610   -0.0000 </r>
       <r>   11.6075    0.0000 </r>
       <r>   24.8980    0.0000 </r>
       <r>   25.8713    0.0000 </r>
       <r>   26.2157    0.0000 </r>
      </set>
      <set comment="kpoint 84">
       <r>   -3.7272    1.0000 </r>
       <r>   -3.4594    1.0000 </r>
       <r>   -3.1322    1.0000 </r>
       <r>   -2.3215    1.0000 </r>
       <r>   -1.5127    1.0000 </r>
       <r>    6.9340   -0.0000 </r>
       <r>    8.6394   -0.0000 </r>
       <r>    9.4799   -0.0000 </r>
       <r>   11.7088    0.0000 </r>
       <r>   24.5534    0.0000 </r>
       <r>   26.0851    0.0000 </r>
       <r>   26.2018    0.0000 </r>
      </set>
      <set comment="kpoint 85">
       <r>   -3.7433    1.0000 </r>
       <r>   -3.5008    1.0000 </r>
       <r>   -3.0735    1.0000 </r>
       <r>   -2.3120    1.0000 </r>
       <r>   -1.5203    1.0000 </r>
       <r>    6.8912   -0.0000 </r>
       <r>    8.5098   -0.0000 </r>
       <r>    9.5704   -0.0000 </r>
       <r>   11.8558    0.0000 </r>
       <r>   24.1866    0.0000 </r>
       <r>   26.1749    0.0000 </r>
       <r>   26.3028    0.0000 </r>
      </set>
      <set comment="kpoint 86">
       <r>   -3.7666    1.0000 </r>
       <r>   -3.5342    1.0000 </r>
       <r>   -3.0145    1.0000 </r>
       <r>   -2.3008    1.0000 </r>
       <r>   -1.5301    1.0000 </r>
       <r>    6.8454   -0.0000 </r>
       <r>    8.3871   -0.0000 </r>
       <r>    9.6322   -0.0000 </r>
       <r>   12.0453    0.0000 </r>
       <r>   23.8061    0.0000 </r>
       <r>   26.1396    0.0000 </r>
       <r>   26.5245    0.0000 </r>
      </set>
      <set comment="kpoint 87">
       <r>   -3.7968    1.0000 </r>
       <r>   -3.5592    1.0000 </r>
       <r>   -2.9556    1.0000 </r>
       <r>   -2.2880    1.0000 </r>
       <r>   -1.5419    1.0000 </r>
       <r>    6.7987   -0.0000 </r>
       <r>    8.2716   -0.0000 </r>
       <r>    9.6689   -0.0000 </r>
       <r>   12.2709    0.0000 </r>
       <r>   23.4176    0.0000 </r>
       <r>   26.0999    0.0000 </r>
       <r>   26.7502    0.0000 </r>
      </set>
      <set comment="kpoint 88">
       <r>   -3.8315    1.0000 </r>
       <r>   -3.5770    1.0000 </r>
       <r>   -2.8967    1.0000 </r>
       <r>   -2.2729    1.0000 </r>
       <r>   -1.5506    1.0000 </r>
       <r>    6.7525   -0.0000 </r>
       <r>    8.1636   -0.0000 </r>
       <r>    9.6863   -0.0000 </r>
       <r>   12.5256    0.0000 </r>
       <r>   23.0263    0.0000 </r>
       <r>   26.0600    0.0000 </r>
       <r>   26.9819    0.0000 </r>
      </set>
      <set comment="kpoint 89">
       <r>   -3.8696    1.0000 </r>
       <r>   -3.5898    1.0000 </r>
       <r>   -2.8387    1.0000 </r>
       <r>   -2.2586    1.0000 </r>
       <r>   -1.5666    1.0000 </r>
       <r>    6.7076   -0.0000 </r>
       <r>    8.0633   -0.0000 </r>
       <r>    9.6897   -0.0000 </r>
       <r>   12.8003    0.0000 </r>
       <r>   22.6342    0.0000 </r>
       <r>   26.0193    0.0000 </r>
       <r>   27.2155    0.0000 </r>
      </set>
      <set comment="kpoint 90">
       <r>   -3.9086    1.0000 </r>
       <r>   -3.6013    1.0000 </r>
       <r>   -2.7892    1.0000 </r>
       <r>   -2.2493    1.0000 </r>
       <r>   -1.5884    1.0000 </r>
       <r>    6.6646   -0.0000 </r>
       <r>    7.9681   -0.0000 </r>
       <r>    9.6824   -0.0000 </r>
       <r>   13.0864    0.0000 </r>
       <r>   22.2451    0.0000 </r>
       <r>   25.9789    0.0000 </r>
       <r>   27.4342    0.0000 </r>
      </set>
      <set comment="kpoint 91">
       <r>   -3.9462    1.0000 </r>
       <r>   -3.6084    1.0000 </r>
       <r>   -2.7343    1.0000 </r>
       <r>   -2.2352    1.0000 </r>
       <r>   -1.6078    1.0000 </r>
       <r>    6.6247   -0.0000 </r>
       <r>    7.8837   -0.0000 </r>
       <r>    9.6707   -0.0000 </r>
       <r>   13.3836    0.0000 </r>
       <r>   21.8623    0.0000 </r>
       <r>   25.9422    0.0000 </r>
       <r>   27.6751    0.0000 </r>
      </set>
      <set comment="kpoint 92">
       <r>   -3.9816    1.0000 </r>
       <r>   -3.6126    1.0000 </r>
       <r>   -2.6813    1.0000 </r>
       <r>   -2.2203    1.0000 </r>
       <r>   -1.6284    1.0000 </r>
       <r>    6.5881   -0.0000 </r>
       <r>    7.8076   -0.0000 </r>
       <r>    9.6577   -0.0000 </r>
       <r>   13.6845    0.0000 </r>
       <r>   21.4894    0.0000 </r>
       <r>   25.9093    0.0000 </r>
       <r>   27.9194    0.0000 </r>
      </set>
      <set comment="kpoint 93">
       <r>   -4.0142    1.0000 </r>
       <r>   -3.6171    1.0000 </r>
       <r>   -2.6309    1.0000 </r>
       <r>   -2.2074    1.0000 </r>
       <r>   -1.6495    1.0000 </r>
       <r>    6.5549   -0.0000 </r>
       <r>    7.7400   -0.0000 </r>
       <r>    9.6417   -0.0000 </r>
       <r>   13.9825    0.0000 </r>
       <r>   21.1291    0.0000 </r>
       <r>   25.8790    0.0000 </r>
       <r>   28.1666    0.0000 </r>
      </set>
      <set comment="kpoint 94">
       <r>   -4.0433    1.0000 </r>
       <r>   -3.6207    1.0000 </r>
       <r>   -2.5838    1.0000 </r>
       <r>   -2.1956    1.0000 </r>
       <r>   -1.6709    1.0000 </r>
       <r>    6.5256   -0.0000 </r>
       <r>    7.6811   -0.0000 </r>
       <r>    9.6259   -0.0000 </r>
       <r>   14.2724    0.0000 </r>
       <r>   20.7867    0.0000 </r>
       <r>   25.8523    0.0000 </r>
       <r>   28.4161    0.0000 </r>
      </set>
      <set comment="kpoint 95">
       <r>   -4.0684    1.0000 </r>
       <r>   -3.6236    1.0000 </r>
       <r>   -2.5409    1.0000 </r>
       <r>   -2.1850    1.0000 </r>
       <r>   -1.6916    1.0000 </r>
       <r>    6.5004   -0.0000 </r>
       <r>    7.6310   -0.0000 </r>
       <r>    9.6114   -0.0000 </r>
       <r>   14.5475    0.0000 </r>
       <r>   20.4682    0.0000 </r>
       <r>   25.8295    0.0000 </r>
       <r>   28.6666    0.0000 </r>
      </set>
      <set comment="kpoint 96">
       <r>   -4.0893    1.0000 </r>
       <r>   -3.6258    1.0000 </r>
       <r>   -2.5033    1.0000 </r>
       <r>   -2.1760    1.0000 </r>
       <r>   -1.7108    1.0000 </r>
       <r>    6.4795   -0.0000 </r>
       <r>    7.5898   -0.0000 </r>
       <r>    9.5988   -0.0000 </r>
       <r>   14.7992    0.0000 </r>
       <r>   20.1818    0.0000 </r>
       <r>   25.8107    0.0000 </r>
       <r>   28.9157    0.0000 </r>
      </set>
      <set comment="kpoint 97">
       <r>   -4.1057    1.0000 </r>
       <r>   -3.6275    1.0000 </r>
       <r>   -2.4719    1.0000 </r>
       <r>   -2.1686    1.0000 </r>
       <r>   -1.7275    1.0000 </r>
       <r>    6.4631   -0.0000 </r>
       <r>    7.5577   -0.0000 </r>
       <r>    9.5886   -0.0000 </r>
       <r>   15.0166    0.0000 </r>
       <r>   19.9378    0.0000 </r>
       <r>   25.7961    0.0000 </r>
       <r>   29.1586    0.0000 </r>
      </set>
      <set comment="kpoint 98">
       <r>   -4.1192    1.0000 </r>
       <r>   -3.6309    1.0000 </r>
       <r>   -2.4530    1.0000 </r>
       <r>   -2.1638    1.0000 </r>
       <r>   -1.7428    1.0000 </r>
       <r>    6.4512   -0.0000 </r>
       <r>    7.5329   -0.0000 </r>
       <r>    9.5779   -0.0000 </r>
       <r>   15.1861    0.0000 </r>
       <r>   19.7435    0.0000 </r>
       <r>   25.7813    0.0000 </r>
       <r>   29.3799    0.0000 </r>
      </set>
      <set comment="kpoint 99">
       <r>   -4.1263    1.0000 </r>
       <r>   -3.6316    1.0000 </r>
       <r>   -2.4381    1.0000 </r>
       <r>   -2.1602    1.0000 </r>
       <r>   -1.7510    1.0000 </r>
       <r>    6.4442   -0.0000 </r>
       <r>    7.5192   -0.0000 </r>
       <r>    9.5733   -0.0000 </r>
       <r>   15.2958    0.0000 </r>
       <r>   19.6227    0.0000 </r>
       <r>   25.7749    0.0000 </r>
       <r>   29.5605    0.0000 </r>
      </set>
      <set comment="kpoint 100">
       <r>   -4.1308    1.0000 </r>
       <r>   -3.6323    1.0000 </r>
       <r>   -2.4336    1.0000 </r>
       <r>   -2.1650    1.0000 </r>
       <r>   -1.7612    1.0000 </r>
       <r>    6.4407   -0.0000 </r>
       <r>    7.5142   -0.0000 </r>
       <r>    9.5710   -0.0000 </r>
       <r>   15.3317    0.0000 </r>
       <r>   19.5746    0.0000 </r>
       <r>   25.7687    0.0000 </r>
       <r>   29.6347    0.0000 </r>
      </set>
     </set>
    </set>
   </array>
  </eigenvalues>
  <separator name="orbital magnetization" >
   <v name="MAGDIPOLOUT">      0.00000000      0.00000000      0.00000000</v>
  </separator>
  <dos>
   <i name="efermi">      4.61820083 </i>
   <total>
    <array>
     <dimension dim="1">gridpoints</dimension>
     <dimension dim="2">spin</dimension>
     <field>energy</field>
     <field>total</field>
     <field>integrated</field>
     <set>
      <set comment="spin 1">
       <r>    -6.5785     0.0000     0.0000 </r>
       <r>    -6.5649     0.0000     0.0000 </r>
       <r>    -6.5512     0.0000     0.0000 </r>
       <r>    -6.5376     0.0000     0.0000 </r>
       <r>    -6.5239     0.0000     0.0000 </r>
       <r>    -6.5103     0.0000     0.0000 </r>
       <r>    -6.4966     0.0000     0.0000 </r>
       <r>    -6.4829     0.0000     0.0000 </r>
       <r>    -6.4693     0.0000     0.0000 </r>
       <r>    -6.4556     0.0000     0.0000 </r>
       <r>    -6.4420     0.0000     0.0000 </r>
       <r>    -6.4283     0.0000     0.0000 </r>
       <r>    -6.4147     0.0000     0.0000 </r>
       <r>    -6.4010     0.0000     0.0000 </r>
       <r>    -6.3873     0.0000     0.0000 </r>
       <r>    -6.3737     0.0000     0.0000 </r>
       <r>    -6.3600     0.0000     0.0000 </r>
       <r>    -6.3464     0.0000     0.0000 </r>
       <r>    -6.3327     0.0000     0.0000 </r>
       <r>    -6.3191     0.0000     0.0000 </r>
       <r>    -6.3054     0.0000     0.0000 </r>
       <r>    -6.2918     0.0000     0.0000 </r>
       <r>    -6.2781     0.0000     0.0000 </r>
       <r>    -6.2644     0.0000     0.0000 </r>
       <r>    -6.2508     0.0000     0.0000 </r>
       <r>    -6.2371     0.0000     0.0000 </r>
       <r>    -6.2235     0.0000     0.0000 </r>
       <r>    -6.2098     0.0000     0.0000 </r>
       <r>    -6.1962     0.0000     0.0000 </r>
       <r>    -6.1825    -0.0000    -0.0000 </r>
       <r>    -6.1688    -0.0000    -0.0000 </r>
       <r>    -6.1552    -0.0000    -0.0000 </r>
       <r>    -6.1415    -0.0000    -0.0000 </r>
       <r>    -6.1279    -0.0000    -0.0000 </r>
       <r>    -6.1142    -0.0000    -0.0000 </r>
       <r>    -6.1006    -0.0000    -0.0000 </r>
       <r>    -6.0869    -0.0000    -0.0000 </r>
       <r>    -6.0733    -0.0000    -0.0000 </r>
       <r>    -6.0596    -0.0000    -0.0000 </r>
       <r>    -6.0459    -0.0000    -0.0000 </r>
       <r>    -6.0323    -0.0000    -0.0000 </r>
       <r>    -6.0186    -0.0000    -0.0000 </r>
       <r>    -6.0050    -0.0000    -0.0000 </r>
       <r>    -5.9913    -0.0000    -0.0000 </r>
       <r>    -5.9777    -0.0000    -0.0000 </r>
       <r>    -5.9640    -0.0000    -0.0000 </r>
       <r>    -5.9503    -0.0000    -0.0000 </r>
       <r>    -5.9367    -0.0000    -0.0000 </r>
       <r>    -5.9230    -0.0000    -0.0000 </r>
       <r>    -5.9094    -0.0000    -0.0000 </r>
       <r>    -5.8957    -0.0000    -0.0000 </r>
       <r>    -5.8821    -0.0000    -0.0000 </r>
       <r>    -5.8684    -0.0000    -0.0000 </r>
[...]
      </set>
      <set comment="kpoint 83">
       <set comment="band 1">
        <r>  0.0004  0.0168  0.8745 </r>
       </set>
       <set comment="band 2">
        <r>  0.0003  0.0215  0.8933 </r>
       </set>
       <set comment="band 3">
        <r>  0.0000  0.0237  0.8954 </r>
       </set>
       <set comment="band 4">
        <r>  0.0107  0.0002  0.9416 </r>
       </set>
       <set comment="band 5">
        <r>  0.0000  0.0000  0.9811 </r>
       </set>
       <set comment="band 6">
        <r>  0.7262  0.0063  0.0401 </r>
       </set>
       <set comment="band 7">
        <r>  0.0000  0.4926  0.1164 </r>
       </set>
       <set comment="band 8">
        <r>  0.0102  0.4791  0.1201 </r>
       </set>
       <set comment="band 9">
        <r>  0.0005  0.3130  0.2261 </r>
       </set>
       <set comment="band 10">
        <r>  0.0015  0.0735  0.2006 </r>
       </set>
       <set comment="band 11">
        <r>  0.0000  0.0291  0.1915 </r>
       </set>
       <set comment="band 12">
        <r>  0.0102  0.3313  0.0834 </r>
       </set>
      </set>
      <set comment="kpoint 84">
       <set comment="band 1">
        <r>  0.0011  0.0161  0.8752 </r>
       </set>
       <set comment="band 2">
        <r>  0.0004  0.0213  0.8919 </r>
       </set>
       <set comment="band 3">
        <r>  0.0000  0.0241  0.8959 </r>
       </set>
       <set comment="band 4">
        <r>  0.0102  0.0003  0.9423 </r>
       </set>
       <set comment="band 5">
        <r>  0.0000  0.0001  0.9809 </r>
       </set>
       <set comment="band 6">
        <r>  0.7170  0.0114  0.0423 </r>
       </set>
       <set comment="band 7">
        <r>  0.0000  0.4933  0.1157 </r>
       </set>
       <set comment="band 8">
        <r>  0.0179  0.4675  0.1238 </r>
       </set>
       <set comment="band 9">
        <r>  0.0014  0.3197  0.2198 </r>
       </set>
       <set comment="band 10">
        <r>  0.0039  0.0946  0.1968 </r>
       </set>
       <set comment="band 11">
        <r>  0.0000  0.0285  0.1841 </r>
       </set>
       <set comment="band 12">
        <r>  0.0189  0.2875  0.1034 </r>
       </set>
      </set>
      <set comment="kpoint 85">
       <set comment="band 1">
        <r>  0.0020  0.0150  0.8764 </r>
       </set>
       <set comment="band 2">
        <r>  0.0005  0.0213  0.8897 </r>
       </set>
       <set comment="band 3">
        <r>  0.0000  0.0246  0.8966 </r>
       </set>
       <set comment="band 4">
        <r>  0.0096  0.0006  0.9432 </r>
       </set>
       <set comment="band 5">
        <r>  0.0000  0.0002  0.9805 </r>
       </set>
       <set comment="band 6">
        <r>  0.7076  0.0164  0.0446 </r>
       </set>
       <set comment="band 7">
        <r>  0.0000  0.4940  0.1149 </r>
       </set>
       <set comment="band 8">
        <r>  0.0249  0.4538  0.1295 </r>
       </set>
       <set comment="band 9">
        <r>  0.0029  0.3291  0.2108 </r>
       </set>
       <set comment="band 10">
        <r>  0.0070  0.1098  0.1953 </r>
       </set>
       <set comment="band 11">
        <r>  0.0272  0.2492  0.1208 </r>
       </set>
       <set comment="band 12">
        <r>  0.0000  0.0279  0.1767 </r>
       </set>
      </set>
      <set comment="kpoint 86">
       <set comment="band 1">
        <r>  0.0033  0.0135  0.8781 </r>
       </set>
       <set comment="band 2">
        <r>  0.0003  0.0216  0.8869 </r>
       </set>
       <set comment="band 3">
        <r>  0.0000  0.0250  0.8973 </r>
       </set>
       <set comment="band 4">
        <r>  0.0088  0.0008  0.9443 </r>
       </set>
       <set comment="band 5">
        <r>  0.0000  0.0003  0.9801 </r>
       </set>
       <set comment="band 6">
        <r>  0.6987  0.0212  0.0468 </r>
       </set>
       <set comment="band 7">
        <r>  0.0000  0.4946  0.1142 </r>
       </set>
       <set comment="band 8">
        <r>  0.0306  0.4393  0.1367 </r>
       </set>
       <set comment="band 9">
        <r>  0.0050  0.3400  0.2000 </r>
       </set>
       <set comment="band 10">
        <r>  0.0105  0.1203  0.1956 </r>
       </set>
       <set comment="band 11">
        <r>  0.0346  0.2170  0.1352 </r>
       </set>
       <set comment="band 12">
        <r>  0.0000  0.0273  0.1694 </r>
       </set>
      </set>
      <set comment="kpoint 87">
       <set comment="band 1">
        <r>  0.0048  0.0119  0.8801 </r>
       </set>
       <set comment="band 2">
        <r>  0.0002  0.0220  0.8839 </r>
       </set>
       <set comment="band 3">
        <r>  0.0000  0.0253  0.8981 </r>
       </set>
       <set comment="band 4">
        <r>  0.0080  0.0011  0.9455 </r>
       </set>
       <set comment="band 5">
        <r>  0.0000  0.0004  0.9796 </r>
       </set>
       <set comment="band 6">
        <r>  0.6906  0.0255  0.0488 </r>
       </set>
       <set comment="band 7">
        <r>  0.0000  0.4952  0.1135 </r>
       </set>
       <set comment="band 8">
        <r>  0.0353  0.4255  0.1442 </r>
       </set>
       <set comment="band 9">
        <r>  0.0072  0.3515  0.1885 </r>
       </set>
       <set comment="band 10">
        <r>  0.0142  0.1269  0.1975 </r>
       </set>
       <set comment="band 11">
        <r>  0.0407  0.1910  0.1469 </r>
       </set>
       <set comment="band 12">
        <r>  0.0000  0.0266  0.1622 </r>
       </set>
      </set>
      <set comment="kpoint 88">
       <set comment="band 1">
        <r>  0.0063  0.0103  0.8817 </r>
       </set>
       <set comment="band 2">
        <r>  0.0000  0.0223  0.8812 </r>
       </set>
       <set comment="band 3">
        <r>  0.0000  0.0257  0.8989 </r>
       </set>
       <set comment="band 4">
        <r>  0.0071  0.0014  0.9468 </r>
       </set>
       <set comment="band 5">
        <r>  0.0000  0.0005  0.9790 </r>
       </set>
       <set comment="band 6">
        <r>  0.6832  0.0295  0.0504 </r>
       </set>
       <set comment="band 7">
        <r>  0.0000  0.4957  0.1127 </r>
       </set>
       <set comment="band 8">
        <r>  0.0391  0.4130  0.1514 </r>
       </set>
       <set comment="band 9">
        <r>  0.0094  0.3629  0.1768 </r>
       </set>
       <set comment="band 10">
        <r>  0.0179  0.1305  0.2006 </r>
       </set>
       <set comment="band 11">
        <r>  0.0456  0.1701  0.1563 </r>
       </set>
       <set comment="band 12">
        <r>  0.0000  0.0260  0.1551 </r>
       </set>
      </set>
      <set comment="kpoint 89">
       <set comment="band 1">
        <r>  0.0077  0.0089  0.8829 </r>
       </set>
       <set comment="band 2">
        <r>  0.0000  0.0226  0.8788 </r>
       </set>
       <set comment="band 3">
        <r>  0.0000  0.0259  0.8998 </r>
       </set>
       <set comment="band 4">
        <r>  0.0062  0.0016  0.9482 </r>
       </set>
       <set comment="band 5">
        <r>  0.0000  0.0006  0.9784 </r>
       </set>
       <set comment="band 6">
        <r>  0.6766  0.0330  0.0518 </r>
       </set>
       <set comment="band 7">
        <r>  0.0000  0.4961  0.1121 </r>
       </set>
       <set comment="band 8">
        <r>  0.0423  0.4021  0.1579 </r>
       </set>
       <set comment="band 9">
        <r>  0.0111  0.3738  0.1654 </r>
       </set>
       <set comment="band 10">
        <r>  0.0216  0.1316  0.2049 </r>
       </set>
       <set comment="band 11">
        <r>  0.0497  0.1533  0.1639 </r>
       </set>
       <set comment="band 12">
        <r>  0.0000  0.0253  0.1481 </r>
       </set>
      </set>
      <set comment="kpoint 90">
       <set comment="band 1">
        <r>  0.0090  0.0075  0.8836 </r>
       </set>
       <set comment="band 2">
        <r>  0.0000  0.0229  0.8772 </r>
       </set>
       <set comment="band 3">
        <r>  0.0000  0.0263  0.9011 </r>
       </set>
       <set comment="band 4">
        <r>  0.0053  0.0019  0.9498 </r>
       </set>
       <set comment="band 5">
        <r>  0.0000  0.0007  0.9778 </r>
       </set>
       <set comment="band 6">
        <r>  0.6706  0.0362  0.0529 </r>
       </set>
       <set comment="band 7">
        <r>  0.0000  0.4963  0.1113 </r>
       </set>
       <set comment="band 8">
        <r>  0.0451  0.3924  0.1635 </r>
       </set>
       <set comment="band 9">
        <r>  0.0123  0.3845  0.1543 </r>
       </set>
       <set comment="band 10">
        <r>  0.0253  0.1304  0.2102 </r>
       </set>
       <set comment="band 11">
        <r>  0.0530  0.1398  0.1700 </r>
       </set>
       <set comment="band 12">
        <r>  0.0000  0.0248  0.1417 </r>
       </set>
      </set>
      <set comment="kpoint 91">
       <set comment="band 1">
        <r>  0.0103  0.0062  0.8841 </r>
       </set>
       <set comment="band 2">
        <r>  0.0001  0.0230  0.8757 </r>
       </set>
       <set comment="band 3">
        <r>  0.0000  0.0265  0.9019 </r>
       </set>
       <set comment="band 4">
        <r>  0.0044  0.0021  0.9512 </r>
       </set>
       <set comment="band 5">
        <r>  0.0000  0.0008  0.9771 </r>
       </set>
       <set comment="band 6">
        <r>  0.6653  0.0390  0.0538 </r>
       </set>
       <set comment="band 7">
        <r>  0.0000  0.4967  0.1106 </r>
       </set>
       <set comment="band 8">
        <r>  0.0477  0.3846  0.1683 </r>
       </set>
       <set comment="band 9">
        <r>  0.0130  0.3954  0.1434 </r>
       </set>
       <set comment="band 10">
        <r>  0.0290  0.1273  0.2164 </r>
       </set>
       <set comment="band 11">
        <r>  0.0557  0.1289  0.1750 </r>
       </set>
       <set comment="band 12">
        <r>  0.0000  0.0239  0.1351 </r>
       </set>
      </set>
      <set comment="kpoint 92">
       <set comment="band 1">
        <r>  0.0114  0.0051  0.8843 </r>
       </set>
       <set comment="band 2">
        <r>  0.0002  0.0231  0.8744 </r>
       </set>
       <set comment="band 3">
        <r>  0.0000  0.0268  0.9028 </r>
       </set>
       <set comment="band 4">
        <r>  0.0035  0.0023  0.9525 </r>
       </set>
       <set comment="band 5">
        <r>  0.0000  0.0009  0.9765 </r>
       </set>
       <set comment="band 6">
        <r>  0.6607  0.0415  0.0545 </r>
       </set>
       <set comment="band 7">
        <r>  0.0000  0.4970  0.1101 </r>
       </set>
       <set comment="band 8">
        <r>  0.0500  0.3778  0.1723 </r>
       </set>
       <set comment="band 9">
        <r>  0.0129  0.4068  0.1325 </r>
       </set>
       <set comment="band 10">
        <r>  0.0327  0.1222  0.2235 </r>
       </set>
       <set comment="band 11">
        <r>  0.0579  0.1199  0.1791 </r>
       </set>
       <set comment="band 12">
        <r>  0.0000  0.0230  0.1288 </r>
       </set>
      </set>
      <set comment="kpoint 93">
       <set comment="band 1">
        <r>  0.0125  0.0040  0.8844 </r>
       </set>
       <set comment="band 2">
        <r>  0.0004  0.0232  0.8735 </r>
       </set>
       <set comment="band 3">
        <r>  0.0000  0.0270  0.9036 </r>
       </set>
       <set comment="band 4">
        <r>  0.0028  0.0026  0.9538 </r>
       </set>
       <set comment="band 5">
        <r>  0.0000  0.0009  0.9760 </r>
       </set>
       <set comment="band 6">
        <r>  0.6566  0.0437  0.0551 </r>
       </set>
       <set comment="band 7">
        <r>  0.0000  0.4973  0.1095 </r>
       </set>
       <set comment="band 8">
        <r>  0.0521  0.3723  0.1757 </r>
       </set>
       <set comment="band 9">
        <r>  0.0123  0.4191  0.1213 </r>
       </set>
       <set comment="band 10">
        <r>  0.0364  0.1148  0.2317 </r>
       </set>
       <set comment="band 11">
        <r>  0.0598  0.1126  0.1824 </r>
       </set>
       <set comment="band 12">
        <r>  0.0000  0.0218  0.1228 </r>
       </set>
      </set>
      <set comment="kpoint 94">
       <set comment="band 1">
        <r>  0.0134  0.0031  0.8843 </r>
       </set>
       <set comment="band 2">
        <r>  0.0005  0.0233  0.8728 </r>
       </set>
       <set comment="band 3">
        <r>  0.0000  0.0273  0.9042 </r>
       </set>
       <set comment="band 4">
        <r>  0.0021  0.0027  0.9550 </r>
       </set>
       <set comment="band 5">
        <r>  0.0000  0.0009  0.9755 </r>
       </set>
       <set comment="band 6">
        <r>  0.6531  0.0457  0.0554 </r>
       </set>
       <set comment="band 7">
        <r>  0.0000  0.4976  0.1091 </r>
       </set>
       <set comment="band 8">
        <r>  0.0540  0.3677  0.1785 </r>
       </set>
       <set comment="band 9">
        <r>  0.0111  0.4325  0.1097 </r>
       </set>
       <set comment="band 10">
        <r>  0.0402  0.1053  0.2409 </r>
       </set>
       <set comment="band 11">
        <r>  0.0612  0.1068  0.1850 </r>
       </set>
       <set comment="band 12">
        <r>  0.0000  0.0205  0.1171 </r>
       </set>
      </set>
      <set comment="kpoint 95">
       <set comment="band 1">
        <r>  0.0142  0.0023  0.8843 </r>
       </set>
       <set comment="band 2">
        <r>  0.0006  0.0233  0.8722 </r>
       </set>
       <set comment="band 3">
        <r>  0.0000  0.0276  0.9047 </r>
       </set>
       <set comment="band 4">
        <r>  0.0015  0.0029  0.9560 </r>
       </set>
       <set comment="band 5">
        <r>  0.0000  0.0008  0.9752 </r>
       </set>
       <set comment="band 6">
        <r>  0.6502  0.0473  0.0557 </r>
       </set>
       <set comment="band 7">
        <r>  0.0000  0.4978  0.1087 </r>
       </set>
       <set comment="band 8">
        <r>  0.0556  0.3639  0.1807 </r>
       </set>
       <set comment="band 9">
        <r>  0.0093  0.4473  0.0976 </r>
       </set>
       <set comment="band 10">
        <r>  0.0441  0.0935  0.2511 </r>
       </set>
       <set comment="band 11">
        <r>  0.0624  0.1022  0.1871 </r>
       </set>
       <set comment="band 12">
        <r>  0.0000  0.0190  0.1120 </r>
       </set>
      </set>
      <set comment="kpoint 96">
       <set comment="band 1">
        <r>  0.0148  0.0017  0.8842 </r>
       </set>
       <set comment="band 2">
        <r>  0.0007  0.0233  0.8717 </r>
       </set>
       <set comment="band 3">
        <r>  0.0000  0.0279  0.9051 </r>
       </set>
       <set comment="band 4">
        <r>  0.0009  0.0030  0.9569 </r>
       </set>
       <set comment="band 5">
        <r>  0.0000  0.0006  0.9750 </r>
       </set>
       <set comment="band 6">
        <r>  0.6478  0.0487  0.0558 </r>
       </set>
       <set comment="band 7">
        <r>  0.0000  0.4980  0.1083 </r>
       </set>
       <set comment="band 8">
        <r>  0.0570  0.3609  0.1825 </r>
       </set>
       <set comment="band 9">
        <r>  0.0071  0.4633  0.0852 </r>
       </set>
       <set comment="band 10">
        <r>  0.0480  0.0799  0.2621 </r>
       </set>
       <set comment="band 11">
        <r>  0.0633  0.0986  0.1888 </r>
       </set>
       <set comment="band 12">
        <r>  0.0000  0.0166  0.1076 </r>
       </set>
      </set>
      <set comment="kpoint 97">
       <set comment="band 1">
        <r>  0.0154  0.0011  0.8841 </r>
       </set>
       <set comment="band 2">
        <r>  0.0008  0.0234  0.8713 </r>
       </set>
       <set comment="band 3">
        <r>  0.0000  0.0283  0.9052 </r>
       </set>
       <set comment="band 4">
        <r>  0.0005  0.0031  0.9576 </r>
       </set>
       <set comment="band 5">
        <r>  0.0000  0.0004  0.9749 </r>
       </set>
       <set comment="band 6">
        <r>  0.6459  0.0497  0.0559 </r>
       </set>
       <set comment="band 7">
        <r>  0.0000  0.4981  0.1081 </r>
       </set>
       <set comment="band 8">
        <r>  0.0581  0.3586  0.1839 </r>
       </set>
       <set comment="band 9">
        <r>  0.0047  0.4796  0.0731 </r>
       </set>
       <set comment="band 10">
        <r>  0.0517  0.0653  0.2732 </r>
       </set>
       <set comment="band 11">
        <r>  0.0639  0.0959  0.1900 </r>
       </set>
       <set comment="band 12">
        <r>  0.0000  0.0137  0.1042 </r>
       </set>
      </set>
      <set comment="kpoint 98">
       <set comment="band 1">
        <r>  0.0158  0.0007  0.8841 </r>
       </set>
       <set comment="band 2">
        <r>  0.0009  0.0234  0.8713 </r>
       </set>
       <set comment="band 3">
        <r>  0.0000  0.0286  0.9055 </r>
       </set>
       <set comment="band 4">
        <r>  0.0002  0.0032  0.9582 </r>
       </set>
       <set comment="band 5">
        <r>  0.0000  0.0002  0.9749 </r>
       </set>
       <set comment="band 6">
        <r>  0.6446  0.0504  0.0560 </r>
       </set>
       <set comment="band 7">
        <r>  0.0000  0.4982  0.1078 </r>
       </set>
       <set comment="band 8">
        <r>  0.0587  0.3569  0.1848 </r>
       </set>
       <set comment="band 9">
        <r>  0.0024  0.4944  0.0623 </r>
       </set>
       <set comment="band 10">
        <r>  0.0551  0.0518  0.2832 </r>
       </set>
       <set comment="band 11">
        <r>  0.0644  0.0939  0.1910 </r>
       </set>
       <set comment="band 12">
        <r>  0.0000  0.0096  0.1027 </r>
       </set>
      </set>
      <set comment="kpoint 99">
       <set comment="band 1">
        <r>  0.0160  0.0005  0.8841 </r>
       </set>
       <set comment="band 2">
        <r>  0.0009  0.0234  0.8711 </r>
       </set>
       <set comment="band 3">
        <r>  0.0000  0.0288  0.9055 </r>
       </set>
       <set comment="band 4">
        <r>  0.0001  0.0032  0.9585 </r>
       </set>
       <set comment="band 5">
        <r>  0.0000  0.0001  0.9750 </r>
       </set>
       <set comment="band 6">
        <r>  0.6438  0.0509  0.0560 </r>
       </set>
       <set comment="band 7">
        <r>  0.0000  0.4982  0.1076 </r>
       </set>
       <set comment="band 8">
        <r>  0.0592  0.3559  0.1853 </r>
       </set>
       <set comment="band 9">
        <r>  0.0006  0.5054  0.0546 </r>
       </set>
       <set comment="band 10">
        <r>  0.0574  0.0416  0.2905 </r>
       </set>
       <set comment="band 11">
        <r>  0.0647  0.0928  0.1915 </r>
       </set>
       <set comment="band 12">
        <r>  0.0000  0.0038  0.1039 </r>
       </set>
      </set>
      <set comment="kpoint 100">
       <set comment="band 1">
        <r>  0.0160  0.0004  0.8842 </r>
       </set>
       <set comment="band 2">
        <r>  0.0009  0.0234  0.8711 </r>
       </set>
       <set comment="band 3">
        <r>  0.0000  0.0288  0.9055 </r>
       </set>
       <set comment="band 4">
        <r>  0.0000  0.0032  0.9587 </r>
       </set>
       <set comment="band 5">
        <r>  0.0000  0.0000  0.9751 </r>
       </set>
       <set comment="band 6">
        <r>  0.6436  0.0511  0.0560 </r>
       </set>
       <set comment="band 7">
        <r>  0.0000  0.4983  0.1076 </r>
       </set>
       <set comment="band 8">
        <r>  0.0593  0.3557  0.1855 </r>
       </set>
       <set comment="band 9">
        <r>  0.0000  0.5095  0.0518 </r>
       </set>
       <set comment="band 10">
        <r>  0.0581  0.0377  0.2932 </r>
       </set>
       <set comment="band 11">
        <r>  0.0649  0.0925  0.1915 </r>
       </set>
       <set comment="band 12">
        <r>  0.0000  0.0000  0.1057 </r>
       </set>
      </set>
     </set>
    </set>
   </array>
  </projected>
 </calculation>
 <structure name="finalpos" >
  <crystal>
   <varray name="basis" >
    <v>       0.00000000       2.15000000       2.15000000 </v>
    <v>       2.15000000       0.00000000       2.15000000 </v>
    <v>       2.15000000       2.15000000       0.00000000 </v>
   </varray>
   <i name="volume">     19.87675000 </i>
   <varray name="rec_basis" >
    <v>      -0.23255814       0.23255814       0.23255814 </v>
    <v>       0.23255814      -0.23255814       0.23255814 </v>
    <v>       0.23255814       0.23255814      -0.23255814 </v>
   </varray>
  </crystal>
  <varray name="positions" >
   <v>       0.00000000       0.00000000       0.00000000 </v>
  </varray>
 </structure>
</modeling>
