bcc Fe                                  
   2.82000000000000     
    -0.506486    0.506486    0.506486
     0.506486   -0.506486    0.506486
     0.506486    0.506486   -0.506486
   Fe
     1
Direct
  0.000000  0.000000  0.000000
 
   32   32   32
  95.028      92.845      86.614      77.206      65.803      53.638      41.781      31.052      22.005      14.953    
  9.9723      6.8901      5.2942      4.5981      4.2124      3.9703      3.8884      3.9703      4.2124      4.5981    
  5.2942      6.8901      9.9723      14.953      22.005      31.052      41.781      53.638      65.803      77.206    
  86.614      92.845      92.845      92.123      87.262      78.953      68.285      56.478      44.652      33.700    
  24.251      16.690      11.169      7.5940      5.6287      4.7369      4.3014      4.0127      3.8785      3.9055    
  4.0927      4.4289      4.9538      6.1358      8.5873      12.787      18.993      27.214      37.223      48.553    
  60.487      72.047      82.059      89.320      86.614      87.262      83.907      77.037      67.581      56.676    
  45.435      34.782      25.400      17.728      11.975      8.1180      5.8959      4.8374      4.3509      4.0278    
  3.8490      3.8236      3.9526      4.2306      4.6454      5.4477      7.2265      10.508      15.632      22.701    
  31.579      41.899      53.054      64.191      74.244      82.059      77.206      78.953      77.037      71.740    
  63.799      54.214      44.028      34.152      25.286      17.901      12.247      8.3565      6.0344      4.8802    
  4.3553      4.0120      3.7999      3.7296      3.8027      4.0179      4.3652      4.8958      6.0613      8.4070    
  12.340      18.057      25.522      34.471      44.415      54.632      64.191      72.047      65.803      68.285    
  67.581      63.799      57.481      49.457      40.652      31.920      23.941      17.191      11.941      8.2588    
  6.0054      4.8483      4.3132      3.9642      3.7322      3.6277      3.6523      3.8062      4.0871      4.4836    
  5.1849      6.6941      9.4610      13.766      19.678      27.041      35.483      44.415      53.054      60.487    
  53.638      56.478      56.676      54.214      49.457      43.056      35.793      28.427      21.587      15.727    
  11.117      7.8423      5.8068      4.7376      4.2272      3.8859      3.6476      3.5217      3.5084      3.6080    
  3.8222      4.1475      4.5938      5.4644      7.2139      10.186      14.544      20.247      27.041      34.471    
  41.899      48.553      41.781      44.652      45.435      44.028      40.652      35.793      30.081      24.157    
  18.576      13.747      9.9200      7.1857      5.4737      4.5611      4.1042      3.7813      3.5491      3.4144    
  3.3755      3.4316      3.5855      3.8404      4.1916      4.6869      5.6678      7.5061      10.443      14.544    
  19.678      25.522      31.579      37.223      31.052      33.700      34.782      34.152      31.920      28.427    
  24.157      19.629      15.305      11.537      8.5434      6.4046      5.0660      4.3445      3.9534      3.6572    
  3.4410      3.3085      3.2561      3.2812      3.3856      3.5752      3.8545      4.2176      4.7414      5.7423    
  7.5061      10.186      13.766      18.057      22.701      27.214      22.005      24.251      25.400      25.286    
  23.941      21.587      18.576      15.305      12.143      9.3749      7.1790      5.6199      4.6499      4.1161    
  3.7856      3.5217      3.3286      3.2068      3.1511      3.1570      3.2249      3.3603      3.5711      3.8618    
  4.2263      4.7414      5.6678      7.2139      9.4610      12.340      15.632      18.993      14.953      16.690    
  17.728      17.901      17.191      15.727      13.747      11.537      9.3749      7.4776      5.9810      4.9296    
  4.2775      3.8953      3.6118      3.3834      3.2174      3.1118      3.0602      3.0570      3.1009      3.1957    
  3.3492      3.5700      3.8618      4.2176      4.6869      5.4644      6.6941      8.4070      10.508      12.787    
  9.9723      11.169      11.975      12.247      11.941      11.117      9.9200      8.5434      7.1790      5.9810    
  5.0432      4.3894      3.9729      3.6842      3.4418      3.2502      3.1128      3.0260      2.9831      2.9782    
  3.0086      3.0760      3.1867      3.3492      3.5711      3.8545      4.1916      4.5938      5.1849      6.0613    
  7.2265      8.5873      6.8901      7.5940      8.1180      8.3565      8.2588      7.8423      7.1857      6.4046    
  5.6199      4.9296      4.3894      4.0037      3.7239      3.4847      3.2840      3.1286      3.0191      2.9515    
  2.9196      2.9176      2.9423      2.9938      3.0760      3.1957      3.3603      3.5752      3.8404      4.1475    
  4.4836      4.8958      5.4477      6.1358      5.2942      5.6287      5.8959      6.0344      6.0054      5.8068    
  5.4737      5.0660      4.6499      4.2775      3.9729      3.7239      3.5004      3.3049      3.1449      3.0234    
  2.9397      2.8903      2.8698      2.8734      2.8979      2.9423      3.0086      3.1009      3.2249      3.3856    
  3.5855      3.8222      4.0871      4.3652      4.6454      4.9538      4.5981      4.7369      4.8374      4.8802    
  4.8483      4.7376      4.5611      4.3445      4.1161      3.8953      3.6842      3.4847      3.3049      3.1516    
  3.0287      2.9375      2.8768      2.8437      2.8344      2.8452      2.8734      2.9176      2.9782      3.0570    
  3.1570      3.2812      3.4316      3.6080      3.8062      4.0179      4.2306      4.4289      4.2124      4.3014    
  4.3509      4.3553      4.3132      4.2272      4.1042      3.9534      3.7856      3.6118      3.4418      3.2840    
  3.1449      3.0287      2.9378      2.8724      2.8315      2.8131      2.8148      2.8344      2.8698      2.9196    
  2.9831      3.0602      3.1511      3.2561      3.3755      3.5084      3.6523      3.8027      3.9526      4.0927    
  3.9703      4.0127      4.0278      4.0120      3.9642      3.8859      3.7813      3.6572      3.5217      3.3834    
  3.2502      3.1286      3.0234      2.9375      2.8724      2.8281      2.8042      2.7996      2.8131      2.8437    
  2.8903      2.9515      3.0260      3.1118      3.2068      3.3085      3.4144      3.5217      3.6277      3.7296    
  3.8236      3.9055      3.8884      3.8785      3.8490      3.7999      3.7322      3.6476      3.5491      3.4410    
  3.3286      3.2174      3.1128      3.0191      2.9397      2.8768      2.8315      2.8042      2.7951      2.8042    
  2.8315      2.8768      2.9397      3.0191      3.1128      3.2174      3.3286      3.4410      3.5491      3.6476    
  3.7322      3.7999      3.8490      3.8785      3.9703      3.9055      3.8236      3.7296      3.6277      3.5217    
  3.4144      3.3085      3.2068      3.1118      3.0260      2.9515      2.8903      2.8437      2.8131      2.7996    
  2.8042      2.8281      2.8724      2.9375      3.0234      3.1286      3.2502      3.3834      3.5217      3.6572    
  3.7813      3.8859      3.9642      4.0120      4.0278      4.0127      4.2124      4.0927      3.9526      3.8027    
  3.6523      3.5084      3.3755      3.2561      3.1511      3.0602      2.9831      2.9196      2.8698      2.8344    
  2.8148      2.8131      2.8315      2.8724      2.9378      3.0287      3.1449      3.2840      3.4418      3.6118    
  3.7856      3.9534      4.1042      4.2272      4.3132      4.3553      4.3509      4.3014      4.5981      4.4289    
  4.2306      4.0179      3.8062      3.6080      3.4316      3.2812      3.1570      3.0570      2.9782      2.9176    
  2.8734      2.8452      2.8344      2.8437      2.8768      2.9375      3.0287      3.1516      3.3049      3.4847    
  3.6842      3.8953      4.1161      4.3445      4.5611      4.7376      4.8483      4.8802      4.8374      4.7369    
  5.2942      4.9538      4.6454      4.3652      4.0871      3.8222      3.5855      3.3856      3.2249      3.1009    
  3.0086      2.9423      2.8979      2.8734      2.8698      2.8903      2.9397      3.0234      3.1449      3.3049    
  3.5004      3.7239      3.9729      4.2775      4.6499      5.0660      5.4737      5.8068      6.0054      6.0344    
  5.8959      5.6287      6.8901      6.1358      5.4477      4.8958      4.4836      4.1475      3.8404      3.5752    
  3.3603      3.1957      3.0760      2.9938      2.9423      2.9176      2.9196      2.9515      3.0191      3.1286    
  3.2840      3.4847      3.7239      4.0037      4.3894      4.9296      5.6199      6.4046      7.1857      7.8423    
  8.2588      8.3565      8.1180      7.5940      9.9723      8.5873      7.2265      6.0613      5.1849      4.5938    
  4.1916      3.8545      3.5711      3.3492      3.1867      3.0760      3.0086      2.9782      2.9831      3.0260    
  3.1128      3.2502      3.4418      3.6842      3.9729      4.3894      5.0432      5.9810      7.1790      8.5434    
  9.9200      11.117      11.941      12.247      11.975      11.169      14.953      12.787      10.508      8.4070    
  6.6941      5.4644      4.6869      4.2176      3.8618      3.5700      3.3492      3.1957      3.1009      3.0570    
  3.0602      3.1118      3.2174      3.3834      3.6118      3.8953      4.2775      4.9296      5.9810      7.4776    
  9.3749      11.537      13.747      15.727      17.191      17.901      17.728      16.690      22.005      18.993    
  15.632      12.340      9.4610      7.2139      5.6678      4.7414      4.2263      3.8618      3.5711      3.3603    
  3.2249      3.1570      3.1511      3.2068      3.3286      3.5217      3.7856      4.1161      4.6499      5.6199    
  7.1790      9.3749      12.143      15.305      18.576      21.587      23.941      25.286      25.400      24.251    
  31.052      27.214      22.701      18.057      13.766      10.186      7.5061      5.7423      4.7414      4.2176    
  3.8545      3.5752      3.3856      3.2812      3.2561      3.3085      3.4410      3.6572      3.9534      4.3445    
  5.0660      6.4046      8.5434      11.537      15.305      19.629      24.157      28.427      31.920      34.152    
  34.782      33.700      41.781      37.223      31.579      25.522      19.678      14.544      10.443      7.5061    
  5.6678      4.6869      4.1916      3.8404      3.5855      3.4316      3.3755      3.4144      3.5491      3.7813    
  4.1042      4.5611      5.4737      7.1857      9.9200      13.747      18.576      24.157      30.081      35.793    
  40.652      44.028      45.435      44.652      53.638      48.553      41.899      34.471      27.041      20.247    
  14.544      10.186      7.2139      5.4644      4.5938      4.1475      3.8222      3.6080      3.5084      3.5217    
  3.6476      3.8859      4.2272      4.7376      5.8068      7.8423      11.117      15.727      21.587      28.427    
  35.793      43.056      49.457      54.214      56.676      56.478      65.803      60.487      53.054      44.415    
  35.483      27.041      19.678      13.766      9.4610      6.6941      5.1849      4.4836      4.0871      3.8062    
  3.6523      3.6277      3.7322      3.9642      4.3132      4.8483      6.0054      8.2588      11.941      17.191    
  23.941      31.920      40.652      49.457      57.481      63.799      67.581      68.285      77.206      72.047    
  64.191      54.632      44.415      34.471      25.522      18.057      12.340      8.4070      6.0613      4.8958    
  4.3652      4.0179      3.8027      3.7296      3.7999      4.0120      4.3553      4.8802      6.0344      8.3565    
  12.247      17.901      25.286      34.152      44.028      54.214      63.799      71.740      77.037      78.953    
  86.614      82.059      74.244      64.191      53.054      41.899      31.579      22.701      15.632      10.508    
  7.2265      5.4477      4.6454      4.2306      3.9526      3.8236      3.8490      4.0278      4.3509      4.8374    
  5.8959      8.1180      11.975      17.728      25.400      34.782      45.435      56.676      67.581      77.037    
  83.907      87.262      92.845      89.320      82.059      72.047      60.487      48.553      37.223      27.214    
  18.993      12.787      8.5873      6.1358      4.9538      4.4289      4.0927      3.9055      3.8785      4.0127    
  4.3014      4.7369      5.6287      7.5940      11.169      16.690      24.251      33.700      44.652      56.478    
  68.285      78.953      87.262      92.123      92.845      92.123      87.262      78.953      68.285      56.478    
  44.652      33.700      24.251      16.690      11.169      7.5940      5.6287      4.7369      4.3014      4.0127    
  3.8785      3.9055      4.0927      4.4289      4.9538      6.1358      8.5873      12.787      18.993      27.214    
  37.223      48.553      60.487      72.047      82.059      89.320      92.123      92.845      89.320      82.059    
  72.047      60.487      48.553      37.223      27.214      18.993      12.787      8.5874      6.1358      4.9538    
  4.4289      4.0927      3.9055      3.8785      4.0127      4.3014      4.7369      5.6286      7.5940      11.169    
  16.690      24.250      33.699      44.652      56.478      68.285      78.953      87.262      87.262      89.320    
  87.262      81.388      72.515      61.762      50.292      39.123      29.037      20.562      13.995      9.3946    
  6.5814      5.1453      4.5148      4.1435      3.9112      3.8328      3.9112      4.1435      4.5148      5.1453    
  6.5813      9.3945      13.995      20.562      29.037      39.123      50.292      61.762      72.515      81.388    
  78.953      82.059      81.388      77.037      69.626      60.125      49.625      39.131      29.452      21.158    
  14.591      9.8671      6.8743      5.2745      4.5543      4.1593      3.8933      3.7709      3.7960      3.9683    
  4.2806      4.7377      5.6906      7.7122      11.269      16.629      23.825      32.663      42.718      53.332    
  63.617      72.515      68.285      72.047      72.515      69.626      63.799      55.823      46.662      37.262    
  28.412      20.695      14.478      9.9149      6.9480      5.3062      4.5429      4.1366      3.8507      3.6951    
  3.6743      3.7886      4.0364      4.4055      5.0021      6.3111      8.8289      12.898      18.651      25.994    
  34.613      43.976      53.332      61.762      56.478      60.487      61.762      60.125      55.823      49.457    
  41.837      33.802      26.090      19.261      13.683      9.5295      6.7808      5.2231      4.4769      4.0756    
  3.7837      3.6079      3.5518      3.6153      3.7994      4.1016      4.5162      5.2847      6.8874      9.7186    
  14.000      19.744      26.752      34.613      42.718      50.292      44.652      48.553      50.292      49.625    
  46.662      41.837      35.793      29.243      22.837      17.090      12.348      8.7846      6.4026      5.0336    
  4.3599      3.9798      3.6948      3.5118      3.4326      3.4561      3.5833      3.8171      4.1536      4.6165    
  5.5262      7.2938      10.210      14.388      19.744      25.994      32.663      39.123      33.700      37.223    
  39.123      39.131      37.262      33.802      29.243      24.157      19.095      14.503      10.689      7.8123    
  5.8840      4.7692      4.2041      3.8560      3.5884      3.4097      3.3197      3.3153      3.3965      3.5678    
  3.8333      4.1880      4.6900      5.6654      7.4401      10.210      14.000      18.651      23.826      29.037    
  24.251      27.214      29.037      29.452      28.412      26.090      22.837      19.095      15.305      11.836    
  8.9448      6.7678      5.3145      4.4733      4.0255      3.7131      3.4706      3.3054      3.2149      3.1944    
  3.2421      3.3620      3.5610      3.8438      4.2049      4.7173      5.6654      7.2938      9.7186      12.898    
  16.629      20.562      16.690      18.993      20.562      21.158      20.695      19.261      17.090      14.503    
  11.836      9.3749      7.3254      5.7921      4.7776      4.1863      3.8364      3.5607      3.3483      3.2028    
  3.1197      3.0929      3.1192      3.2007      3.3443      3.5584      3.8474      4.2049      4.6900      5.5262    
  6.8874      8.8289      11.269      13.995      11.169      12.787      13.995      14.591      14.478      13.683    
  12.348      10.689      8.9448      7.3254      5.9810      4.9849      4.3298      3.9309      3.6452      3.4084    
  3.2285      3.1058      3.0349      3.0092      3.0241      3.0801      3.1823      3.3390      3.5584      3.8438    
  4.1880      4.6165      5.2847      6.3111      7.7122      9.3945      7.5940      8.5874      9.3946      9.8671    
  9.9149      9.5295      8.7846      7.8123      6.7678      5.7921      4.9849      4.3894      3.9878      3.7033    
  3.4615      3.2644      3.1171      3.0181      2.9618      2.9415      2.9526      2.9938      3.0681      3.1823    
  3.3443      3.5610      3.8333      4.1536      4.5162      5.0021      5.6906      6.5813      5.6287      6.1358    
  6.5814      6.8743      6.9480      6.7808      6.4026      5.8840      5.3145      4.7776      4.3298      3.9878    
  3.7239      3.4923      3.2937      3.1352      3.0190      2.9427      2.9012      2.8887      2.9008      2.9354    
  2.9938      3.0801      3.2007      3.3620      3.5678      3.8171      4.1016      4.4055      4.7378      5.1453    
  4.7369      4.9538      5.1453      5.2745      5.3062      5.2231      5.0336      4.7692      4.4733      4.1863    
  3.9309      3.7033      3.4923      3.3049      3.1481      3.0254      2.9374      2.8817      2.8542      2.8505    
  2.8668      2.9008      2.9526      3.0241      3.1192      3.2421      3.3965      3.5833      3.7994      4.0364    
  4.2806      4.5148      4.3014      4.4289      4.5148      4.5543      4.5429      4.4769      4.3599      4.2041    
  4.0255      3.8364      3.6452      3.4615      3.2937      3.1481      3.0287      2.9375      2.8741      2.8365    
  2.8221      2.8277      2.8505      2.8887      2.9415      3.0092      3.0929      3.1944      3.3153      3.4561    
  3.6153      3.7886      3.9683      4.1435      4.0127      4.0927      4.1435      4.1593      4.1366      4.0756    
  3.9798      3.8560      3.7131      3.5607      3.4084      3.2644      3.1352      3.0254      2.9375      2.8724    
  2.8297      2.8082      2.8062      2.8221      2.8542      2.9012      2.9618      3.0349      3.1197      3.2149    
  3.3197      3.4326      3.5518      3.6743      3.7960      3.9112      3.8785      3.9055      3.9112      3.8933    
  3.8507      3.7837      3.6948      3.5884      3.4706      3.3483      3.2285      3.1171      3.0190      2.9374    
  2.8741      2.8297      2.8042      2.7972      2.8082      2.8365      2.8817      2.9427      3.0181      3.1058    
  3.2028      3.3054      3.4097      3.5118      3.6079      3.6951      3.7709      3.8328      3.9055      3.8785    
  3.8328      3.7709      3.6951      3.6079      3.5118      3.4097      3.3054      3.2028      3.1058      3.0181    
  2.9427      2.8817      2.8365      2.8082      2.7972      2.8042      2.8297      2.8741      2.9374      3.0190    
  3.1171      3.2285      3.3483      3.4706      3.5884      3.6948      3.7837      3.8507      3.8933      3.9112    
  4.0927      4.0127      3.9112      3.7960      3.6743      3.5518      3.4326      3.3197      3.2149      3.1197    
  3.0349      2.9618      2.9012      2.8542      2.8221      2.8062      2.8082      2.8297      2.8724      2.9375    
  3.0254      3.1352      3.2644      3.4084      3.5607      3.7131      3.8560      3.9798      4.0756      4.1366    
  4.1593      4.1435      4.4289      4.3014      4.1435      3.9683      3.7886      3.6153      3.4561      3.3153    
  3.1944      3.0929      3.0092      2.9415      2.8887      2.8505      2.8277      2.8221      2.8365      2.8741    
  2.9375      3.0287      3.1480      3.2937      3.4615      3.6452      3.8364      4.0255      4.2041      4.3599    
  4.4769      4.5429      4.5543      4.5148      4.9538      4.7369      4.5148      4.2806      4.0364      3.7994    
  3.5833      3.3965      3.2421      3.1192      3.0241      2.9526      2.9008      2.8668      2.8505      2.8542    
  2.8817      2.9374      3.0254      3.1480      3.3049      3.4923      3.7033      3.9309      4.1863      4.4734    
  4.7692      5.0336      5.2231      5.3062      5.2745      5.1453      6.1358      5.6286      5.1453      4.7377    
  4.4055      4.1016      3.8171      3.5678      3.3620      3.2007      3.0801      2.9938      2.9354      2.9008    
  2.8887      2.9012      2.9427      3.0190      3.1352      3.2937      3.4923      3.7239      3.9878      4.3298    
  4.7777      5.3146      5.8840      6.4026      6.7808      6.9480      6.8743      6.5813      8.5873      7.5940    
  6.5813      5.6906      5.0021      4.5162      4.1536      3.8333      3.5610      3.3443      3.1823      3.0681    
  2.9938      2.9526      2.9415      2.9618      3.0181      3.1171      3.2644      3.4615      3.7033      3.9878    
  4.3894      4.9849      5.7921      6.7679      7.8124      8.7846      9.5296      9.9149      9.8671      9.3945    
  12.787      11.169      9.3945      7.7122      6.3111      5.2847      4.6165      4.1880      3.8438      3.5584    
  3.3390      3.1823      3.0801      3.0241      3.0092      3.0349      3.1058      3.2285      3.4084      3.6452    
  3.9309      4.3298      4.9849      5.9810      7.3255      8.9448      10.689      12.348      13.683      14.478    
  14.591      13.995      18.993      16.690      13.995      11.269      8.8289      6.8874      5.5262      4.6900    
  4.2049      3.8474      3.5584      3.3443      3.2007      3.1192      3.0929      3.1197      3.2028      3.3483    
  3.5607      3.8364      4.1863      4.7777      5.7921      7.3255      9.3749      11.836      14.503      17.090    
  19.261      20.695      21.158      20.562      27.214      24.250      20.562      16.629      12.898      9.7186    
  7.2938      5.6654      4.7173      4.2049      3.8438      3.5610      3.3620      3.2421      3.1944      3.2149    
  3.3054      3.4706      3.7131      4.0255      4.4734      5.3146      6.7679      8.9448      11.836      15.305    
  19.095      22.837      26.090      28.412      29.452      29.037      37.223      33.699      29.037      23.825    
  18.651      14.000      10.210      7.4401      5.6654      4.6900      4.1880      3.8333      3.5678      3.3965    
  3.3153      3.3197      3.4097      3.5884      3.8560      4.2041      4.7692      5.8840      7.8124      10.689    
  14.503      19.095      24.157      29.243      33.802      37.262      39.131      39.123      48.553      44.652    
  39.123      32.663      25.994      19.744      14.388      10.210      7.2938      5.5262      4.6165      4.1536    
  3.8171      3.5833      3.4561      3.4326      3.5118      3.6948      3.9798      4.3599      5.0336      6.4026    
  8.7846      12.348      17.090      22.837      29.243      35.793      41.837      46.662      49.625      50.292    
  60.487      56.478      50.292      42.718      34.613      26.752      19.744      14.000      9.7186      6.8874    
  5.2847      4.5162      4.1016      3.7994      3.6153      3.5518      3.6079      3.7837      4.0756      4.4769    
  5.2231      6.7808      9.5296      13.683      19.261      26.090      33.802      41.837      49.457      55.823    
  60.125      61.762      72.047      68.285      61.762      53.332      43.976      34.613      25.994      18.651    
  12.898      8.8289      6.3111      5.0021      4.4055      4.0364      3.7886      3.6743      3.6951      3.8507    
  4.1366      4.5429      5.3062      6.9480      9.9149      14.478      20.695      28.412      37.262      46.662    
  55.823      63.799      69.626      72.515      82.059      78.953      72.515      63.617      53.332      42.718    
  32.663      23.826      16.629      11.269      7.7122      5.6906      4.7378      4.2806      3.9683      3.7960    
  3.7709      3.8933      4.1593      4.5543      5.2745      6.8743      9.8671      14.591      21.158      29.452    
  39.131      49.625      60.125      69.626      77.037      81.388      89.320      87.262      81.388      72.515    
  61.762      50.292      39.123      29.037      20.562      13.995      9.3945      6.5813      5.1453      4.5148    
  4.1435      3.9112      3.8328      3.9112      4.1435      4.5148      5.1453      6.5813      9.3945      13.995    
  20.562      29.037      39.123      50.292      61.762      72.515      81.388      87.262      86.614      87.262    
  83.907      77.037      67.581      56.676      45.435      34.782      25.400      17.728      11.975      8.1180    
  5.8959      4.8374      4.3509      4.0278      3.8490      3.8236      3.9526      4.2306      4.6454      5.4477    
  7.2265      10.508      15.632      22.701      31.579      41.899      53.054      64.191      74.244      82.059    
  87.262      89.320      87.262      81.388      72.515      61.762      50.292      39.123      29.037      20.562    
  13.995      9.3946      6.5814      5.1453      4.5148      4.1435      3.9112      3.8328      3.9112      4.1435    
  4.5148      5.1453      6.5813      9.3945      13.995      20.562      29.037      39.123      50.292      61.762    
  72.515      81.388      83.907      87.262      86.614      82.059      74.244      64.192      53.054      41.899    
  31.579      22.701      15.632      10.508      7.2265      5.4477      4.6453      4.2306      3.9526      3.8236    
  3.8490      4.0278      4.3509      4.8374      5.8958      8.1180      11.975      17.728      25.400      34.782    
  45.435      56.676      67.581      77.037      77.037      81.388      82.059      78.953      72.515      63.617    
  53.332      42.718      32.663      23.826      16.629      11.269      7.7122      5.6906      4.7377      4.2806    
  3.9683      3.7960      3.7709      3.8933      4.1593      4.5543      5.2745      6.8743      9.8671      14.591    
  21.158      29.452      39.131      49.625      60.125      69.626      67.581      72.515      74.244      72.515    
  67.581      60.125      51.092      41.470      32.137      23.769      16.824      11.541      7.9397      5.8182    
  4.7766      4.2878      3.9550      3.7502      3.6816      3.7502      3.9550      4.2878      4.7766      5.8182    
  7.9396      11.541      16.824      23.769      32.137      41.470      51.091      60.125      56.676      61.762    
  64.192      63.617      60.125      54.214      46.662      38.348      30.091      22.552      16.194      11.277    
  7.8595      5.7946      4.7472      4.2504      3.9112      3.6867      3.5852      3.6070      3.7525      4.0203    
  4.3984      5.0291      6.3819      8.8946      12.847      18.319      25.175      33.075      41.470      49.625    
  45.435      50.292      53.054      53.332      51.092      46.662      40.652      33.802      26.840      20.376    
  14.851      10.528      7.4853      5.6166      4.6462      4.1709      3.8381      3.6072      3.4848      3.4703    
  3.5636      3.7666      4.0772      4.4953      5.2734      6.8469      9.5527      13.560      18.843      25.175    
  32.137      39.131      34.782      39.123      41.899      42.718      41.470      38.348      33.802      28.427    
  22.837      17.567      13.017      9.4293      6.8880      5.3154      4.4849      4.0553      3.7398      3.5143    
  3.3833      3.3443      3.3959      3.5408      3.7828      4.1187      4.5751      5.4517      7.1088      9.7869    
  13.560      18.319      23.769      29.452      25.400      29.037      31.579      32.663      32.137      30.091    
  26.840      22.837      18.576      14.503      10.960      8.1588      6.1741      4.9455      4.2861      3.9123    
  3.6224      3.4121      3.2831      3.2312      3.2531      3.3507      3.5298      3.7953      4.1429      4.6216    
  5.5170      7.1088      9.5527      12.847      16.824      21.158      17.728      20.562      22.701      23.826    
  23.769      22.552      20.376      17.567      14.503      11.537      8.9448      6.8978      5.4559      4.5667    
  4.0744      3.7524      3.4939      3.3056      3.1868      3.1316      3.1355      3.1983      3.3255      3.5250    
  3.8018      4.1508      4.6216      5.4517      6.8469      8.8946      11.541      14.591      11.975      13.995    
  15.632      16.629      16.824      16.194      14.851      13.017      10.960      8.9448      7.1789      5.7921    
  4.8243      4.2260      3.8656      3.5861      3.3623      3.2001      3.0968      3.0457      3.0409      3.0811    
  3.1697      3.3143      3.5236      3.8018      4.1429      4.5751      5.2734      6.3819      7.9397      9.8671    
  8.1180      9.3946      10.508      11.269      11.541      11.277      10.528      9.4293      8.1588      6.8978    
  5.7921      4.9296      4.3298      3.9431      3.6615      3.4230      3.2353      3.1008      3.0156      2.9729    
  2.9666      2.9940      3.0568      3.1608      3.3143      3.5250      3.7953      4.1187      4.4953      5.0291    
  5.8182      6.8743      5.8959      6.5814      7.2265      7.7122      7.9397      7.8595      7.4853      6.8880    
  6.1741      5.4559      4.8243      4.3298      3.9730      3.7033      3.4681      3.2713      3.1192      3.0119    