bcc Fe                                  
   2.82000000000000     
    -0.503673    0.503673    0.503673
     0.503673   -0.503673    0.503673
     0.503673    0.503673   -0.503673
   Fe
     1
Direct
  0.000000  0.000000  0.000000
 
   32   32   32
 0.97226173674E+02 0.94959125515E+02 0.88495493623E+02 0.78749089923E+02 0.66961467486E+02
 0.54416137699E+02 0.42224480525E+02 0.31229517967E+02 0.21999981782E+02 0.14851412685E+02
 0.98491500292E+01 0.67960120736E+01 0.52441477736E+01 0.45692111773E+01 0.41757496034E+01
 0.39302627986E+01 0.38475485560E+01 0.39302627986E+01 0.41757496034E+01 0.45692111773E+01
 0.52441477736E+01 0.67960120736E+01 0.98491500292E+01 0.14851412685E+02 0.21999981782E+02
 0.31229517967E+02 0.42224480525E+02 0.54416137699E+02 0.66961467486E+02 0.78749089923E+02
 0.88495493623E+02 0.94959125515E+02 0.94959125515E+02 0.94209941585E+02 0.89165989410E+02
 0.80556457675E+02 0.69523182939E+02 0.57340014374E+02 0.45171079533E+02 0.33937234530E+02
 0.24285686667E+02 0.16607061188E+02 0.11045456817E+02 0.74883638979E+01 0.55666053256E+01
 0.47062305602E+01 0.42668804933E+01 0.39735135327E+01 0.38379969963E+01 0.38652304181E+01
 0.40545149303E+01 0.43971744228E+01 0.49162726986E+01 0.60587269510E+01 0.84710347342E+01
 0.12669310880E+02 0.18939866093E+02 0.27308145185E+02 0.37546951492E+02 0.49181475588E+02
 0.61473137328E+02 0.73411424840E+02 0.83774342602E+02 0.91301345194E+02 0.88495493623E+02
 0.89165989410E+02 0.85686857494E+02 0.78569343517E+02 0.68789651663E+02 0.57537922991E+02
 0.45969462527E+02 0.35041694725E+02 0.25454905201E+02 0.17656429662E+02 0.11853048532E+02
 0.80057888889E+01 0.58247070386E+01 0.48030065188E+01 0.43187975663E+01 0.39899431158E+01
 0.38093048911E+01 0.37837553068E+01 0.39138318321E+01 0.41959785322E+01 0.46162679878E+01
 0.53910379467E+01 0.71260601659E+01 0.10384249591E+02 0.15536589314E+02 0.22706472456E+02
 0.31765131678E+02 0.42340380499E+02 0.53810433653E+02 0.65293641409E+02 0.75682829970E+02
 0.83774342602E+02 0.78749089923E+02 0.80556457675E+02 0.78569343517E+02 0.73084806956E+02
 0.64876862874E+02 0.54991965240E+02 0.44514515636E+02 0.34388846422E+02 0.25334013940E+02
 0.17829891930E+02 0.12126188946E+02 0.82415865436E+01 0.59580758698E+01 0.48427257464E+01
 0.43254801892E+01 0.39757856961E+01 0.37615244045E+01 0.36907329539E+01 0.37642431155E+01
 0.39816347667E+01 0.43353099604E+01 0.48581969451E+01 0.59847642979E+01 0.82919824910E+01
 0.12219771450E+02 0.17989409460E+02 0.25578038971E+02 0.34722525431E+02 0.44921869717E+02
 0.55433318046E+02 0.65293641409E+02 0.73411424840E+02 0.66961467486E+02 0.69523182939E+02
 0.68789651663E+02 0.64876862874E+02 0.58352842320E+02 0.50085636977E+02 0.41039240076E+02
 0.32096896384E+02 0.23958571454E+02 0.17108781128E+02 0.11818031233E+02 0.81440863335E+01
 0.59282487999E+01 0.48096835329E+01 0.42850554323E+01 0.39294933649E+01 0.36952181051E+01
 0.35902552940E+01 0.36147981309E+01 0.37695046116E+01 0.40538043874E+01 0.44564454873E+01
 0.51347622821E+01 0.66021784293E+01 0.93392544625E+01 0.13654235184E+02 0.19632518417E+02
 0.27126030894E+02 0.35756962845E+02 0.44921869717E+02 0.53810433653E+02 0.61473137328E+02
 0.54416137699E+02 0.57340014374E+02 0.57537922991E+02 0.54991965240E+02 0.50085636977E+02
 0.43500610100E+02 0.36051100481E+02 0.28521953571E+02 0.21559682132E+02 0.15626050126E+02
 0.10990443472E+02 0.77309263943E+01 0.57330439997E+01 0.47003663159E+01 0.42001229121E+01
 0.38523653094E+01 0.36119495653E+01 0.34856333571E+01 0.34722373623E+01 0.35718506582E+01
 0.37872759092E+01 0.41172588197E+01 0.45634638151E+01 0.54031008520E+01 0.71124175861E+01
 0.10061978001E+02 0.14437732523E+02 0.20209442913E+02 0.27126030894E+02 0.34722525431E+02
 0.42340380499E+02 0.49181475588E+02 0.42224480525E+02 0.45171079533E+02 0.45969462527E+02
 0.44514515636E+02 0.41039240076E+02 0.36051100481E+02 0.30205376940E+02 0.24166274948E+02
 0.18501410636E+02 0.13627247119E+02 0.97933514179E+01 0.70816426320E+01 0.54072303856E+01
 0.45274397322E+01 0.40772930021E+01 0.37486538888E+01 0.35146218460E+01 0.33796691953E+01
 0.33408328567E+01 0.33966490318E+01 0.35504221178E+01 0.38070454117E+01 0.41640206729E+01
 0.46521481097E+01 0.55992852301E+01 0.74001888997E+01 0.10319315429E+02 0.14437732523E+02
 0.19632518417E+02 0.25578038971E+02 0.31765131678E+02 0.37546951492E+02 0.31229517967E+02
 0.33937234530E+02 0.35041694725E+02 0.34388846422E+02 0.32096896384E+02 0.28521953571E+02
 0.24166274948E+02 0.19565567574E+02 0.15193983275E+02 0.11407528256E+02 0.84225837740E+01
 0.63126521336E+01 0.50102729441E+01 0.43155800578E+01 0.39260964071E+01 0.36250939250E+01
 0.34074982209E+01 0.32749793422E+01 0.32227595143E+01 0.32475153559E+01 0.33513198700E+01
 0.35409040530E+01 0.38222599146E+01 0.41915817985E+01 0.47037858367E+01 0.56712127720E+01
 0.74001888997E+01 0.10061978001E+02 0.13654235184E+02 0.17989409460E+02 0.22706472456E+02
 0.27308145185E+02 0.21999981782E+02 0.24285686667E+02 0.25454905201E+02 0.25334013940E+02
 0.23958571454E+02 0.21559682132E+02 0.18501410636E+02 0.15193983275E+02 0.12013352158E+02
 0.92475327568E+01 0.70721660599E+01 0.55447713827E+01 0.46067079611E+01 0.40914375586E+01
 0.37575778829E+01 0.34899752078E+01 0.32958610503E+01 0.31741993017E+01 0.31187398751E+01
 0.31245314738E+01 0.31917544102E+01 0.33263224830E+01 0.35371392680E+01 0.38301739844E+01
 0.42005965375E+01 0.47037858367E+01 0.55992852301E+01 0.71124175861E+01 0.93392544625E+01
 0.12219771450E+02 0.15536589314E+02 0.18939866093E+02 0.14851412685E+02 0.16607061188E+02
 0.17656429662E+02 0.17829891930E+02 0.17108781128E+02 0.15626050126E+02 0.13627247119E+02
 0.11407528256E+02 0.92475327568E+01 0.73661333890E+01 0.58956481265E+01 0.48740882259E+01
 0.42463407131E+01 0.38718424501E+01 0.35829200289E+01 0.33520037408E+01 0.31853993280E+01
 0.30799961569E+01 0.30287091765E+01 0.30255370801E+01 0.30688754458E+01 0.31626667066E+01
 0.33152953679E+01 0.35361558352E+01 0.38301739844E+01 0.41915817985E+01 0.46521481097E+01
 0.54031008520E+01 0.66021784293E+01 0.82919824910E+01 0.10384249591E+02 0.12669310880E+02
 0.98491500292E+01 0.11045456817E+02 0.11853048532E+02 0.12126188946E+02 0.11818031233E+02
 0.10990443472E+02 0.97933514179E+01 0.84225837740E+01 0.70721660599E+01 0.58956481265E+01
 0.49831826776E+01 0.43526257250E+01 0.39495589049E+01 0.36584031738E+01 0.34123454215E+01
 0.32192292695E+01 0.30815081929E+01 0.29949286665E+01 0.29523535765E+01 0.29474678798E+01
 0.29774187841E+01 0.30440553964E+01 0.31536893870E+01 0.33152953679E+01 0.35371392680E+01
 0.38222599146E+01 0.41640206729E+01 0.45634638151E+01 0.51347622821E+01 0.59847642979E+01
 0.71260601659E+01 0.84710347342E+01 0.67960120736E+01 0.74883638979E+01 0.80057888889E+01
 0.82415865436E+01 0.81440863335E+01 0.77309263943E+01 0.70816426320E+01 0.63126521336E+01
 0.55447713827E+01 0.48740882259E+01 0.43526257250E+01 0.39794246591E+01 0.36999765698E+01
 0.34570220439E+01 0.32543841571E+01 0.30982549165E+01 0.29887008417E+01 0.29212630625E+01
 0.28894914430E+01 0.28874828980E+01 0.29118288821E+01 0.29627117347E+01 0.30440553964E+01
 0.31626667066E+01 0.33263224830E+01 0.35409040530E+01 0.38070454117E+01 0.41172588197E+01
 0.44564454873E+01 0.48581969451E+01 0.53910379467E+01 0.60587269510E+01 0.52441477736E+01
 0.55666053256E+01 0.58247070386E+01 0.59580758698E+01 0.59282487999E+01 0.57330439997E+01
 0.54072303856E+01 0.50102729441E+01 0.46067079611E+01 0.42463407131E+01 0.39495589049E+01
 0.36999765698E+01 0.34734307440E+01 0.32762872037E+01 0.31154697931E+01 0.29938305787E+01
 0.29102760922E+01 0.28608526340E+01 0.28403257096E+01 0.28437762794E+01 0.28678981437E+01
 0.29118288821E+01 0.29774187841E+01 0.30688754458E+01 0.31917544102E+01 0.33513198700E+01
 0.35504221178E+01 0.37872759092E+01 0.40538043874E+01 0.43353099604E+01 0.46162679878E+01
 0.49162726986E+01 0.45692111773E+01 0.47062305602E+01 0.48030065188E+01 0.48427257464E+01
 0.48096835329E+01 0.47003663159E+01 0.45274397322E+01 0.43155800578E+01 0.40914375586E+01
 0.38718424501E+01 0.36584031738E+01 0.34570220439E+01 0.32762872037E+01 0.31226198923E+01
 0.29997957847E+01 0.29088195836E+01 0.28482860473E+01 0.28151373841E+01 0.28055931474E+01
 0.28160429044E+01 0.28437762794E+01 0.28874828980E+01 0.29474678798E+01 0.30255370801E+01
 0.31245314738E+01 0.32475153559E+01 0.33966490318E+01 0.35718506582E+01 0.37695046116E+01
 0.39816347667E+01 0.41959785322E+01 0.43971744228E+01 0.41757496034E+01 0.42668804933E+01
 0.43187975663E+01 0.43254801892E+01 0.42850554323E+01 0.42001229121E+01 0.40772930021E+01
 0.39260964071E+01 0.37575778829E+01 0.35829200289E+01 0.34123454215E+01 0.32543841571E+01
 0.31154697931E+01 0.29997957847E+01 0.29093981321E+01 0.28444534022E+01 0.28037523447E+01
 0.27852554803E+01 0.27866163849E+01 0.28055931474E+01 0.28403257096E+01 0.28894914430E+01
 0.29523535765E+01 0.30287091765E+01 0.31187398751E+01 0.32227595143E+01 0.33408328567E+01
 0.34722373623E+01 0.36147981309E+01 0.37642431155E+01 0.39138318321E+01 0.40545149303E+01
 0.39302627986E+01 0.39735135327E+01 0.39899431158E+01 0.39757856961E+01 0.39294933649E+01
 0.38523653094E+01 0.37486538888E+01 0.36250939250E+01 0.34899752078E+01 0.33520037408E+01
 0.32192292695E+01 0.30982549165E+01 0.29938305787E+01 0.29088195836E+01 0.28444534022E+01
 0.28007564712E+01 0.27770191454E+01 0.27722108000E+01 0.27852554803E+01 0.28151373841E+01
 0.28608526340E+01 0.29212630625E+01 0.29949286665E+01 0.30799961569E+01 0.31741993017E+01
 0.32749793422E+01 0.33796691953E+01 0.34856333571E+01 0.35902552940E+01 0.36907329539E+01
 0.37837553068E+01 0.38652304181E+01 0.38475485560E+01 0.38379969963E+01 0.38093048911E+01
 0.37615244045E+01 0.36952181051E+01 0.36119495653E+01 0.35146218460E+01 0.34074982209E+01
 0.32958610503E+01 0.31853993280E+01 0.30815081929E+01 0.29887008417E+01 0.29102760922E+01
 0.28482860473E+01 0.28037523447E+01 0.27770191454E+01 0.27681154982E+01 0.27770191454E+01
 0.28037523447E+01 0.28482860473E+01 0.29102760922E+01 0.29887008417E+01 0.30815081929E+01
 0.31853993280E+01 0.32958610503E+01 0.34074982209E+01 0.35146218460E+01 0.36119495653E+01
 0.36952181051E+01 0.37615244045E+01 0.38093048911E+01 0.38379969963E+01 0.39302627986E+01
 0.38652304181E+01 0.37837553068E+01 0.36907329539E+01 0.35902552940E+01 0.34856333571E+01
 0.33796691953E+01 0.32749793422E+01 0.31741993017E+01 0.30799961569E+01 0.29949286665E+01
 0.29212630625E+01 0.28608526340E+01 0.28151373841E+01 0.27852554803E+01 0.27722108000E+01
 0.27770191454E+01 0.28007564712E+01 0.28444534022E+01 0.29088195836E+01 0.29938305787E+01
 0.30982549165E+01 0.32192292695E+01 0.33520037408E+01 0.34899752078E+01 0.36250939250E+01
 0.37486538888E+01 0.38523653094E+01 0.39294933649E+01 0.39757856961E+01 0.39899431158E+01
 0.39735135327E+01 0.41757496034E+01 0.40545149303E+01 0.39138318321E+01 0.37642431155E+01
 0.36147981309E+01 0.34722373623E+01 0.33408328567E+01 0.32227595143E+01 0.31187398751E+01
 0.30287091765E+01 0.29523535765E+01 0.28894914430E+01 0.28403257096E+01 0.28055931474E+01
 0.27866163849E+01 0.27852554803E+01 0.28037523447E+01 0.28444534022E+01 0.29093981321E+01
 0.29997957847E+01 0.31154697931E+01 0.32543841571E+01 0.34123454215E+01 0.35829200289E+01
 0.37575778829E+01 0.39260964071E+01 0.40772930021E+01 0.42001229121E+01 0.42850554323E+01
 0.43254801892E+01 0.43187975663E+01 0.42668804933E+01 0.45692111773E+01 0.43971744228E+01
 0.41959785322E+01 0.39816347667E+01 0.37695046116E+01 0.35718506582E+01 0.33966490318E+01
 0.32475153559E+01 0.31245314738E+01 0.30255370801E+01 0.29474678798E+01 0.28874828980E+01
 0.28437762794E+01 0.28160429044E+01 0.28055931474E+01 0.28151373841E+01 0.28482860473E+01
 0.29088195836E+01 0.29997957847E+01 0.31226198923E+01 0.32762872037E+01 0.34570220439E+01
 0.36584031738E+01 0.38718424501E+01 0.40914375586E+01 0.43155800578E+01 0.45274397322E+01
 0.47003663159E+01 0.48096835329E+01 0.48427257464E+01 0.48030065188E+01 0.47062305602E+01
 0.52441477736E+01 0.49162726986E+01 0.46162679878E+01 0.43353099604E+01 0.40538043874E+01
 0.37872759092E+01 0.35504221178E+01 0.33513198700E+01 0.31917544102E+01 0.30688754458E+01
 0.29774187841E+01 0.29118288821E+01 0.28678981437E+01 0.28437762794E+01 0.28403257096E+01
 0.28608526340E+01 0.29102760922E+01 0.29938305787E+01 0.31154697931E+01 0.32762872037E+01
 0.34734307440E+01 0.36999765698E+01 0.39495589049E+01 0.42463407131E+01 0.46067079611E+01
 0.50102729441E+01 0.54072303856E+01 0.57330439997E+01 0.59282487999E+01 0.59580758698E+01
 0.58247070386E+01 0.55666053256E+01 0.67960120736E+01 0.60587269510E+01 0.53910379467E+01
 0.48581969451E+01 0.44564454873E+01 0.41172588197E+01 0.38070454117E+01 0.35409040530E+01
 0.33263224830E+01 0.31626667066E+01 0.30440553964E+01 0.29627117347E+01 0.29118288821E+01
 0.28874828980E+01 0.28894914430E+01 0.29212630625E+01 0.29887008417E+01 0.30982549165E+01
 0.32543841571E+01 0.34570220439E+01 0.36999765698E+01 0.39794246591E+01 0.43526257250E+01
 0.48740882259E+01 0.55447713827E+01 0.63126521336E+01 0.70816426320E+01 0.77309263943E+01
 0.81440863335E+01 0.82415865436E+01 0.80057888889E+01 0.74883638979E+01 0.98491500292E+01
 0.84710347342E+01 0.71260601659E+01 0.59847642979E+01 0.51347622821E+01 0.45634638151E+01
 0.41640206729E+01 0.38222599146E+01 0.35371392680E+01 0.33152953679E+01 0.31536893870E+01
 0.30440553964E+01 0.29774187841E+01 0.29474678798E+01 0.29523535765E+01 0.29949286665E+01
 0.30815081929E+01 0.32192292695E+01 0.34123454215E+01 0.36584031738E+01 0.39495589049E+01
 0.43526257250E+01 0.49831826776E+01 0.58956481265E+01 0.70721660599E+01 0.84225837740E+01
 0.97933514179E+01 0.10990443472E+02 0.11818031233E+02 0.12126188946E+02 0.11853048532E+02
 0.11045456817E+02 0.14851412685E+02 0.12669310880E+02 0.10384249591E+02 0.82919824910E+01
 0.66021784293E+01 0.54031008520E+01 0.46521481097E+01 0.41915817985E+01 0.38301739844E+01
 0.35361558352E+01 0.33152953679E+01 0.31626667066E+01 0.30688754458E+01 0.30255370801E+01
 0.30287091765E+01 0.30799961569E+01 0.31853993280E+01 0.33520037408E+01 0.35829200289E+01
 0.38718424501E+01 0.42463407131E+01 0.48740882259E+01 0.58956481265E+01 0.73661333890E+01
 0.92475327568E+01 0.11407528256E+02 0.13627247119E+02 0.15626050126E+02 0.17108781128E+02
 0.17829891930E+02 0.17656429662E+02 0.16607061188E+02 0.21999981782E+02 0.18939866093E+02
 0.15536589314E+02 0.12219771450E+02 0.93392544625E+01 0.71124175861E+01 0.55992852301E+01
 0.47037858367E+01 0.42005965375E+01 0.38301739844E+01 0.35371392680E+01 0.33263224830E+01
 0.31917544102E+01 0.31245314738E+01 0.31187398751E+01 0.31741993017E+01 0.32958610503E+01
 0.34899752078E+01 0.37575778829E+01 0.40914375586E+01 0.46067079611E+01 0.55447713827E+01
 0.70721660599E+01 0.92475327568E+01 0.12013352158E+02 0.15193983275E+02 0.18501410636E+02
 0.21559682132E+02 0.23958571454E+02 0.25334013940E+02 0.25454905201E+02 0.24285686667E+02
 0.31229517967E+02 0.27308145185E+02 0.22706472456E+02 0.17989409460E+02 0.13654235184E+02
 0.10061978001E+02 0.74001888997E+01 0.56712127720E+01 0.47037858367E+01 0.41915817985E+01
 0.38222599146E+01 0.35409040530E+01 0.33513198700E+01 0.32475153559E+01 0.32227595143E+01
 0.32749793422E+01 0.34074982209E+01 0.36250939250E+01 0.39260964071E+01 0.43155800578E+01
 0.50102729441E+01 0.63126521336E+01 0.84225837740E+01 0.11407528256E+02 0.15193983275E+02
 0.19565567574E+02 0.24166274948E+02 0.28521953571E+02 0.32096896384E+02 0.34388846422E+02
 0.35041694725E+02 0.33937234530E+02 0.42224480525E+02 0.37546951492E+02 0.31765131678E+02
 0.25578038971E+02 0.19632518417E+02 0.14437732523E+02 0.10319315429E+02 0.74001888997E+01
 0.55992852301E+01 0.46521481097E+01 0.41640206729E+01 0.38070454117E+01 0.35504221178E+01
 0.33966490318E+01 0.33408328567E+01 0.33796691953E+01 0.35146218460E+01 0.37486538888E+01
 0.40772930021E+01 0.45274397322E+01 0.54072303856E+01 0.70816426320E+01 0.97933514179E+01
 0.13627247119E+02 0.18501410636E+02 0.24166274948E+02 0.30205376940E+02 0.36051100481E+02
 0.41039240076E+02 0.44514515636E+02 0.45969462527E+02 0.45171079533E+02 0.54416137699E+02
 0.49181475588E+02 0.42340380499E+02 0.34722525431E+02 0.27126030894E+02 0.20209442913E+02
 0.14437732523E+02 0.10061978001E+02 0.71124175861E+01 0.54031008520E+01 0.45634638151E+01
 0.41172588197E+01 0.37872759092E+01 0.35718506582E+01 0.34722373623E+01 0.34856333571E+01
 0.36119495653E+01 0.38523653094E+01 0.42001229121E+01 0.47003663159E+01 0.57330439997E+01
 0.77309263943E+01 0.10990443472E+02 0.15626050126E+02 0.21559682132E+02 0.28521953571E+02
 0.36051100481E+02 0.43500610100E+02 0.50085636977E+02 0.54991965240E+02 0.57537922991E+02
 0.57340014374E+02 0.66961467486E+02 0.61473137328E+02 0.53810433653E+02 0.44921869717E+02
 0.35756962845E+02 0.27126030894E+02 0.19632518417E+02 0.13654235184E+02 0.93392544625E+01
 0.66021784293E+01 0.51347622821E+01 0.44564454873E+01 0.40538043874E+01 0.37695046116E+01
 0.36147981309E+01 0.35902552940E+01 0.36952181051E+01 0.39294933649E+01 0.42850554323E+01
 0.48096835329E+01 0.59282487999E+01 0.81440863335E+01 0.11818031233E+02 0.17108781128E+02
 0.23958571454E+02 0.32096896384E+02 0.41039240076E+02 0.50085636977E+02 0.58352842320E+02
 0.64876862874E+02 0.68789651663E+02 0.69523182939E+02 0.78749089923E+02 0.73411424840E+02
 0.65293641409E+02 0.55433318046E+02 0.44921869717E+02 0.34722525431E+02 0.25578038971E+02
 0.17989409460E+02 0.12219771450E+02 0.82919824910E+01 0.59847642979E+01 0.48581969451E+01
 0.43353099604E+01 0.39816347667E+01 0.37642431155E+01 0.36907329539E+01 0.37615244045E+01
 0.39757856961E+01 0.43254801892E+01 0.48427257464E+01 0.59580758698E+01 0.82415865436E+01
 0.12126188946E+02 0.17829891930E+02 0.25334013940E+02 0.34388846422E+02 0.44514515636E+02
 0.54991965240E+02 0.64876862874E+02 0.73084806956E+02 0.78569343517E+02 0.80556457675E+02
 0.88495493623E+02 0.83774342602E+02 0.75682829970E+02 0.65293641409E+02 0.53810433653E+02
 0.42340380499E+02 0.31765131678E+02 0.22706472456E+02 0.15536589314E+02 0.10384249591E+02
 0.71260601659E+01 0.53910379467E+01 0.46162679878E+01 0.41959785322E+01 0.39138318321E+01
 0.37837553068E+01 0.38093048911E+01 0.39899431158E+01 0.43187975663E+01 0.48030065188E+01
 0.58247070386E+01 0.80057888889E+01 0.11853048532E+02 0.17656429662E+02 0.25454905201E+02
 0.35041694725E+02 0.45969462527E+02 0.57537922991E+02 0.68789651663E+02 0.78569343517E+02
 0.85686857494E+02 0.89165989410E+02 0.94959125515E+02 0.91301345194E+02 0.83774342602E+02
 0.73411424840E+02 0.61473137328E+02 0.49181475588E+02 0.37546951492E+02 0.27308145185E+02
 0.18939866093E+02 0.12669310880E+02 0.84710347342E+01 0.60587269510E+01 0.49162726986E+01
 0.43971744228E+01 0.40545149303E+01 0.38652304181E+01 0.38379969963E+01 0.39735135327E+01
 0.42668804933E+01 0.47062305602E+01 0.55666053256E+01 0.74883638979E+01 0.11045456817E+02
 0.16607061188E+02 0.24285686667E+02 0.33937234530E+02 0.45171079533E+02 0.57340014374E+02
 0.69523182939E+02 0.80556457675E+02 0.89165989410E+02 0.94209941585E+02 0.94959125515E+02
 0.94209941585E+02 0.89165989410E+02 0.80556457675E+02 0.69523182939E+02 0.57340014374E+02
 0.45171079533E+02 0.33937234530E+02 0.24285686667E+02 0.16607061188E+02 0.11045456817E+02
 0.74883638979E+01 0.55666053256E+01 0.47062305602E+01 0.42668804933E+01 0.39735135327E+01
 0.38379969963E+01 0.38652304181E+01 0.40545149303E+01 0.43971744228E+01 0.49162726986E+01
 0.60587269510E+01 0.84710347342E+01 0.12669310880E+02 0.18939866093E+02 0.27308145185E+02
 0.37546951492E+02 0.49181475588E+02 0.61473137328E+02 0.73411424840E+02 0.83774342602E+02
 0.91301345194E+02 0.94209941585E+02 0.94959124934E+02 0.91301344801E+02 0.83774344370E+02
 0.73411431159E+02 0.61473150009E+02 0.49181495015E+02 0.37546976228E+02 0.27308172188E+02
 0.18939891488E+02 0.12669331046E+02 0.84710473493E+01 0.60587316486E+01 0.49162711080E+01
 0.43971695761E+01 0.40545102231E+01 0.38652284625E+01 0.38379987428E+01 0.39735179499E+01
 0.42668849107E+01 0.47062315619E+01 0.55665999012E+01 0.74883504737E+01 0.11045435831E+02
 0.16607035027E+02 0.24285658993E+02 0.33937209227E+02 0.45171059619E+02 0.57340001243E+02
 0.69523176160E+02 0.80556455406E+02 0.89165989254E+02 0.89165989410E+02 0.91301344801E+02
 0.89165988973E+02 0.83076944183E+02 0.73893433954E+02 0.62785389181E+02 0.50966465904E+02
 0.39492312306E+02 0.29166975023E+02 0.20532535923E+02 0.13884586303E+02 0.92732049135E+01
 0.64931417098E+01 0.50999129411E+01 0.44860061096E+01 0.41069699472E+01 0.38717103630E+01
 0.37926591353E+01 0.38717166472E+01 0.41069791715E+01 0.44860126988E+01 0.50999109492E+01
 0.64931268185E+01 0.92731759194E+01 0.13884545613E+02 0.20532488914E+02 0.29166928487E+02
 0.39492272509E+02 0.50966436898E+02 0.62785371912E+02 0.73893426428E+02 0.83076942605E+02
 0.80556457675E+02 0.83774344370E+02 0.83076944183E+02 0.78569344303E+02 0.70901652497E+02
 0.61090308769E+02 0.50272794129E+02 0.39494541191E+02 0.29587420390E+02 0.21135965379E+02
 0.14484957077E+02 0.97439260155E+01 0.67795602847E+01 0.52229175546E+01 0.45263114603E+01
 0.41245757996E+01 0.38550591864E+01 0.37316704224E+01 0.37569782647E+01 0.39308006543E+01
 0.42481129196E+01 0.47059623039E+01 0.56250618665E+01 0.76045197414E+01 0.11145528699E+02
 0.16543674000E+02 0.23849981544E+02 0.32871863896E+02 0.43178433702E+02 0.54093435386E+02
 0.64698148430E+02 0.73893428399E+02 0.69523182939E+02 0.73411431159E+02 0.73893433954E+02
 0.70901652497E+02 0.64876864540E+02 0.56646362543E+02 0.47216904099E+02 0.37568963618E+02
 0.28518697407E+02 0.20662012559E+02 0.14369586818E+02 0.97910996817E+01 0.68509684214E+01
 0.52515539687E+01 0.45148294112E+01 0.41036472417E+01 0.38138264887E+01 0.36572098977E+01
 0.36362731251E+01 0.37511639511E+01 0.40015613819E+01 0.43778629193E+01 0.49593855020E+01
 0.62276477286E+01 0.87104419102E+01 0.12780328562E+02 0.18590349214E+02 0.26057302898E+02
 0.34865514264E+02 0.44468388076E+02 0.54093439295E+02 0.62785378066E+02 0.57340014374E+02
 0.61473150009E+02 0.62785389181E+02 0.61090308769E+02 0.56646362543E+02 0.50085637149E+02
 0.42252158044E+02 0.34018250447E+02 0.26143421146E+02 0.19202442138E+02 0.13566942216E+02
 0.94062093451E+01 0.66856198776E+01 0.51689708248E+01 0.44492151015E+01 0.40439785805E+01
 0.37481926782E+01 0.35713773412E+01 0.35150958465E+01 0.35786577202E+01 0.37637076423E+01
 0.40696915365E+01 0.44882343236E+01 0.52299269092E+01 0.67913600520E+01 0.95957597788E+01
 0.13888798694E+02 0.19698928870E+02 0.26830033694E+02 0.34865519295E+02 0.43178442961E+02
 0.50966448938E+02 0.45171079533E+02 0.49181495015E+02 0.50966465904E+02 0.50272794129E+02
 0.47216904099E+02 0.42252158044E+02 0.36051096110E+02 0.29352107103E+02 0.22826834922E+02
 0.17000640156E+02 0.12223157260E+02 0.86641559053E+01 0.63133593071E+01 0.49834368578E+01
 0.43334586133E+01 0.39490637676E+01 0.36604273537E+01 0.34765441031E+01 0.33973779148E+01
 0.34206623075E+01 0.35478614489E+01 0.37829956864E+01 0.41245743801E+01 0.45845543650E+01
 0.54620891759E+01 0.71908309289E+01 0.10085892861E+02 0.14280183716E+02 0.19698933786E+02
 0.26057313066E+02 0.32871878793E+02 0.39492290837E+02 0.33937234530E+02 0.37546976228E+02
 0.39492312306E+02 0.39494541191E+02 0.37568963618E+02 0.34018250447E+02 0.29352107103E+02
 0.24166264637E+02 0.19026113114E+02 0.14387472101E+02 0.10560241680E+02 0.76993920214E+01
 0.58049250639E+01 0.47258697588E+01 0.41791328052E+01 0.38256445793E+01 0.35549317050E+01
 0.33756454911E+01 0.32857693483E+01 0.32812115175E+01 0.33619900891E+01 0.35331987731E+01
 0.38005322086E+01 0.41612023561E+01 0.46543634351E+01 0.55963944890E+01 0.73349137979E+01
 0.10085896669E+02 0.13888807442E+02 0.18590363422E+02 0.23850000911E+02 0.29166951819E+02
 0.24285686667E+02 0.27308172188E+02 0.29166975023E+02 0.29587420390E+02 0.28518697407E+02
 0.26143421146E+02 0.22826834922E+02 0.19026113114E+02 0.15193968651E+02 0.11705753348E+02
 0.88205561780E+01 0.66683963634E+01 0.52494065759E+01 0.44384522435E+01 0.40010421327E+01
 0.36827106403E+01 0.34378152615E+01 0.32722579588E+01 0.31820766744E+01 0.31615443457E+01
 0.32088166769E+01 0.33279310888E+01 0.35268869644E+01 0.38119212405E+01 0.41790466944E+01
 0.46801587343E+01 0.55963968402E+01 0.71908369153E+01 0.95957705148E+01 0.12780344685E+02
 0.16543695379E+02 0.20532514463E+02 0.16607061188E+02 0.18939891488E+02 0.20532535923E+02
 0.21135965379E+02 0.20662012559E+02 0.19202442138E+02 0.17000640156E+02 0.14387472101E+02
 0.11705753348E+02 0.92475177576E+01 0.72162775650E+01 0.57119210747E+01 0.47285919585E+01
 0.41592350650E+01 0.38105181126E+01 0.35302214746E+01 0.33161118101E+01 0.31704091897E+01
 0.30876590294E+01 0.30610214649E+01 0.30870025957E+01 0.31677142041E+01 0.33104618338E+01
 0.35245884752E+01 0.38157774876E+01 0.41790478430E+01 0.46543666542E+01 0.54620955429E+01
 0.67913705963E+01 0.87104573095E+01 0.11145548951E+02 0.13884569785E+02 0.11045456817E+02
 0.12669331046E+02 0.13884586303E+02 0.14484957077E+02 0.14369586818E+02 0.13566942216E+02
 0.12223157260E+02 0.10560241680E+02 0.88205561780E+01 0.72162775650E+01 0.58956367571E+01
 0.49271206282E+01 0.42959686705E+01 0.39080035467E+01 0.36177543990E+01 0.33778578752E+01
 0.31968479393E+01 0.30741886842E+01 0.30036804375E+01 0.29780880057E+01 0.29928461596E+01
 0.30481525575E+01 0.31492895166E+01 0.33051036070E+01 0.35245889353E+01 0.38119225726E+01
 0.41612051897E+01 0.45845595284E+01 0.52299352762E+01 0.62276599451E+01 0.76045359040E+01
 0.92731953102E+01 0.74883638979E+01 0.84710473493E+01 0.92732049135E+01 0.97439260155E+01
 0.97910996817E+01 0.94062093451E+01 0.86641559053E+01 0.76993920214E+01 0.66683963634E+01
 0.57119210747E+01 0.49271206282E+01 0.43526199685E+01 0.39640261081E+01 0.36784283364E+01
 0.34329552362E+01 0.32340392987E+01 0.30862045416E+01 0.29873055146E+01 0.29312261996E+01
 0.29110899777E+01 0.29219779557E+01 0.29626610291E+01 0.30361911731E+01 0.31492897056E+01
 0.33104622786E+01 0.35268878157E+01 0.38005338092E+01 0.41245772883E+01 0.44882392098E+01
 0.49593929265E+01 0.56250720001E+01 0.64931391990E+01 0.55666053256E+01 0.60587316486E+01
 0.64931417098E+01 0.67795602847E+01 0.68509684214E+01 0.66856198776E+01 0.63133593071E+01
 0.58049250639E+01 0.52494065759E+01 0.47285919585E+01 0.42959686705E+01 0.39640261081E+01
 0.36999758123E+01 0.34650215532E+01 0.32645557238E+01 0.31053175805E+01 0.29889558559E+01
 0.29127482241E+01 0.28713516721E+01 0.28588791163E+01 0.28707402469E+01 0.29049354172E+01
 0.29626611148E+01 0.30481527045E+01 0.31677143102E+01 0.33279310963E+01 0.35331987838E+01
 0.37829960093E+01 0.40696926284E+01 0.43778652240E+01 0.47059660352E+01 0.50999158951E+01
 0.47062305602E+01 0.49162711080E+01 0.50999129411E+01 0.52229175546E+01 0.52515539687E+01
 0.51689708248E+01 0.49834368578E+01 0.47258697588E+01 0.44384522435E+01 0.41592350650E+01
 0.39080035467E+01 0.36784283364E+01 0.34650215532E+01 0.32762892528E+01 0.31188569976E+01
 0.29961445625E+01 0.29082651853E+01 0.28526458409E+01 0.28251269937E+01 0.28212002597E+01
 0.28371203432E+01 0.28707402150E+01 0.29219779271E+01 0.29928460239E+01 0.30870021576E+01
 0.32088157618E+01 0.33619886451E+01 0.35478595989E+01 0.37637056575E+01 0.40015595787E+01
 0.42481115126E+01 0.44860116633E+01 0.42668804933E+01 0.43971695761E+01 0.44860061096E+01
 0.45263114603E+01 0.45148294112E+01 0.44492151015E+01 0.43334586133E+01 0.41791328052E+01
 0.40010421327E+01 0.38105181126E+01 0.36177543990E+01 0.34329552362E+01 0.32645557238E+01
 0.31188569976E+01 0.29997984492E+01 0.29089508989E+01 0.28458079674E+01 0.28083437102E+01
 0.27937015336E+01 0.27988627941E+01 0.28212000616E+01 0.28588788232E+01 0.29110895808E+01
 0.29780873821E+01 0.30610204253E+01 0.31615427093E+01 0.32812091849E+01 0.34206593005E+01
 0.35786541731E+01 0.37511600548E+01 0.39307965732E+01 0.41069749654E+01 0.39735135327E+01
 0.40545102231E+01 0.41069699472E+01 0.41245757996E+01 0.41036472417E+01 0.40439785805E+01
 0.39490637676E+01 0.38256445793E+01 0.36827106403E+01 0.35302214746E+01 0.33778578752E+01
 0.32340392987E+01 0.31053175805E+01 0.29961445625E+01 0.29089508989E+01 0.28444554876E+01
 0.28021176652E+01 0.27806331554E+01 0.27783740894E+01 0.27937011757E+01 0.28251263912E+01
 0.28713509002E+01 0.29312252679E+01 0.30036792914E+01 0.30876575746E+01 0.31820748151E+01
 0.32857670224E+01 0.33973751131E+01 0.35150926107E+01 0.36362695253E+01 0.37569743682E+01
 0.38717124914E+01 0.38379969963E+01 0.38652284625E+01 0.38717103630E+01 0.38550591864E+01
 0.38138264887E+01 0.37481926782E+01 0.36604273537E+01 0.35549317050E+01 0.34378152615E+01
 0.33161118101E+01 0.31968479393E+01 0.30862045416E+01 0.29889558559E+01 0.29082651853E+01
 0.28458079674E+01 0.28021176652E+01 0.27770204610E+01 0.27700333911E+01 0.27806326948E+01
 0.28083428692E+01 0.28526447245E+01 0.29127469397E+01 0.29873041559E+01 0.30741873208E+01
 0.31704078642E+01 0.32722566883E+01 0.33756442708E+01 0.34765429102E+01 0.35713761380E+01
 0.36572086349E+01 0.37316690450E+01 0.37926575915E+01 0.38652304181E+01 0.38379987428E+01
 0.37926591353E+01 0.37316704224E+01 0.36572098977E+01 0.35713773412E+01 0.34765441031E+01
 0.33756454911E+01 0.32722579588E+01 0.31704091897E+01 0.30741886842E+01 0.29873055146E+01
 0.29127482241E+01 0.28526458409E+01 0.28083437102E+01 0.27806331554E+01 0.27700333911E+01
 0.27770199669E+01 0.28021167081E+01 0.28458066497E+01 0.29082636740E+01 0.29889543619E+01
 0.30862032881E+01 0.31968471256E+01 0.33161115795E+01 0.34378156791E+01 0.35549327504E+01
 0.36604289309E+01 0.37481946378E+01 0.38138286585E+01 0.38550614017E+01 0.38717124914E+01
 0.40545149303E+01 0.39735179499E+01 0.38717166472E+01 0.37569782647E+01 0.36362731251E+01
 0.35150958465E+01 0.33973779148E+01 0.32857693483E+01 0.31820766744E+01 0.30876590294E+01
 0.30036804375E+01 0.29312261996E+01 0.28713516721E+01 0.28251269937E+01 0.27937015336E+01
 0.27783740894E+01 0.27806326948E+01 0.28021167081E+01 0.28444541107E+01 0.29089493087E+01
 0.29961430771E+01 0.31053165772E+01 0.32340391395E+01 0.33778588312E+01 0.35302236689E+01
 0.36827140254E+01 0.38256489545E+01 0.39490688298E+01 0.40439839944E+01 0.41036527069E+01