    1    1   50    2
  0.1121288E+02  0.2442192E-09  0.2442192E-09  0.2442192E-09  0.5000000E-15
  1.000000000000000E-004
  CAR 
 bcc Fe                                  
      8     44     12
 
  0.5000000E-01  0.5000000E-01  0.5000000E-01  0.8000000E-02
    1       -2.053337     -1.856068   1.000000   1.000000
    2        3.288229      5.345993   1.000000   1.005575
    3        3.288229      5.345993   1.000000   1.005575
    4        3.796881      5.922410   1.000000   0.016567
    5        4.631173      7.395166   1.000000  -0.000000
    6        4.631173      7.395166   1.000000  -0.000000
    7       28.072505     28.209140   0.000000   0.000000
    8       28.072505     28.209140   0.000000   0.000000
    9       31.213028     30.972585   0.000000   0.000000
   10       32.386222     33.323209   0.000000   0.000000
   11       36.076417     36.419035   0.000000   0.000000
   12       36.076417     36.419035   0.000000   0.000000
 
  0.1500000E+00  0.5000000E-01  0.5000000E-01  0.2400000E-01
    1       -0.941967     -0.712994   1.000000   1.000000
    2        2.992611      4.985944   1.000000   1.000000
    3        3.141582      5.129112   1.000000   1.000031
    4        4.460121      6.635384   1.000000  -0.000000
    5        4.526546      7.217971   1.000000  -0.000000
    6        4.706217      7.489018   1.000000  -0.000000
    7       23.853294     24.362217   0.000000   0.000000
    8       26.160455     26.450413   0.000000   0.000000
    9       29.023352     29.870469   0.000000   0.000000
   10       31.467977     31.389912   0.000000   0.000000
   11       35.752427     36.439752   0.000000   0.000000
   12       36.139975     36.445338   0.000000   0.000000
 
  0.2500000E+00  0.5000000E-01  0.5000000E-01  0.2400000E-01
    1        0.413464      0.871855   1.000000   1.000000
    2        2.665759      4.587721   1.000000   1.000000
    3        3.220622      4.914745   1.000000   1.000000
    4        4.585971      7.226910   1.000000  -0.000000
    5        4.785604      7.594259   1.000000  -0.000000
    6        5.387868      7.598043   1.010975  -0.000000
    7       19.250370     20.067083   0.000000   0.000000
    8       24.444546     24.752859   0.000000   0.000000
    9       26.623211     27.387290   0.000000   0.000000
   10       31.018732     31.207223   0.000000   0.000000
   11       34.824147     35.455165   0.000000   0.000000
   12       38.114148     38.376425   0.000000   0.000000
 
  0.3500000E+00  0.5000000E-01  0.5000000E-01  0.2400000E-01
    1        0.967372      2.078427   1.000000   1.000000
    2        2.421195      4.291508   1.000000   1.000000
    3        4.271281      5.329424   1.000000   1.004131
    4        4.727647      7.339806   1.000000  -0.000000
    5        4.850763      7.693573   1.000000  -0.000000
    6        6.516953      8.558670  -0.000001  -0.000000
    7       15.142554     16.283347   0.000000   0.000000
    8       23.263501     23.539686   0.000000   0.000000
    9       25.006721     25.697140   0.000000   0.000000
   10       30.616080     30.961028   0.000000   0.000000
   11       34.494562     35.133875   0.000000   0.000000
   12       40.369549     40.520232   0.000000   0.000000
 
  0.4500000E+00  0.5000000E-01  0.5000000E-01  0.1200000E-01
    1        0.989553      2.362270   1.000000   1.000000
    2        2.331335      4.183170   1.000000   1.000000
    3        4.745724      5.958516   1.000000  -0.019904
    4        4.877098      7.386565   1.000000  -0.000000
    5        5.028089      7.733402   1.000001  -0.000000
    6        7.465984      9.091679  -0.000000  -0.000000
    7       13.023629     14.477352   0.000000   0.000000
    8       22.842944     23.100593   0.000000   0.000000
    9       24.413030     25.066281   0.000000   0.000000
   10       30.475836     30.870198   0.000000   0.000000
   11       34.451274     35.109175   0.000000   0.000000
   12       40.279706     40.343273   0.000000   0.000000
 
 -0.5000000E-01  0.5000000E-01  0.5000000E-01  0.6000000E-02
    1       -2.454311     -2.260785   1.000000   1.000000
    2        3.413250      5.496743   1.000000   1.033338
    3        3.413253      5.496748   1.000000   1.033339
    4        3.469922      5.568029   1.000000   1.024780
    5        4.595004      7.353323   1.000000  -0.000000
    6        4.722610      7.518218   1.000000  -0.000000
    7       29.424107     29.321482   0.000000   0.000000
    8       30.436330     30.303801   0.000000   0.000000
    9       30.436334     30.303801   0.000000   0.000000
   10       34.023851     34.412623   0.000000   0.000000
   11       35.903794     36.792121   0.000000   0.000000
   12       35.903797     36.792123   0.000000   0.000000
 
  0.1500000E+00  0.1500000E+00  0.5000000E-01  0.2400000E-01
    1        0.313205      0.642922   1.000000   1.000000
    2        2.768704      4.682385   1.000000   1.000000
    3        2.798073      4.690769   1.000000   1.000000
    4        4.545772      7.220191   1.000000  -0.000000
    5        4.794687      7.554537   1.000000  -0.000000
    6        5.445108      7.646031   1.022544  -0.000000
    7       21.553233     22.177858   0.000000   0.000000
    8       22.447967     23.039073   0.000000   0.000000
    9       25.857132     26.574011   0.000000   0.000000
   10       32.780706     32.705065   0.000000   0.000000
   11       36.655953     37.056978   0.000000   0.000000
   12       38.175798     38.653719   0.000000   0.000000
 
  0.2500000E+00  0.1500000E+00  0.5000000E-01  0.4800000E-01
    1        1.326811      2.131562   1.000000   1.000000
    2        2.486353      4.319666   1.000000   1.000000
    3        3.030726      4.578304   1.000000   1.000000
    4        4.642695      7.299314   1.000000  -0.000000
    5        4.896646      7.696953   1.000000  -0.000000
    6        6.825131      8.835145  -0.000000  -0.000000
    7       17.479824     18.371731   0.000000   0.000000
    8       20.610707     21.243324   0.000000   0.000000
    9       24.087140     24.713443   0.000000   0.000000
   10       32.980885     33.079856   0.000000   0.000000
   11       37.435154     37.793147   0.000000   0.000000
   12       38.869171     39.316760   0.000000   0.000000
 
  0.3500000E+00  0.1500000E+00  0.5000000E-01  0.4800000E-01
    1        1.426453      2.794653   1.000000   1.000000
    2        2.352213      4.150948   1.000000   1.000000
    3        3.766005      5.037575   1.000000   1.000002
    4        4.755604      7.415932   1.000000  -0.000000
    5        4.990847      7.757144   1.000000  -0.000000
    6        8.612008     10.146381  -0.000000  -0.000000
    7       13.878895     15.113475   0.000000   0.000000
    8       19.783756     20.408904   0.000000   0.000000
    9       23.190842     23.773878   0.000000   0.000000
   10       32.840982     33.046501   0.000000   0.000000
   11       38.130365     38.585998   0.000000   0.000000
   12       39.122586     39.340432   0.000000   0.000000
 
 -0.1500000E+00  0.1500000E+00  0.5000000E-01  0.2400000E-01
    1       -1.666697     -1.462357   1.000000   1.000000
    2        3.230580      5.272369   1.000000   1.001294
    3        3.379557      5.426134   1.000000   1.018280
    4        3.874450      6.012593   1.000000  -0.035458
    5        4.395759      7.078349   1.000000  -0.000000
    6        4.784263      7.589519   1.000000  -0.000000
    7       26.125130     26.440418   0.000000   0.000000
    8       28.812293     28.910359   0.000000   0.000000
    9       29.525701     29.749424   0.000000   0.000000
   10       33.234772     33.626689   0.000000   0.000000
   11       33.458722     34.198255   0.000000   0.000000
   12       34.459842     35.056440   0.000000   0.000000
 
  0.2500000E+00  0.2500000E+00  0.5000000E-01  0.2400000E-01
    1        1.864232      3.201032   1.000000   1.000000
    2        2.415204      4.099544   1.000000   1.000000
    3        3.007853      4.463500   1.000000   1.000000
    4        4.745466      7.413543   1.000000  -0.000000
    5        4.977864      7.735918   1.000000  -0.000000
    6        8.979420     10.591916  -0.000000  -0.000000
    7       15.847873     16.805727   0.000000   0.000000
    8       16.868843     17.703121   0.000000   0.000000
    9       22.989758     23.594037   0.000000   0.000000
   10       34.355692     34.439019   0.000000   0.000000
   11       37.207829     37.433565   0.000000   0.000000
   12       43.147683     43.464165   0.000000   0.000000
 
  0.3500000E+00  0.2500000E+00  0.5000000E-01  0.2400000E-01
    1        1.910380      3.468419   1.000000   1.000000
    2        2.457251      4.110904   1.000000   1.000000
    3        3.075277      4.515313   1.000000   1.000000
    4        4.838477      7.522425   1.000000  -0.000000
    5        4.980798      7.701521   1.000000  -0.000000
    6       11.090990     12.310981  -0.000000   0.000000
    7       13.319175     14.515645   0.000000   0.000000
    8       16.141286     17.007342   0.000000   0.000000
    9       22.645371     23.254062   0.000000   0.000000
   10       34.883558     35.005394   0.000000   0.000000
   11       37.204355     37.295056   0.000000   0.000000
   12       42.742997     43.302339   0.000000   0.000000
 
 -0.2500000E+00  0.2500000E+00  0.5000000E-01  0.2400000E-01
    1       -0.328723     -0.032630   1.000000   1.000000
    2        2.918032      4.893751   1.000000   1.000000
    3        3.281601      5.182061   1.000000   1.000140
    4        4.391859      6.829480   1.000000  -0.000000
    5        4.608153      6.981685   1.000000  -0.000000
    6        4.859208      7.664269   1.000000  -0.000000
    7       21.512551     22.200757   0.000000   0.000000
    8       26.662500     26.810761   0.000000   0.000000
    9       28.056827     28.642819   0.000000   0.000000
   10       31.382533     31.946683   0.000000   0.000000
   11       33.082551     33.664765   0.000000   0.000000
   12       35.209663     35.510746   0.000000   0.000000
 
 -0.1500000E+00  0.2500000E+00  0.5000000E-01  0.2400000E-01
    1       -0.604034     -0.354231   1.000000   1.000000
    2        3.160801      5.144354   1.000000   1.000048
    3        3.162914      5.181641   1.000000   1.000138
    4        4.204263      6.604267   1.000000  -0.000000
    5        4.427667      6.777903   1.000000  -0.000000
    6        4.930791      7.736830   1.000000  -0.000000
    7       23.716735     24.219114   0.000000   0.000000
    8       24.956466     25.493816   0.000000   0.000000
    9       29.630278     29.841872   0.000000   0.000000
   10       30.525120     31.148442   0.000000   0.000000
   11       33.195867     33.602841   0.000000   0.000000
   12       36.472850     36.909442   0.000000   0.000000
 
 -0.3500000E+00  0.3500000E+00  0.5000000E-01  0.2400000E-01
    1        0.722198      1.499584   1.000000   1.000000
    2        2.617276      4.533327   1.000000   1.000000
    3        3.747405      5.161705   1.000000   1.000080
    4        4.629383      7.144177   1.000000  -0.000000
    5        5.095900      7.752411   1.000011  -0.000000
    6        5.422724      7.775458   1.017547  -0.000000
    7       17.038029     18.023484   0.000000   0.000000
    8       24.969190     25.101511   0.000000   0.000000
    9       26.340096     27.024298   0.000000   0.000000
   10       30.346028     30.882375   0.000000   0.000000
   11       32.992701     33.602974   0.000000   0.000000
   12       37.036617     37.319686   0.000000   0.000000
 
 -0.2500000E+00  0.3500000E+00  0.5000000E-01  0.4800000E-01
    1        0.677316      1.175559   1.000000   1.000000
    2        2.807617      4.745013   1.000000   1.000000
    3        3.124309      4.943930   1.000000   1.000000
    4        4.329125      6.818973   1.000000  -0.000000
    5        4.988217      7.486191   1.000000  -0.000000
    6        5.513407      7.948682   1.035164  -0.000000
    7       19.521571     20.325609   0.000000   0.000000
    8       22.679837     23.257977   0.000000   0.000000
    9       27.844782     28.283084   0.000000   0.000000
   10       30.257569     30.671271   0.000000   0.000000
   11       33.701915     34.128923   0.000000   0.000000
   12       37.053146     37.505307   0.000000   0.000000
 
 -0.4500000E+00  0.4500000E+00  0.5000000E-01  0.2400000E-01
    1        0.911275      2.223976   1.000000   1.000000
    2        2.437062      4.319131   1.000000   1.000000
    3        4.391813      5.844366   1.000000   0.199416
    4        4.694933      7.270142   1.000000  -0.000000
    5        5.978784      8.050774  -0.030082  -0.000000
    6        6.337498      8.395339  -0.000210  -0.000000
    7       13.614958     14.974946   0.000000   0.000000
    8       24.049509     24.155472   0.000000   0.000000
    9       25.202008     25.844860   0.000000   0.000000
   10       29.955334     30.532526   0.000000   0.000000
   11       33.114229     33.775308   0.000000   0.000000
   12       38.297717     38.428280   0.000000   0.000000
 
 -0.3500000E+00  0.4500000E+00  0.5000000E-01  0.4800000E-01
    1        1.202579      2.359770   1.000000   1.000000
    2        2.612527      4.489280   1.000000   1.000000
    3        3.484109      5.000496   1.000000   1.000000
    4        4.564081      7.063776   1.000000  -0.000000
    5        5.357264      7.877405   1.006768  -0.000000
    6        6.955798      8.872316  -0.000000  -0.000000
    7       15.355784     16.458705   0.000000   0.000000
    8       21.435836     22.016112   0.000000   0.000000
    9       26.250292     26.643030   0.000000   0.000000
   10       30.417467     30.917705   0.000000   0.000000
   11       34.821323     35.159925   0.000000   0.000000
   12       36.833172     37.302507   0.000000   0.000000
 
 -0.2500000E+00  0.4500000E+00  0.5000000E-01  0.2400000E-01
    1        1.561400      2.512690   1.000000   1.000000
    2        2.471079      4.320386   1.000000   1.000000
    3        3.120386      4.845825   1.000000   1.000000
    4        4.453883      6.923835   1.000000  -0.000000
    5        5.139115      7.745182   1.000041  -0.000000
    6        7.197942      9.139861  -0.000000  -0.000000
    7       17.683544     18.587050   0.000000   0.000000
    8       18.484171     19.251923   0.000000   0.000000
    9       27.433854     27.940715   0.000000   0.000000
   10       30.031231     30.287648   0.000000   0.000000
   11       33.625698     34.034079   0.000000   0.000000
   12       41.307954     41.701812   0.000000   0.000000
 
 -0.4500000E+00 -0.4500000E+00  0.5000000E-01  0.2400000E-01
    1        1.210946      2.642816   1.000000   1.000000
    2        2.547933      4.417196   1.000000   1.000000
    3        3.728702      5.269289   1.000000   1.001209
    4        4.595360      7.138402   1.000000  -0.000000
    5        5.651397      8.075020   0.910767  -0.000000
    6        8.267047      9.686164  -0.000000  -0.000000
    7       13.084437     14.494055   0.000000   0.000000
    8       20.985953     21.557164   0.000000   0.000000
    9       25.685690     26.049834   0.000000   0.000000
   10       30.455277     30.999205   0.000000   0.000000
   11       36.001799     36.130192   0.000000   0.000000
   12       36.168931     36.748307   0.000000   0.000000
 
 -0.3500000E+00 -0.4500000E+00  0.5000000E-01  0.4800000E-01
    1        1.777533      3.252131   1.000000   1.000000
    2        2.506792      4.271489   1.000000   1.000000
    3        3.039300      4.671543   1.000000   1.000000
    4        4.673640      7.166613   1.000000  -0.000000
    5        5.282200      7.792775   1.001603  -0.000000
    6        9.534789     10.979368  -0.000000  -0.000000
    7       14.161348     15.311763   0.000000   0.000000
    8       17.324239     18.127063   0.000000   0.000000
    9       26.748098     27.234552   0.000000   0.000000
   10       30.691068     31.014799   0.000000   0.000000
   11       33.788131     34.010789   0.000000   0.000000
   12       40.290510     41.040323   0.000000   0.000000
 
 -0.3500000E+00 -0.3500000E+00  0.5000000E-01  0.8000000E-02
    1        2.229797      3.925055   1.000000   1.000000
    2        2.528404      4.175510   1.000000   1.000000
    3        2.528407      4.175513   1.000000   1.000000
    4        5.010571      7.506115   1.000001  -0.000000
    5        5.010572      7.506118   1.000001  -0.000000
    6       12.492232     13.656079   0.000000   0.000000
    7       12.492237     13.656083   0.000000   0.000000
    8       15.084942     16.069851   0.000000   0.000000
    9       26.863650     27.429898   0.000000   0.000000
   10       32.120834     32.324029   0.000000   0.000000
   11       32.120842     32.324030   0.000000   0.000000
   12       39.855749     40.826079   0.000000   0.000000
 
  0.1500000E+00  0.1500000E+00  0.1500000E+00  0.8000000E-02
    1        1.545619      2.065519   1.000000   1.000000
    2        2.482219      4.292598   1.000000   1.000000
    3        2.482219      4.292598   1.000000   1.000000
    4        4.764939      7.536514   1.000000  -0.000000
    5        4.764939      7.536514   1.000000  -0.000000
    6        6.843879      8.875325  -0.000000  -0.000000
    7       19.893872     20.571453   0.000000   0.000000
    8       19.893872     20.571453   0.000000   0.000000
    9       21.577599     22.363956   0.000000   0.000000
   10       35.665222     35.431700   0.000000   0.000000
   11       39.514253     39.826043   0.000000   0.000000
   12       39.514253     39.826043   0.000000   0.000000
 
  0.2500000E+00  0.1500000E+00  0.1500000E+00  0.2400000E-01
    1        1.962818      3.187628   1.000000   1.000000
    2        2.323040      4.062112   1.000000   1.000000
    3        2.930596      4.297191   1.000000   1.000000
    4        4.817849      7.577627   1.000000  -0.000000
    5        4.868881      7.707428   1.000000  -0.000000
    6        8.780981     10.441902  -0.000000  -0.000000
    7       16.020332     16.957899   0.000000   0.000000
    8       18.849219     19.542988   0.000000   0.000000
    9       19.881185     20.607080   0.000000   0.000000
   10       36.690496     36.628559   0.000000   0.000000
   11       40.450023     40.778085   0.000000   0.000000
   12       41.787874     41.895684   0.000000   0.000000
 
  0.3500000E+00  0.1500000E+00  0.1500000E+00  0.1200000E-01
    1        1.875023      3.333167   1.000000   1.000000
    2        2.274051      3.987626   1.000000   1.000000
    3        3.373672      4.683407   1.000000   1.000000
    4        4.853075      7.610405   1.000000  -0.000000
    5        4.896820      7.759612   1.000000  -0.000000
    6       10.580735     11.812734  -0.000000   0.000000
    7       13.404473     14.643199   0.000000   0.000000
    8       18.491712     19.187609   0.000000   0.000000
    9       19.408210     20.116574   0.000000   0.000000
   10       36.698904     36.720568   0.000000   0.000000
   11       41.064332     41.563220   0.000000   0.000000
   12       41.917885     42.001711   0.000000   0.000000
 
 -0.1500000E+00  0.1500000E+00  0.1500000E+00  0.6000000E-02
    1       -0.931601     -0.704677   1.000000   1.000000
    2        3.475222      5.512777   1.000000   1.035123
    3        3.475225      5.512782   1.000000   1.035123
    4        3.888934      6.036252   1.000000  -0.033592
    5        3.911720      6.467995   1.000000  -0.000004
    6        4.996712      7.814078   1.000000  -0.000000
    7       25.689091     25.933027   0.000000   0.000000
    8       27.314335     27.856459   0.000000   0.000000
    9       27.314343     27.856463   0.000000   0.000000
   10       29.075852     29.513469   0.000000   0.000000
   11       35.839782     36.225060   0.000000   0.000000
   12       35.839784     36.225066   0.000000   0.000000
 
  0.2500000E+00  0.2500000E+00  0.1500000E+00  0.2400000E-01
    1        2.160539      3.730681   1.000000   1.000000
    2        2.465336      4.031961   1.000000   1.000000
    3        2.833437      4.222319   1.000000   1.000000
    4        4.880700      7.692114   1.000000  -0.000000
    5        4.906304      7.750275   1.000000  -0.000000
    6       11.388983     12.643976   0.000000   0.000000
    7       14.686310     15.666953   0.000000   0.000000
    8       15.864065     16.751797   0.000000   0.000000
    9       18.741757     19.456706   0.000000   0.000000
   10       39.287646     39.237147   0.000000   0.000000
   11       41.056370     41.116835   0.000000   0.000000
   12       44.546027     44.664133   0.000000   0.000000
 
 -0.2500000E+00  0.2500000E+00  0.1500000E+00  0.2400000E-01
    1        0.279500      0.634218   1.000000   1.000000
    2        3.180681      5.270182   1.000000   1.001233
    3        3.325867      5.327333   1.000000   1.003973
    4        3.932985      6.245124   1.000000  -0.001876
    5        4.521511      6.731836   1.000000  -0.000000
    6        5.277399      7.996936   1.001445  -0.000000
    7       22.074400     22.748222   0.000000   0.000000
    8       25.167885     25.784566   0.000000   0.000000
    9       25.405487     25.840796   0.000000   0.000000
   10       29.025833     29.487514   0.000000   0.000000
   11       35.203247     35.682299   0.000000   0.000000
   12       36.545884     36.933656   0.000000   0.000000
 
 -0.3500000E+00  0.3500000E+00  0.1500000E+00  0.2400000E-01
    1        1.198918      2.057526   1.000000   1.000000
    2        2.925561      4.780113   1.000000   1.000000
    3        3.080170      5.034354   1.000000   1.000001
    4        4.314143      6.626620   1.000000  -0.000000
    5        5.348704      7.666037   1.005846  -0.000000
    6        6.167222      8.404971  -0.008013  -0.000000
    7       17.557779     18.492400   0.000000   0.000000
    8       23.392724     24.077619   0.000000   0.000000
    9       24.175474     24.553326   0.000000   0.000000
   10       30.587213     30.993009   0.000000   0.000000
   11       34.103450     34.628131   0.000000   0.000000
   12       36.404851     36.870329   0.000000   0.000000
 
 -0.2500000E+00  0.3500000E+00  0.1500000E+00  0.2400000E-01
    1        1.255564      1.943513   1.000000   1.000000
    2        2.658264      4.721521   1.000000   1.000000
    3        3.456192      5.406110   1.000000   1.014191
    4        4.073142      6.301127   1.000000  -0.000527
    5        5.032423      7.365389   1.000001  -0.000000
    6        6.156806      8.443450  -0.009446  -0.000000
    7       20.075287     20.879561   0.000000   0.000000
    8       20.745833     21.450936   0.000000   0.000000
    9       26.264080     26.717848   0.000000   0.000000
   10       27.758179     28.222559   0.000000   0.000000
   11       34.733846     35.232062   0.000000   0.000000
   12       39.966467     40.346916   0.000000   0.000000
 
 -0.4500000E+00  0.4500000E+00  0.1500000E+00  0.2400000E-01
    1        1.318228      2.751140   1.000000   1.000000
    2        2.926439      4.785107   1.000000   1.000000
    3        3.123394      4.851662   1.000000   1.000000
    4        4.390052      6.791988   1.000000  -0.000000
    5        5.926269      8.335153   0.011371  -0.000000
    6        8.083517      9.534113  -0.000000  -0.000000
    7       13.881024     15.140190   0.000000   0.000000
    8       22.337283     22.983672   0.000000   0.000000
    9       23.506505     23.885213   0.000000   0.000000
   10       32.628436     32.912581   0.000000   0.000000
   11       33.535048     34.079943   0.000000   0.000000
   12       35.346398     35.893429   0.000000   0.000000
 
 -0.3500000E+00  0.4500000E+00  0.1500000E+00  0.4800000E-01
    1        1.683445      2.988130   1.000000   1.000000
    2        2.428677      4.264093   1.000000   1.000000
    3        3.263751      5.195679   1.000000   1.000202
    4        4.410595      6.693927   1.000000  -0.000000
    5        5.507953      7.891363   1.034729  -0.000000
    6        8.162652      9.809643  -0.000000  -0.000000
    7       16.030721     17.025112   0.000000   0.000000
    8       19.192492     19.931746   0.000000   0.000000
    9       25.714378     26.159807   0.000000   0.000000
   10       29.197747     29.596384   0.000000   0.000000
   11       33.696224     34.199437   0.000000   0.000000
   12       38.360650     39.099617   0.000000   0.000000
 
 -0.4500000E+00 -0.4500000E+00  0.1500000E+00  0.2400000E-01
    1        1.636912      3.265527   1.000000   1.000000
    2        2.592063      4.288339   1.000000   1.000000
    3        3.080637      5.000015   1.000000   1.000000
    4        4.502994      6.814204   1.000000  -0.000000
    5        5.764174      8.157827   0.513507  -0.000000
    6       10.114091     11.315297  -0.000000   0.000000
    7       13.337824     14.600655   0.000000   0.000000
    8       18.710707     19.434036   0.000000   0.000000
    9       25.354935     25.795373   0.000000   0.000000
   10       30.947084     31.197358   0.000000   0.000000
   11       32.450609     33.045912   0.000000   0.000000
   12       37.036584     37.858903   0.000000   0.000000
 
 -0.3500000E+00 -0.4500000E+00  0.1500000E+00  0.2400000E-01
    1        2.070090      3.732824   1.000000   1.000000
    2        2.114776      3.894723   1.000000   1.000000
    3        3.002673      4.859248   1.000000   1.000000
    4        4.902326      7.208936   1.000000  -0.000000
    5        5.417168      7.783942   1.016384  -0.000000
    6       10.999809     12.251094  -0.000000   0.000000
    7       14.517379     15.560548   0.000000   0.000000
    8       15.801844     16.675884   0.000000   0.000000
    9       27.722392     28.099432   0.000000   0.000000
   10       28.698359     29.084588   0.000000   0.000000
   11       31.664601     32.218916   0.000000   0.000000
   12       37.003491     37.876381   0.000000   0.000000
 
  0.2500000E+00  0.2500000E+00  0.2500000E+00  0.2000000E-02
    1        2.506188      4.026868   1.000000   1.000000
    2        2.506188      4.026872   1.000000   1.000000
    3        2.506192      4.026872   1.000000   1.000000
    4        4.909086      7.775991   1.000000  -0.000000
    5        4.909086      7.775991   1.000000  -0.000000
    6       14.289011     15.275197   0.000000   0.000000
    7       14.289011     15.275204   0.000000   0.000000
    8       14.289016     15.275204   0.000000   0.000000
    9       16.453822     17.253877   0.000000   0.000000
   10       44.554403     44.340157   0.000000   0.000000
   11       44.554406     44.340158   0.000000   0.000000
   12       44.554407     44.340158   0.000000   0.000000
 
 -0.2500000E+00  0.2500000E+00  0.2500000E+00  0.6000000E-02
    1        1.121480      1.727483   1.000000   1.000000
    2        2.801984      5.060587   1.000000   1.000003
    3        3.855065      5.876582   1.000000   0.105652
    4        3.855068      5.876587   1.000000   0.105640
    5        4.581189      6.813802   1.000000  -0.000000
    6        5.963168      8.370621  -0.022809  -0.000000
    7       22.691638     23.395587   0.000000   0.000000
    8       22.691647     23.395590   0.000000   0.000000
    9       23.212173     23.805126   0.000000   0.000000
   10       25.551302     26.022641   0.000000   0.000000
   11       39.486272     39.852810   0.000000   0.000000
   12       39.486276     39.852815   0.000000   0.000000
 
 -0.3500000E+00  0.3500000E+00  0.2500000E+00  0.2400000E-01
    1        1.615715      2.754061   1.000000   1.000000
    2        2.245982      4.302043   1.000000   1.000000
    3        3.892941      5.921392   1.000000   0.017995
    4        4.232236      6.347034   1.000000  -0.000163
    5        5.245847      7.550607   1.000706  -0.000000
    6        7.478987      9.251769  -0.000000  -0.000000
    7       18.512275     19.335156   0.000000   0.000000
    8       20.737764     21.411229   0.000000   0.000000
    9       23.186303     23.816137   0.000000   0.000000
   10       26.074075     26.583189   0.000000   0.000000
   11       37.161004     37.893765   0.000000   0.000000
   12       38.349926     38.848221   0.000000   0.000000
 
 -0.4500000E+00  0.4500000E+00  0.2500000E+00  0.2400000E-01
    1        1.601638      3.276044   1.000000   1.000000
    2        2.095940      3.887072   1.000000   1.000000
    3        3.810812      5.829435   1.000000   0.250864
    4        4.399538      6.556778   1.000000  -0.000000
    5        5.842119      8.238927   0.206861  -0.000000
    6       10.000655     11.205881  -0.000000  -0.000000
    7       14.547399     15.588699   0.000000   0.000000
    8       19.596543     20.211238   0.000000   0.000000
    9       22.874828     23.529533   0.000000   0.000000
   10       28.036798     28.438982   0.000000   0.000000
   11       33.732114     34.599266   0.000000   0.000000
   12       37.697896     38.196382   0.000000   0.000000
 
 -0.3500000E+00  0.4500000E+00  0.2500000E+00  0.2400000E-01
    1        1.699630      3.261406   1.000000   1.000000
    2        1.797496      3.753004   1.000000   1.000000
    3        3.969330      5.984968   1.000000  -0.032014
    4        4.761575      6.930660   1.000000  -0.000000
    5        5.562582      7.910376   1.027435  -0.000000
    6        9.809165     11.067845  -0.000000  -0.000000
    7       16.892031     17.737604   0.000000   0.000000
    8       17.397090     18.113769   0.000000   0.000000
    9       24.044090     24.659791   0.000000   0.000000
   10       25.682672     26.219305   0.000000   0.000000
   11       33.242444     34.079551   0.000000   0.000000
   12       38.558450     39.075964   0.000000   0.000000
 
 -0.4500000E+00 -0.4500000E+00  0.2500000E+00  0.2400000E-01
    1        1.592427      3.432553   1.000000   1.000000
    2        1.741195      3.533312   1.000000   1.000000