 vasp.5.4.4.18Apr17-6-g9f103f2a35 (build Jul 01 2019 03:25:34) complex          
  
 executed on             LinuxIFC date 2020.07.01  21:18:51
 running on    4 total cores
 distrk:  each k-point on    4 cores,    1 groups
 distr:  one band on NCORES_PER_BAND=   1 cores,    4 groups


--------------------------------------------------------------------------------------------------------


 INCAR:
 POTCAR:    PAW_PBE Fe 06Sep2000                  
 POTCAR:    PAW_PBE Fe 06Sep2000                  
   VRHFIN =Fe:  d7 s1                                                           
   LEXCH  = PE                                                                  
   EATOM  =   594.3153 eV,   43.6809 Ry                                         
                                                                                
   TITEL  = PAW_PBE Fe 06Sep2000                                                
   LULTRA =        F    use ultrasoft PP ?                                      
   IUNSCR =        1    unscreen: 0-lin 1-nonlin 2-no                           
   RPACOR =    2.000    partial core radius                                     
   POMASS =   55.847; ZVAL   =    8.000    mass and valenz                      
   RCORE  =    2.300    outmost cutoff radius                                   
   RWIGS  =    2.460; RWIGS  =    1.302    wigner-seitz radius (au A)           
   ENMAX  =  267.882; ENMIN  =  200.911 eV                                      
   RCLOC  =    1.701    cutoff for local pot                                    
   LCOR   =        T    correct aug charges                                     
   LPAW   =        T    paw PP                                                  
   EAUG   =  511.368                                                            
   DEXC   =    0.000                                                            
   RMAX   =    2.356    core radius for proj-oper                               
   RAUG   =    1.300    factor for augmentation sphere                          
   RDEP   =    2.442    radius for radial grids                                 
   RDEPT  =    1.890    core radius for aug-charge                              
                                                                                
   Atomic configuration                                                         
    9 entries                                                                   
     n  l   j            E        occ.                                          
     1  0  0.50     -6993.8440   2.0000                                         
     2  0  0.50      -814.6047   2.0000                                         
     2  1  1.50      -693.3689   6.0000                                         
     3  0  0.50       -89.4732   2.0000                                         
     3  1  1.50       -55.6373   6.0000                                         
     3  2  2.50        -3.8151   7.0000                                         
     4  0  0.50        -4.2551   1.0000                                         
     4  1  1.50        -3.4015   0.0000                                         
     4  3  2.50        -1.3606   0.0000                                         
   Description                                                                  
     l       E           TYP  RCUT    TYP  RCUT                                 
     2     -3.8151135     23  2.300                                             
     2     -5.1756961     23  2.300                                             
     0     -4.2550963     23  2.300                                             
     0      7.2035603     23  2.300                                             
     1     -2.7211652     23  2.300                                             
     1     18.4316424     23  2.300                                             
  local pseudopotential read in
  partial core-charges read in
  partial kinetic energy density read in
  atomic valenz-charges read in
  non local Contribution for L=           2  read in
    real space projection operators read in
  non local Contribution for L=           2  read in
    real space projection operators read in
  non local Contribution for L=           0  read in
    real space projection operators read in
  non local Contribution for L=           0  read in
    real space projection operators read in
  non local Contribution for L=           1  read in
    real space projection operators read in
  non local Contribution for L=           1  read in
    real space projection operators read in
    PAW grid and wavefunctions read in
 
   number of l-projection  operators is LMAX  =           6
   number of lm-projection operators is LMMAX =          18
 
  PAW_PBE Fe 06Sep2000                  :
 energy of atom  1       EATOM= -594.3153
 kinetic energy error for atom=    0.0205 (will be added to EATOM!!)
 
 
 POSCAR: Fe bulk bcc                             
  positions in direct lattice
  No initial velocities read in
 exchange correlation table for  LEXCH =        8
   RHO(1)=    0.500       N(1)  =     2000
   RHO(2)=  100.500       N(2)  =     4000
 


--------------------------------------------------------------------------------------------------------


 ion  position               nearest neighbor table
   1  0.000  0.000  0.000-
 
  LATTYP: Found a body centered cubic cell.
 ALAT       =     2.8200000000
  
  Lattice vectors:
  
 A1 = (  -1.4100000000,   1.4100000000,   1.4100000000)
 A2 = (   1.4100000000,  -1.4100000000,   1.4100000000)
 A3 = (   1.4100000000,   1.4100000000,  -1.4100000000)


Analysis of symmetry for initial positions (statically):
=====================================================================
 Subroutine PRICEL returns:
 Original cell was already a primitive cell.
 

 Routine SETGRP: Setting up the symmetry group for a 
 body centered cubic supercell.


 Subroutine GETGRP returns: Found 48 space group operations
 (whereof 48 operations were pure point group operations)
 out of a pool of 48 trial point group operations.


The static configuration has the point symmetry O_h .


Analysis of symmetry for dynamics (positions and initial velocities):
=====================================================================
 Subroutine PRICEL returns:
 Original cell was already a primitive cell.
 

 Routine SETGRP: Setting up the symmetry group for a 
 body centered cubic supercell.


 Subroutine GETGRP returns: Found 48 space group operations
 (whereof 48 operations were pure point group operations)
 out of a pool of 48 trial point group operations.


The dynamic configuration has the point symmetry O_h .


Analysis of structural, dynamic, and magnetic symmetry:
=====================================================================
 Subroutine PRICEL returns:
 Original cell was already a primitive cell.
 

 Routine SETGRP: Setting up the symmetry group for a 
 body centered cubic supercell.


 Subroutine GETGRP returns: Found 48 space group operations
 (whereof 48 operations were pure point group operations)
 out of a pool of 48 trial point group operations.


The magnetic configuration has the point symmetry O_h .


 Subroutine INISYM returns: Found 48 space group operations
 (whereof 48 operations are pure point group operations),
 and found     1 'primitive' translations

 
 
 KPOINTS: 10x10x10                                

Automatic generation of k-mesh.
Space group operators:
 irot       det(A)        alpha          n_x          n_y          n_z        tau_x        tau_y        tau_z
    1     1.000000     0.000000     1.000000     0.000000     0.000000     0.000000     0.000000     0.000000
    2    -1.000000     0.000000     1.000000     0.000000     0.000000     0.000000     0.000000     0.000000
    3     1.000000   120.000000    -0.577350    -0.577350    -0.577350     0.000000     0.000000     0.000000
    4    -1.000000   120.000000    -0.577350    -0.577350    -0.577350     0.000000     0.000000     0.000000
    5     1.000000   120.000000     0.577350     0.577350     0.577350     0.000000     0.000000     0.000000
    6    -1.000000   120.000000     0.577350     0.577350     0.577350     0.000000     0.000000     0.000000
    7     1.000000    90.000000     0.000000     0.000000    -1.000000     0.000000     0.000000     0.000000
    8    -1.000000    90.000000     0.000000     0.000000    -1.000000     0.000000     0.000000     0.000000
    9     1.000000   180.000000     0.000000     0.707107     0.707107     0.000000     0.000000     0.000000
   10    -1.000000   180.000000     0.000000     0.707107     0.707107     0.000000     0.000000     0.000000
   11     1.000000    90.000000     0.000000     1.000000     0.000000     0.000000     0.000000     0.000000
   12    -1.000000    90.000000     0.000000     1.000000     0.000000     0.000000     0.000000     0.000000
   13     1.000000   179.999999     0.000000     0.000000     1.000000     0.000000     0.000000     0.000000
   14    -1.000000   179.999999     0.000000     0.000000     1.000000     0.000000     0.000000     0.000000
   15     1.000000   120.000000    -0.577350     0.577350     0.577350     0.000000     0.000000     0.000000
   16    -1.000000   120.000000    -0.577350     0.577350     0.577350     0.000000     0.000000     0.000000
   17     1.000000   120.000000    -0.577350     0.577350    -0.577350     0.000000     0.000000     0.000000
   18    -1.000000   120.000000    -0.577350     0.577350    -0.577350     0.000000     0.000000     0.000000
   19     1.000000    90.000000     0.000000     0.000000     1.000000     0.000000     0.000000     0.000000
   20    -1.000000    90.000000     0.000000     0.000000     1.000000     0.000000     0.000000     0.000000
   21     1.000000    90.000000    -1.000000     0.000000     0.000000     0.000000     0.000000     0.000000
   22    -1.000000    90.000000    -1.000000     0.000000     0.000000     0.000000     0.000000     0.000000
   23     1.000000   180.000000     0.707107     0.000000     0.707107     0.000000     0.000000     0.000000
   24    -1.000000   180.000000     0.707107     0.000000     0.707107     0.000000     0.000000     0.000000
   25     1.000000   120.000000     0.577350    -0.577350     0.577350     0.000000     0.000000     0.000000
   26    -1.000000   120.000000     0.577350    -0.577350     0.577350     0.000000     0.000000     0.000000
   27     1.000000   120.000000    -0.577350    -0.577350     0.577350     0.000000     0.000000     0.000000
   28    -1.000000   120.000000    -0.577350    -0.577350     0.577350     0.000000     0.000000     0.000000
   29     1.000000   180.000000     1.000000     0.000000     0.000000     0.000000     0.000000     0.000000
   30    -1.000000   180.000000     1.000000     0.000000     0.000000     0.000000     0.000000     0.000000
   31     1.000000    90.000000     0.000000    -1.000000     0.000000     0.000000     0.000000     0.000000
   32    -1.000000    90.000000     0.000000    -1.000000     0.000000     0.000000     0.000000     0.000000
   33     1.000000   180.000000     0.707107     0.707107     0.000000     0.000000     0.000000     0.000000
   34    -1.000000   180.000000     0.707107     0.707107     0.000000     0.000000     0.000000     0.000000
   35     1.000000    90.000000     1.000000     0.000000     0.000000     0.000000     0.000000     0.000000
   36    -1.000000    90.000000     1.000000     0.000000     0.000000     0.000000     0.000000     0.000000
   37     1.000000   120.000000     0.577350    -0.577350    -0.577350     0.000000     0.000000     0.000000
   38    -1.000000   120.000000     0.577350    -0.577350    -0.577350     0.000000     0.000000     0.000000
   39     1.000000   180.000000     0.000000     1.000000     0.000000     0.000000     0.000000     0.000000
   40    -1.000000   180.000000     0.000000     1.000000     0.000000     0.000000     0.000000     0.000000
   41     1.000000   120.000000     0.577350     0.577350    -0.577350     0.000000     0.000000     0.000000
   42    -1.000000   120.000000     0.577350     0.577350    -0.577350     0.000000     0.000000     0.000000
   43     1.000000   180.000000     0.000000    -0.707107     0.707107     0.000000     0.000000     0.000000
   44    -1.000000   180.000000     0.000000    -0.707107     0.707107     0.000000     0.000000     0.000000
   45     1.000000   180.000000     0.707107    -0.707107     0.000000     0.000000     0.000000     0.000000
   46    -1.000000   180.000000     0.707107    -0.707107     0.000000     0.000000     0.000000     0.000000
   47     1.000000   180.000000     0.707107     0.000000    -0.707107     0.000000     0.000000     0.000000
   48    -1.000000   180.000000     0.707107     0.000000    -0.707107     0.000000     0.000000     0.000000
 
 Subroutine IBZKPT returns following result:
 ===========================================
 
 Found     44 irreducible k-points:
 
 Following reciprocal coordinates:
            Coordinates               Weight
  0.050000  0.050000  0.050000      8.000000
  0.150000  0.050000  0.050000     24.000000
  0.250000  0.050000  0.050000     24.000000
  0.350000  0.050000  0.050000     24.000000
  0.450000  0.050000  0.050000     12.000000
 -0.050000  0.050000  0.050000      6.000000
  0.150000  0.150000  0.050000     24.000000
  0.250000  0.150000  0.050000     48.000000
  0.350000  0.150000  0.050000     48.000000
 -0.150000  0.150000  0.050000     24.000000
  0.250000  0.250000  0.050000     24.000000
  0.350000  0.250000  0.050000     24.000000
 -0.250000  0.250000  0.050000     24.000000
 -0.150000  0.250000  0.050000     24.000000
 -0.350000  0.350000  0.050000     24.000000
 -0.250000  0.350000  0.050000     48.000000
 -0.450000  0.450000  0.050000     24.000000
 -0.350000  0.450000  0.050000     48.000000
 -0.250000  0.450000  0.050000     24.000000
 -0.450000 -0.450000  0.050000     24.000000
 -0.350000 -0.450000  0.050000     48.000000
 -0.350000 -0.350000  0.050000      8.000000
  0.150000  0.150000  0.150000      8.000000
  0.250000  0.150000  0.150000     24.000000
  0.350000  0.150000  0.150000     12.000000
 -0.150000  0.150000  0.150000      6.000000
  0.250000  0.250000  0.150000     24.000000
 -0.250000  0.250000  0.150000     24.000000
 -0.350000  0.350000  0.150000     24.000000
 -0.250000  0.350000  0.150000     24.000000
 -0.450000  0.450000  0.150000     24.000000
 -0.350000  0.450000  0.150000     48.000000
 -0.450000 -0.450000  0.150000     24.000000
 -0.350000 -0.450000  0.150000     24.000000
  0.250000  0.250000  0.250000      2.000000
 -0.250000  0.250000  0.250000      6.000000
 -0.350000  0.350000  0.250000     24.000000
 -0.450000  0.450000  0.250000     24.000000
 -0.350000  0.450000  0.250000     24.000000
 -0.450000 -0.450000  0.250000     24.000000
 -0.350000  0.350000  0.350000      6.000000
 -0.450000  0.450000  0.350000     24.000000
 -0.450000 -0.450000  0.350000      8.000000
 -0.450000  0.450000  0.450000      6.000000
 
 Following cartesian coordinates:
            Coordinates               Weight
  0.100000  0.100000  0.100000      8.000000
  0.100000  0.200000  0.200000     24.000000
  0.100000  0.300000  0.300000     24.000000
  0.100000  0.400000  0.400000     24.000000
  0.100000  0.500000  0.500000     12.000000
  0.100000  0.000000  0.000000      6.000000
  0.200000  0.200000  0.300000     24.000000
  0.200000  0.300000  0.400000     48.000000
  0.200000  0.400000  0.500000     48.000000
  0.200000 -0.100000  0.000000     24.000000
  0.300000  0.300000  0.500000     24.000000
  0.300000  0.400000  0.600000     24.000000
  0.300000 -0.200000  0.000000     24.000000
  0.300000 -0.100000  0.100000     24.000000
  0.400000 -0.300000  0.000000     24.000000
  0.400000 -0.200000  0.100000     48.000000
  0.500000 -0.400000  0.000000     24.000000
  0.500000 -0.300000  0.100000     48.000000
  0.500000 -0.200000  0.200000     24.000000
 -0.400000 -0.400000 -0.900000     24.000000
 -0.400000 -0.300000 -0.800000     48.000000
 -0.300000 -0.300000 -0.700000      8.000000
  0.300000  0.300000  0.300000      8.000000
  0.300000  0.400000  0.400000     24.000000
  0.300000  0.500000  0.500000     12.000000
  0.300000  0.000000  0.000000      6.000000
  0.400000  0.400000  0.500000     24.000000
  0.400000 -0.100000  0.000000     24.000000
  0.500000 -0.200000  0.000000     24.000000
  0.500000 -0.100000  0.100000     24.000000
  0.600000 -0.300000  0.000000     24.000000
  0.600000 -0.200000  0.100000     48.000000
 -0.300000 -0.300000 -0.900000     24.000000
 -0.300000 -0.200000 -0.800000     24.000000
  0.500000  0.500000  0.500000      2.000000
  0.500000  0.000000  0.000000      6.000000
  0.600000 -0.100000  0.000000     24.000000
  0.700000 -0.200000  0.000000     24.000000
  0.700000 -0.100000  0.100000     24.000000
 -0.200000 -0.200000 -0.900000     24.000000
  0.700000  0.000000  0.000000      6.000000
  0.800000 -0.100000  0.000000     24.000000
 -0.100000 -0.100000 -0.900000      8.000000
  0.900000  0.000000  0.000000      6.000000
 


--------------------------------------------------------------------------------------------------------




 Dimension of arrays:
   k-points           NKPTS =     44   k-points in BZ     NKDIM =     44   number of bands    NBANDS=     12
   number of dos      NEDOS =    301   number of ions     NIONS =      1
   non local maximal  LDIM  =      6   non local SUM 2l+1 LMDIM =     18
   total plane-waves  NPLWV =   4096
   max r-space proj   IRMAX =      1   max aug-charges    IRDMAX=  13210
   dimension x,y,z NGX =    16 NGY =   16 NGZ =   16
   dimension x,y,z NGXF=    32 NGYF=   32 NGZF=   32
   support grid    NGXF=    32 NGYF=   32 NGZF=   32
   ions per type =               1
   NGX,Y,Z   is equivalent  to a cutoff of  10.89, 10.89, 10.89 a.u.
   NGXF,Y,Z  is equivalent  to a cutoff of  21.78, 21.78, 21.78 a.u.

 SYSTEM =  bcc Fe                                  
 POSCAR =  Fe bulk bcc                             

 Startparameter for this run:
   NWRITE =      2    write-flag & timer
   PREC   = accura    normal or accurate (medium, high low for compatibility)
   ISTART =      0    job   : 0-new  1-cont  2-samecut
   ICHARG =      2    charge: 1-file 2-atom 10-const
   ISPIN  =      2    spin polarized calculation?
   LNONCOLLINEAR =      F non collinear calculations
   LSORBIT =      F    spin-orbit coupling
   INIWAV =      1    electr: 0-lowe 1-rand  2-diag
   LASPH  =      F    aspherical Exc in radial PAW
   METAGGA=      F    non-selfconsistent MetaGGA calc.

 Electronic Relaxation 1
   ENCUT  =  350.0 eV  25.72 Ry    5.07 a.u.   3.73  3.73  3.73*2*pi/ulx,y,z
   ENINI  =  350.0     initial cutoff
   ENAUG  =  511.4 eV  augmentation charge cutoff
   NELM   =     60;   NELMIN=  2; NELMDL= -5     # of ELM steps 
   EDIFF  = 0.1E-04   stopping-criterion for ELM
   LREAL  =      F    real-space projection
   NLSPLINE    = F    spline interpolate recip. space projectors
   LCOMPAT=      F    compatible to vasp.4.4
   GGA_COMPAT  = T    GGA compatible to vasp.4.4-vasp.4.6
   LMAXPAW     = -100 max onsite density
   LMAXMIX     =    2 max onsite mixed and CHGCAR
   VOSKOWN=      0    Vosko Wilk Nusair interpolation
   ROPT   =    0.00000
 Ionic relaxation
   EDIFFG = 0.1E-03   stopping-criterion for IOM
   NSW    =     50    number of steps for IOM
   NBLOCK =      1;   KBLOCK =     50    inner block; outer block 
   IBRION =      2    ionic relax: 0-MD 1-quasi-New 2-CG
   NFREE  =      1    steps in history (QN), initial steepest desc. (CG)
   ISIF   =      3    stress and relaxation
   IWAVPR =     11    prediction:  0-non 1-charg 2-wave 3-comb
   ISYM   =      2    0-nonsym 1-usesym 2-fastsym
   LCORR  =      T    Harris-Foulkes like correction to forces

   POTIM  = 0.5000    time-step for ionic-motion
   TEIN   =    0.0    initial temperature
   TEBEG  =    0.0;   TEEND  =   0.0 temperature during run
   SMASS  =  -3.00    Nose mass-parameter (am)
   estimated Nose-frequenzy (Omega)   =  0.10E-29 period in steps =****** mass=  -0.136E-27a.u.
   SCALEE = 1.0000    scale energy and forces
   NPACO  =    256;   APACO  = 16.0  distance and # of slots for P.C.
   PSTRESS=    0.0 pullay stress

  Mass of Ions in am
   POMASS =  55.85
  Ionic Valenz
   ZVAL   =   8.00
  Atomic Wigner-Seitz radii
   RWIGS  =   1.30
  virtual crystal weights 
   VCA    =   1.00
   NELECT =       8.0000    total number of electrons
   NUPDOWN=      -1.0000    fix difference up-down

 DOS related values:
   EMIN   =  10.00;   EMAX   =-10.00  energy-range for DOS
   EFERMI =   0.00
   ISMEAR =     1;   SIGMA  =   0.20  broadening in eV -4-tet -1-fermi 0-gaus

 Electronic relaxation 2 (details)
   IALGO  =     38    algorithm
   LDIAG  =      T    sub-space diagonalisation (order eigenvalues)
   LSUBROT=      F    optimize rotation matrix (better conditioning)
   TURBO    =      0    0=normal 1=particle mesh
   IRESTART =      0    0=no restart 2=restart with 2 vectors
   NREBOOT  =      0    no. of reboots
   NMIN     =      0    reboot dimension
   EREF     =   0.00    reference energy to select bands
   IMIX   =      4    mixing-type and parameters
     AMIX     =   0.40;   BMIX     =  1.00
     AMIX_MAG =   1.60;   BMIX_MAG =  1.00
     AMIN     =   0.10
     WC   =   100.;   INIMIX=   1;  MIXPRE=   1;  MAXMIX= -45

 Intra band minimization:
   WEIMIN = 0.0010     energy-eigenvalue tresh-hold
   EBREAK =  0.21E-06  absolut break condition
   DEPER  =   0.30     relativ break condition  

   TIME   =   0.40     timestep for ELM

  volume/ion in A,a.u.               =      11.21        75.67
  Fermi-wavevector in a.u.,A,eV,Ry     =   1.462847  2.764381 29.115417  2.139923
  Thomas-Fermi vector in A             =   2.579012
 
 Write flags
   LWAVE        =      T    write WAVECAR
   LDOWNSAMPLE  =      F    k-point downsampling of WAVECAR
   LCHARG       =      T    write CHGCAR
   LVTOT        =      F    write LOCPOT, total local potential
   LVHAR        =      F    write LOCPOT, Hartree potential only
   LELF         =      F    write electronic localiz. function (ELF)
   LORBIT       =      0    0 simple, 1 ext, 2 COOP (PROOUT), +10 PAW based schemes


 Dipole corrections
   LMONO  =      F    monopole corrections only (constant potential shift)
   LDIPOL =      F    correct potential (dipole corrections)
   IDIPOL =      0    1-x, 2-y, 3-z, 4-all directions 
   EPSILON=  1.0000000 bulk dielectric constant

 Exchange correlation treatment:
   GGA     =    --    GGA type
   LEXCH   =     8    internal setting for exchange type
   VOSKOWN=      0    Vosko Wilk Nusair interpolation
   LHFCALC =     F    Hartree Fock is set to
   LHFONE  =     F    Hartree Fock one center treatment
   AEXX    =    0.0000 exact exchange contribution

 Linear response parameters
   LEPSILON=     F    determine dielectric tensor
   LRPA    =     F    only Hartree local field effects (RPA)
   LNABLA  =     F    use nabla operator in PAW spheres
   LVEL    =     F    velocity operator in full k-point grid
   LINTERFAST=   F  fast interpolation
   KINTER  =     0    interpolate to denser k-point grid
   CSHIFT  =0.1000    complex shift for real part using Kramers Kronig
   OMEGAMAX=  -1.0    maximum frequency
   DEG_THRESHOLD= 0.2000000E-02 threshold for treating states as degnerate
   RTIME   =   -0.100 relaxation time in fs
  (WPLASMAI=    0.000 imaginary part of plasma frequency in eV, 0.658/RTIME)
   DFIELD  = 0.0000000 0.0000000 0.0000000 field for delta impulse in time
 
 Orbital magnetization related:
   ORBITALMAG=     F  switch on orbital magnetization
   LCHIMAG   =     F  perturbation theory with respect to B field
   DQ        =  0.001000  dq finite difference perturbation B field
   LLRAUG    =     F  two centre corrections for induced B field



--------------------------------------------------------------------------------------------------------


 conjugate gradient relaxation of ions
 charge density and potential will be updated during run
 spin polarized calculation
 Variant of blocked Davidson
 Davidson routine will perform the subspace rotation
 perform sub-space diagonalisation
    after iterative eigenvector-optimisation
 modified Broyden-mixing scheme, WC =      100.0
 initial mixing is a Kerker type mixing with AMIX =  0.4000 and BMIX =      1.0000
 Hartree-type preconditioning will be used
 using additional bands            8
 reciprocal scheme for non local part
 use partial core corrections
 calculate Harris-corrections to forces 
   (improved forces if not selfconsistent)
 use gradient corrections 
 use of overlap-Matrix (Vanderbilt PP)
 Methfessel and Paxton  Order N= 1 SIGMA  =   0.20


--------------------------------------------------------------------------------------------------------


  energy-cutoff  :      350.00
  volume of cell :       11.21
      direct lattice vectors                 reciprocal lattice vectors
    -1.410000000  1.410000000  1.410000000     0.000000000  0.354609929  0.354609929
     1.410000000 -1.410000000  1.410000000     0.354609929  0.000000000  0.354609929
     1.410000000  1.410000000 -1.410000000     0.354609929  0.354609929  0.000000000

  length of vectors
     2.442191639  2.442191639  2.442191639     0.501494171  0.501494171  0.501494171


 
 k-points in units of 2pi/SCALE and weight: 10x10x10                                
   0.10000000  0.10000000  0.10000000       0.008
   0.10000000  0.20000000  0.20000000       0.024
   0.10000000  0.30000000  0.30000000       0.024
   0.10000000  0.40000000  0.40000000       0.024
   0.10000000  0.50000000  0.50000000       0.012
   0.10000000  0.00000000  0.00000000       0.006
   0.20000000  0.20000000  0.30000000       0.024
   0.20000000  0.30000000  0.40000000       0.048
   0.20000000  0.40000000  0.50000000       0.048
   0.20000000 -0.10000000  0.00000000       0.024
   0.30000000  0.30000000  0.50000000       0.024
   0.30000000  0.40000000  0.60000000       0.024
   0.30000000 -0.20000000  0.00000000       0.024
   0.30000000 -0.10000000  0.10000000       0.024
   0.40000000 -0.30000000  0.00000000       0.024
   0.40000000 -0.20000000  0.10000000       0.048
   0.50000000 -0.40000000  0.00000000       0.024
   0.50000000 -0.30000000  0.10000000       0.048
   0.50000000 -0.20000000  0.20000000       0.024
  -0.40000000 -0.40000000 -0.90000000       0.024
  -0.40000000 -0.30000000 -0.80000000       0.048
  -0.30000000 -0.30000000 -0.70000000       0.008
   0.30000000  0.30000000  0.30000000       0.008
   0.30000000  0.40000000  0.40000000       0.024
   0.30000000  0.50000000  0.50000000       0.012
   0.30000000  0.00000000  0.00000000       0.006
   0.40000000  0.40000000  0.50000000       0.024
   0.40000000 -0.10000000  0.00000000       0.024
   0.50000000 -0.20000000  0.00000000       0.024
   0.50000000 -0.10000000  0.10000000       0.024
   0.60000000 -0.30000000  0.00000000       0.024
   0.60000000 -0.20000000  0.10000000       0.048
  -0.30000000 -0.30000000 -0.90000000       0.024
  -0.30000000 -0.20000000 -0.80000000       0.024
   0.50000000  0.50000000  0.50000000       0.002
   0.50000000  0.00000000  0.00000000       0.006
   0.60000000 -0.10000000  0.00000000       0.024
   0.70000000 -0.20000000  0.00000000       0.024
   0.70000000 -0.10000000  0.10000000       0.024
  -0.20000000 -0.20000000 -0.90000000       0.024
   0.70000000  0.00000000  0.00000000       0.006
   0.80000000 -0.10000000  0.00000000       0.024
  -0.10000000 -0.10000000 -0.90000000       0.008
   0.90000000  0.00000000  0.00000000       0.006
 
 k-points in reciprocal lattice and weights: 10x10x10                                
   0.05000000  0.05000000  0.05000000       0.008
   0.15000000  0.05000000  0.05000000       0.024
   0.25000000  0.05000000  0.05000000       0.024
   0.35000000  0.05000000  0.05000000       0.024
   0.45000000  0.05000000  0.05000000       0.012
  -0.05000000  0.05000000  0.05000000       0.006
   0.15000000  0.15000000  0.05000000       0.024
   0.25000000  0.15000000  0.05000000       0.048
   0.35000000  0.15000000  0.05000000       0.048
  -0.15000000  0.15000000  0.05000000       0.024
   0.25000000  0.25000000  0.05000000       0.024
   0.35000000  0.25000000  0.05000000       0.024
  -0.25000000  0.25000000  0.05000000       0.024
  -0.15000000  0.25000000  0.05000000       0.024
  -0.35000000  0.35000000  0.05000000       0.024
  -0.25000000  0.35000000  0.05000000       0.048
  -0.45000000  0.45000000  0.05000000       0.024
  -0.35000000  0.45000000  0.05000000       0.048
  -0.25000000  0.45000000  0.05000000       0.024
  -0.45000000 -0.45000000  0.05000000       0.024
  -0.35000000 -0.45000000  0.05000000       0.048
  -0.35000000 -0.35000000  0.05000000       0.008
   0.15000000  0.15000000  0.15000000       0.008
   0.25000000  0.15000000  0.15000000       0.024
   0.35000000  0.15000000  0.15000000       0.012
  -0.15000000  0.15000000  0.15000000       0.006
   0.25000000  0.25000000  0.15000000       0.024
  -0.25000000  0.25000000  0.15000000       0.024
  -0.35000000  0.35000000  0.15000000       0.024
  -0.25000000  0.35000000  0.15000000       0.024
  -0.45000000  0.45000000  0.15000000       0.024
  -0.35000000  0.45000000  0.15000000       0.048
  -0.45000000 -0.45000000  0.15000000       0.024
  -0.35000000 -0.45000000  0.15000000       0.024
   0.25000000  0.25000000  0.25000000       0.002
  -0.25000000  0.25000000  0.25000000       0.006
  -0.35000000  0.35000000  0.25000000       0.024
  -0.45000000  0.45000000  0.25000000       0.024
  -0.35000000  0.45000000  0.25000000       0.024
  -0.45000000 -0.45000000  0.25000000       0.024
  -0.35000000  0.35000000  0.35000000       0.006
  -0.45000000  0.45000000  0.35000000       0.024
  -0.45000000 -0.45000000  0.35000000       0.008
  -0.45000000  0.45000000  0.45000000       0.006
 
 position of ions in fractional coordinates (direct lattice) 
   0.00000000  0.00000000  0.00000000
 
 position of ions in cartesian coordinates  (Angst):
   0.00000000  0.00000000  0.00000000
 


--------------------------------------------------------------------------------------------------------


 k-point  1 :   0.0500 0.0500 0.0500  plane waves:     165
 k-point  2 :   0.1500 0.0500 0.0500  plane waves:     167
 k-point  3 :   0.2500 0.0500 0.0500  plane waves:     167
 k-point  4 :   0.3500 0.0500 0.0500  plane waves:     168
 k-point  5 :   0.4500 0.0500 0.0500  plane waves:     166
 k-point  6 :  -0.0500 0.0500 0.0500  plane waves:     169
 k-point  7 :   0.1500 0.1500 0.0500  plane waves:     167
 k-point  8 :   0.2500 0.1500 0.0500  plane waves:     169
 k-point  9 :   0.3500 0.1500 0.0500  plane waves:     167
 k-point 10 :  -0.1500 0.1500 0.0500  plane waves:     167
 k-point 11 :   0.2500 0.2500 0.0500  plane waves:     165
 k-point 12 :   0.3500 0.2500 0.0500  plane waves:     162
 k-point 13 :  -0.2500 0.2500 0.0500  plane waves:     164
 k-point 14 :  -0.1500 0.2500 0.0500  plane waves:     167
 k-point 15 :  -0.3500 0.3500 0.0500  plane waves:     168
 k-point 16 :  -0.2500 0.3500 0.0500  plane waves:     167
 k-point 17 :  -0.4500 0.4500 0.0500  plane waves:     168
 k-point 18 :  -0.3500 0.4500 0.0500  plane waves:     169
 k-point 19 :  -0.2500 0.4500 0.0500  plane waves:     168
 k-point 20 :  -0.4500-0.4500 0.0500  plane waves:     166
 k-point 21 :  -0.3500-0.4500 0.0500  plane waves:     165
 k-point 22 :  -0.3500-0.3500 0.0500  plane waves:     161
 k-point 23 :   0.1500 0.1500 0.1500  plane waves:     168
 k-point 24 :   0.2500 0.1500 0.1500  plane waves:     164
 k-point 25 :   0.3500 0.1500 0.1500  plane waves:     162
 k-point 26 :  -0.1500 0.1500 0.1500  plane waves:     165
 k-point 27 :   0.2500 0.2500 0.1500  plane waves:     163
 k-point 28 :  -0.2500 0.2500 0.1500  plane waves:     165
 k-point 29 :  -0.3500 0.3500 0.1500  plane waves:     169
 k-point 30 :  -0.2500 0.3500 0.1500  plane waves:     169
 k-point 31 :  -0.4500 0.4500 0.1500  plane waves:     168
 k-point 32 :  -0.3500 0.4500 0.1500  plane waves:     168
 k-point 33 :  -0.4500-0.4500 0.1500  plane waves:     162
 k-point 34 :  -0.3500-0.4500 0.1500  plane waves:     165
 k-point 35 :   0.2500 0.2500 0.2500  plane waves:     152
 k-point 36 :  -0.2500 0.2500 0.2500  plane waves:     168
 k-point 37 :  -0.3500 0.3500 0.2500  plane waves:     169
 k-point 38 :  -0.4500 0.4500 0.2500  plane waves:     165
 k-point 39 :  -0.3500 0.4500 0.2500  plane waves:     162
 k-point 40 :  -0.4500-0.4500 0.2500  plane waves:     165
 k-point 41 :  -0.3500 0.3500 0.3500  plane waves:     168
 k-point 42 :  -0.4500 0.4500 0.3500  plane waves:     169
 k-point 43 :  -0.4500-0.4500 0.3500  plane waves:     170
 k-point 44 :  -0.4500 0.4500 0.4500  plane waves:     172

 maximum and minimum number of plane-waves per node :       172      152

 maximum number of plane-waves:       172
 maximum index in each direction: 
   IXMAX=    4   IYMAX=    4   IZMAX=    3
   IXMIN=   -4   IYMIN=   -4   IZMIN=   -4


 serial   3D FFT for wavefunctions
 parallel 3D FFT for charge:
    minimum data exchange during FFTs selected (reduces bandwidth)


 total amount of memory used by VASP MPI-rank0    33820. kBytes
=======================================================================

   base      :      30000. kBytes
   nonl-proj :       1092. kBytes
   fftplans  :        576. kBytes
   grid      :       1310. kBytes
   one-center:         31. kBytes
   wavefun   :        811. kBytes
 
     INWAV:  cpu time    0.0000: real time    0.0000
 Broyden mixing: mesh for mixing (old mesh)
   NGX =  7   NGY =  7   NGZ =  7
  (NGX  = 32   NGY  = 32   NGZ  = 32)
  gives a total of    343 points

 initial charge density was supplied:
 charge density of overlapping atoms calculated
 number of electron       8.0000000 magnetization       3.0000000
 keeping initial charge density in first step


--------------------------------------------------------------------------------------------------------


 Maximum index for augmentation-charges         3147 (set IRDMAX)


--------------------------------------------------------------------------------------------------------


 First call to EWALD:  gamma=   0.792
 Maximum number of real-space cells 3x 3x 3
 Maximum number of reciprocal cells 3x 3x 3

    FEWALD:  cpu time    0.0009: real time    0.0018


--------------------------------------- Iteration      1(   1)  ---------------------------------------


    POTLOK:  cpu time    0.0088: real time    0.0328
    SETDIJ:  cpu time    0.0040: real time    0.0040
     EDDAV:  cpu time    0.1322: real time    0.1475
       DOS:  cpu time    0.0013: real time    0.0049
    --------------------------------------------
      LOOP:  cpu time    0.1464: real time    0.1892

 eigenvalue-minimisations  :  2320
 total energy-change (2. order) : 0.1476611E+02  (-0.3083028E+03)
 number of electron       8.0000000 magnetization       3.0000000
 augmentation part        8.0000000 magnetization       3.0000000

 Free energy of the ion-electron system (eV)
  ---------------------------------------------------
  alpha Z        PSCENC =        61.63782306
  Ewald energy   TEWEN  =      -594.65744246
  -Hartree energ DENC   =      -110.53762645
  -exchange      EXHF   =         0.00000000
  -V(xc)+E(xc)   XCENC  =         5.11561975
  PAW double counting   =       553.75926685     -561.48528711
  entropy T*S    EENTRO =        -0.00001851
  eigenvalues    EBANDS =        66.63894537
  atomic energy  EATOM  =       594.29482811
  Solvation  Ediel_sol  =         0.00000000
  ---------------------------------------------------
  free energy    TOTEN  =        14.76610860 eV

  energy without entropy =       14.76612711  energy(sigma->0) =       14.76611477


--------------------------------------------------------------------------------------------------------




--------------------------------------- Iteration      1(   2)  ---------------------------------------


     EDDAV:  cpu time    0.1233: real time    0.1257
       DOS:  cpu time    0.0008: real time    0.0008
    --------------------------------------------
      LOOP:  cpu time    0.1241: real time    0.1265

 eigenvalue-minimisations  :  2224
 total energy-change (2. order) :-0.2337854E+02  (-0.2161129E+02)
 number of electron       8.0000000 magnetization       3.0000000
 augmentation part        8.0000000 magnetization       3.0000000

 Free energy of the ion-electron system (eV)
  ---------------------------------------------------
  alpha Z        PSCENC =        61.63782306
  Ewald energy   TEWEN  =      -594.65744246
  -Hartree energ DENC   =      -110.53762645
  -exchange      EXHF   =         0.00000000
  -V(xc)+E(xc)   XCENC  =         5.11561975
  PAW double counting   =       553.75926685     -561.48528711
  entropy T*S    EENTRO =         0.00008411
  eigenvalues    EBANDS =        43.26029801
  atomic energy  EATOM  =       594.29482811
  Solvation  Ediel_sol  =         0.00000000
  ---------------------------------------------------
  free energy    TOTEN  =        -8.61243613 eV

  energy without entropy =       -8.61252024  energy(sigma->0) =       -8.61246417


--------------------------------------------------------------------------------------------------------




--------------------------------------- Iteration      1(   3)  ---------------------------------------


     EDDAV:  cpu time    0.1315: real time    0.1339
       DOS:  cpu time    0.0008: real time    0.0008
    --------------------------------------------
      LOOP:  cpu time    0.1323: real time    0.1347

 eigenvalue-minimisations  :  2444
 total energy-change (2. order) :-0.5007350E+00  (-0.4993536E+00)
 number of electron       8.0000000 magnetization       3.0000000
 augmentation part        8.0000000 magnetization       3.0000000

 Free energy of the ion-electron system (eV)
  ---------------------------------------------------
  alpha Z        PSCENC =        61.63782306
  Ewald energy   TEWEN  =      -594.65744246
  -Hartree energ DENC   =      -110.53762645
  -exchange      EXHF   =         0.00000000
  -V(xc)+E(xc)   XCENC  =         5.11561975
  PAW double counting   =       553.75926685     -561.48528711
  entropy T*S    EENTRO =         0.00089941
  eigenvalues    EBANDS =        42.75874771
  atomic energy  EATOM  =       594.29482811
  Solvation  Ediel_sol  =         0.00000000
  ---------------------------------------------------
  free energy    TOTEN  =        -9.11317114 eV

  energy without entropy =       -9.11407055  energy(sigma->0) =       -9.11347094


--------------------------------------------------------------------------------------------------------




--------------------------------------- Iteration      1(   4)  ---------------------------------------


     EDDAV:  cpu time    0.1293: real time    0.1318
       DOS:  cpu time    0.0010: real time    0.0008
    --------------------------------------------
      LOOP:  cpu time    0.1303: real time    0.1326

 eigenvalue-minimisations  :  2400
 total energy-change (2. order) :-0.1768154E-02  (-0.1768026E-02)
 number of electron       8.0000000 magnetization       3.0000000
 augmentation part        8.0000000 magnetization       3.0000000

 Free energy of the ion-electron system (eV)
  ---------------------------------------------------
  alpha Z        PSCENC =        61.63782306
  Ewald energy   TEWEN  =      -594.65744246
  -Hartree energ DENC   =      -110.53762645
  -exchange      EXHF   =         0.00000000
  -V(xc)+E(xc)   XCENC  =         5.11561975
  PAW double counting   =       553.75926685     -561.48528711
  entropy T*S    EENTRO =         0.00089984
  eigenvalues    EBANDS =        42.75697912
  atomic energy  EATOM  =       594.29482811
  Solvation  Ediel_sol  =         0.00000000
  ---------------------------------------------------
  free energy    TOTEN  =        -9.11493930 eV

  energy without entropy =       -9.11583914  energy(sigma->0) =       -9.11523924


--------------------------------------------------------------------------------------------------------




--------------------------------------- Iteration      1(   5)  ---------------------------------------


     EDDAV:  cpu time    0.1307: real time    0.1333
       DOS:  cpu time    0.0008: real time    0.0008
    CHARGE:  cpu time    0.0061: real time    0.0061
    MIXING:  cpu time    0.0004: real time    0.0012
    --------------------------------------------
      LOOP:  cpu time    0.1381: real time    0.1414

 eigenvalue-minimisations  :  2440
 total energy-change (2. order) :-0.1096716E-04  (-0.1096775E-04)
 number of electron       8.0000016 magnetization       1.8177777
 augmentation part        3.6333614 magnetization       1.1967353

 Broyden mixing:
  rms(total) = 0.11558E+01    rms(broyden)= 0.11553E+01
  rms(prec ) = 0.33907E+01
  weight for this iteration     100.00

 Free energy of the ion-electron system (eV)
  ---------------------------------------------------
  alpha Z        PSCENC =        61.63782306
  Ewald energy   TEWEN  =      -594.65744246
  -Hartree energ DENC   =      -110.53762645
  -exchange      EXHF   =         0.00000000
  -V(xc)+E(xc)   XCENC  =         5.11561975
  PAW double counting   =       553.75926685     -561.48528711
  entropy T*S    EENTRO =         0.00089985
  eigenvalues    EBANDS =        42.75696815
  atomic energy  EATOM  =       594.29482811
  Solvation  Ediel_sol  =         0.00000000
  ---------------------------------------------------
  free energy    TOTEN  =        -9.11495026 eV

  energy without entropy =       -9.11585011  energy(sigma->0) =       -9.11525021


--------------------------------------------------------------------------------------------------------




--------------------------------------- Iteration      1(   6)  ---------------------------------------


    POTLOK:  cpu time    0.0071: real time    0.0072
    SETDIJ:  cpu time    0.0035: real time    0.0035
     EDDAV:  cpu time    0.1277: real time    0.1300
       DOS:  cpu time    0.0009: real time    0.0008
    CHARGE:  cpu time    0.0058: real time    0.0057
    MIXING:  cpu time    0.0006: real time    0.0006
    --------------------------------------------
      LOOP:  cpu time    0.1455: real time    0.1478

 eigenvalue-minimisations  :  2388
 total energy-change (2. order) : 0.8026234E+00  (-0.9974120E+00)
 number of electron       8.0000019 magnetization       2.1501873
 augmentation part        4.2726077 magnetization       1.7813181

 Broyden mixing:
  rms(total) = 0.51274E+00    rms(broyden)= 0.51248E+00
  rms(prec ) = 0.71643E+00
  weight for this iteration     100.00

 eigenvalues of (default mixing * dielectric matrix)
  average eigenvalue GAMMA=   0.7202
  0.7202

 Free energy of the ion-electron system (eV)
  ---------------------------------------------------
  alpha Z        PSCENC =        61.63782306
  Ewald energy   TEWEN  =      -594.65744246
  -Hartree energ DENC   =       -94.23244727
  -exchange      EXHF   =         0.00000000
  -V(xc)+E(xc)   XCENC  =         3.98038164
  PAW double counting   =       611.89771825     -617.66405534
  entropy T*S    EENTRO =         0.00087122
  eigenvalues    EBANDS =        26.42999588
  atomic energy  EATOM  =       594.29482811
  Solvation  Ediel_sol  =         0.00000000
  ---------------------------------------------------
  free energy    TOTEN  =        -8.31232691 eV

  energy without entropy =       -8.31319813  energy(sigma->0) =       -8.31261731


--------------------------------------------------------------------------------------------------------




--------------------------------------- Iteration      1(   7)  ---------------------------------------


    POTLOK:  cpu time    0.0071: real time    0.0072
    SETDIJ:  cpu time    0.0035: real time    0.0035
     EDDAV:  cpu time    0.1353: real time    0.1382
       DOS:  cpu time    0.0009: real time    0.0008
    CHARGE:  cpu time    0.0066: real time    0.0065
    MIXING:  cpu time    0.0003: real time    0.0003
    --------------------------------------------
      LOOP:  cpu time    0.1535: real time    0.1565

 eigenvalue-minimisations  :  2464
 total energy-change (2. order) : 0.6134879E-01  (-0.5379027E-01)
 number of electron       8.0000019 magnetization       2.1886007
 augmentation part        4.1276460 magnetization       1.7955565

 Broyden mixing:
  rms(total) = 0.31915E+00    rms(broyden)= 0.31915E+00
  rms(prec ) = 0.41271E+00
  weight for this iteration     100.00

 eigenvalues of (default mixing * dielectric matrix)
  average eigenvalue GAMMA=   0.7844
  1.0227  0.5461

 Free energy of the ion-electron system (eV)
  ---------------------------------------------------
  alpha Z        PSCENC =        61.63782306
  Ewald energy   TEWEN  =      -594.65744246
  -Hartree energ DENC   =       -96.29057824
  -exchange      EXHF   =         0.00000000
  -V(xc)+E(xc)   XCENC  =         4.35441512
  PAW double counting   =       651.23551002     -658.75170924
  entropy T*S    EENTRO =        -0.00235412
  eigenvalues    EBANDS =        29.92852964
  atomic energy  EATOM  =       594.29482811
  Solvation  Ediel_sol  =         0.00000000
  ---------------------------------------------------
  free energy    TOTEN  =        -8.25097811 eV

  energy without entropy =       -8.24862399  energy(sigma->0) =       -8.25019341


--------------------------------------------------------------------------------------------------------




--------------------------------------- Iteration      1(   8)  ---------------------------------------


    POTLOK:  cpu time    0.0071: real time    0.0074
    SETDIJ:  cpu time    0.0035: real time    0.0035
     EDDAV:  cpu time    0.1354: real time    0.1378
       DOS:  cpu time    0.0008: real time    0.0008
    CHARGE:  cpu time    0.0068: real time    0.0068
    MIXING:  cpu time    0.0004: real time    0.0003
    --------------------------------------------
      LOOP:  cpu time    0.1541: real time    0.1565

 eigenvalue-minimisations  :  2552
 total energy-change (2. order) : 0.5988418E-02  (-0.6897186E-03)
 number of electron       8.0000019 magnetization       2.2825764
 augmentation part        4.1390736 magnetization       1.8821055

 Broyden mixing:
  rms(total) = 0.14765E+00    rms(broyden)= 0.14764E+00
  rms(prec ) = 0.21467E+00
  weight for this iteration     100.00

 eigenvalues of (default mixing * dielectric matrix)
  average eigenvalue GAMMA=   1.2012
  2.2040  0.7992  0.6005

 Free energy of the ion-electron system (eV)
  ---------------------------------------------------
  alpha Z        PSCENC =        61.63782306
  Ewald energy   TEWEN  =      -594.65744246
  -Hartree energ DENC   =       -95.50161416
  -exchange      EXHF   =         0.00000000
  -V(xc)+E(xc)   XCENC  =         4.36681116
  PAW double counting   =       675.64757897     -683.73701437
  entropy T*S    EENTRO =        -0.00241291
  eigenvalues    EBANDS =        29.70645291
  atomic energy  EATOM  =       594.29482811
  Solvation  Ediel_sol  =         0.00000000
  ---------------------------------------------------
  free energy    TOTEN  =        -8.24498969 eV

  energy without entropy =       -8.24257678  energy(sigma->0) =       -8.24418539


--------------------------------------------------------------------------------------------------------




--------------------------------------- Iteration      1(   9)  ---------------------------------------


    POTLOK:  cpu time    0.0070: real time    0.0073
    SETDIJ:  cpu time    0.0033: real time    0.0034
     EDDAV:  cpu time    0.1445: real time    0.1467
       DOS:  cpu time    0.0009: real time    0.0009
    CHARGE:  cpu time    0.0068: real time    0.0068
    MIXING:  cpu time    0.0003: real time    0.0003
    --------------------------------------------
      LOOP:  cpu time    0.1628: real time    0.1654

 eigenvalue-minimisations  :  2800
 total energy-change (2. order) : 0.5796981E-02  (-0.8884346E-03)
 number of electron       8.0000019 magnetization       2.2850665
 augmentation part        4.1564772 magnetization       1.8733373

 Broyden mixing:
  rms(total) = 0.34919E-01    rms(broyden)= 0.34829E-01
  rms(prec ) = 0.42108E-01
  weight for this iteration     100.00

 eigenvalues of (default mixing * dielectric matrix)
  average eigenvalue GAMMA=   1.2487
  2.6266  0.8781  0.8781  0.6119

 Free energy of the ion-electron system (eV)
  ---------------------------------------------------
  alpha Z        PSCENC =        61.63782306
  Ewald energy   TEWEN  =      -594.65744246
  -Hartree energ DENC   =       -94.21274282
  -exchange      EXHF   =         0.00000000
  -V(xc)+E(xc)   XCENC  =         4.43542723
  PAW double counting   =       721.78475083     -730.91063015
  entropy T*S    EENTRO =        -0.00129500
  eigenvalues    EBANDS =        29.39008849
  atomic energy  EATOM  =       594.29482811
  Solvation  Ediel_sol  =         0.00000000
  ---------------------------------------------------
  free energy    TOTEN  =        -8.23919271 eV

  energy without entropy =       -8.23789771  energy(sigma->0) =       -8.23876105


--------------------------------------------------------------------------------------------------------




--------------------------------------- Iteration      1(  10)  ---------------------------------------


    POTLOK:  cpu time    0.0069: real time    0.0072
    SETDIJ:  cpu time    0.0035: real time    0.0034
     EDDAV:  cpu time    0.1308: real time    0.1331
       DOS:  cpu time    0.0008: real time    0.0008
    CHARGE:  cpu time    0.0069: real time    0.0069
    MIXING:  cpu time    0.0004: real time    0.0003
    --------------------------------------------
      LOOP:  cpu time    0.1492: real time    0.1517

 eigenvalue-minimisations  :  2440
 total energy-change (2. order) :-0.9512520E-04  (-0.5957910E-04)
 number of electron       8.0000019 magnetization       2.2763401
 augmentation part        4.1523728 magnetization       1.8634869

 Broyden mixing:
  rms(total) = 0.91085E-02    rms(broyden)= 0.90818E-02
  rms(prec ) = 0.12651E-01
  weight for this iteration     100.00

 eigenvalues of (default mixing * dielectric matrix)
  average eigenvalue GAMMA=   1.3131
  2.8195  1.4825  0.6724  0.6724  0.9185

 Free energy of the ion-electron system (eV)
  ---------------------------------------------------
  alpha Z        PSCENC =        61.63782306
  Ewald energy   TEWEN  =      -594.65744246
  -Hartree energ DENC   =       -94.17413062
  -exchange      EXHF   =         0.00000000
  -V(xc)+E(xc)   XCENC  =         4.43854302
  PAW double counting   =       729.07242029     -738.34389654
  entropy T*S    EENTRO =        -0.00123664
  eigenvalues    EBANDS =        29.49380395
  atomic energy  EATOM  =       594.29482811
  Solvation  Ediel_sol  =         0.00000000
  ---------------------------------------------------
  free energy    TOTEN  =        -8.23928784 eV

  energy without entropy =       -8.23805120  energy(sigma->0) =       -8.23887562


--------------------------------------------------------------------------------------------------------




--------------------------------------- Iteration      1(  11)  ---------------------------------------


    POTLOK:  cpu time    0.0070: real time    0.0073
    SETDIJ:  cpu time    0.0034: real time    0.0035
     EDDAV:  cpu time    0.1318: real time    0.1342
       DOS:  cpu time    0.0008: real time    0.0008
    CHARGE:  cpu time    0.0067: real time    0.0066
    MIXING:  cpu time    0.0003: real time    0.0004
    --------------------------------------------
      LOOP:  cpu time    0.1502: real time    0.1529

 eigenvalue-minimisations  :  2452
 total energy-change (2. order) :-0.3357868E-04  (-0.1108999E-04)
 number of electron       8.0000019 magnetization       2.2727907
 augmentation part        4.1518838 magnetization       1.8599469

 Broyden mixing:
  rms(total) = 0.28480E-02    rms(broyden)= 0.28477E-02
  rms(prec ) = 0.56480E-02
  weight for this iteration     100.00

 eigenvalues of (default mixing * dielectric matrix)
  average eigenvalue GAMMA=   1.2195
  2.6234  1.6354  0.9803  0.7465  0.6656  0.6656

 Free energy of the ion-electron system (eV)
  ---------------------------------------------------
  alpha Z        PSCENC =        61.63782306
  Ewald energy   TEWEN  =      -594.65744246
  -Hartree energ DENC   =       -94.20180414
  -exchange      EXHF   =         0.00000000
  -V(xc)+E(xc)   XCENC  =         4.42731487
  PAW double counting   =       730.21588057     -739.45609998
  entropy T*S    EENTRO =        -0.00143102
  eigenvalues    EBANDS =        29.50160958
  atomic energy  EATOM  =       594.29482811
  Solvation  Ediel_sol  =         0.00000000
  ---------------------------------------------------
  free energy    TOTEN  =        -8.23932142 eV

  energy without entropy =       -8.23789039  energy(sigma->0) =       -8.23884441


--------------------------------------------------------------------------------------------------------




--------------------------------------- Iteration      1(  12)  ---------------------------------------


    POTLOK:  cpu time    0.0072: real time    0.0074
    SETDIJ:  cpu time    0.0035: real time    0.0035
     EDDAV:  cpu time    0.1115: real time    0.1137
       DOS:  cpu time    0.0008: real time    0.0008
    --------------------------------------------
      LOOP:  cpu time    0.1231: real time    0.1254

 eigenvalue-minimisations  :  1932
 total energy-change (2. order) : 0.7312010E-05  (-0.1520669E-05)
 number of electron       8.0000019 magnetization       2.2727907
 augmentation part        4.1518838 magnetization       1.8599469

 Free energy of the ion-electron system (eV)
  ---------------------------------------------------
  alpha Z        PSCENC =        61.63782306
  Ewald energy   TEWEN  =      -594.65744246
  -Hartree energ DENC   =       -94.23034702
  -exchange      EXHF   =         0.00000000
  -V(xc)+E(xc)   XCENC  =         4.42504460
  PAW double counting   =       729.52469957     -738.73685191
  entropy T*S    EENTRO =        -0.00146404
  eigenvalues    EBANDS =        29.50439599
  atomic energy  EATOM  =       594.29482811
  Solvation  Ediel_sol  =         0.00000000
  ---------------------------------------------------
  free energy    TOTEN  =        -8.23931410 eV

  energy without entropy =       -8.23785006  energy(sigma->0) =       -8.23882609


--------------------------------------------------------------------------------------------------------




 average (electrostatic) potential at core
  the test charge radii are     1.0103
  (the norm of the test charge is              1.0000)
       1 -43.1509
 
 
 
 E-fermi :   5.9922     XC(G=0): -13.1880     alpha+bet :-13.8238


 spin component 1

 k-point     1 :       0.0500    0.0500    0.0500
  band No.  band energies     occupation 
      1      -1.9471      1.00000
      2       3.4752      1.00000
      3       3.4752      1.00000
      4       4.0017      1.00000
      5       4.8586      1.00000
      6       4.8586      1.00000
      7      28.5416      0.00000
      8      28.5416      0.00000
      9      31.6619      0.00000
     10      33.0947      0.00000
     11      36.7153      0.00000
     12      36.7153      0.00000

 k-point     2 :       0.1500    0.0500    0.0500
  band No.  band energies     occupation 
      1      -0.8193      1.00000
      2       3.1686      1.00000
      3       3.3213      1.00000
      4       4.6867      1.00000
      5       4.7513      1.00000
      6       4.9370      1.00000
      7      24.3279      0.00000
      8      26.6308      0.00000
      9      29.6759      0.00000
     10      31.9490      0.00000
     11      36.4472      0.00000
     12      36.7652      0.00000

 k-point     3 :       0.2500    0.0500    0.0500
  band No.  band energies     occupation 
      1       0.5455      1.00000
      2       2.8302      1.00000
      3       3.4016      1.00000
      4       4.8143      1.00000
      5       5.0199      1.00000
      6       5.6441      1.01682
      7      19.7080      0.00000
      8      24.8966      0.00000
      9      27.2290      0.00000
     10      31.5375      0.00000
     11      35.5017      0.00000
     12      38.7584      0.00000

 k-point     4 :       0.3500    0.0500    0.0500
  band No.  band energies     occupation 
      1       1.0880      1.00000
      2       2.5773      1.00000
      3       4.4785      1.00000
      4       4.9614      1.00000
      5       5.0881      1.00000
      6       6.7963     -0.00000
      7      15.5748      0.00000
      8      23.6964      0.00000
      9      25.5808      0.00000
     10      31.1539      0.00000
     11      35.1736      0.00000
     12      41.0055      0.00000

 k-point     5 :       0.4500    0.0500    0.0500
  band No.  band energies     occupation 
      1       1.1047      1.00000
      2       2.4845      1.00000
      3       4.9811      1.00000
      4       5.1157      1.00000
      5       5.2556      1.00000
      6       7.7414     -0.00000
      7      13.4507      0.00000
      8      23.2681      0.00000
      9      24.9747      0.00000
     10      31.0195      0.00000
     11      35.1350      0.00000
     12      40.8930      0.00000

 k-point     6 :      -0.0500    0.0500    0.0500
  band No.  band energies     occupation 
      1      -2.3548      1.00000
      2       3.6051      1.00000
      3       3.6051      1.00000
      4       3.6638      1.00000
      5       4.8208      1.00000
      6       4.9536      1.00000
      7      29.8679      0.00000
      8      30.8946      0.00000
      9      30.8946      0.00000
     10      34.6380      0.00000
     11      36.6349      0.00000
     12      36.6349      0.00000

 k-point     7 :       0.1500    0.1500    0.0500
  band No.  band energies     occupation 
      1       0.4511      1.00000
      2       2.9343      1.00000
      3       2.9669      1.00000
      4       4.7716      1.00000
      5       5.0297      1.00000
      6       5.7027      1.02992
      7      22.0044      0.00000
      8      22.9330      0.00000
      9      26.4397      0.00000
     10      33.2824      0.00000
     11      37.2978      0.00000
     12      38.8567      0.00000

 k-point     8 :       0.2500    0.1500    0.0500
  band No.  band energies     occupation 
      1       1.4648      1.00000
      2       2.6435      1.00000
      3       3.2068      1.00000
      4       4.8731      1.00000
      5       5.1360      1.00000
      6       7.1160     -0.00000
      7      17.9194      0.00000
      8      21.0729      0.00000
      9      24.6244      0.00000
     10      33.5152      0.00000
     11      38.0770      0.00000
     12      39.5646      0.00000

 k-point     9 :       0.3500    0.1500    0.0500
  band No.  band energies     occupation 
      1       1.5547      1.00000
      2       2.5057      1.00000
      3       3.9603      1.00000
      4       4.9908      1.00000
      5       5.2334      1.00000
      6       8.9201     -0.00000
      7      14.2990      0.00000
      8      20.2349      0.00000
      9      23.7074      0.00000
     10      33.3905      0.00000
     11      38.8131      0.00000
     12      39.7606      0.00000

 k-point    10 :      -0.1500    0.1500    0.0500
  band No.  band energies     occupation 
      1      -1.5544      1.00000
      2       3.4155      1.00000
      3       3.5688      1.00000
      4       4.0817      1.00000
      5       4.6140      1.00000
      6       5.0179      1.00000
      7      26.5973      0.00000
      8      29.2917      0.00000
      9      30.0405      0.00000
     10      33.8434      0.00000
     11      34.1308      0.00000
     12      35.1258      0.00000

 k-point    11 :       0.2500    0.2500    0.0500
  band No.  band energies     occupation 
      1       2.0066      1.00000
      2       2.5682      1.00000
      3       3.1825      1.00000
      4       4.9798      1.00000
      5       5.2207      1.00000
      6       9.3044     -0.00000
      7      16.2508      0.00000
      8      17.3275      0.00000
      9      23.5020      0.00000
     10      34.9064      0.00000
     11      37.8238      0.00000
     12      43.8635      0.00000

 k-point    12 :       0.3500    0.2500    0.0500
  band No.  band energies     occupation 
      1       2.0517      1.00000
      2       2.6127      1.00000
      3       3.2491      1.00000
      4       5.0764      1.00000
      5       5.2236      1.00000
      6      11.4308     -0.00000
      7      13.7167      0.00000
      8      16.5835      0.00000
      9      23.1521      0.00000
     10      35.4481      0.00000
     11      37.7933      0.00000
     12      43.4804      0.00000

 k-point    13 :      -0.2500    0.2500    0.0500
  band No.  band energies     occupation 
      1      -0.2006      1.00000
      2       3.0916      1.00000
      3       3.4640      1.00000
      4       4.6123      1.00000
      5       4.8401      1.00000
      6       5.0961      1.00000
      7      21.9843      0.00000
      8      27.1213      0.00000
      9      28.6255      0.00000
     10      31.9882      0.00000
     11      33.7261      0.00000
     12      35.8334      0.00000

 k-point    14 :      -0.1500    0.2500    0.0500
  band No.  band energies     occupation 
      1      -0.4773      1.00000
      2       3.3421      1.00000
      3       3.3427      1.00000
      4       4.4165      1.00000
      5       4.6532      1.00000
      6       5.1705      1.00000
      7      24.1783      0.00000
      8      25.4751      0.00000
      9      30.1395      0.00000
     10      31.1435      0.00000
     11      33.8057      0.00000
     12      37.1301      0.00000

 k-point    15 :      -0.3500    0.3500    0.0500
  band No.  band energies     occupation 
      1       0.8466      1.00000
      2       2.7802      1.00000
      3       3.9405      1.00000
      4       4.8594      1.00000
      5       5.3382      1.00002
      6       5.6827      1.02549
      7      17.4836      0.00000
      8      25.4035      0.00000
      9      26.9149      0.00000
     10      30.9235      0.00000
     11      33.6449      0.00000
     12      37.6740      0.00000

 k-point    16 :      -0.2500    0.3500    0.0500
  band No.  band energies     occupation 
      1       0.8125      1.00000
      2       2.9743      1.00000
      3       3.3021      1.00000
      4       4.5479      1.00000
      5       5.2319      1.00000
      6       5.7716      1.03277
      7      19.9800      0.00000
      8      23.1659      0.00000
      9      28.3885      0.00000
     10      30.8164      0.00000
     11      34.3155      0.00000
     12      37.7271      0.00000

 k-point    17 :      -0.4500    0.4500    0.0500
  band No.  band energies     occupation 
      1       1.0253      1.00000
      2       2.5938      1.00000
      3       4.6063      1.00000
      4       4.9278      1.00000
      5       6.2584     -0.03396
      6       6.5795     -0.00013
      7      14.0430      0.00000
      8      24.4682      0.00000
      9      25.7623      0.00000
     10      30.5299      0.00000
     11      33.7805      0.00000
     12      38.9080      0.00000

 k-point    18 :      -0.3500    0.4500    0.0500
  band No.  band energies     occupation 
      1       1.3279      1.00000
      2       2.7744      1.00000
      3       3.6687      1.00000
      4       4.7920      1.00000
      5       5.6125      1.01095
      6       7.2402     -0.00000
      7      15.7872      0.00000
      8      21.9058      0.00000
      9      26.7673      0.00000
     10      30.9906      0.00000
     11      35.4281      0.00000
     12      37.5065      0.00000

 k-point    19 :      -0.2500    0.4500    0.0500
  band No.  band energies     occupation 
      1       1.7018      1.00000
      2       2.6231      1.00000
      3       3.2985      1.00000
      4       4.6777      1.00000
      5       5.3882      1.00008
      6       7.4936     -0.00000
      7      18.1100      0.00000
      8      18.9566      0.00000
      9      27.9911      0.00000
     10      30.5502      0.00000
     11      34.2335      0.00000
     12      42.0160      0.00000

 k-point    20 :      -0.4500   -0.4500    0.0500
  band No.  band energies     occupation 
      1       1.3309      1.00000
      2       2.7080      1.00000
      3       3.9195      1.00000
      4       4.8248      1.00000
      5       5.9162      0.79737
      6       8.5536     -0.00000
      7      13.5086      0.00000
      8      21.4499      0.00000
      9      26.1911      0.00000
     10      31.0354      0.00000
     11      36.5798      0.00000
     12      36.8491      0.00000

 k-point    21 :      -0.3500   -0.4500    0.0500
  band No.  band energies     occupation 
      1       1.9139      1.00000
      2       2.6630      1.00000
      3       3.2104      1.00000
      4       4.9057      1.00000
      5       5.5358      1.00290
      6       9.8592     -0.00000
      7      14.5726      0.00000
      8      17.7707      0.00000
      9      27.2907      0.00000
     10      31.2319      0.00000
     11      34.3559      0.00000
     12      41.0446      0.00000

 k-point    22 :      -0.3500   -0.3500    0.0500
  band No.  band energies     occupation 
      1       2.3814      1.00000
      2       2.6824      1.00000
      3       2.6824      1.00000
      4       5.2548      1.00000
      5       5.2548      1.00000
      6      12.8547      0.00000
      7      12.8547      0.00000
      8      15.5381      0.00000
      9      27.4202      0.00000
     10      32.6592      0.00000
     11      32.6592      0.00000
     12      40.6661      0.00000

 k-point    23 :       0.1500    0.1500    0.1500
  band No.  band energies     occupation 
      1       1.6991      1.00000
      2       2.6390      1.00000
      3       2.6390      1.00000
      4       4.9993      1.00000
      5       4.9993      1.00000
      6       7.1375     -0.00000
      7      20.3296      0.00000
      8      20.3296      0.00000
      9      22.1377      0.00000
     10      36.1800      0.00000
     11      40.1644      0.00000
     12      40.1644      0.00000

 k-point    24 :       0.2500    0.1500    0.1500
  band No.  band energies     occupation 
      1       2.1082      1.00000
      2       2.4755      1.00000
      3       3.1043      1.00000
      4       5.0548      1.00000
      5       5.1072      1.00000
      6       9.1052     -0.00000
      7      16.4417      0.00000
      8      19.2727      0.00000
      9      20.3973      0.00000
     10      37.2475      0.00000
     11      41.1237      0.00000
     12      42.4403      0.00000

 k-point    25 :       0.3500    0.1500    0.1500
  band No.  band energies     occupation 
      1       2.0154      1.00000
      2       2.4252      1.00000
      3       3.5581      1.00000
      4       5.0915      1.00000
      5       5.1362      1.00000
      6      10.9121     -0.00000
      7      13.8177      0.00000
      8      18.9106      0.00000
      9      19.9133      0.00000
     10      37.2682      0.00000
     11      41.7860      0.00000
     12      42.5570      0.00000

 k-point    26 :      -0.1500    0.1500    0.1500
  band No.  band energies     occupation 
      1      -0.8087      1.00000
      2       3.6680      1.00000
      3       3.6680      1.00000
      4       4.0963      1.00000
      5       4.1104      1.00000
      6       5.2391      1.00000
      7      26.1220      0.00000
      8      27.8608      0.00000
      9      27.8608      0.00000
     10      29.6477      0.00000
     11      36.4806      0.00000
     12      36.4806      0.00000

 k-point    27 :       0.2500    0.2500    0.1500
  band No.  band energies     occupation 
      1       2.3091      1.00000
      2       2.6222      1.00000
      3       3.0028      1.00000
      4       5.1198      1.00000
      5       5.1462      1.00000
      6      11.7430      0.00000
      7      15.0734      0.00000
      8      16.3056      0.00000
      9      19.2181      0.00000
     10      39.8831      0.00000
     11      41.6894      0.00000
     12      45.2469      0.00000

 k-point    28 :      -0.2500    0.2500    0.1500
  band No.  band energies     occupation 
      1       0.4145      1.00000
      2       3.3555      1.00000
      3       3.5129      1.00000
      4       4.1380      1.00000
      5       4.7501      1.00000
      6       5.5298      1.00257
      7      22.5484      0.00000
      8      25.7111      0.00000
      9      25.8826      0.00000
     10      29.5909      0.00000
     11      35.8431      0.00000
     12      37.2032      0.00000

 k-point    29 :      -0.3500    0.3500    0.1500
  band No.  band energies     occupation 
      1       1.3311      1.00000
      2       3.0907      1.00000
      3       3.2585      1.00000
      4       4.5327      1.00000
      5       5.6059      1.00991
      6       6.4379     -0.00357
      7      18.0059      0.00000
      8      23.9192      0.00000
      9      24.6317      0.00000
     10      31.1550      0.00000
     11      34.7322      0.00000
     12      37.0768      0.00000

 k-point    30 :      -0.2500    0.3500    0.1500
  band No.  band energies     occupation 
      1       1.3946      1.00000
      2       2.8132      1.00000
      3       3.6464      1.00000
      4       4.2840      1.00000
      5       5.2784      1.00000
      6       6.4310     -0.00407
      7      20.5291      0.00000
      8      21.2392      0.00000
      9      26.7581      0.00000
     10      28.3124      0.00000
     11      35.3735      0.00000
     12      40.6558      0.00000

 k-point    31 :      -0.4500    0.4500    0.1500
  band No.  band energies     occupation 
      1       1.4400      1.00000
      2       3.0994      1.00000
      3       3.2943      1.00000
      4       4.6117      1.00000
      5       6.2040     -0.03020
      6       8.3719     -0.00000
      7      14.3046      0.00000
      8      22.8480      0.00000
      9      23.9526      0.00000
     10      33.1945      0.00000
     11      34.1577      0.00000
     12      36.0090      0.00000

 k-point    32 :      -0.3500    0.4500    0.1500
  band No.  band energies     occupation 
      1       1.8168      1.00000
      2       2.5777      1.00000
      3       3.4467      1.00000
      4       4.6333      1.00000
      5       5.7702      1.03309
      6       8.4691     -0.00000
      7      16.4612      0.00000
      8      19.6557      0.00000
      9      26.2083      0.00000
     10      29.7434      0.00000
     11      34.3186      0.00000
     12      39.0986      0.00000

 k-point    33 :      -0.4500   -0.4500    0.1500
  band No.  band energies     occupation 
      1       1.7637      1.00000
      2       2.7458      1.00000
      3       3.2583      1.00000
      4       4.7291      1.00000
      5       6.0353      0.32216
      6      10.4334     -0.00000
      7      13.7538      0.00000
      8      19.1660      0.00000
      9      25.8444      0.00000
     10      31.4748      0.00000
     11      33.0794      0.00000
     12      37.7817      0.00000

 k-point    34 :      -0.3500   -0.4500    0.1500
  band No.  band energies     occupation 
      1       2.2063      1.00000
      2       2.2556      1.00000
      3       3.1778      1.00000
      4       5.1425      1.00000
      5       5.6758      1.02390
      6      11.3464     -0.00000
      7      14.9099      0.00000
      8      16.2485      0.00000
      9      28.2223      0.00000
     10      29.2326      0.00000
     11      32.2758      0.00000
     12      37.7739      0.00000

 k-point    35 :       0.2500    0.2500    0.2500
  band No.  band energies     occupation 
      1       2.6652      1.00000
      2       2.6652      1.00000
      3       2.6653      1.00000
      4       5.1490      1.00000
      5       5.1490      1.00000
      6      14.6705      0.00000
      7      14.6705      0.00000
      8      14.6706      0.00000
      9      16.9536      0.00000
     10      45.2012      0.00000
     11      45.2012      0.00000
     12      45.2610      0.00000

 k-point    36 :      -0.2500    0.2500    0.2500
  band No.  band energies     occupation 
      1       1.2599      1.00000
      2       2.9595      1.00000
      3       4.0595      1.00000
      4       4.0595      1.00000
      5       4.8116      1.00000
      6       6.2346     -0.03543
      7      23.2067      0.00000
      8      23.2067      0.00000
      9      23.6472      0.00000
     10      26.0828      0.00000
     11      40.1672      0.00000
     12      40.1674      0.00000

 k-point    37 :      -0.3500    0.3500    0.2500
  band No.  band energies     occupation 
      1       1.7495      1.00000
      2       2.3853      1.00000
      3       4.0984      1.00000
      4       4.4488      1.00000
      5       5.4992      1.00135
      6       7.7763     -0.00000
      7      18.9667      0.00000
      8      21.2242      0.00000
      9      23.6483      0.00000
     10      26.6019      0.00000
     11      37.8880      0.00000
     12      39.0207      0.00000

 k-point    38 :      -0.4500    0.4500    0.2500
  band No.  band energies     occupation 
      1       1.7245      1.00000
      2       2.2330      1.00000
      3       4.0133      1.00000
      4       4.6220      1.00000
      5       6.1168      0.07001
      6      10.3272     -0.00000
      7      14.9638      0.00000
      8      20.0624      0.00000
      9      23.3401      0.00000
     10      28.5532      0.00000
     11      34.4546      0.00000
     12      38.3598      0.00000

 k-point    39 :      -0.3500    0.4500    0.2500
  band No.  band energies     occupation 
      1       1.8272      1.00000
      2       1.9221      1.00000
      3       4.1772      1.00000
      4       4.9966      1.00000
      5       5.8270      0.99643
      6      10.1393     -0.00000
      7      17.3160      0.00000
      8      17.8449      0.00000
      9      24.5131      0.00000
     10      26.2033      0.00000
     11      33.9539      0.00000
     12      39.2463      0.00000

 k-point    40 :      -0.4500   -0.4500    0.2500
  band No.  band energies     occupation 
      1       1.7119      1.00000
      2       1.8661      1.00000
      3       4.1205      1.00000
      4       5.2775      1.00000
      5       5.9879      0.51809
      6      12.7073      0.00000
      7      14.3524      0.00000
      8      17.1023      0.00000
      9      24.7692      0.00000
     10      27.0795      0.00000
     11      31.8156      0.00000
     12      39.0491      0.00000

 k-point    41 :      -0.3500    0.3500    0.3500
  band No.  band energies     occupation 
      1       1.6508      1.00000
      2       1.8309      1.00000
      3       4.9320      1.00000
      4       4.9320      1.00000
      5       5.5455      1.00350
      6       9.6729     -0.00000
      7      19.0607      0.00000
      8      19.0608      0.00000
      9      22.3550      0.00000
     10      24.4119      0.00000
     11      33.7272      0.00000
     12      42.5052      0.00000

 k-point    42 :      -0.4500    0.4500    0.3500
  band No.  band energies     occupation 
      1       1.4596      1.00000
      2       1.5135      1.00000
      3       5.1036      1.00000
      4       5.3023      1.00001
      5       6.0314      0.33775
      6      12.3823      0.00000
      7      16.0153      0.00000
      8      17.7705      0.00000
      9      22.6305      0.00000
     10      24.7867      0.00000
     11      30.4179      0.00000
     12      42.5598      0.00000

 k-point    43 :      -0.4500   -0.4500    0.3500
  band No.  band energies     occupation 
      1       1.3307      1.00000
      2       1.3307      1.00000
      3       5.2092      1.00000
      4       5.9237      0.77197
      5       5.9237      0.77193
      6      15.0268      0.00000
      7      15.0268      0.00000
      8      15.8733      0.00000
      9      23.5603      0.00000
     10      23.5603      0.00000
     11      28.7953      0.00000
     12      43.1348      0.00000

 k-point    44 :      -0.4500    0.4500    0.4500
  band No.  band energies     occupation 
      1       1.1516      1.00000
      2       1.1540      1.00000
      3       5.8967      0.85764
      4       5.8967      0.85761
      5       6.0085      0.43137
      6      14.6215      0.00000
      7      16.3675      0.00000
      8      16.3675      0.00000
      9      21.8331      0.00000
     10      22.7285      0.00000
     11      27.7120      0.00000
     12      45.1051      0.00000

 spin component 2

 k-point     1 :       0.0500    0.0500    0.0500
  band No.  band energies     occupation 
      1      -1.7443      1.00000
      2       5.4764      1.00081
      3       5.4764      1.00081
      4       6.0693      0.19916
      5       7.5866     -0.00000
      6       7.5866     -0.00000
      7      28.6831      0.00000
      8      28.6831      0.00000
      9      31.4355      0.00000
     10      34.0219      0.00000
     11      37.0513      0.00000
     12      37.0513      0.00000

 k-point     2 :       0.1500    0.0500    0.0500
  band No.  band energies     occupation 
      1      -0.5846      1.00000
      2       5.1066      1.00000
      3       5.2558      1.00000
      4       6.8034     -0.00000
      5       7.4038     -0.00000
      6       7.6834     -0.00000
      7      24.8355      0.00000
      8      26.9247      0.00000
      9      30.5163      0.00000
     10      31.8790      0.00000
     11      37.0732      0.00000
     12      37.1336      0.00000

 k-point     3 :       0.2500    0.0500    0.0500
  band No.  band energies     occupation 
      1       1.0099      1.00000
      2       4.6980      1.00000
      3       5.0487      1.00000
      4       7.4132     -0.00000
      5       7.7911     -0.00000
      6       7.7959     -0.00000
      7      20.5195      0.00000
      8      25.2091      0.00000
      9      27.9868      0.00000
     10      31.7295      0.00000
     11      36.1321      0.00000
     12      39.0240      0.00000

 k-point     4 :       0.3500    0.0500    0.0500
  band No.  band energies     occupation 
      1       2.1870      1.00000
      2       4.3943      1.00000
      3       5.5092      1.00168
      4       7.5299     -0.00000
      5       7.8946     -0.00000
      6       8.7857     -0.00000
      7      16.7025      0.00000
      8      23.9770      0.00000
      9      26.2652      0.00000
     10      31.5013      0.00000
     11      35.8120      0.00000
     12      41.1650      0.00000

 k-point     5 :       0.4500    0.0500    0.0500
  band No.  band energies     occupation 
      1       2.4498      1.00000
      2       4.2833      1.00000
      3       6.1649     -0.00454
      4       7.5787     -0.00000
      5       7.9358     -0.00000
      6       9.3358     -0.00000
      7      14.8788      0.00000
      8      23.5302      0.00000
      9      25.6222      0.00000
     10      31.4159      0.00000
     11      35.7922      0.00000
     12      40.9674      0.00000

 k-point     6 :      -0.0500    0.0500    0.0500
  band No.  band energies     occupation 
      1      -2.1558      1.00000
      2       5.6313      1.01426
      3       5.6314      1.01427
      4       5.7043      1.03025
      5       7.5435     -0.00000
      6       7.7137     -0.00000
      7      29.7783      0.00000
      8      30.7697      0.00000
      9      30.7697      0.00000
     10      35.0268      0.00000
     11      37.5162      0.00000
     12      37.5163      0.00000

[...]
      3       5.9850     -0.03201
      4       6.9307     -0.00000
      5       7.9104     -0.00000
      6      11.0678     -0.00000
      7      17.7376      0.00000
      8      18.1138      0.00000
      9      24.6598      0.00000
     10      26.2193      0.00000
     11      34.0796      0.00000
     12      39.0760      0.00000

 k-point    40 :      -0.4500   -0.4500    0.2500
  band No.  band energies     occupation 
      1       3.4326      1.00000
      2       3.5333      1.00000
      3       5.8904      0.07324
      4       7.2550     -0.00000
      5       8.0831     -0.00000
      6      13.3169      0.00000
      7      14.9364      0.00000
      8      17.3933      0.00000
      9      24.8897      0.00000
     10      27.0379      0.00000
     11      32.0553      0.00000
     12      38.8818      0.00000

 k-point    41 :      -0.3500    0.3500    0.3500
  band No.  band energies     occupation 
      1       3.0643      1.00000
      2       3.7169      1.00000
      3       6.8145     -0.00000
      4       6.8145     -0.00000
      5       7.6161     -0.00000
      6      10.5885     -0.00000
      7      19.2197      0.00000
      8      19.2197      0.00000
      9      22.7795      0.00000
     10      24.5496      0.00000
     11      33.8603      0.00000
     12      42.2655      0.00000

 k-point    42 :      -0.4500    0.4500    0.3500
  band No.  band energies     occupation 
      1       3.1378      1.00000
      2       3.2841      1.00000
      3       7.0366     -0.00000
      4       7.2324     -0.00000
      5       8.1452     -0.00000
      6      12.9016      0.00000
      7      16.3091      0.00000
      8      17.8625      0.00000
      9      23.0223      0.00000
     10      24.9362      0.00000
     11      30.6916      0.00000
     12      42.2960      0.00000

 k-point    43 :      -0.4500   -0.4500    0.3500
  band No.  band energies     occupation 
      1       3.0765      1.00000
      2       3.0765      1.00000
      3       7.1364     -0.00000
      4       8.0003     -0.00000
      5       8.0003     -0.00000
      6      15.2932      0.00000
      7      15.2932      0.00000
      8      16.0373      0.00000
      9      23.8427      0.00000
     10      23.8427      0.00000
     11      29.1518      0.00000
     12      42.8506      0.00000

 k-point    44 :      -0.4500    0.4500    0.4500
  band No.  band energies     occupation 
      1       2.8899      1.00000
      2       2.9249      1.00000
      3       7.9665     -0.00000
      4       7.9665     -0.00000
      5       8.1243     -0.00000
      6      14.7713      0.00000
      7      16.3486      0.00000
      8      16.3486      0.00000
      9      22.3948      0.00000
     10      23.1350      0.00000
     11      28.1044      0.00000
     12      44.7362      0.00000


--------------------------------------------------------------------------------------------------------


 soft charge-density along one line, spin component           1
         0         1         2         3         4         5         6         7         8         9
 total charge-density along one line
 
 soft charge-density along one line, spin component           2
         0         1         2         3         4         5         6         7         8         9
 total charge-density along one line
 
 pseudopotential strength for first ion, spin component:           1
 -5.672   0.000   0.000   0.000   0.000   0.000   0.000   0.000   0.000   0.000  -6.200   0.000   0.000   0.000   0.000   0.000
  0.000   0.000  -5.672   0.000  -0.000   0.000   0.000   0.000   0.000   0.000   0.000   0.000  -6.200   0.000  -0.000   0.000
  0.000   0.000  -0.000   0.000  -5.819   0.000  -0.000   0.000   0.000   0.000   0.000   0.000  -0.000   0.000  -6.344   0.000
  0.000   0.000   0.000   0.000  -0.000   0.000  -5.672   0.000  -0.000   0.000   0.000   0.000   0.000   0.000  -0.000   0.000
  0.000   0.000   0.000   0.000   0.000   0.000  -0.000   0.000  -5.819   0.000   0.000   0.000   0.000   0.000   0.000   0.000
 -6.200   0.000   0.000   0.000   0.000   0.000   0.000   0.000   0.000   0.000  -6.687   0.000   0.000   0.000   0.000   0.000
  0.000   0.000  -6.200   0.000  -0.000   0.000   0.000   0.000   0.000   0.000   0.000   0.000  -6.687   0.000  -0.000   0.000
  0.000   0.000  -0.000   0.000  -6.344   0.000  -0.000   0.000   0.000   0.000   0.000   0.000  -0.000   0.000  -6.826   0.000
  0.000   0.000   0.000   0.000  -0.000   0.000  -6.200   0.000  -0.000   0.000   0.000   0.000   0.000   0.000  -0.000   0.000
  0.000   0.000   0.000   0.000   0.000   0.000  -0.000   0.000  -6.344   0.000   0.000   0.000   0.000   0.000   0.000   0.000
 -0.000   0.000  -0.000   0.000  -0.000   0.000  -0.000   0.000   0.000   0.000  -0.000   0.000  -0.000   0.000  -0.000   0.000
 -0.000   0.000  -0.000   0.000  -0.000   0.000  -0.000   0.000   0.000   0.000  -0.000   0.000  -0.000   0.000  -0.000   0.000
 -0.000   0.000  -0.000   0.000  -0.000   0.000  -0.000   0.000  -0.000   0.000  -0.000   0.000  -0.000   0.000  -0.000   0.000
 -0.000   0.000   0.000   0.000  -0.000   0.000  -0.000   0.000  -0.000   0.000  -0.000   0.000   0.000   0.000  -0.000   0.000
  0.000   0.000  -0.000   0.000   0.000   0.000  -0.000   0.000  -0.000   0.000   0.000   0.000  -0.000   0.000   0.000   0.000
 -0.000   0.000  -0.000   0.000  -0.000   0.000  -0.000   0.000  -0.000   0.000  -0.000   0.000  -0.000   0.000  -0.000   0.000
 -0.000   0.000   0.000   0.000  -0.000   0.000  -0.000   0.000  -0.000   0.000  -0.000   0.000   0.000   0.000  -0.000   0.000
  0.000   0.000  -0.000   0.000   0.000   0.000  -0.000   0.000  -0.000   0.000   0.000   0.000  -0.000   0.000   0.000   0.000
 pseudopotential strength for first ion, spin component:           2
 -4.093   0.000  -0.000   0.000  -0.000   0.000  -0.000   0.000  -0.000   0.000  -4.671   0.000  -0.000   0.000  -0.000   0.000
 -0.000   0.000  -4.093   0.000   0.000   0.000  -0.000   0.000  -0.000   0.000  -0.000   0.000  -4.671   0.000   0.000   0.000
 -0.000   0.000   0.000   0.000  -3.899   0.000   0.000   0.000   0.000   0.000  -0.000   0.000   0.000   0.000  -4.482   0.000
 -0.000   0.000  -0.000   0.000   0.000   0.000  -4.093   0.000   0.000   0.000  -0.000   0.000  -0.000   0.000   0.000   0.000
 -0.000   0.000  -0.000   0.000   0.000   0.000   0.000   0.000  -3.899   0.000  -0.000   0.000  -0.000   0.000   0.000   0.000
 -4.671   0.000  -0.000   0.000  -0.000   0.000  -0.000   0.000  -0.000   0.000  -5.206   0.000  -0.000   0.000  -0.000   0.000
 -0.000   0.000  -4.671   0.000   0.000   0.000  -0.000   0.000  -0.000   0.000  -0.000   0.000  -5.206   0.000   0.000   0.000
 -0.000   0.000   0.000   0.000  -4.482   0.000   0.000   0.000   0.000   0.000  -0.000   0.000   0.000   0.000  -5.021   0.000
 -0.000   0.000  -0.000   0.000   0.000   0.000  -4.671   0.000   0.000   0.000  -0.000   0.000  -0.000   0.000   0.000   0.000
 -0.000   0.000  -0.000   0.000   0.000   0.000   0.000   0.000  -4.482   0.000  -0.000   0.000  -0.000   0.000   0.000   0.000
  0.000   0.000   0.000   0.000  -0.000   0.000   0.000   0.000   0.000   0.000   0.000   0.000   0.000   0.000  -0.000   0.000
  0.000   0.000   0.000   0.000  -0.000   0.000   0.000   0.000   0.000   0.000   0.000   0.000   0.000   0.000  -0.000   0.000
 -0.000   0.000  -0.000   0.000  -0.000   0.000  -0.000   0.000  -0.000   0.000  -0.000   0.000  -0.000   0.000  -0.000   0.000
 -0.000   0.000   0.000   0.000  -0.000   0.000  -0.000   0.000   0.000   0.000  -0.000   0.000   0.000   0.000  -0.000   0.000
  0.000   0.000  -0.000   0.000   0.000   0.000  -0.000   0.000  -0.000   0.000   0.000   0.000  -0.000   0.000   0.000   0.000
 -0.000   0.000  -0.000   0.000  -0.000   0.000  -0.000   0.000  -0.000   0.000  -0.000   0.000  -0.000   0.000  -0.000   0.000
 -0.000   0.000   0.000   0.000  -0.000   0.000  -0.000   0.000   0.000   0.000  -0.000   0.000   0.000   0.000  -0.000   0.000
  0.000   0.000  -0.000   0.000   0.000   0.000  -0.000   0.000  -0.000   0.000   0.000   0.000  -0.000   0.000   0.000   0.000
 total augmentation occupancy for first ion, spin component:           1
  2.470  -0.000  -0.000  -0.000   0.000  -1.409   0.000   0.000   0.000   0.000   0.000  -0.000   0.000   0.000   0.000   0.000
 -0.000   2.470   0.000   0.000   0.000   0.000  -1.409  -0.000  -0.000   0.000  -0.000   0.000   0.000   0.000   0.000   0.000
 -0.000   0.000   3.572   0.000   0.000   0.000  -0.000  -2.306  -0.000   0.000   0.000  -0.000   0.000   0.000   0.000   0.000
 -0.000   0.000   0.000   2.470   0.000   0.000  -0.000   0.000  -1.409  -0.000  -0.000   0.000   0.000   0.000   0.000   0.000
  0.000  -0.000   0.000   0.000   3.572   0.000   0.000   0.000  -0.000  -2.306   0.000   0.000   0.000   0.000   0.000   0.000
 -1.409   0.000   0.000   0.000  -0.000   1.743   0.000  -0.000   0.000  -0.000   0.000  -0.000   0.000   0.000   0.000   0.000
  0.000  -1.409  -0.000  -0.000   0.000   0.000   1.743  -0.000   0.000   0.000   0.000  -0.000   0.000   0.000   0.000   0.000
  0.000  -0.000  -2.306  -0.000   0.000  -0.000  -0.000   2.297  -0.000   0.000  -0.000   0.000   0.000   0.000   0.000   0.000
  0.000  -0.000  -0.000  -1.409  -0.000   0.000   0.000  -0.000   1.743  -0.000   0.000  -0.000   0.000   0.000   0.000   0.000
  0.000   0.000   0.000  -0.000  -2.306   0.000  -0.000   0.000  -0.000   2.297   0.000   0.000   0.000   0.000   0.000   0.000
 -0.000  -0.000   0.000  -0.000   0.000   0.000   0.000  -0.000   0.000   0.000   2.417  -0.284   0.000   0.000   0.000   0.000
 -0.000   0.000  -0.000   0.000   0.000   0.000  -0.000   0.000  -0.000  -0.000  -0.284   0.039   0.000   0.000   0.000   0.000
  0.000   0.000   0.000   0.000   0.000   0.000   0.000   0.000   0.000   0.000   0.000   0.000   0.289  -0.000   0.000  -0.025
  0.000   0.000   0.000   0.000   0.000   0.000   0.000   0.000   0.000   0.000   0.000   0.000  -0.000   0.289  -0.000   0.000
  0.000   0.000   0.000   0.000   0.000   0.000   0.000   0.000   0.000   0.000   0.000   0.000   0.000  -0.000   0.289   0.000
  0.000   0.000   0.000   0.000   0.000   0.000   0.000   0.000   0.000   0.000   0.000   0.000  -0.025   0.000   0.000   0.002
  0.000   0.000   0.000   0.000   0.000   0.000   0.000   0.000   0.000   0.000   0.000   0.000   0.000  -0.025   0.000  -0.000
  0.000   0.000   0.000   0.000   0.000   0.000   0.000   0.000   0.000   0.000   0.000   0.000   0.000   0.000  -0.025  -0.000
 total augmentation occupancy for first ion, spin component:           2
  2.108  -0.000  -0.000  -0.000  -0.000  -0.895   0.000   0.000   0.000   0.000  -0.000   0.000   0.000   0.000   0.000   0.000
 -0.000   2.108   0.000  -0.000  -0.000   0.000  -0.895  -0.000  -0.000   0.000   0.000  -0.000   0.000   0.000   0.000   0.000
 -0.000   0.000   3.025   0.000   0.000   0.000  -0.000  -1.326  -0.000   0.000   0.000   0.000   0.000   0.000   0.000   0.000
 -0.000  -0.000   0.000   2.108   0.000   0.000  -0.000  -0.000  -0.895  -0.000   0.000  -0.000   0.000   0.000   0.000   0.000
  0.000  -0.000   0.000   0.000   3.025   0.000   0.000   0.000  -0.000  -1.326   0.000  -0.000   0.000   0.000   0.000   0.000
 -0.895   0.000   0.000   0.000  -0.000   0.130  -0.000  -0.000  -0.000   0.000  -0.000   0.000   0.000   0.000   0.000   0.000
  0.000  -0.895  -0.000  -0.000   0.000  -0.000   0.130   0.000  -0.000  -0.000  -0.000   0.000   0.000   0.000   0.000   0.000
  0.000  -0.000  -1.326  -0.000   0.000  -0.000   0.000   0.341   0.000   0.000   0.000  -0.000   0.000   0.000   0.000   0.000
  0.000  -0.000  -0.000  -0.895  -0.000  -0.000   0.000   0.000   0.130   0.000  -0.000   0.000   0.000   0.000   0.000   0.000
 -0.000   0.000   0.000  -0.000  -1.326   0.000  -0.000   0.000   0.000   0.341  -0.000  -0.000   0.000   0.000   0.000   0.000
  0.000   0.000   0.000   0.000   0.000   0.000  -0.000   0.000  -0.000  -0.000  -0.344   0.104   0.000   0.000   0.000   0.000
  0.000  -0.000   0.000  -0.000   0.000   0.000   0.000  -0.000   0.000   0.000   0.104  -0.018   0.000   0.000   0.000   0.000
  0.000   0.000   0.000   0.000   0.000   0.000   0.000   0.000   0.000   0.000   0.000   0.000  -0.035   0.000   0.000   0.006
  0.000   0.000   0.000   0.000   0.000   0.000   0.000   0.000   0.000   0.000   0.000   0.000   0.000  -0.035   0.000  -0.000
  0.000   0.000   0.000   0.000   0.000   0.000   0.000   0.000   0.000   0.000   0.000   0.000   0.000   0.000  -0.035   0.000
  0.000   0.000   0.000   0.000   0.000   0.000   0.000   0.000   0.000   0.000   0.000   0.000   0.006  -0.000   0.000  -0.001
  0.000   0.000   0.000   0.000   0.000   0.000   0.000   0.000   0.000   0.000   0.000   0.000  -0.000   0.006  -0.000   0.000
  0.000   0.000   0.000   0.000   0.000   0.000   0.000   0.000   0.000   0.000   0.000   0.000   0.000  -0.000   0.006  -0.000


------------------------ aborting loop because EDIFF is reached ----------------------------------------


    CHARGE:  cpu time    0.0059: real time    0.0059
    FORLOC:  cpu time    0.0002: real time    0.0002
    FORNL :  cpu time    0.0090: real time    0.0091
    STRESS:  cpu time    0.0316: real time    0.0317
    FORCOR:  cpu time    0.0065: real time    0.0064
    FORHAR:  cpu time    0.0008: real time    0.0009
    MIXING:  cpu time    0.0004: real time    0.0003
    OFIELD:  cpu time    0.0000: real time    0.0000

  FORCE on cell =-STRESS in cart. coord.  units (eV):
  Direction    XX          YY          ZZ          XY          YZ          ZX
  --------------------------------------------------------------------------------------
  Alpha Z    60.29907    60.29907    60.29907
  Ewald    -196.77354  -196.77354  -196.77354    -0.00000    -0.00000    -0.00000
  Hartree    31.99116    31.99116    31.99116    -0.00000    -0.00000    -0.00000
  E(xc)     -39.79646   -39.79646   -39.79646    -0.00000    -0.00000    -0.00000
  Local      58.80629    58.80629    58.80629    -0.00002    -0.00002    -0.00002
  n-local   -26.95100   -25.95549   -25.02057     1.16883    -0.71344    -1.39760
  augment    38.77745    38.77745    38.77745     0.00002     0.00002     0.00002
  Kinetic    73.20387    72.53932    72.26586    -2.42675     1.98949     1.43843
  Fock        0.00000     0.00000     0.00000     0.00000     0.00000     0.00000
  -------------------------------------------------------------------------------------
  Total      -0.00203    -0.00203    -0.00203    -0.00000     0.00000    -0.00000
  in kB      -0.28404    -0.28404    -0.28404    -0.00000     0.00000    -0.00000
  external pressure =       -0.28 kB  Pullay stress =        0.00 kB


 VOLUME and BASIS-vectors are now :
 -----------------------------------------------------------------------------
  energy-cutoff  :      350.00
  volume of cell :       11.46
      direct lattice vectors                 reciprocal lattice vectors
    -1.420358582  1.420358582  1.420358582     0.000000000  0.352023782  0.352023782
     1.420358582 -1.420358582  1.420358582     0.352023782  0.000000000  0.352023782
     1.420358582  1.420358582 -1.420358582     0.352023782  0.352023782  0.000000000

  length of vectors
     2.460133229  2.460133229  2.460133229     0.497836807  0.497836807  0.497836807


 FORCES acting on ions
    electron-ion (+dipol)            ewald-force                    non-local-force                 convergence-correction
 -----------------------------------------------------------------------------------------------
   -.144E-14 -.352E-14 -.223E-14   0.630E-15 -.993E-16 0.427E-18   -.165E-23 -.993E-23 -.662E-23   0.193E-14 -.784E-14 -.717E-14
 -----------------------------------------------------------------------------------------------
   -.144E-14 -.352E-14 -.223E-14   0.630E-15 -.993E-16 0.427E-18   -.165E-23 -.993E-23 -.662E-23   0.193E-14 -.784E-14 -.717E-14
 
 
 POSITION                                       TOTAL-FORCE (eV/Angst)
 -----------------------------------------------------------------------------------
      0.00000      0.00000      0.00000        -0.000000      0.000000     -0.000000
 -----------------------------------------------------------------------------------
    total drift:                                0.000000     -0.000000     -0.000000


--------------------------------------------------------------------------------------------------------



  FREE ENERGIE OF THE ION-ELECTRON SYSTEM (eV)
  ---------------------------------------------------
  free  energy   TOTEN  =        -8.24240929 eV

  energy  without entropy=       -8.24329589  energy(sigma->0) =       -8.24270482
 
 d Force = 0.0000000E+00[ 0.000E+00, 0.000E+00]  d Energy = 0.1854607E-02-0.185E-02
 d Force = 0.0000000E+00[ 0.000E+00, 0.000E+00]  d Ewald  = 0.3278026E+01-0.328E+01


--------------------------------------------------------------------------------------------------------


    POTLOK:  cpu time    0.0105: real time    0.0106


--------------------------------------------------------------------------------------------------------




--------------------------------------------------------------------------------------------------------


  
 reached required accuracy - stopping structural energy minimisation
 writing wavefunctions
     LOOP+:  cpu time    0.9513: real time    0.9719
    4ORBIT:  cpu time    0.0000: real time    0.0000

volume of typ            1:    80.7 %
 
total charge     
 
# of ion       s       p       d       tot
------------------------------------------
    1        0.408   0.435   6.158   7.001
 
magnetization (x)
 
# of ion       s       p       d       tot
------------------------------------------
    1       -0.008  -0.041   2.405   2.356
 
orbital moment (x)
 
# of ion     s             p             d             tot
-----------------------------------------------------------------
    1     0.000000E+00  0.358364E-09  0.131458E-08  0.167295E-08
 
orbital moment (y)
 
# of ion     s             p             d             tot
-----------------------------------------------------------------
    1     0.000000E+00  0.352582E-09  0.131004E-08  0.166263E-08
 
orbital moment (z)
 
# of ion     s             p             d             tot
-----------------------------------------------------------------
    1     0.000000E+00  0.668567E-09  0.191270E-08  0.258127E-08
 
orbital moment (x)
 
# of ion     s             p             d             tot
-----------------------------------------------------------------
    1     0.000000E+00  0.516616E-10  0.569359E-10  0.108598E-09
 
orbital moment (y)
 
# of ion     s             p             d             tot
-----------------------------------------------------------------
    1     0.000000E+00  0.526852E-10  0.560242E-10  0.108709E-09
 
orbital moment (z)
 
# of ion     s             p             d             tot
-----------------------------------------------------------------
    1     0.000000E+00  0.510313E-09  0.193118E-09  0.703431E-09
 

 total amount of memory used by VASP MPI-rank0    33820. kBytes
=======================================================================

   base      :      30000. kBytes
   nonl-proj :       1092. kBytes
   fftplans  :        576. kBytes
   grid      :       1310. kBytes
   one-center:         31. kBytes
   wavefun   :        811. kBytes
 
  
  
 General timing and accounting informations for this job:
 ========================================================
  
                  Total CPU time used (sec):        4.374
                            User time (sec):        3.809
                          System time (sec):        0.565
                         Elapsed time (sec):        5.156
  
                   Maximum memory used (kb):       59848.
                   Average memory used (kb):           0.
  
                          Minor page faults:        39678
                          Major page faults:           82
                 Voluntary context switches:         3689
