PROCAR new format
# of k-points:   44         # of bands:   12         # of ions:    1

 k-point     1 :    0.05000000 0.05000000 0.05000000     weight = 0.00800000

band     1 # energy   -2.05333740 # occ.  1.00000000
 
ion      s      p      d    tot
    1  0.574  0.034  0.003  0.611
 
band     2 # energy    3.28822867 # occ.  1.00000000
 
ion      s      p      d    tot
    1  0.000  0.001  0.962  0.964
 
band     3 # energy    3.28822867 # occ.  1.00000000
 
ion      s      p      d    tot
    1  0.000  0.001  0.962  0.964
 
band     4 # energy    3.79688109 # occ.  1.00000000
 
ion      s      p      d    tot
    1  0.001  0.005  0.964  0.969
 
band     5 # energy    4.63117254 # occ.  1.00000000
 
ion      s      p      d    tot
    1  0.000  0.000  0.968  0.968
 
band     6 # energy    4.63117254 # occ.  1.00000000
 
ion      s      p      d    tot
    1  0.000  0.000  0.968  0.968
 
band     7 # energy   28.07250516 # occ.  0.00000000
 
ion      s      p      d    tot
    1  0.000  0.066  0.219  0.285
 
band     8 # energy   28.07250516 # occ.  0.00000000
 
ion      s      p      d    tot
    1  0.000  0.066  0.219  0.285
 
band     9 # energy   31.21302762 # occ.  0.00000000
 
ion      s      p      d    tot
    1  0.000  0.000  0.000  0.000
 
band    10 # energy   32.38622227 # occ.  0.00000000
 
ion      s      p      d    tot
    1  0.052  0.480  0.261  0.793
 
band    11 # energy   36.07641703 # occ.  0.00000000
 
ion      s      p      d    tot
    1  0.000  0.325  0.055  0.381
 
band    12 # energy   36.07641703 # occ.  0.00000000
 
ion      s      p      d    tot
    1  0.000  0.325  0.055  0.381
 

 k-point     2 :    0.15000000 0.05000000 0.05000000     weight = 0.02400000

band     1 # energy   -0.94196750 # occ.  1.00000000
 
ion      s      p      d    tot
    1  0.500  0.090  0.031  0.621
 
band     2 # energy    2.99261115 # occ.  1.00000000
 
ion      s      p      d    tot
    1  0.000  0.002  0.952  0.954
 
band     3 # energy    3.14158156 # occ.  1.00000000
 
ion      s      p      d    tot
    1  0.003  0.014  0.924  0.941
 
band     4 # energy    4.46012131 # occ.  1.00000000
 
ion      s      p      d    tot
    1  0.005  0.015  0.946  0.965
 
band     5 # energy    4.52654617 # occ.  1.00000000
 
ion      s      p      d    tot
    1  0.000  0.001  0.967  0.968
 
band     6 # energy    4.70621724 # occ.  1.00000000
 
ion      s      p      d    tot
    1  0.000  0.000  0.972  0.972
 
band     7 # energy   23.85329356 # occ.  0.00000000
 
ion      s      p      d    tot
    1  0.028  0.184  0.295  0.506
 
band     8 # energy   26.16045453 # occ.  0.00000000
 
ion      s      p      d    tot
    1  0.000  0.146  0.237  0.383
 
band     9 # energy   29.02335249 # occ.  0.00000000
 
ion      s      p      d    tot
    1  0.096  0.471  0.179  0.746
 
band    10 # energy   31.46797681 # occ.  0.00000000
 
ion      s      p      d    tot
    1  0.000  0.003  0.133  0.136
 
band    11 # energy   35.75242748 # occ.  0.00000000
 
ion      s      p      d    tot
    1  0.027  0.319  0.266  0.612
 
band    12 # energy   36.13997530 # occ.  0.00000000
 
ion      s      p      d    tot
    1  0.000  0.248  0.103  0.351
 

 k-point     3 :    0.25000000 0.05000000 0.05000000     weight = 0.02400000

band     1 # energy    0.41346447 # occ.  1.00000000
 
ion      s      p      d    tot
    1  0.341  0.110  0.235  0.686
 
band     2 # energy    2.66575866 # occ.  1.00000000
 
ion      s      p      d    tot
    1  0.000  0.003  0.943  0.946
 
band     3 # energy    3.22062172 # occ.  1.00000000
 
ion      s      p      d    tot
    1  0.044  0.093  0.726  0.863
 
band     4 # energy    4.58597119 # occ.  1.00000000
 
ion      s      p      d    tot
    1  0.001  0.001  0.971  0.974
 
band     5 # energy    4.78560418 # occ.  1.00000000
 
ion      s      p      d    tot
    1  0.000  0.000  0.977  0.977
 
band     6 # energy    5.38786764 # occ.  1.01097530
 
ion      s      p      d    tot
    1  0.016  0.036  0.902  0.954
 
band     7 # energy   19.25037017 # occ.  0.00000000
 
ion      s      p      d    tot
    1  0.116  0.230  0.298  0.644
 
band     8 # energy   24.44454621 # occ.  0.00000000
 
ion      s      p      d    tot
    1  0.000  0.203  0.195  0.398
 
band     9 # energy   26.62321113 # occ.  0.00000000
 
ion      s      p      d    tot
    1  0.098  0.491  0.124  0.713
 
band    10 # energy   31.01873193 # occ.  0.00000000
 
ion      s      p      d    tot
    1  0.000  0.011  0.329  0.340
 
band    11 # energy   34.82414746 # occ.  0.00000000
 
ion      s      p      d    tot
    1  0.081  0.223  0.277  0.581
 
band    12 # energy   38.11414823 # occ.  0.00000000
 
ion      s      p      d    tot
    1  0.000  0.227  0.084  0.311
 

 k-point     4 :    0.35000000 0.05000000 0.05000000     weight = 0.02400000

band     1 # energy    0.96737162 # occ.  1.00000000
 
ion      s      p      d    tot
    1  0.152  0.033  0.626  0.810
 
band     2 # energy    2.42119487 # occ.  1.00000000
 
ion      s      p      d    tot
    1  0.000  0.004  0.937  0.941
 
band     3 # energy    4.27128119 # occ.  1.00000000
 
ion      s      p      d    tot
    1  0.064  0.223  0.496  0.783
 
band     4 # energy    4.72764670 # occ.  1.00000000
 
ion      s      p      d    tot
    1  0.000  0.018  0.951  0.970
 
band     5 # energy    4.85076314 # occ.  1.00000000
 
ion      s      p      d    tot
    1  0.000  0.000  0.982  0.982
 
band     6 # energy    6.51695278 # occ. -0.00000078
 
ion      s      p      d    tot
    1  0.038  0.136  0.705  0.879
 
band     7 # energy   15.14255423 # occ.  0.00000000
 
ion      s      p      d    tot
    1  0.253  0.152  0.332  0.736
 
band     8 # energy   23.26350114 # occ.  0.00000000
 
ion      s      p      d    tot
    1  0.000  0.233  0.153  0.386
 
band     9 # energy   25.00672074 # occ.  0.00000000
 
ion      s      p      d    tot
    1  0.092  0.535  0.063  0.690
 
band    10 # energy   30.61608005 # occ.  0.00000000
 
ion      s      p      d    tot
    1  0.000  0.012  0.442  0.454
 
band    11 # energy   34.49456232 # occ.  0.00000000
 
ion      s      p      d    tot
    1  0.137  0.135  0.315  0.587
 
band    12 # energy   40.36954858 # occ.  0.00000000
 
ion      s      p      d    tot
    1  0.030  0.039  0.085  0.154
 

 k-point     5 :    0.45000000 0.05000000 0.05000000     weight = 0.01200000

band     1 # energy    0.98955297 # occ.  1.00000000
 
ion      s      p      d    tot
    1  0.105  0.008  0.728  0.842
 
band     2 # energy    2.33133500 # occ.  1.00000000
 
ion      s      p      d    tot
    1  0.000  0.004  0.935  0.939
 
band     3 # energy    4.74572417 # occ.  1.00000000
 
ion      s      p      d    tot
    1  0.010  0.000  0.968  0.978
 
band     4 # energy    4.87709753 # occ.  1.00000000
 
ion      s      p      d    tot
    1  0.000  0.000  0.984  0.984
 
band     5 # energy    5.02808861 # occ.  1.00000113
 
ion      s      p      d    tot
    1  0.000  0.233  0.586  0.819
 
band     6 # energy    7.46598381 # occ. -0.00000000
 
ion      s      p      d    tot
    1  0.000  0.339  0.413  0.751
 
band     7 # energy   13.02362888 # occ.  0.00000000
 
ion      s      p      d    tot
    1  0.388  0.009  0.411  0.808
 
band     8 # energy   22.84294411 # occ.  0.00000000
 
ion      s      p      d    tot
    1  0.000  0.242  0.136  0.379
 
band     9 # energy   24.41302983 # occ.  0.00000000
 
ion      s      p      d    tot
    1  0.089  0.556  0.034  0.680
 
band    10 # energy   30.47583639 # occ.  0.00000000
 
ion      s      p      d    tot
    1  0.000  0.012  0.478  0.489
 
band    11 # energy   34.45127390 # occ.  0.00000000
 
ion      s      p      d    tot
    1  0.163  0.096  0.339  0.599
 
band    12 # energy   40.27970648 # occ.  0.00000000
 
ion      s      p      d    tot
    1  0.000  0.072  0.004  0.075
 

 k-point     6 :   -0.05000000 0.05000000 0.05000000     weight = 0.00600000

band     1 # energy   -2.45431100 # occ.  1.00000000
 
ion      s      p      d    tot
    1  0.598  0.012  0.000  0.610
 
band     2 # energy    3.41324971 # occ.  1.00000000
 
ion      s      p      d    tot
    1  0.000  0.001  0.967  0.968
 
band     3 # energy    3.41325265 # occ.  1.00000000
 
ion      s      p      d    tot
    1  0.000  0.001  0.967  0.968
 
band     4 # energy    3.46992186 # occ.  1.00000000
 
ion      s      p      d    tot
    1  0.000  0.000  0.970  0.970
 
band     5 # energy    4.59500420 # occ.  1.00000000
 
ion      s      p      d    tot
    1  0.000  0.000  0.966  0.966
 
band     6 # energy    4.72260964 # occ.  1.00000000
 
ion      s      p      d    tot
    1  0.000  0.000  0.971  0.971
 
band     7 # energy   29.42410655 # occ.  0.00000000
 
ion      s      p      d    tot
    1  0.000  0.000  0.107  0.107
 
band     8 # energy   30.43633036 # occ.  0.00000000
 
ion      s      p      d    tot
    1  0.000  0.010  0.085  0.095
 
band     9 # energy   30.43633434 # occ.  0.00000000
 
ion      s      p      d    tot
    1  0.000  0.010  0.085  0.095
 
band    10 # energy   34.02385085 # occ.  0.00000000
 
ion      s      p      d    tot
    1  0.011  0.261  0.179  0.451
 
band    11 # energy   35.90379363 # occ.  0.00000000
 
ion      s      p      d    tot
    1  0.000  0.445  0.289  0.734
 
band    12 # energy   35.90379718 # occ.  0.00000000
 
ion      s      p      d    tot
    1  0.000  0.445  0.289  0.734
 

 k-point     7 :    0.15000000 0.15000000 0.05000000     weight = 0.02400000

band     1 # energy    0.31320547 # occ.  1.00000000
 
ion      s      p      d    tot
    1  0.393  0.137  0.119  0.650
 
band     2 # energy    2.76870364 # occ.  1.00000000
 
ion      s      p      d    tot
    1  0.000  0.018  0.909  0.927
 
band     3 # energy    2.79807267 # occ.  1.00000000
 
ion      s      p      d    tot
    1  0.006  0.018  0.911  0.934
 
band     4 # energy    4.54577236 # occ.  1.00000000
 
ion      s      p      d    tot
    1  0.000  0.000  0.970  0.970
 
band     5 # energy    4.79468732 # occ.  1.00000000
 
ion      s      p      d    tot
    1  0.002  0.000  0.975  0.977
 
band     6 # energy    5.44510828 # occ.  1.02254437
 
ion      s      p      d    tot
    1  0.024  0.043  0.880  0.947
 
band     7 # energy   21.55323275 # occ.  0.00000000
 
ion      s      p      d    tot
    1  0.000  0.230  0.322  0.552
 
band     8 # energy   22.44796748 # occ.  0.00000000
 
ion      s      p      d    tot
    1  0.099  0.246  0.227  0.572
 
band     9 # energy   25.85713172 # occ.  0.00000000
 
ion      s      p      d    tot
    1  0.133  0.402  0.132  0.667
 
band    10 # energy   32.78070642 # occ.  0.00000000
 
ion      s      p      d    tot
    1  0.000  0.017  0.119  0.136
 
band    11 # energy   36.65595253 # occ.  0.00000000
 
ion      s      p      d    tot
    1  0.018  0.125  0.307  0.449
 
band    12 # energy   38.17579810 # occ.  0.00000000
 
ion      s      p      d    tot
    1  0.000  0.237  0.231  0.468
 

 k-point     8 :    0.25000000 0.15000000 0.05000000     weight = 0.04800000

band     1 # energy    1.32681122 # occ.  1.00000000
 
ion      s      p      d    tot
    1  0.193  0.093  0.482  0.769
 
band     2 # energy    2.48635317 # occ.  1.00000000
 
ion      s      p      d    tot
    1  0.000  0.020  0.905  0.925
 
band     3 # energy    3.03072641 # occ.  1.00000000
 
ion      s      p      d    tot
    1  0.047  0.118  0.683  0.847
 
band     4 # energy    4.64269546 # occ.  1.00000000
 
ion      s      p      d    tot
    1  0.001  0.002  0.973  0.975
 
band     5 # energy    4.89664577 # occ.  1.00000001
 
ion      s      p      d    tot
    1  0.006  0.002  0.973  0.980
 
band     6 # energy    6.82513055 # occ. -0.00000000
 
ion      s      p      d    tot
    1  0.061  0.112  0.716  0.889
 
band     7 # energy   17.47982441 # occ.  0.00000000
 
ion      s      p      d    tot
    1  0.134  0.241  0.294  0.669
 
band     8 # energy   20.61070719 # occ.  0.00000000
 
ion      s      p      d    tot
    1  0.100  0.267  0.223  0.590
 
band     9 # energy   24.08713980 # occ.  0.00000000
 
ion      s      p      d    tot
    1  0.121  0.382  0.119  0.623
 
band    10 # energy   32.98088474 # occ.  0.00000000
 
ion      s      p      d    tot
    1  0.006  0.025  0.236  0.267
 
band    11 # energy   37.43515444 # occ.  0.00000000
 
ion      s      p      d    tot
    1  0.002  0.115  0.302  0.419
 
band    12 # energy   38.86917122 # occ.  0.00000000
 
ion      s      p      d    tot
    1  0.064  0.167  0.194  0.425
 

 k-point     9 :    0.35000000 0.15000000 0.05000000     weight = 0.04800000

band     1 # energy    1.42645345 # occ.  1.00000000
 
ion      s      p      d    tot
    1  0.086  0.034  0.727  0.847
 
band     2 # energy    2.35221284 # occ.  1.00000000
 
ion      s      p      d    tot
    1  0.000  0.019  0.908  0.927
 
band     3 # energy    3.76600465 # occ.  1.00000000
 
ion      s      p      d    tot
    1  0.012  0.177  0.645  0.834
 
band     4 # energy    4.75560437 # occ.  1.00000000
 
ion      s      p      d    tot
    1  0.005  0.002  0.971  0.978
 
band     5 # energy    4.99084710 # occ.  1.00000029
 
ion      s      p      d    tot
    1  0.003  0.015  0.958  0.975
 
band     6 # energy    8.61200804 # occ. -0.00000000
 
ion      s      p      d    tot
    1  0.041  0.280  0.454  0.776
 
band     7 # energy   13.87889474 # occ.  0.00000000
 
ion      s      p      d    tot
    1  0.295  0.115  0.347  0.757
 
band     8 # energy   19.78375626 # occ.  0.00000000
 
ion      s      p      d    tot
    1  0.105  0.286  0.201  0.592
 
band     9 # energy   23.19084170 # occ.  0.00000000
 
ion      s      p      d    tot
    1  0.113  0.389  0.104  0.606
 
band    10 # energy   32.84098173 # occ.  0.00000000
 
ion      s      p      d    tot
    1  0.012  0.020  0.311  0.343
 
band    11 # energy   38.13036452 # occ.  0.00000000
 
ion      s      p      d    tot
    1  0.039  0.148  0.299  0.485
 
band    12 # energy   39.12258635 # occ.  0.00000000
 
ion      s      p      d    tot
    1  0.032  0.066  0.141  0.239
 

 k-point    10 :   -0.15000000 0.15000000 0.05000000     weight = 0.02400000

band     1 # energy   -1.66669676 # occ.  1.00000000
 
ion      s      p      d    tot
    1  0.550  0.056  0.008  0.614
 
band     2 # energy    3.23058007 # occ.  1.00000000
 
ion      s      p      d    tot
    1  0.000  0.001  0.961  0.962
 
band     3 # energy    3.37955726 # occ.  1.00000000
 
ion      s      p      d    tot
    1  0.001  0.008  0.946  0.956
 
band     4 # energy    3.87445043 # occ.  1.00000000
 
ion      s      p      d    tot
    1  0.000  0.004  0.966  0.970
 
band     5 # energy    4.39575936 # occ.  1.00000000
 
ion      s      p      d    tot
    1  0.000  0.000  0.959  0.959
 
band     6 # energy    4.78426309 # occ.  1.00000000
 
ion      s      p      d    tot
    1  0.002  0.000  0.971  0.973
 
band     7 # energy   26.12513023 # occ.  0.00000000
 
ion      s      p      d    tot
    1  0.011  0.110  0.273  0.395
 
band     8 # energy   28.81229272 # occ.  0.00000000
 
ion      s      p      d    tot
    1  0.014  0.105  0.133  0.252
 
band     9 # energy   29.52570101 # occ.  0.00000000
 
ion      s      p      d    tot
    1  0.000  0.097  0.282  0.379
 
band    10 # energy   33.23477222 # occ.  0.00000000
 
ion      s      p      d    tot
    1  0.006  0.302  0.143  0.450
 
band    11 # energy   33.45872246 # occ.  0.00000000
 
ion      s      p      d    tot
    1  0.000  0.412  0.235  0.647
 
band    12 # energy   34.45984198 # occ.  0.00000000
 
ion      s      p      d    tot
    1  0.064  0.346  0.073  0.484
 

 k-point    11 :    0.25000000 0.25000000 0.05000000     weight = 0.02400000

band     1 # energy    1.86423226 # occ.  1.00000000
 
ion      s      p      d    tot
    1  0.072  0.040  0.755  0.867
 
band     2 # energy    2.41520380 # occ.  1.00000000
 
ion      s      p      d    tot
    1  0.000  0.064  0.822  0.886
 
band     3 # energy    3.00785262 # occ.  1.00000000
 
ion      s      p      d    tot
    1  0.026  0.134  0.689  0.849
 
band     4 # energy    4.74546567 # occ.  1.00000000
 
ion      s      p      d    tot
    1  0.000  0.003  0.974  0.977
 
band     5 # energy    4.97786414 # occ.  1.00000018
 
ion      s      p      d    tot
    1  0.006  0.006  0.967  0.980
 
band     6 # energy    8.97941967 # occ. -0.00000000
 
ion      s      p      d    tot
    1  0.088  0.219  0.494  0.801
 
band     7 # energy   15.84787295 # occ.  0.00000000
 
ion      s      p      d    tot
    1  0.000  0.334  0.336  0.670
 
band     8 # energy   16.86884274 # occ.  0.00000000
 
ion      s      p      d    tot
    1  0.376  0.146  0.170  0.692
 
band     9 # energy   22.98975825 # occ.  0.00000000
 
ion      s      p      d    tot
    1  0.115  0.353  0.142  0.610
 
band    10 # energy   34.35569232 # occ.  0.00000000
 
ion      s      p      d    tot
    1  0.000  0.047  0.195  0.242
 
band    11 # energy   37.20782894 # occ.  0.00000000
 
ion      s      p      d    tot
    1  0.021  0.054  0.242  0.316
 
band    12 # energy   43.14768303 # occ.  0.00000000
 
ion      s      p      d    tot
    1  0.000  0.175  0.171  0.346
 

 k-point    12 :    0.35000000 0.25000000 0.05000000     weight = 0.02400000

band     1 # energy    1.91038011 # occ.  1.00000000
 
ion      s      p      d    tot
    1  0.044  0.026  0.819  0.889
 
band     2 # energy    2.45725123 # occ.  1.00000000
 
ion      s      p      d    tot
    1  0.000  0.071  0.815  0.887
 
band     3 # energy    3.07527748 # occ.  1.00000000
 
ion      s      p      d    tot
    1  0.000  0.140  0.713  0.852
 
band     4 # energy    4.83847696 # occ.  1.00000000
 
ion      s      p      d    tot
    1  0.002  0.004  0.973  0.979
 
band     5 # energy    4.98079792 # occ.  1.00000020
 
ion      s      p      d    tot
    1  0.000  0.010  0.970  0.980
 
band     6 # energy   11.09099031 # occ. -0.00000000
 
ion      s      p      d    tot
    1  0.000  0.365  0.358  0.723
 
band     7 # energy   13.31917459 # occ.  0.00000000
 
ion      s      p      d    tot
    1  0.197  0.196  0.346  0.740
 
band     8 # energy   16.14128637 # occ.  0.00000000
 
ion      s      p      d    tot
    1  0.332  0.161  0.198  0.692
 
band     9 # energy   22.64537128 # occ.  0.00000000
 
ion      s      p      d    tot
    1  0.114  0.349  0.149  0.612
 
band    10 # energy   34.88355752 # occ.  0.00000000
 
ion      s      p      d    tot
    1  0.005  0.045  0.214  0.265
 
band    11 # energy   37.20435451 # occ.  0.00000000
 
ion      s      p      d    tot
    1  0.000  0.054  0.161  0.214
 
band    12 # energy   42.74299726 # occ.  0.00000000
 
ion      s      p      d    tot
    1  0.000  0.132  0.373  0.505
 

 k-point    13 :   -0.25000000 0.25000000 0.05000000     weight = 0.02400000

band     1 # energy   -0.32872278 # occ.  1.00000000
 
ion      s      p      d    tot
    1  0.439  0.109  0.092  0.640
 
band     2 # energy    2.91803163 # occ.  1.00000000
 
ion      s      p      d    tot
    1  0.000  0.001  0.952  0.954
 
band     3 # energy    3.28160122 # occ.  1.00000000
 
ion      s      p      d    tot
    1  0.020  0.048  0.835  0.903
 
band     4 # energy    4.39185891 # occ.  1.00000000
 
ion      s      p      d    tot
    1  0.000  0.003  0.961  0.965
 
band     5 # energy    4.60815305 # occ.  1.00000000
 
ion      s      p      d    tot
    1  0.000  0.007  0.965  0.973
 
band     6 # energy    4.85920758 # occ.  1.00000000
 
ion      s      p      d    tot
    1  0.007  0.002  0.965  0.974
 
band     7 # energy   21.51255091 # occ.  0.00000000
 
ion      s      p      d    tot
    1  0.074  0.219  0.301  0.593
 
band     8 # energy   26.66250006 # occ.  0.00000000
 
ion      s      p      d    tot
    1  0.019  0.166  0.095  0.280
 
band     9 # energy   28.05682665 # occ.  0.00000000
 
ion      s      p      d    tot
    1  0.000  0.306  0.319  0.625
 
band    10 # energy   31.38253259 # occ.  0.00000000
 
ion      s      p      d    tot
    1  0.000  0.270  0.300  0.570
 
band    11 # energy   33.08255110 # occ.  0.00000000
 
ion      s      p      d    tot
    1  0.060  0.278  0.213  0.551
 
band    12 # energy   35.20966317 # occ.  0.00000000
 
ion      s      p      d    tot
    1  0.089  0.155  0.079  0.322
 

 k-point    14 :   -0.15000000 0.25000000 0.05000000     weight = 0.02400000

band     1 # energy   -0.60403353 # occ.  1.00000000
 
ion      s      p      d    tot
    1  0.471  0.108  0.047  0.626
 
band     2 # energy    3.16080132 # occ.  1.00000000
 
ion      s      p      d    tot
    1  0.003  0.010  0.937  0.950
 
band     3 # energy    3.16291351 # occ.  1.00000000
 
ion      s      p      d    tot
    1  0.000  0.012  0.928  0.939
 
band     4 # energy    4.20426292 # occ.  1.00000000
 
ion      s      p      d    tot
    1  0.000  0.001  0.955  0.956
 
band     5 # energy    4.42766687 # occ.  1.00000000
 
ion      s      p      d    tot
    1  0.003  0.012  0.952  0.967
 
band     6 # energy    4.93079132 # occ.  1.00000003
 
ion      s      p      d    tot
    1  0.012  0.003  0.958  0.974
 
band     7 # energy   23.71673535 # occ.  0.00000000
 
ion      s      p      d    tot
    1  0.000  0.161  0.326  0.487
 
band     8 # energy   24.95646599 # occ.  0.00000000
 
ion      s      p      d    tot
    1  0.084  0.256  0.217  0.557
 
band     9 # energy   29.63027830 # occ.  0.00000000
 
ion      s      p      d    tot
    1  0.000  0.092  0.254  0.347
 
band    10 # energy   30.52511959 # occ.  0.00000000
 
ion      s      p      d    tot
    1  0.002  0.470  0.123  0.596
 
band    11 # energy   33.19586723 # occ.  0.00000000
 
ion      s      p      d    tot
    1  0.084  0.128  0.224  0.436
 
band    12 # energy   36.47284997 # occ.  0.00000000
 
ion      s      p      d    tot
    1  0.000  0.343  0.055  0.397
 

 k-point    15 :   -0.35000000 0.35000000 0.05000000     weight = 0.02400000

band     1 # energy    0.72219799 # occ.  1.00000000
 
ion      s      p      d    tot
    1  0.234  0.066  0.455  0.754
 
band     2 # energy    2.61727623 # occ.  1.00000000
 
ion      s      p      d    tot
    1  0.000  0.001  0.945  0.946
 
band     3 # energy    3.74740505 # occ.  1.00000000
 
ion      s      p      d    tot
    1  0.068  0.161  0.579  0.808
 
band     4 # energy    4.62938251 # occ.  1.00000000
 
ion      s      p      d    tot
    1  0.000  0.022  0.942  0.965
 
band     5 # energy    5.09590017 # occ.  1.00001103
 
ion      s      p      d    tot
    1  0.038  0.060  0.829  0.928
 
band     6 # energy    5.42272369 # occ.  1.01754728
 
ion      s      p      d    tot
    1  0.000  0.006  0.975  0.981
 
band     7 # energy   17.03802890 # occ.  0.00000000
 
ion      s      p      d    tot
    1  0.183  0.203  0.311  0.697
 
band     8 # energy   24.96919020 # occ.  0.00000000
 
ion      s      p      d    tot
    1  0.018  0.206  0.055  0.278
 
band     9 # energy   26.34009649 # occ.  0.00000000
 
ion      s      p      d    tot
    1  0.000  0.497  0.195  0.692
 
band    10 # energy   30.34602803 # occ.  0.00000000
 
ion      s      p      d    tot
    1  0.000  0.138  0.447  0.584
 
band    11 # energy   32.99270097 # occ.  0.00000000
 
ion      s      p      d    tot
    1  0.146  0.137  0.279  0.562
 
band    12 # energy   37.03661741 # occ.  0.00000000
 
ion      s      p      d    tot
    1  0.068  0.098  0.155  0.322
 

 k-point    16 :   -0.25000000 0.35000000 0.05000000     weight = 0.04800000

band     1 # energy    0.67731648 # occ.  1.00000000
 
ion      s      p      d    tot
    1  0.312  0.124  0.255  0.691
 
band     2 # energy    2.80761701 # occ.  1.00000000
 
ion      s      p      d    tot
    1  0.001  0.015  0.912  0.928
 
band     3 # energy    3.12430920 # occ.  1.00000000
 
ion      s      p      d    tot
    1  0.023  0.059  0.813  0.895
 
band     4 # energy    4.32912515 # occ.  1.00000000
 
ion      s      p      d    tot
    1  0.000  0.007  0.955  0.962
 
band     5 # energy    4.98821666 # occ.  1.00000026
 
ion      s      p      d    tot
    1  0.010  0.002  0.967  0.979
 
band     6 # energy    5.51340671 # occ.  1.03516378
 
ion      s      p      d    tot
    1  0.043  0.052  0.839  0.934
 
band     7 # energy   19.52157115 # occ.  0.00000000
 
ion      s      p      d    tot
    1  0.096  0.244  0.301  0.640
 
band     8 # energy   22.67983688 # occ.  0.00000000
 
ion      s      p      d    tot
    1  0.083  0.263  0.222  0.568
 
band     9 # energy   27.84478211 # occ.  0.00000000
 
ion      s      p      d    tot
    1  0.001  0.388  0.107  0.496
 
band    10 # energy   30.25756910 # occ.  0.00000000
 
ion      s      p      d    tot
    1  0.026  0.152  0.292  0.470
 
band    11 # energy   33.70191464 # occ.  0.00000000
 
ion      s      p      d    tot
    1  0.056  0.115  0.296  0.468
 
band    12 # energy   37.05314620 # occ.  0.00000000
 
ion      s      p      d    tot
    1  0.070  0.190  0.170  0.430
 

 k-point    17 :   -0.45000000 0.45000000 0.05000000     weight = 0.02400000

band     1 # energy    0.91127519 # occ.  1.00000000
 
ion      s      p      d    tot
    1  0.120  0.009  0.704  0.833
 
band     2 # energy    2.43706206 # occ.  1.00000000
 
ion      s      p      d    tot
    1  0.000  0.001  0.942  0.943
 
band     3 # energy    4.39181285 # occ.  1.00000000
 
ion      s      p      d    tot
    1  0.011  0.092  0.794  0.897
 
band     4 # energy    4.69493308 # occ.  1.00000000
 
ion      s      p      d    tot
    1  0.007  0.008  0.957  0.972
 
band     5 # energy    5.97878416 # occ. -0.03008211
 
ion      s      p      d    tot
    1  0.000  0.001  0.989  0.990
 
band     6 # energy    6.33749758 # occ. -0.00021006
 
ion      s      p      d    tot
    1  0.034  0.407  0.254  0.695
 
band     7 # energy   13.61495810 # occ.  0.00000000
 
ion      s      p      d    tot
    1  0.342  0.061  0.384  0.787
 
band     8 # energy   24.04950919 # occ.  0.00000000
 
ion      s      p      d    tot
    1  0.016  0.224  0.031  0.271
 
band     9 # energy   25.20200815 # occ.  0.00000000
 
ion      s      p      d    tot
    1  0.000  0.579  0.103  0.683
 
band    10 # energy   29.95533384 # occ.  0.00000000
 
ion      s      p      d    tot
    1  0.000  0.092  0.528  0.620
 
band    11 # energy   33.11422879 # occ.  0.00000000
 
ion      s      p      d    tot
    1  0.204  0.046  0.344  0.594
 
band    12 # energy   38.29771651 # occ.  0.00000000
 
ion      s      p      d    tot
    1  0.014  0.065  0.121  0.201
 

 k-point    18 :   -0.35000000 0.45000000 0.05000000     weight = 0.04800000

band     1 # energy    1.20257903 # occ.  1.00000000
 
ion      s      p      d    tot
    1  0.132  0.043  0.639  0.814
 
band     2 # energy    2.61252659 # occ.  1.00000000
 
ion      s      p      d    tot
    1  0.001  0.011  0.922  0.934
 
band     3 # energy    3.48410891 # occ.  1.00000000
 
ion      s      p      d    tot
    1  0.026  0.132  0.684  0.842
 
band     4 # energy    4.56408059 # occ.  1.00000000
 
ion      s      p      d    tot
    1  0.003  0.010  0.955  0.968
 
band     5 # energy    5.35726425 # occ.  1.00676756
 
ion      s      p      d    tot
    1  0.016  0.030  0.917  0.962
 
band     6 # energy    6.95579755 # occ. -0.00000000
 
ion      s      p      d    tot
    1  0.071  0.191  0.574  0.837
 
band     7 # energy   15.35578437 # occ.  0.00000000
 
ion      s      p      d    tot
    1  0.228  0.180  0.320  0.729
 
band     8 # energy   21.43583617 # occ.  0.00000000
 
ion      s      p      d    tot
    1  0.081  0.301  0.194  0.576
 
band     9 # energy   26.25029212 # occ.  0.00000000
 
ion      s      p      d    tot
    1  0.001  0.429  0.046  0.477
 
band    10 # energy   30.41746723 # occ.  0.00000000
 
ion      s      p      d    tot
    1  0.055  0.058  0.424  0.537
 
band    11 # energy   34.82132280 # occ.  0.00000000
 
ion      s      p      d    tot
    1  0.004  0.149  0.258  0.411
 
band    12 # energy   36.83317189 # occ.  0.00000000
 
ion      s      p      d    tot
    1  0.109  0.085  0.257  0.451
 

 k-point    19 :   -0.25000000 0.45000000 0.05000000     weight = 0.02400000

band     1 # energy    1.56139973 # occ.  1.00000000
 
ion      s      p      d    tot
    1  0.156  0.089  0.542  0.788
 
band     2 # energy    2.47107926 # occ.  1.00000000
 
ion      s      p      d    tot
    1  0.000  0.039  0.852  0.891
 
band     3 # energy    3.12038623 # occ.  1.00000000
 
ion      s      p      d    tot
    1  0.014  0.078  0.801  0.892
 
band     4 # energy    4.45388320 # occ.  1.00000000
 
ion      s      p      d    tot
    1  0.000  0.007  0.959  0.966
 
band     5 # energy    5.13911502 # occ.  1.00004148
 
ion      s      p      d    tot
    1  0.019  0.008  0.947  0.974
 
band     6 # energy    7.19794194 # occ. -0.00000000
 
ion      s      p      d    tot
    1  0.092  0.152  0.611  0.856
 
band     7 # energy   17.68354405 # occ.  0.00000000
 
ion      s      p      d    tot
    1  0.000  0.316  0.341  0.658
 
band     8 # energy   18.48417073 # occ.  0.00000000
 
ion      s      p      d    tot
    1  0.288  0.212  0.171  0.671
 
band     9 # energy   27.43385357 # occ.  0.00000000
 
ion      s      p      d    tot
    1  0.020  0.444  0.078  0.543
 
band    10 # energy   30.03123144 # occ.  0.00000000
 
ion      s      p      d    tot
    1  0.000  0.091  0.276  0.367
 
band    11 # energy   33.62569779 # occ.  0.00000000
 
ion      s      p      d    tot
    1  0.084  0.028  0.345  0.458
 
band    12 # energy   41.30795407 # occ.  0.00000000
 
ion      s      p      d    tot
    1  0.000  0.244  0.141  0.385
 

 k-point    20 :   -0.45000000-0.45000000 0.05000000     weight = 0.02400000

band     1 # energy    1.21094552 # occ.  1.00000000
 
ion      s      p      d    tot
    1  0.088  0.017  0.741  0.845
 
band     2 # energy    2.54793339 # occ.  1.00000000
 
ion      s      p      d    tot
    1  0.001  0.009  0.927  0.937
 