<?xml version="1.0" encoding="ISO-8859-1"?>
<modeling>
 <generator>
  <i name="program" type="string">vasp </i>
  <i name="version" type="string">5.4.4.18Apr17-6-g9f103f2a35  </i>
  <i name="subversion" type="string">(build Jul 01 2019 03:25:34) complex            parallel </i>
  <i name="platform" type="string">LinuxIFC </i>
  <i name="date" type="string">2020 07 01 </i>
  <i name="time" type="string">21:18:51 </i>
 </generator>
 <incar>
  <i type="string" name="SYSTEM"> bcc Fe</i>
  <i type="string" name="PREC">accurate</i>
  <i type="int" name="ISPIN">     2</i>
  <i type="int" name="IBRION">     2</i>
  <i name="EDIFF">      0.00001000</i>
  <i type="int" name="NSW">    50</i>
  <i type="int" name="ISIF">     3</i>
  <i name="ENCUT">    350.00000000</i>
  <v name="RWIGS">      1.30200000</v>
  <v name="MAGMOM">      3.00000000</v>
  <v type="int" name="KPOINT_BSE">    -1     0     0     0</v>
 </incar>
 <structure name="primitive_cell" >
  <crystal>
   <varray name="basis" >
    <v>      -1.41000000       1.41000000       1.41000000 </v>
    <v>       1.41000000      -1.41000000       1.41000000 </v>
    <v>       1.41000000       1.41000000      -1.41000000 </v>
   </varray>
   <i name="volume">     11.21288400 </i>
   <varray name="rec_basis" >
    <v>       0.00000000       0.35460993       0.35460993 </v>
    <v>       0.35460993       0.00000000       0.35460993 </v>
    <v>       0.35460993       0.35460993       0.00000000 </v>
   </varray>
  </crystal>
  <varray name="positions" >
   <v>       0.00000000       0.00000000       0.00000000 </v>
  </varray>
 </structure>
 <varray name="primitive_index" >
  <v type="int" >        1 </v>
 </varray>
 <kpoints>
  <generation param="Monkhorst-Pack">
   <v type="int" name="divisions">      10       10       10 </v>
   <v name="usershift">      0.00000000       0.00000000       0.00000000 </v>
   <v name="genvec1">      0.10000000       0.00000000       0.00000000 </v>
   <v name="genvec2">      0.00000000       0.10000000       0.00000000 </v>
   <v name="genvec3">      0.00000000       0.00000000       0.10000000 </v>
   <v name="shift">      0.50000000       0.50000000       0.50000000 </v>
  </generation>
  <varray name="kpointlist" >
   <v>       0.05000000       0.05000000       0.05000000 </v>
   <v>       0.15000000       0.05000000       0.05000000 </v>
   <v>       0.25000000       0.05000000       0.05000000 </v>
   <v>       0.35000000       0.05000000       0.05000000 </v>
   <v>       0.45000000       0.05000000       0.05000000 </v>
   <v>      -0.05000000       0.05000000       0.05000000 </v>
   <v>       0.15000000       0.15000000       0.05000000 </v>
   <v>       0.25000000       0.15000000       0.05000000 </v>
   <v>       0.35000000       0.15000000       0.05000000 </v>
   <v>      -0.15000000       0.15000000       0.05000000 </v>
   <v>       0.25000000       0.25000000       0.05000000 </v>
   <v>       0.35000000       0.25000000       0.05000000 </v>
   <v>      -0.25000000       0.25000000       0.05000000 </v>
   <v>      -0.15000000       0.25000000       0.05000000 </v>
   <v>      -0.35000000       0.35000000       0.05000000 </v>
   <v>      -0.25000000       0.35000000       0.05000000 </v>
   <v>      -0.45000000       0.45000000       0.05000000 </v>
   <v>      -0.35000000       0.45000000       0.05000000 </v>
   <v>      -0.25000000       0.45000000       0.05000000 </v>
   <v>      -0.45000000      -0.45000000       0.05000000 </v>
   <v>      -0.35000000      -0.45000000       0.05000000 </v>
   <v>      -0.35000000      -0.35000000       0.05000000 </v>
   <v>       0.15000000       0.15000000       0.15000000 </v>
   <v>       0.25000000       0.15000000       0.15000000 </v>
   <v>       0.35000000       0.15000000       0.15000000 </v>
   <v>      -0.15000000       0.15000000       0.15000000 </v>
   <v>       0.25000000       0.25000000       0.15000000 </v>
   <v>      -0.25000000       0.25000000       0.15000000 </v>
   <v>      -0.35000000       0.35000000       0.15000000 </v>
   <v>      -0.25000000       0.35000000       0.15000000 </v>
   <v>      -0.45000000       0.45000000       0.15000000 </v>
   <v>      -0.35000000       0.45000000       0.15000000 </v>
   <v>      -0.45000000      -0.45000000       0.15000000 </v>
   <v>      -0.35000000      -0.45000000       0.15000000 </v>
   <v>       0.25000000       0.25000000       0.25000000 </v>
   <v>      -0.25000000       0.25000000       0.25000000 </v>
   <v>      -0.35000000       0.35000000       0.25000000 </v>
   <v>      -0.45000000       0.45000000       0.25000000 </v>
   <v>      -0.35000000       0.45000000       0.25000000 </v>
   <v>      -0.45000000      -0.45000000       0.25000000 </v>
   <v>      -0.35000000       0.35000000       0.35000000 </v>
   <v>      -0.45000000       0.45000000       0.35000000 </v>
   <v>      -0.45000000      -0.45000000       0.35000000 </v>
   <v>      -0.45000000       0.45000000       0.45000000 </v>
  </varray>
  <varray name="weights" >
   <v>       0.00800000 </v>
   <v>       0.02400000 </v>
   <v>       0.02400000 </v>
   <v>       0.02400000 </v>
   <v>       0.01200000 </v>
   <v>       0.00600000 </v>
   <v>       0.02400000 </v>
   <v>       0.04800000 </v>
   <v>       0.04800000 </v>
   <v>       0.02400000 </v>
   <v>       0.02400000 </v>
   <v>       0.02400000 </v>
   <v>       0.02400000 </v>
   <v>       0.02400000 </v>
   <v>       0.02400000 </v>
   <v>       0.04800000 </v>
   <v>       0.02400000 </v>
   <v>       0.04800000 </v>
   <v>       0.02400000 </v>
   <v>       0.02400000 </v>
   <v>       0.04800000 </v>
   <v>       0.00800000 </v>
   <v>       0.00800000 </v>
   <v>       0.02400000 </v>
   <v>       0.01200000 </v>
   <v>       0.00600000 </v>
   <v>       0.02400000 </v>
   <v>       0.02400000 </v>
   <v>       0.02400000 </v>
   <v>       0.02400000 </v>
   <v>       0.02400000 </v>
   <v>       0.04800000 </v>
   <v>       0.02400000 </v>
   <v>       0.02400000 </v>
   <v>       0.00200000 </v>
   <v>       0.00600000 </v>
   <v>       0.02400000 </v>
   <v>       0.02400000 </v>
   <v>       0.02400000 </v>
   <v>       0.02400000 </v>
   <v>       0.00600000 </v>
   <v>       0.02400000 </v>
   <v>       0.00800000 </v>
   <v>       0.00600000 </v>
  </varray>
 </kpoints>
 <parameters>
  <separator name="general" >
   <i type="string" name="SYSTEM">bcc Fe</i>
   <i type="logical" name="LCOMPAT"> F  </i>
  </separator>
  <separator name="electronic" >
   <i type="string" name="PREC">accura</i>
   <i name="ENMAX">    350.00000000</i>
   <i name="ENAUG">    511.36800000</i>
   <i name="EDIFF">      0.00001000</i>
   <i type="int" name="IALGO">    38</i>
   <i type="int" name="IWAVPR">    11</i>
   <i type="int" name="NBANDS">    12</i>
   <i name="NELECT">      8.00000000</i>
   <i type="int" name="TURBO">     0</i>
   <i type="int" name="IRESTART">     0</i>
   <i type="int" name="NREBOOT">     0</i>
   <i type="int" name="NMIN">     0</i>
   <i name="EREF">      0.00000000</i>
   <separator name="electronic smearing" >
    <i type="int" name="ISMEAR">     1</i>
    <i name="SIGMA">      0.20000000</i>
    <i name="KSPACING">      0.50000000</i>
    <i type="logical" name="KGAMMA"> T  </i>
   </separator>
   <separator name="electronic projectors" >
    <i type="logical" name="LREAL"> F  </i>
    <v name="ROPT">      0.00000000</v>
    <i type="int" name="LMAXPAW">  -100</i>
    <i type="int" name="LMAXMIX">     2</i>
    <i type="logical" name="NLSPLINE"> F  </i>
   </separator>
   <separator name="electronic startup" >
    <i type="int" name="ISTART">     0</i>
    <i type="int" name="ICHARG">     2</i>
    <i type="int" name="INIWAV">     1</i>
   </separator>
   <separator name="electronic spin" >
    <i type="int" name="ISPIN">     2</i>
    <i type="logical" name="LNONCOLLINEAR"> F  </i>
    <v name="MAGMOM">      3.00000000</v>
    <i name="NUPDOWN">     -1.00000000</i>
    <i type="logical" name="LSORBIT"> F  </i>
    <v name="SAXIS">      0.00000000      0.00000000      1.00000000</v>
    <i type="logical" name="LSPIRAL"> F  </i>
    <v name="QSPIRAL">      0.00000000      0.00000000      0.00000000</v>
    <i type="logical" name="LZEROZ"> F  </i>
   </separator>
   <separator name="electronic exchange-correlation" >
    <i type="logical" name="LASPH"> F  </i>
    <i type="logical" name="LMETAGGA"> F  </i>
   </separator>
   <separator name="electronic convergence" >
    <i type="int" name="NELM">    60</i>
    <i type="int" name="NELMDL">    -5</i>
    <i type="int" name="NELMIN">     2</i>
    <i name="ENINI">    350.00000000</i>
    <separator name="electronic convergence detail" >
     <i type="logical" name="LDIAG"> T  </i>
     <i type="logical" name="LSUBROT"> F  </i>
     <i name="WEIMIN">      0.00100000</i>
     <i name="EBREAK">      0.00000021</i>
     <i name="DEPER">      0.30000000</i>
     <i type="int" name="NRMM">     4</i>
     <i name="TIME">      0.40000000</i>
    </separator>
   </separator>
   <separator name="electronic mixer" >
    <i name="AMIX">      0.40000000</i>
    <i name="BMIX">      1.00000000</i>
    <i name="AMIN">      0.10000000</i>
    <i name="AMIX_MAG">      1.60000000</i>
    <i name="BMIX_MAG">      1.00000000</i>
    <separator name="electronic mixer details" >
     <i type="int" name="IMIX">     4</i>
     <i type="logical" name="MIXFIRST"> F  </i>
     <i type="int" name="MAXMIX">   -45</i>
     <i name="WC">    100.00000000</i>
     <i type="int" name="INIMIX">     1</i>
     <i type="int" name="MIXPRE">     1</i>
     <i type="int" name="MREMOVE">     5</i>
    </separator>
   </separator>
   <separator name="electronic dipolcorrection" >
    <i type="logical" name="LDIPOL"> F  </i>
    <i type="logical" name="LMONO"> F  </i>
    <i type="int" name="IDIPOL">     0</i>
    <i name="EPSILON">      1.00000000</i>
    <v name="DIPOL">   -100.00000000   -100.00000000   -100.00000000</v>
    <i name="EFIELD">      0.00000000</i>
   </separator>
  </separator>
  <separator name="grids" >
   <i type="int" name="NGX">    16</i>
   <i type="int" name="NGY">    16</i>
   <i type="int" name="NGZ">    16</i>
   <i type="int" name="NGXF">    32</i>
   <i type="int" name="NGYF">    32</i>
   <i type="int" name="NGZF">    32</i>
   <i type="logical" name="ADDGRID"> F  </i>
  </separator>
  <separator name="ionic" >
   <i type="int" name="NSW">    50</i>
   <i type="int" name="IBRION">     2</i>
   <i type="int" name="MDALGO">     0</i>
   <i type="int" name="ISIF">     3</i>
   <i name="PSTRESS">      0.00000000</i>
   <i name="EDIFFG">      0.00010000</i>
   <i type="int" name="NFREE">     1</i>
   <i name="POTIM">      0.50000000</i>
   <i name="SMASS">     -3.00000000</i>
   <i name="SCALEE">      1.00000000</i>
  </separator>
  <separator name="ionic md" >
   <i name="TEBEG">      0.00010000</i>
   <i name="TEEND">      0.00010000</i>
   <i type="int" name="NBLOCK">     1</i>
   <i type="int" name="KBLOCK">    50</i>
   <i type="int" name="NPACO">   256</i>
   <i name="APACO">     16.00000000</i>
  </separator>
  <separator name="symmetry" >
   <i type="int" name="ISYM">     2</i>
   <i name="SYMPREC">      0.00001000</i>
  </separator>
  <separator name="dos" >
   <i type="int" name="LORBIT">     0</i>
   <v name="RWIGS">      1.30200000</v>
   <i type="int" name="NEDOS">   301</i>
   <i name="EMIN">     10.00000000</i>
   <i name="EMAX">    -10.00000000</i>
   <i name="EFERMI">      0.00000000</i>
  </separator>
  <separator name="writing" >
   <i type="int" name="NWRITE">     2</i>
   <i type="logical" name="LWAVE"> T  </i>
   <i type="logical" name="LDOWNSAMPLE"> F  </i>
   <i type="logical" name="LCHARG"> T  </i>
   <i type="logical" name="LPARD"> F  </i>
   <i type="logical" name="LVTOT"> F  </i>
   <i type="logical" name="LVHAR"> F  </i>
   <i type="logical" name="LELF"> F  </i>
   <i type="logical" name="LOPTICS"> F  </i>
   <v name="STM">      0.00000000      0.00000000      0.00000000      0.00000000      0.00000000      0.00000000      0.00000000</v>
  </separator>
  <separator name="performance" >
   <i type="int" name="NPAR">     4</i>
   <i type="int" name="NSIM">     4</i>
   <i type="int" name="NBLK">    -1</i>
   <i type="logical" name="LPLANE"> T  </i>
   <i type="logical" name="LSCALAPACK"> T  </i>
   <i type="logical" name="LSCAAWARE"> F  </i>
   <i type="logical" name="LSCALU"> F  </i>
   <i type="logical" name="LASYNC"> F  </i>
   <i type="logical" name="LORBITALREAL"> F  </i>
  </separator>
  <separator name="miscellaneous" >
   <i type="int" name="IDIOT">     3</i>
   <i type="int" name="ISPECIAL">     0</i>
   <i type="logical" name="LMUSIC"> F  </i>
   <v name="POMASS">     55.84700000</v>
   <v name="DARWINR">      0.00000000</v>
   <v name="DARWINV">      1.00000000</v>
   <i type="logical" name="LCORR"> T  </i>
  </separator>
  <i type="logical" name="GGA_COMPAT"> T  </i>
  <i type="logical" name="LBERRY"> F  </i>
  <i type="int" name="ICORELEVEL">     0</i>
  <i type="logical" name="LDAU"> F  </i>
  <i type="int" name="I_CONSTRAINED_M">     0</i>
  <separator name="electronic exchange-correlation" >
   <i type="string" name="GGA">--</i>
   <i type="int" name="VOSKOWN">     0</i>
   <i type="logical" name="LHFCALC"> F  </i>
   <i type="string" name="PRECFOCK"></i>
   <i type="logical" name="LSYMGRAD"> F  </i>
   <i type="logical" name="LHFONE"> F  </i>
   <i type="logical" name="LRHFCALC"> F  </i>
   <i type="logical" name="LTHOMAS"> F  </i>
   <i type="logical" name="LMODELHF"> F  </i>
   <i name="ENCUT4O">     -1.00000000</i>
   <i type="int" name="EXXOEP">     0</i>
   <i type="int" name="FOURORBIT">     0</i>
   <i name="AEXX">      0.00000000</i>
   <i name="HFALPHA">      0.00000000</i>
   <i name="MCALPHA">      0.00000000</i>
   <i name="ALDAX">      1.00000000</i>
   <i name="AGGAX">      1.00000000</i>
   <i name="ALDAC">      1.00000000</i>
   <i name="AGGAC">      1.00000000</i>
   <i type="int" name="NKREDX">     1</i>
   <i type="int" name="NKREDY">     1</i>
   <i type="int" name="NKREDZ">     1</i>
   <i type="logical" name="SHIFTRED"> F  </i>
   <i type="logical" name="ODDONLY"> F  </i>
   <i type="logical" name="EVENONLY"> F  </i>
   <i type="int" name="LMAXFOCK">     0</i>
   <i type="int" name="NMAXFOCKAE">     0</i>
   <i type="logical" name="LFOCKAEDFT"> F  </i>
   <i name="HFSCREEN">      0.00000000</i>
   <i name="HFSCREENC">      0.00000000</i>
   <i type="int" name="NBANDSGWLOW">     0</i>
  </separator>
  <separator name="vdW DFT" >
   <i type="logical" name="LUSE_VDW"> F  </i>
   <i name="Zab_VDW">     -0.84910000</i>
   <i name="PARAM1">      0.12340000</i>
   <i name="PARAM2">      1.00000000</i>
   <i name="PARAM3">      0.00000000</i>
  </separator>
  <separator name="model GW" >
   <i type="int" name="MODEL_GW">     0</i>
   <i name="MODEL_EPS0">      6.72773040</i>
   <i name="MODEL_ALPHA">      1.00000000</i>
  </separator>
  <separator name="linear response parameters" >
   <i type="logical" name="LEPSILON"> F  </i>
   <i type="logical" name="LRPA"> F  </i>
   <i type="logical" name="LNABLA"> F  </i>
   <i type="logical" name="LVEL"> F  </i>
   <i type="int" name="KINTER">     0</i>
   <i name="CSHIFT">      0.10000000</i>
   <i name="OMEGAMAX">     -1.00000000</i>
   <i name="DEG_THRESHOLD">      0.00200000</i>
   <i name="RTIME">     -0.10000000</i>
   <i name="WPLASMAI">      0.00000000</i>
   <v name="DFIELD">      0.00000000      0.00000000      0.00000000</v>
   <v name="WPLASMA">      0.00000000      0.00000000      0.00000000      0.00000000      0.00000000      0.00000000      0.00000000      0.00000000      0.00000000</v>
  </separator>
  <separator name="orbital magnetization" >
   <i type="logical" name="NUCIND"> F  </i>
   <v name="MAGPOS">      0.00000000      0.00000000      0.00000000</v>
   <i type="logical" name="LNICSALL"> T  </i>
   <i type="logical" name="ORBITALMAG"> F  </i>
   <i type="logical" name="LMAGBLOCH"> F  </i>
   <i type="logical" name="LCHIMAG"> F  </i>
   <i type="logical" name="LGAUGE"> T  </i>
   <i type="int" name="MAGATOM">     0</i>
   <v name="MAGDIPOL">      0.00000000      0.00000000      0.00000000</v>
   <v name="AVECCONST">      0.00000000      0.00000000      0.00000000</v>
  </separator>
  <separator name="response functions" >
   <i type="logical" name="LADDER"> F  </i>
   <i type="logical" name="LRPAFORCE"> F  </i>
   <i type="logical" name="LFXC"> F  </i>
   <i type="logical" name="LHARTREE"> T  </i>
   <i type="int" name="IBSE">     0</i>
   <v type="int" name="KPOINT">    -1     0     0     0</v>
   <i type="logical" name="LTCTE"> F  </i>
   <i type="logical" name="LTETE"> F  </i>
   <i type="logical" name="LTRIPLET"> F  </i>
   <i type="logical" name="LFXCEPS"> F  </i>
   <i type="logical" name="LFXHEG"> F  </i>
   <i type="int" name="NATURALO">     2</i>
   <i type="logical" name="L2ORDER"> F  </i>
   <i type="logical" name="LMP2LT"> F  </i>
   <i type="logical" name="LUSEW"> F  </i>
   <i name="ENCUTGW">     -2.00000000</i>
   <i name="ENCUTGWSOFT">     -2.00000000</i>
   <i name="ENCUTLF">     -1.00000000</i>
   <i type="int" name="LMAXMP2">    -1</i>
   <i name="SCISSOR">      0.00000000</i>
   <i type="int" name="NOMEGA">     0</i>
   <i type="int" name="NOMEGAR">     0</i>
   <i type="int" name="NBANDSGW">    -1</i>
   <i type="int" name="NBANDSO">    -1</i>
   <i type="int" name="NBANDSV">    -1</i>
   <i type="int" name="NELM">     1</i>
   <i type="int" name="NELMHF">     1</i>
   <i type="int" name="DIM">     3</i>
   <i type="int" name="ANTIRES">     0</i>
   <i name="OMEGAMAX">    -30.00000000</i>
   <i name="OMEGAMIN">    -30.00000000</i>
   <i name="OMEGATL">   -200.00000000</i>
   <i type="int" name="OMEGAGRID">   140</i>
   <i name="CSHIFT">     -0.10000000</i>
   <i type="logical" name="SELFENERGY"> F  </i>
   <i type="logical" name="LSPECTRAL"> F  </i>
   <i type="logical" name="LSPECTRALGW"> F  </i>
   <i type="logical" name="LSINGLES"> F  </i>
   <i type="logical" name="LFERMIGW"> F  </i>
   <i type="logical" name="ODDONLYGW"> F  </i>
   <i type="logical" name="EVENONLYGW"> F  </i>
   <i type="int" name="NKREDLFX">     1</i>
   <i type="int" name="NKREDLFY">     1</i>
   <i type="int" name="NKREDLFZ">     1</i>
   <i type="int" name="MAXMEM">  2800</i>
   <i type="int" name="TELESCOPE">     0</i>
   <i type="int" name="TAUPAR">     1</i>
   <i type="int" name="OMEGAPAR">    -1</i>
   <i name="LAMBDA">      1.00000000</i>
  </separator>
  <separator name="External order field" >
   <i name="OFIELD_KAPPA">      0.00000000</i>
   <v name="OFIELD_K">      0.00000000      0.00000000      0.00000000</v>
   <i name="OFIELD_Q6_NEAR">      0.00000000</i>
   <i name="OFIELD_Q6_FAR">      0.00000000</i>
   <i name="OFIELD_A">      0.00000000</i>
  </separator>
 </parameters>
 <atominfo>
  <atoms>       1 </atoms>
  <types>       1 </types>
  <array name="atoms" >
   <dimension dim="1">ion</dimension>
   <field type="string">element</field>
   <field type="int">atomtype</field>
   <set>
    <rc><c>Fe</c><c>   1</c></rc>
   </set>
  </array>
  <array name="atomtypes" >
   <dimension dim="1">type</dimension>
   <field type="int">atomspertype</field>
   <field type="string">element</field>
   <field>mass</field>
   <field>valence</field>
   <field type="string">pseudopotential</field>
   <set>
    <rc><c>   1</c><c>Fe</c><c>     55.84700000</c><c>      8.00000000</c><c>  PAW_PBE Fe 06Sep2000                  </c></rc>
   </set>
  </array>
 </atominfo>
 <structure name="initialpos" >
  <crystal>
   <varray name="basis" >
    <v>      -1.41000000       1.41000000       1.41000000 </v>
    <v>       1.41000000      -1.41000000       1.41000000 </v>
    <v>       1.41000000       1.41000000      -1.41000000 </v>
   </varray>
   <i name="volume">     11.21288400 </i>
   <varray name="rec_basis" >
    <v>       0.00000000       0.35460993       0.35460993 </v>
    <v>       0.35460993       0.00000000       0.35460993 </v>
    <v>       0.35460993       0.35460993       0.00000000 </v>
   </varray>
  </crystal>
  <varray name="positions" >
   <v>       0.00000000       0.00000000       0.00000000 </v>
  </varray>
 </structure>
 <calculation>
  <scstep>
   <time name="dav">    0.13    0.15</time>
   <time name="total">    0.15    0.19</time>
   <energy>
    <i name="alphaZ">     61.63782306 </i>
    <i name="ewald">   -594.65744246 </i>
    <i name="hartreedc">   -110.53762645 </i>
    <i name="XCdc">      5.11561975 </i>
    <i name="pawpsdc">    553.75926685 </i>
    <i name="pawaedc">   -561.48528711 </i>
    <i name="eentropy">     -0.00001851 </i>
    <i name="bandstr">     66.63894537 </i>
    <i name="atom">    594.29482811 </i>
    <i name="e_fr_energy">     14.76610860 </i>
    <i name="e_wo_entrp">     14.76612711 </i>
    <i name="e_0_energy">     14.76611477 </i>
   </energy>
  </scstep>
  <scstep>
   <time name="dav">    0.12    0.13</time>
   <time name="total">    0.12    0.13</time>
   <energy>
    <i name="e_fr_energy">     -8.61243613 </i>
    <i name="e_wo_entrp">     -8.61252024 </i>
    <i name="e_0_energy">     -8.61246417 </i>
   </energy>
  </scstep>
  <scstep>
   <time name="dav">    0.13    0.13</time>
   <time name="total">    0.13    0.13</time>
   <energy>
    <i name="e_fr_energy">     -9.11317114 </i>
    <i name="e_wo_entrp">     -9.11407055 </i>
    <i name="e_0_energy">     -9.11347094 </i>
   </energy>
  </scstep>
  <scstep>
   <time name="dav">    0.13    0.13</time>
   <time name="total">    0.13    0.13</time>
   <energy>
    <i name="e_fr_energy">     -9.11493930 </i>
    <i name="e_wo_entrp">     -9.11583914 </i>
    <i name="e_0_energy">     -9.11523924 </i>
   </energy>
  </scstep>
  <scstep>
   <time name="dav">    0.13    0.13</time>
   <time name="total">    0.14    0.14</time>
   <energy>
    <i name="e_fr_energy">     -9.11495026 </i>
    <i name="e_wo_entrp">     -9.11585011 </i>
    <i name="e_0_energy">     -9.11525021 </i>
   </energy>
  </scstep>
  <scstep>
   <time name="dav">    0.13    0.13</time>
   <time name="total">    0.15    0.15</time>
   <energy>
    <i name="e_fr_energy">     -8.31232691 </i>
    <i name="e_wo_entrp">     -8.31319813 </i>
    <i name="e_0_energy">     -8.31261731 </i>
   </energy>
  </scstep>
  <scstep>
   <time name="dav">    0.14    0.14</time>
   <time name="total">    0.15    0.16</time>
   <energy>
    <i name="e_fr_energy">     -8.25097811 </i>
    <i name="e_wo_entrp">     -8.24862399 </i>
    <i name="e_0_energy">     -8.25019341 </i>
   </energy>
  </scstep>
  <scstep>
   <time name="dav">    0.14    0.14</time>
   <time name="total">    0.15    0.16</time>
   <energy>
    <i name="e_fr_energy">     -8.24498969 </i>
    <i name="e_wo_entrp">     -8.24257678 </i>
    <i name="e_0_energy">     -8.24418539 </i>
   </energy>
  </scstep>
  <scstep>
   <time name="dav">    0.14    0.15</time>
   <time name="total">    0.16    0.17</time>
   <energy>
    <i name="e_fr_energy">     -8.23919271 </i>
    <i name="e_wo_entrp">     -8.23789771 </i>
    <i name="e_0_energy">     -8.23876105 </i>
   </energy>
  </scstep>
  <scstep>
   <time name="dav">    0.13    0.13</time>
   <time name="total">    0.15    0.15</time>
   <energy>
    <i name="e_fr_energy">     -8.23928784 </i>
    <i name="e_wo_entrp">     -8.23805120 </i>
    <i name="e_0_energy">     -8.23887562 </i>
   </energy>
  </scstep>
  <scstep>
   <time name="dav">    0.13    0.13</time>
   <time name="total">    0.15    0.15</time>
   <energy>
    <i name="e_fr_energy">     -8.23932142 </i>
    <i name="e_wo_entrp">     -8.23789039 </i>
    <i name="e_0_energy">     -8.23884441 </i>
   </energy>
  </scstep>
  <scstep>
   <time name="dav">    0.11    0.11</time>
   <time name="total">    0.12    0.13</time>
   <energy>
    <i name="alphaZ">     61.63782306 </i>
    <i name="ewald">   -594.65744246 </i>
    <i name="hartreedc">    -94.23034702 </i>
    <i name="XCdc">      4.42504460 </i>
    <i name="pawpsdc">    729.52469957 </i>
    <i name="pawaedc">   -738.73685191 </i>
    <i name="eentropy">     -0.00146404 </i>
    <i name="bandstr">     29.50439599 </i>
    <i name="atom">    594.29482811 </i>
    <i name="e_fr_energy">     -8.23931410 </i>
    <i name="e_wo_entrp">     -8.23785006 </i>
    <i name="e_0_energy">     -8.23882609 </i>
   </energy>
  </scstep>
  <structure>
   <crystal>
    <varray name="basis" >
     <v>      -1.41000000       1.41000000       1.41000000 </v>
     <v>       1.41000000      -1.41000000       1.41000000 </v>
     <v>       1.41000000       1.41000000      -1.41000000 </v>
    </varray>
    <i name="volume">     11.21288400 </i>
    <varray name="rec_basis" >
     <v>       0.00000000       0.35460993       0.35460993 </v>
     <v>       0.35460993       0.00000000       0.35460993 </v>
     <v>       0.35460993       0.35460993       0.00000000 </v>
    </varray>
   </crystal>
   <varray name="positions" >
    <v>       0.00000000       0.00000000       0.00000000 </v>
   </varray>
  </structure>
  <varray name="forces" >
   <v>       0.00000000       0.00000000       0.00000000 </v>
  </varray>
  <varray name="stress" >
   <v>      38.41955151       0.00000000      -0.00000000 </v>
   <v>      -0.00000000      38.41955151      -0.00000000 </v>
   <v>      -0.00000000      -0.00000000      38.41955151 </v>
  </varray>
  <energy>
   <i name="e_fr_energy">     -8.23931410 </i>
   <i name="e_wo_entrp">     -8.23882609 </i>
   <i name="e_0_energy">     -0.00146404 </i>
  </energy>
  <time name="totalsc">    1.88    1.97</time>
 </calculation>
 <calculation>
  <scstep>
   <time name="dav">    0.12    0.13</time>
   <time name="total">    0.14    0.14</time>
   <energy>
    <i name="alphaZ">     59.30012526 </i>
    <i name="ewald">   -587.04261860 </i>
    <i name="hartreedc">    -93.02896897 </i>
    <i name="XCdc">      4.05842657 </i>
    <i name="pawpsdc">    729.59258040 </i>
    <i name="pawaedc">   -738.80030054 </i>
    <i name="eentropy">      0.00244840 </i>
    <i name="bandstr">     23.26238258 </i>
    <i name="atom">    594.29482811 </i>
    <i name="e_fr_energy">     -8.36109680 </i>
    <i name="e_wo_entrp">     -8.36354520 </i>
    <i name="e_0_energy">     -8.36191293 </i>
   </energy>
  </scstep>
  <scstep>
   <time name="dav">    0.13    0.13</time>
   <time name="total">    0.14    0.15</time>
   <energy>
    <i name="e_fr_energy">     -8.25226416 </i>
    <i name="e_wo_entrp">     -8.25449351 </i>
    <i name="e_0_energy">     -8.25300728 </i>
   </energy>
  </scstep>
  <scstep>
   <time name="dav">    0.13    0.13</time>
   <time name="total">    0.14    0.15</time>
   <energy>
    <i name="e_fr_energy">     -8.24296495 </i>
    <i name="e_wo_entrp">     -8.24550634 </i>
    <i name="e_0_energy">     -8.24381208 </i>
   </energy>
  </scstep>
  <scstep>
   <time name="dav">    0.13    0.13</time>
   <time name="total">    0.15    0.15</time>
   <energy>
    <i name="e_fr_energy">     -8.24163132 </i>
    <i name="e_wo_entrp">     -8.24426935 </i>
    <i name="e_0_energy">     -8.24251066 </i>
   </energy>
  </scstep>
  <scstep>
   <time name="dav">    0.13    0.13</time>
   <time name="total">    0.15    0.15</time>
   <energy>
    <i name="e_fr_energy">     -8.24052923 </i>
    <i name="e_wo_entrp">     -8.24307318 </i>
    <i name="e_0_energy">     -8.24137721 </i>
   </energy>
  </scstep>
  <scstep>
   <time name="dav">    0.12    0.13</time>
   <time name="total">    0.14    0.14</time>
   <energy>
    <i name="e_fr_energy">     -8.24055286 </i>
    <i name="e_wo_entrp">     -8.24299613 </i>
    <i name="e_0_energy">     -8.24136729 </i>
   </energy>
  </scstep>
  <scstep>
   <time name="dav">    0.09    0.09</time>
   <time name="total">    0.10    0.10</time>
   <energy>
    <i name="alphaZ">     59.30012526 </i>
    <i name="ewald">   -587.04261860 </i>
    <i name="hartreedc">    -97.27429841 </i>
    <i name="XCdc">      4.39556217 </i>
    <i name="pawpsdc">    712.68356803 </i>
    <i name="pawaedc">   -721.76485797 </i>
    <i name="eentropy">      0.00245259 </i>
    <i name="bandstr">     27.16468414 </i>
    <i name="atom">    594.29482811 </i>
    <i name="e_fr_energy">     -8.24055468 </i>
    <i name="e_wo_entrp">     -8.24300727 </i>
    <i name="e_0_energy">     -8.24137221 </i>
   </energy>
  </scstep>
  <structure>
   <crystal>
    <varray name="basis" >
     <v>      -1.42828982       1.42828982       1.42828982 </v>
     <v>       1.42828982      -1.42828982       1.42828982 </v>
     <v>       1.42828982       1.42828982      -1.42828982 </v>
    </varray>
    <i name="volume">     11.65491231 </i>
    <varray name="rec_basis" >
     <v>       0.00000000       0.35006901       0.35006901 </v>
     <v>       0.35006901       0.00000000       0.35006901 </v>
     <v>       0.35006901       0.35006901       0.00000000 </v>
    </varray>
   </crystal>
   <varray name="positions" >
    <v>       0.00000000       0.00000000       0.00000000 </v>
   </varray>
  </structure>
  <varray name="forces" >
   <v>       0.00000000       0.00000000       0.00000000 </v>
  </varray>
  <varray name="stress" >
   <v>     -27.85410699      -0.00000000       0.00000000 </v>
   <v>       0.00000000     -27.85410699      -0.00000000 </v>
   <v>       0.00000000       0.00000000     -27.85410699 </v>
  </varray>
  <energy>
   <i name="e_fr_energy">     -8.24055468 </i>
   <i name="e_wo_entrp">     -8.24137221 </i>
   <i name="e_0_energy">      0.00245259 </i>
  </energy>
  <time name="totalsc">    1.05    1.07</time>
 </calculation>
 <calculation>
  <scstep>
   <time name="dav">    0.13    0.13</time>
   <time name="total">    0.14    0.15</time>
   <energy>
    <i name="alphaZ">     60.29907232 </i>
    <i name="ewald">   -590.32064471 </i>
    <i name="hartreedc">    -97.80892506 </i>
    <i name="XCdc">      4.55761978 </i>
    <i name="pawpsdc">    712.52186214 </i>
    <i name="pawaedc">   -721.61219188 </i>
    <i name="eentropy">      0.00138457 </i>
    <i name="bandstr">     29.79956619 </i>
    <i name="atom">    594.29482811 </i>
    <i name="e_fr_energy">     -8.26742856 </i>
    <i name="e_wo_entrp">     -8.26881312 </i>
    <i name="e_0_energy">     -8.26789008 </i>
   </energy>
  </scstep>
  <scstep>
   <time name="dav">    0.13    0.13</time>
   <time name="total">    0.14    0.15</time>
   <energy>
    <i name="e_fr_energy">     -8.24569944 </i>
    <i name="e_wo_entrp">     -8.24588585 </i>
    <i name="e_0_energy">     -8.24576158 </i>
   </energy>
  </scstep>
  <scstep>
   <time name="dav">    0.13    0.13</time>
   <time name="total">    0.15    0.15</time>
   <energy>
    <i name="e_fr_energy">     -8.24281160 </i>
    <i name="e_wo_entrp">     -8.24339370 </i>
    <i name="e_0_energy">     -8.24300563 </i>
   </energy>
  </scstep>
  <scstep>
   <time name="dav">    0.13    0.13</time>
   <time name="total">    0.15    0.15</time>
   <energy>
    <i name="e_fr_energy">     -8.24258575 </i>
    <i name="e_wo_entrp">     -8.24329883 </i>
    <i name="e_0_energy">     -8.24282344 </i>
   </energy>
  </scstep>
  <scstep>
   <time name="dav">    0.13    0.13</time>
   <time name="total">    0.15    0.15</time>
   <energy>
    <i name="e_fr_energy">     -8.24240914 </i>
    <i name="e_wo_entrp">     -8.24330771 </i>
    <i name="e_0_energy">     -8.24270866 </i>
   </energy>
  </scstep>
  <scstep>
   <time name="dav">    0.11    0.11</time>
   <time name="total">    0.12    0.12</time>
   <energy>
    <i name="alphaZ">     60.29907232 </i>
    <i name="ewald">   -590.32064471 </i>
    <i name="hartreedc">    -95.95261019 </i>
    <i name="XCdc">      4.41935265 </i>
    <i name="pawpsdc">    719.81287993 </i>
    <i name="pawaedc">   -728.96631612 </i>
    <i name="eentropy">      0.00088660 </i>
    <i name="bandstr">     28.17014214 </i>
    <i name="atom">    594.29482811 </i>
    <i name="e_fr_energy">     -8.24240929 </i>
    <i name="e_wo_entrp">     -8.24329589 </i>
    <i name="e_0_energy">     -8.24270482 </i>
   </energy>
  </scstep>
  <structure>
   <crystal>
    <varray name="basis" >
     <v>      -1.42035858       1.42035858       1.42035858 </v>
     <v>       1.42035858      -1.42035858       1.42035858 </v>
     <v>       1.42035858       1.42035858      -1.42035858 </v>
    </varray>
    <i name="volume">     11.46183073 </i>
    <varray name="rec_basis" >
     <v>       0.00000000       0.35202378       0.35202378 </v>
     <v>       0.35202378       0.00000000       0.35202378 </v>
     <v>       0.35202378       0.35202378       0.00000000 </v>
    </varray>
   </crystal>
   <varray name="positions" >
    <v>       0.00000000       0.00000000       0.00000000 </v>
   </varray>
  </structure>
  <varray name="forces" >
   <v>      -0.00000000       0.00000000      -0.00000000 </v>
  </varray>
  <varray name="stress" >
   <v>      -0.28403828       0.00000000      -0.00000000 </v>
   <v>      -0.00000000      -0.28403828       0.00000000 </v>
   <v>       0.00000000       0.00000000      -0.28403828 </v>
  </varray>
  <energy>
   <i name="e_fr_energy">     -8.24240929 </i>
   <i name="e_wo_entrp">     -8.24270482 </i>
   <i name="e_0_energy">      0.00088660 </i>
  </energy>
  <time name="totalsc">    0.95    0.97</time>
  <eigenvalues>
   <array>
    <dimension dim="1">band</dimension>
    <dimension dim="2">kpoint</dimension>
    <dimension dim="3">spin</dimension>
    <field>eigene</field>
    <field>occ</field>
    <set>
     <set comment="spin 1">
      <set comment="kpoint 1">
       <r>   -2.0533    1.0000 </r>
       <r>    3.2882    1.0000 </r>
       <r>    3.2882    1.0000 </r>
       <r>    3.7969    1.0000 </r>
       <r>    4.6312    1.0000 </r>
       <r>    4.6312    1.0000 </r>
       <r>   28.0725    0.0000 </r>
       <r>   28.0725    0.0000 </r>
       <r>   31.2130    0.0000 </r>
       <r>   32.3862    0.0000 </r>
       <r>   36.0764    0.0000 </r>
       <r>   36.0764    0.0000 </r>
      </set>
      <set comment="kpoint 2">
       <r>   -0.9420    1.0000 </r>
       <r>    2.9926    1.0000 </r>
       <r>    3.1416    1.0000 </r>
       <r>    4.4601    1.0000 </r>
       <r>    4.5265    1.0000 </r>
       <r>    4.7062    1.0000 </r>
       <r>   23.8533    0.0000 </r>
       <r>   26.1605    0.0000 </r>
       <r>   29.0234    0.0000 </r>
       <r>   31.4680    0.0000 </r>
       <r>   35.7524    0.0000 </r>
       <r>   36.1400    0.0000 </r>
      </set>
      <set comment="kpoint 3">
       <r>    0.4135    1.0000 </r>
       <r>    2.6658    1.0000 </r>
       <r>    3.2206    1.0000 </r>
       <r>    4.5860    1.0000 </r>
       <r>    4.7856    1.0000 </r>
       <r>    5.3879    1.0110 </r>
       <r>   19.2504    0.0000 </r>
       <r>   24.4445    0.0000 </r>
       <r>   26.6232    0.0000 </r>
       <r>   31.0187    0.0000 </r>
       <r>   34.8241    0.0000 </r>
       <r>   38.1141    0.0000 </r>
      </set>
      <set comment="kpoint 4">
       <r>    0.9674    1.0000 </r>
       <r>    2.4212    1.0000 </r>
       <r>    4.2713    1.0000 </r>
       <r>    4.7276    1.0000 </r>
       <r>    4.8508    1.0000 </r>
       <r>    6.5170   -0.0000 </r>
       <r>   15.1426    0.0000 </r>
       <r>   23.2635    0.0000 </r>
       <r>   25.0067    0.0000 </r>
       <r>   30.6161    0.0000 </r>
       <r>   34.4946    0.0000 </r>
       <r>   40.3695    0.0000 </r>
      </set>
      <set comment="kpoint 5">
       <r>    0.9896    1.0000 </r>
       <r>    2.3313    1.0000 </r>
       <r>    4.7457    1.0000 </r>
       <r>    4.8771    1.0000 </r>
       <r>    5.0281    1.0000 </r>
       <r>    7.4660   -0.0000 </r>
       <r>   13.0236    0.0000 </r>
       <r>   22.8429    0.0000 </r>
       <r>   24.4130    0.0000 </r>
       <r>   30.4758    0.0000 </r>
       <r>   34.4513    0.0000 </r>
       <r>   40.2797    0.0000 </r>
      </set>
      <set comment="kpoint 6">
       <r>   -2.4543    1.0000 </r>
       <r>    3.4132    1.0000 </r>
       <r>    3.4133    1.0000 </r>
       <r>    3.4699    1.0000 </r>
       <r>    4.5950    1.0000 </r>
       <r>    4.7226    1.0000 </r>
       <r>   29.4241    0.0000 </r>
       <r>   30.4363    0.0000 </r>
       <r>   30.4363    0.0000 </r>
       <r>   34.0239    0.0000 </r>
       <r>   35.9038    0.0000 </r>
       <r>   35.9038    0.0000 </r>
      </set>
      <set comment="kpoint 7">
       <r>    0.3132    1.0000 </r>
       <r>    2.7687    1.0000 </r>
       <r>    2.7981    1.0000 </r>
       <r>    4.5458    1.0000 </r>
       <r>    4.7947    1.0000 </r>
       <r>    5.4451    1.0225 </r>
       <r>   21.5532    0.0000 </r>
       <r>   22.4480    0.0000 </r>
       <r>   25.8571    0.0000 </r>
       <r>   32.7807    0.0000 </r>
       <r>   36.6560    0.0000 </r>
       <r>   38.1758    0.0000 </r>
      </set>
      <set comment="kpoint 8">
       <r>    1.3268    1.0000 </r>
       <r>    2.4864    1.0000 </r>
       <r>    3.0307    1.0000 </r>
       <r>    4.6427    1.0000 </r>
       <r>    4.8966    1.0000 </r>
       <r>    6.8251   -0.0000 </r>
       <r>   17.4798    0.0000 </r>
       <r>   20.6107    0.0000 </r>
       <r>   24.0871    0.0000 </r>
       <r>   32.9809    0.0000 </r>
       <r>   37.4352    0.0000 </r>
       <r>   38.8692    0.0000 </r>
      </set>
      <set comment="kpoint 9">
       <r>    1.4265    1.0000 </r>
       <r>    2.3522    1.0000 </r>
       <r>    3.7660    1.0000 </r>
       <r>    4.7556    1.0000 </r>
       <r>    4.9908    1.0000 </r>
       <r>    8.6120   -0.0000 </r>
       <r>   13.8789    0.0000 </r>
       <r>   19.7838    0.0000 </r>
       <r>   23.1908    0.0000 </r>
       <r>   32.8410    0.0000 </r>
       <r>   38.1304    0.0000 </r>
       <r>   39.1226    0.0000 </r>
      </set>
      <set comment="kpoint 10">
       <r>   -1.6667    1.0000 </r>
       <r>    3.2306    1.0000 </r>
       <r>    3.3796    1.0000 </r>
       <r>    3.8745    1.0000 </r>
       <r>    4.3958    1.0000 </r>
       <r>    4.7843    1.0000 </r>
       <r>   26.1251    0.0000 </r>
       <r>   28.8123    0.0000 </r>
       <r>   29.5257    0.0000 </r>
       <r>   33.2348    0.0000 </r>
       <r>   33.4587    0.0000 </r>
       <r>   34.4598    0.0000 </r>
      </set>
      <set comment="kpoint 11">
       <r>    1.8642    1.0000 </r>
       <r>    2.4152    1.0000 </r>
       <r>    3.0079    1.0000 </r>
       <r>    4.7455    1.0000 </r>
       <r>    4.9779    1.0000 </r>
       <r>    8.9794   -0.0000 </r>
       <r>   15.8479    0.0000 </r>
       <r>   16.8688    0.0000 </r>
       <r>   22.9898    0.0000 </r>
       <r>   34.3557    0.0000 </r>
       <r>   37.2078    0.0000 </r>
       <r>   43.1477    0.0000 </r>
      </set>
      <set comment="kpoint 12">
       <r>    1.9104    1.0000 </r>
       <r>    2.4573    1.0000 </r>
       <r>    3.0753    1.0000 </r>
       <r>    4.8385    1.0000 </r>
       <r>    4.9808    1.0000 </r>
       <r>   11.0910   -0.0000 </r>
       <r>   13.3192    0.0000 </r>
       <r>   16.1413    0.0000 </r>
       <r>   22.6454    0.0000 </r>
       <r>   34.8836    0.0000 </r>
       <r>   37.2044    0.0000 </r>
       <r>   42.7430    0.0000 </r>
      </set>
      <set comment="kpoint 13">
       <r>   -0.3287    1.0000 </r>
       <r>    2.9180    1.0000 </r>
       <r>    3.2816    1.0000 </r>
       <r>    4.3919    1.0000 </r>
       <r>    4.6082    1.0000 </r>
       <r>    4.8592    1.0000 </r>
       <r>   21.5126    0.0000 </r>
       <r>   26.6625    0.0000 </r>
       <r>   28.0568    0.0000 </r>
       <r>   31.3825    0.0000 </r>
       <r>   33.0826    0.0000 </r>
       <r>   35.2097    0.0000 </r>
      </set>
      <set comment="kpoint 14">
       <r>   -0.6040    1.0000 </r>
       <r>    3.1608    1.0000 </r>
       <r>    3.1629    1.0000 </r>
       <r>    4.2043    1.0000 </r>
       <r>    4.4277    1.0000 </r>
       <r>    4.9308    1.0000 </r>
       <r>   23.7167    0.0000 </r>
       <r>   24.9565    0.0000 </r>
       <r>   29.6303    0.0000 </r>
       <r>   30.5251    0.0000 </r>
       <r>   33.1959    0.0000 </r>
       <r>   36.4728    0.0000 </r>
      </set>
      <set comment="kpoint 15">
       <r>    0.7222    1.0000 </r>
       <r>    2.6173    1.0000 </r>
       <r>    3.7474    1.0000 </r>
       <r>    4.6294    1.0000 </r>
       <r>    5.0959    1.0000 </r>
       <r>    5.4227    1.0175 </r>
       <r>   17.0380    0.0000 </r>
       <r>   24.9692    0.0000 </r>
       <r>   26.3401    0.0000 </r>
       <r>   30.3460    0.0000 </r>
       <r>   32.9927    0.0000 </r>
       <r>   37.0366    0.0000 </r>
      </set>
      <set comment="kpoint 16">
       <r>    0.6773    1.0000 </r>
       <r>    2.8076    1.0000 </r>
       <r>    3.1243    1.0000 </r>
       <r>    4.3291    1.0000 </r>
       <r>    4.9882    1.0000 </r>
       <r>    5.5134    1.0352 </r>
       <r>   19.5216    0.0000 </r>
       <r>   22.6798    0.0000 </r>
       <r>   27.8448    0.0000 </r>
       <r>   30.2576    0.0000 </r>
       <r>   33.7019    0.0000 </r>
       <r>   37.0531    0.0000 </r>
      </set>
      <set comment="kpoint 17">
       <r>    0.9113    1.0000 </r>
       <r>    2.4371    1.0000 </r>
       <r>    4.3918    1.0000 </r>
       <r>    4.6949    1.0000 </r>
       <r>    5.9788   -0.0301 </r>
       <r>    6.3375   -0.0002 </r>
       <r>   13.6150    0.0000 </r>
       <r>   24.0495    0.0000 </r>
       <r>   25.2020    0.0000 </r>
       <r>   29.9553    0.0000 </r>
       <r>   33.1142    0.0000 </r>
       <r>   38.2977    0.0000 </r>
      </set>
      <set comment="kpoint 18">
       <r>    1.2026    1.0000 </r>
       <r>    2.6125    1.0000 </r>
       <r>    3.4841    1.0000 </r>
       <r>    4.5641    1.0000 </r>
       <r>    5.3573    1.0068 </r>
       <r>    6.9558   -0.0000 </r>
       <r>   15.3558    0.0000 </r>
       <r>   21.4358    0.0000 </r>
       <r>   26.2503    0.0000 </r>
       <r>   30.4175    0.0000 </r>
       <r>   34.8213    0.0000 </r>
       <r>   36.8332    0.0000 </r>
      </set>
      <set comment="kpoint 19">
       <r>    1.5614    1.0000 </r>
       <r>    2.4711    1.0000 </r>
       <r>    3.1204    1.0000 </r>
       <r>    4.4539    1.0000 </r>
       <r>    5.1391    1.0000 </r>
       <r>    7.1979   -0.0000 </r>
       <r>   17.6835    0.0000 </r>
       <r>   18.4842    0.0000 </r>
       <r>   27.4339    0.0000 </r>
       <r>   30.0312    0.0000 </r>
       <r>   33.6257    0.0000 </r>
       <r>   41.3080    0.0000 </r>
      </set>
      <set comment="kpoint 20">
       <r>    1.2109    1.0000 </r>
       <r>    2.5479    1.0000 </r>
       <r>    3.7287    1.0000 </r>
       <r>    4.5954    1.0000 </r>
       <r>    5.6514    0.9108 </r>
       <r>    8.2670   -0.0000 </r>
       <r>   13.0844    0.0000 </r>
       <r>   20.9860    0.0000 </r>
       <r>   25.6857    0.0000 </r>
       <r>   30.4553    0.0000 </r>
       <r>   36.0018    0.0000 </r>
       <r>   36.1689    0.0000 </r>
      </set>
      <set comment="kpoint 21">
       <r>    1.7775    1.0000 </r>
       <r>    2.5068    1.0000 </r>
       <r>    3.0393    1.0000 </r>
       <r>    4.6736    1.0000 </r>
       <r>    5.2822    1.0016 </r>
       <r>    9.5348   -0.0000 </r>
       <r>   14.1613    0.0000 </r>
       <r>   17.3242    0.0000 </r>
       <r>   26.7481    0.0000 </r>
       <r>   30.6911    0.0000 </r>
       <r>   33.7881    0.0000 </r>
       <r>   40.2905    0.0000 </r>
      </set>
      <set comment="kpoint 22">
       <r>    2.2298    1.0000 </r>
       <r>    2.5284    1.0000 </r>
       <r>    2.5284    1.0000 </r>
       <r>    5.0106    1.0000 </r>
       <r>    5.0106    1.0000 </r>
       <r>   12.4922    0.0000 </r>
       <r>   12.4922    0.0000 </r>
       <r>   15.0849    0.0000 </r>
       <r>   26.8636    0.0000 </r>
       <r>   32.1208    0.0000 </r>
       <r>   32.1208    0.0000 </r>
       <r>   39.8557    0.0000 </r>
      </set>
      <set comment="kpoint 23">
       <r>    1.5456    1.0000 </r>
       <r>    2.4822    1.0000 </r>
       <r>    2.4822    1.0000 </r>
       <r>    4.7649    1.0000 </r>
       <r>    4.7649    1.0000 </r>
       <r>    6.8439   -0.0000 </r>
       <r>   19.8939    0.0000 </r>
       <r>   19.8939    0.0000 </r>
       <r>   21.5776    0.0000 </r>
       <r>   35.6652    0.0000 </r>
       <r>   39.5143    0.0000 </r>
       <r>   39.5143    0.0000 </r>
      </set>
      <set comment="kpoint 24">
       <r>    1.9628    1.0000 </r>
       <r>    2.3230    1.0000 </r>
       <r>    2.9306    1.0000 </r>
       <r>    4.8178    1.0000 </r>
       <r>    4.8689    1.0000 </r>
       <r>    8.7810   -0.0000 </r>
       <r>   16.0203    0.0000 </r>
       <r>   18.8492    0.0000 </r>
       <r>   19.8812    0.0000 </r>
       <r>   36.6905    0.0000 </r>
       <r>   40.4500    0.0000 </r>
       <r>   41.7879    0.0000 </r>
      </set>
      <set comment="kpoint 25">
       <r>    1.8750    1.0000 </r>
       <r>    2.2741    1.0000 </r>
       <r>    3.3737    1.0000 </r>
       <r>    4.8531    1.0000 </r>
       <r>    4.8968    1.0000 </r>
       <r>   10.5807   -0.0000 </r>
       <r>   13.4045    0.0000 </r>
       <r>   18.4917    0.0000 </r>
       <r>   19.4082    0.0000 </r>
       <r>   36.6989    0.0000 </r>
       <r>   41.0643    0.0000 </r>
       <r>   41.9179    0.0000 </r>
      </set>
      <set comment="kpoint 26">
       <r>   -0.9316    1.0000 </r>
       <r>    3.4752    1.0000 </r>
       <r>    3.4752    1.0000 </r>
       <r>    3.8889    1.0000 </r>
       <r>    3.9117    1.0000 </r>
       <r>    4.9967    1.0000 </r>
       <r>   25.6891    0.0000 </r>
       <r>   27.3143    0.0000 </r>
       <r>   27.3143    0.0000 </r>
       <r>   29.0759    0.0000 </r>
       <r>   35.8398    0.0000 </r>
       <r>   35.8398    0.0000 </r>
      </set>
      <set comment="kpoint 27">
       <r>    2.1605    1.0000 </r>
       <r>    2.4653    1.0000 </r>
       <r>    2.8334    1.0000 </r>
       <r>    4.8807    1.0000 </r>
       <r>    4.9063    1.0000 </r>
       <r>   11.3890    0.0000 </r>
       <r>   14.6863    0.0000 </r>
       <r>   15.8641    0.0000 </r>
       <r>   18.7418    0.0000 </r>
       <r>   39.2876    0.0000 </r>
       <r>   41.0564    0.0000 </r>
       <r>   44.5460    0.0000 </r>
      </set>
      <set comment="kpoint 28">
       <r>    0.2795    1.0000 </r>
       <r>    3.1807    1.0000 </r>
       <r>    3.3259    1.0000 </r>
       <r>    3.9330    1.0000 </r>
       <r>    4.5215    1.0000 </r>
       <r>    5.2774    1.0014 </r>
       <r>   22.0744    0.0000 </r>
       <r>   25.1679    0.0000 </r>
       <r>   25.4055    0.0000 </r>
       <r>   29.0258    0.0000 </r>
       <r>   35.2032    0.0000 </r>
       <r>   36.5459    0.0000 </r>
      </set>
      <set comment="kpoint 29">
       <r>    1.1989    1.0000 </r>
       <r>    2.9256    1.0000 </r>
       <r>    3.0802    1.0000 </r>
       <r>    4.3141    1.0000 </r>
       <r>    5.3487    1.0058 </r>
       <r>    6.1672   -0.0080 </r>
       <r>   17.5578    0.0000 </r>
       <r>   23.3927    0.0000 </r>
       <r>   24.1755    0.0000 </r>
       <r>   30.5872    0.0000 </r>
       <r>   34.1034    0.0000 </r>
       <r>   36.4049    0.0000 </r>
      </set>
      <set comment="kpoint 30">
       <r>    1.2556    1.0000 </r>
       <r>    2.6583    1.0000 </r>
       <r>    3.4562    1.0000 </r>
       <r>    4.0731    1.0000 </r>
       <r>    5.0324    1.0000 </r>
       <r>    6.1568   -0.0094 </r>
       <r>   20.0753    0.0000 </r>
       <r>   20.7458    0.0000 </r>
       <r>   26.2641    0.0000 </r>
       <r>   27.7582    0.0000 </r>
       <r>   34.7338    0.0000 </r>
       <r>   39.9665    0.0000 </r>
      </set>
      <set comment="kpoint 31">
       <r>    1.3182    1.0000 </r>
       <r>    2.9264    1.0000 </r>
       <r>    3.1234    1.0000 </r>
       <r>    4.3901    1.0000 </r>
       <r>    5.9263    0.0114 </r>
       <r>    8.0835   -0.0000 </r>
       <r>   13.8810    0.0000 </r>
       <r>   22.3373    0.0000 </r>
       <r>   23.5065    0.0000 </r>
       <r>   32.6284    0.0000 </r>
       <r>   33.5350    0.0000 </r>
       <r>   35.3464    0.0000 </r>
      </set>
      <set comment="kpoint 32">
       <r>    1.6834    1.0000 </r>
       <r>    2.4287    1.0000 </r>
       <r>    3.2638    1.0000 </r>
       <r>    4.4106    1.0000 </r>
       <r>    5.5080    1.0347 </r>
       <r>    8.1627   -0.0000 </r>
       <r>   16.0307    0.0000 </r>
       <r>   19.1925    0.0000 </r>
       <r>   25.7144    0.0000 </r>
       <r>   29.1977    0.0000 </r>
       <r>   33.6962    0.0000 </r>
       <r>   38.3606    0.0000 </r>
      </set>
      <set comment="kpoint 33">
       <r>    1.6369    1.0000 </r>
       <r>    2.5921    1.0000 </r>
       <r>    3.0806    1.0000 </r>
       <r>    4.5030    1.0000 </r>
       <r>    5.7642    0.5135 </r>
       <r>   10.1141   -0.0000 </r>
       <r>   13.3378    0.0000 </r>
       <r>   18.7107    0.0000 </r>
       <r>   25.3549    0.0000 </r>
       <r>   30.9471    0.0000 </r>
       <r>   32.4506    0.0000 </r>
       <r>   37.0366    0.0000 </r>
      </set>
      <set comment="kpoint 34">
       <r>    2.0701    1.0000 </r>
       <r>    2.1148    1.0000 </r>
       <r>    3.0027    1.0000 </r>
       <r>    4.9023    1.0000 </r>
       <r>    5.4172    1.0164 </r>
       <r>   10.9998   -0.0000 </r>
       <r>   14.5174    0.0000 </r>
       <r>   15.8018    0.0000 </r>
       <r>   27.7224    0.0000 </r>
       <r>   28.6984    0.0000 </r>
       <r>   31.6646    0.0000 </r>
       <r>   37.0035    0.0000 </r>
      </set>
      <set comment="kpoint 35">
       <r>    2.5062    1.0000 </r>
       <r>    2.5062    1.0000 </r>
       <r>    2.5062    1.0000 </r>
       <r>    4.9091    1.0000 </r>
       <r>    4.9091    1.0000 </r>
       <r>   14.2890    0.0000 </r>
       <r>   14.2890    0.0000 </r>
       <r>   14.2890    0.0000 </r>
       <r>   16.4538    0.0000 </r>
       <r>   44.5544    0.0000 </r>
       <r>   44.5544    0.0000 </r>
       <r>   44.5544    0.0000 </r>
      </set>
      <set comment="kpoint 36">
       <r>    1.1215    1.0000 </r>
       <r>    2.8020    1.0000 </r>
       <r>    3.8551    1.0000 </r>
       <r>    3.8551    1.0000 </r>
       <r>    4.5812    1.0000 </r>
       <r>    5.9632   -0.0228 </r>
       <r>   22.6916    0.0000 </r>
       <r>   22.6916    0.0000 </r>
       <r>   23.2122    0.0000 </r>
       <r>   25.5513    0.0000 </r>
       <r>   39.4863    0.0000 </r>
       <r>   39.4863    0.0000 </r>
      </set>
      <set comment="kpoint 37">
       <r>    1.6157    1.0000 </r>
       <r>    2.2460    1.0000 </r>
       <r>    3.8929    1.0000 </r>
       <r>    4.2322    1.0000 </r>
       <r>    5.2458    1.0007 </r>
       <r>    7.4790   -0.0000 </r>
       <r>   18.5123    0.0000 </r>
       <r>   20.7378    0.0000 </r>
       <r>   23.1863    0.0000 </r>
       <r>   26.0741    0.0000 </r>
       <r>   37.1610    0.0000 </r>
       <r>   38.3499    0.0000 </r>
      </set>
      <set comment="kpoint 38">
       <r>    1.6016    1.0000 </r>
       <r>    2.0959    1.0000 </r>
       <r>    3.8108    1.0000 </r>
       <r>    4.3995    1.0000 </r>
       <r>    5.8421    0.2069 </r>
       <r>   10.0007   -0.0000 </r>
       <r>   14.5474    0.0000 </r>
       <r>   19.5965    0.0000 </r>
       <r>   22.8748    0.0000 </r>
       <r>   28.0368    0.0000 </r>
       <r>   33.7321    0.0000 </r>
       <r>   37.6979    0.0000 </r>
      </set>
      <set comment="kpoint 39">
       <r>    1.6996    1.0000 </r>
       <r>    1.7975    1.0000 </r>
       <r>    3.9693    1.0000 </r>
       <r>    4.7616    1.0000 </r>
       <r>    5.5626    1.0274 </r>
       <r>    9.8092   -0.0000 </r>
       <r>   16.8920    0.0000 </r>
       <r>   17.3971    0.0000 </r>
       <r>   24.0441    0.0000 </r>
       <r>   25.6827    0.0000 </r>
       <r>   33.2424    0.0000 </r>
       <r>   38.5585    0.0000 </r>
      </set>
      <set comment="kpoint 40">
       <r>    1.5924    1.0000 </r>
       <r>    1.7412    1.0000 </r>
       <r>    3.9145    1.0000 </r>
       <r>    5.0328    1.0000 </r>
       <r>    5.7182    0.7013 </r>
       <r>   12.3534    0.0000 </r>
       <r>   13.9492    0.0000 </r>
       <r>   16.6715    0.0000 </r>
       <r>   24.2908    0.0000 </r>
       <r>   26.5903    0.0000 </r>
       <r>   31.0901    0.0000 </r>
       <r>   38.3612    0.0000 </r>
      </set>
      <set comment="kpoint 41">
       <r>    1.5283    1.0000 </r>
       <r>    1.7102    1.0000 </r>
       <r>    4.6992    1.0000 </r>
       <r>    4.6992    1.0000 </r>
       <r>    5.2906    1.0019 </r>
       <r>    9.3501   -0.0000 </r>
       <r>   18.6113    0.0000 </r>
       <r>   18.6113    0.0000 </r>
       <r>   21.9099    0.0000 </r>
       <r>   23.8937    0.0000 </r>
       <r>   33.0132    0.0000 </r>
       <r>   41.8206    0.0000 </r>
      </set>
      <set comment="kpoint 42">
       <r>    1.3486    1.0000 </r>
       <r>    1.4007    1.0000 </r>
       <r>    4.8648    1.0000 </r>
       <r>    5.0570    1.0000 </r>
       <r>    5.7597    0.5324 </r>
       <r>   12.0279    0.0000 </r>
       <r>   15.6070    0.0000 </r>
       <r>   17.3468    0.0000 </r>
       <r>   22.1695    0.0000 </r>
       <r>   24.2972    0.0000 </r>
       <r>   29.7031    0.0000 </r>
       <r>   41.8749    0.0000 </r>
      </set>
      <set comment="kpoint 43">
       <r>    1.2243    1.0000 </r>
       <r>    1.2243    1.0000 </r>
       <r>    4.9669    1.0000 </r>
       <r>    5.6562    0.8993 </r>
       <r>    5.6562    0.8993 </r>
       <r>   14.6454    0.0000 </r>
       <r>   14.6454    0.0000 </r>
       <r>   15.4636    0.0000 </r>
       <r>   23.0972    0.0000 </r>
       <r>   23.0972    0.0000 </r>
       <r>   28.0678    0.0000 </r>
       <r>   42.4436    0.0000 </r>
      </set>
      <set comment="kpoint 44">
       <r>    1.0516    1.0000 </r>
       <r>    1.0532    1.0000 </r>
       <r>    5.6301    0.9550 </r>
       <r>    5.6301    0.9550 </r>
       <r>    5.7375    0.6247 </r>
       <r>   14.2469    0.0000 </r>
       <r>   15.9743    0.0000 </r>
       <r>   15.9743    0.0000 </r>
       <r>   21.3805    0.0000 </r>
       <r>   22.2643    0.0000 </r>
       <r>   26.9920    0.0000 </r>
       <r>   44.4281    0.0000 </r>
      </set>
     </set>
     <set comment="spin 2">
      <set comment="kpoint 1">
       <r>   -1.8561    1.0000 </r>
       <r>    5.3460    1.0056 </r>
       <r>    5.3460    1.0056 </r>
       <r>    5.9224    0.0166 </r>
       <r>    7.3952   -0.0000 </r>
       <r>    7.3952   -0.0000 </r>
       <r>   28.2091    0.0000 </r>
       <r>   28.2091    0.0000 </r>
       <r>   30.9726    0.0000 </r>
       <r>   33.3232    0.0000 </r>
       <r>   36.4190    0.0000 </r>
       <r>   36.4190    0.0000 </r>
      </set>
      <set comment="kpoint 2">
       <r>   -0.7130    1.0000 </r>
       <r>    4.9859    1.0000 </r>
       <r>    5.1291    1.0000 </r>
       <r>    6.6354   -0.0000 </r>
       <r>    7.2180   -0.0000 </r>
       <r>    7.4890   -0.0000 </r>
       <r>   24.3622    0.0000 </r>
       <r>   26.4504    0.0000 </r>
       <r>   29.8705    0.0000 </r>
       <r>   31.3899    0.0000 </r>
       <r>   36.4398    0.0000 </r>
       <r>   36.4453    0.0000 </r>
      </set>
      <set comment="kpoint 3">
       <r>    0.8719    1.0000 </r>
       <r>    4.5877    1.0000 </r>
       <r>    4.9147    1.0000 </r>
       <r>    7.2269   -0.0000 </r>
       <r>    7.5943   -0.0000 </r>
       <r>    7.5980   -0.0000 </r>
       <r>   20.0671    0.0000 </r>
       <r>   24.7529    0.0000 </r>
       <r>   27.3873    0.0000 </r>
       <r>   31.2072    0.0000 </r>
       <r>   35.4552    0.0000 </r>
       <r>   38.3764    0.0000 </r>
      </set>
      <set comment="kpoint 4">
       <r>    2.0784    1.0000 </r>
       <r>    4.2915    1.0000 </r>
       <r>    5.3294    1.0041 </r>
       <r>    7.3398   -0.0000 </r>
       <r>    7.6936   -0.0000 </r>
       <r>    8.5587   -0.0000 </r>
       <r>   16.2833    0.0000 </r>
       <r>   23.5397    0.0000 </r>
       <r>   25.6971    0.0000 </r>
       <r>   30.9610    0.0000 </r>
       <r>   35.1339    0.0000 </r>
       <r>   40.5202    0.0000 </r>
      </set>
      <set comment="kpoint 5">
       <r>    2.3623    1.0000 </r>
       <r>    4.1832    1.0000 </r>
       <r>    5.9585   -0.0199 </r>
       <r>    7.3866   -0.0000 </r>
       <r>    7.7334   -0.0000 </r>
       <r>    9.0917   -0.0000 </r>
       <r>   14.4774    0.0000 </r>
       <r>   23.1006    0.0000 </r>
       <r>   25.0663    0.0000 </r>
       <r>   30.8702    0.0000 </r>
       <r>   35.1092    0.0000 </r>
       <r>   40.3433    0.0000 </r>
      </set>
      <set comment="kpoint 6">
       <r>   -2.2608    1.0000 </r>
       <r>    5.4967    1.0333 </r>
       <r>    5.4967    1.0333 </r>
       <r>    5.5680    1.0248 </r>
       <r>    7.3533   -0.0000 </r>
       <r>    7.5182   -0.0000 </r>
       <r>   29.3215    0.0000 </r>
       <r>   30.3038    0.0000 </r>
       <r>   30.3038    0.0000 </r>
       <r>   34.4126    0.0000 </r>
       <r>   36.7921    0.0000 </r>
       <r>   36.7921    0.0000 </r>
      </set>
      <set comment="kpoint 7">
       <r>    0.6429    1.0000 </r>
       <r>    4.6824    1.0000 </r>
       <r>    4.6908    1.0000 </r>
       <r>    7.2202   -0.0000 </r>
       <r>    7.5545   -0.0000 </r>
       <r>    7.6460   -0.0000 </r>
       <r>   22.1779    0.0000 </r>
       <r>   23.0391    0.0000 </r>
       <r>   26.5740    0.0000 </r>
       <r>   32.7051    0.0000 </r>
       <r>   37.0570    0.0000 </r>
       <r>   38.6537    0.0000 </r>
      </set>
      <set comment="kpoint 8">
       <r>    2.1316    1.0000 </r>
       <r>    4.3197    1.0000 </r>
       <r>    4.5783    1.0000 </r>
       <r>    7.2993   -0.0000 </r>
       <r>    7.6970   -0.0000 </r>
       <r>    8.8351   -0.0000 </r>
       <r>   18.3717    0.0000 </r>
       <r>   21.2433    0.0000 </r>
       <r>   24.7134    0.0000 </r>
       <r>   33.0799    0.0000 </r>
       <r>   37.7931    0.0000 </r>
       <r>   39.3168    0.0000 </r>
      </set>
      <set comment="kpoint 9">
       <r>    2.7947    1.0000 </r>
       <r>    4.1509    1.0000 </r>
       <r>    5.0376    1.0000 </r>
       <r>    7.4159   -0.0000 </r>
       <r>    7.7571   -0.0000 </r>
       <r>   10.1464   -0.0000 </r>
       <r>   15.1135    0.0000 </r>
       <r>   20.4089    0.0000 </r>
       <r>   23.7739    0.0000 </r>
       <r>   33.0465    0.0000 </r>
       <r>   38.5860    0.0000 </r>
       <r>   39.3404    0.0000 </r>
      </set>
      <set comment="kpoint 10">
       <r>   -1.4624    1.0000 </r>
       <r>    5.2724    1.0013 </r>
       <r>    5.4261    1.0183 </r>
       <r>    6.0126   -0.0355 </r>
       <r>    7.0783   -0.0000 </r>
       <r>    7.5895   -0.0000 </r>
       <r>   26.4404    0.0000 </r>
       <r>   28.9104    0.0000 </r>
       <r>   29.7494    0.0000 </r>
       <r>   33.6267    0.0000 </r>
       <r>   34.1983    0.0000 </r>
       <r>   35.0564    0.0000 </r>
      </set>
      <set comment="kpoint 11">
       <r>    3.2010    1.0000 </r>
       <r>    4.0995    1.0000 </r>
       <r>    4.4635    1.0000 </r>
       <r>    7.4135   -0.0000 </r>
       <r>    7.7359   -0.0000 </r>
       <r>   10.5919   -0.0000 </r>
       <r>   16.8057    0.0000 </r>
       <r>   17.7031    0.0000 </r>
       <r>   23.5940    0.0000 </r>
       <r>   34.4390    0.0000 </r>
       <r>   37.4336    0.0000 </r>
       <r>   43.4642    0.0000 </r>
      </set>
      <set comment="kpoint 12">
       <r>    3.4684    1.0000 </r>
       <r>    4.1109    1.0000 </r>
       <r>    4.5153    1.0000 </r>
       <r>    7.5224   -0.0000 </r>
       <r>    7.7015   -0.0000 </r>
       <r>   12.3110    0.0000 </r>
       <r>   14.5156    0.0000 </r>
       <r>   17.0073    0.0000 </r>
       <r>   23.2541    0.0000 </r>
       <r>   35.0054    0.0000 </r>
       <r>   37.2951    0.0000 </r>
       <r>   43.3023    0.0000 </r>
      </set>
      <set comment="kpoint 13">
       <r>   -0.0326    1.0000 </r>
       <r>    4.8938    1.0000 </r>
       <r>    5.1821    1.0001 </r>
       <r>    6.8295   -0.0000 </r>
       <r>    6.9817   -0.0000 </r>
       <r>    7.6643   -0.0000 </r>
       <r>   22.2008    0.0000 </r>
       <r>   26.8108    0.0000 </r>
       <r>   28.6428    0.0000 </r>
       <r>   31.9467    0.0000 </r>
       <r>   33.6648    0.0000 </r>
       <r>   35.5107    0.0000 </r>
      </set>
      <set comment="kpoint 14">
       <r>   -0.3542    1.0000 </r>
       <r>    5.1444    1.0000 </r>
       <r>    5.1816    1.0001 </r>
       <r>    6.6043   -0.0000 </r>
       <r>    6.7779   -0.0000 </r>
       <r>    7.7368   -0.0000 </r>
       <r>   24.2191    0.0000 </r>
       <r>   25.4938    0.0000 </r>
       <r>   29.8419    0.0000 </r>
       <r>   31.1484    0.0000 </r>
       <r>   33.6028    0.0000 </r>
       <r>   36.9094    0.0000 </r>
      </set>
      <set comment="kpoint 15">
       <r>    1.4996    1.0000 </r>
       <r>    4.5333    1.0000 </r>
       <r>    5.1617    1.0001 </r>
       <r>    7.1442   -0.0000 </r>
       <r>    7.7524   -0.0000 </r>
       <r>    7.7755   -0.0000 </r>
       <r>   18.0235    0.0000 </r>
       <r>   25.1015    0.0000 </r>
       <r>   27.0243    0.0000 </r>
       <r>   30.8824    0.0000 </r>
       <r>   33.6030    0.0000 </r>
       <r>   37.3197    0.0000 </r>
      </set>
      <set comment="kpoint 16">
       <r>    1.1756    1.0000 </r>
       <r>    4.7450    1.0000 </r>
       <r>    4.9439    1.0000 </r>
       <r>    6.8190   -0.0000 </r>
       <r>    7.4862   -0.0000 </r>
       <r>    7.9487   -0.0000 </r>
       <r>   20.3256    0.0000 </r>
       <r>   23.2580    0.0000 </r>
       <r>   28.2831    0.0000 </r>
       <r>   30.6713    0.0000 </r>
       <r>   34.1289    0.0000 </r>
       <r>   37.5053    0.0000 </r>
      </set>
      <set comment="kpoint 17">
       <r>    2.2240    1.0000 </r>
       <r>    4.3191    1.0000 </r>
       <r>    5.8444    0.1994 </r>
       <r>    7.2701   -0.0000 </r>
       <r>    8.0508   -0.0000 </r>
       <r>    8.3953   -0.0000 </r>
       <r>   14.9749    0.0000 </r>
       <r>   24.1555    0.0000 </r>
       <r>   25.8449    0.0000 </r>
       <r>   30.5325    0.0000 </r>
       <r>   33.7753    0.0000 </r>
       <r>   38.4283    0.0000 </r>
      </set>
      <set comment="kpoint 18">
       <r>    2.3598    1.0000 </r>
       <r>    4.4893    1.0000 </r>
       <r>    5.0005    1.0000 </r>
       <r>    7.0638   -0.0000 </r>
       <r>    7.8774   -0.0000 </r>
       <r>    8.8723   -0.0000 </r>
       <r>   16.4587    0.0000 </r>
       <r>   22.0161    0.0000 </r>
       <r>   26.6430    0.0000 </r>
       <r>   30.9177    0.0000 </r>
       <r>   35.1599    0.0000 </r>
       <r>   37.3025    0.0000 </r>
      </set>
      <set comment="kpoint 19">
       <r>    2.5127    1.0000 </r>
       <r>    4.3204    1.0000 </r>
       <r>    4.8458    1.0000 </r>
       <r>    6.9238   -0.0000 </r>
       <r>    7.7452   -0.0000 </r>
       <r>    9.1399   -0.0000 </r>
       <r>   18.5870    0.0000 </r>
       <r>   19.2519    0.0000 </r>
       <r>   27.9407    0.0000 </r>
       <r>   30.2876    0.0000 </r>
       <r>   34.0341    0.0000 </r>
       <r>   41.7018    0.0000 </r>
      </set>
      <set comment="kpoint 20">
       <r>    2.6428    1.0000 </r>
       <r>    4.4172    1.0000 </r>
       <r>    5.2693    1.0012 </r>
       <r>    7.1384   -0.0000 </r>
       <r>    8.0750   -0.0000 </r>
       <r>    9.6862   -0.0000 </r>
       <r>   14.4941    0.0000 </r>
       <r>   21.5572    0.0000 </r>
       <r>   26.0498    0.0000 </r>
       <r>   30.9992    0.0000 </r>
       <r>   36.1302    0.0000 </r>
       <r>   36.7483    0.0000 </r>
      </set>
      <set comment="kpoint 21">
       <r>    3.2521    1.0000 </r>
       <r>    4.2715    1.0000 </r>
       <r>    4.6715    1.0000 </r>
       <r>    7.1666   -0.0000 </r>
       <r>    7.7928   -0.0000 </r>
       <r>   10.9794   -0.0000 </r>
       <r>   15.3118    0.0000 </r>
       <r>   18.1271    0.0000 </r>
       <r>   27.2346    0.0000 </r>
       <r>   31.0148    0.0000 </r>
       <r>   34.0108    0.0000 </r>
       <r>   41.0403    0.0000 </r>
      </set>
      <set comment="kpoint 22">
       <r>    3.9251    1.0000 </r>
       <r>    4.1755    1.0000 </r>
       <r>    4.1755    1.0000 </r>
       <r>    7.5061   -0.0000 </r>
       <r>    7.5061   -0.0000 </r>
       <r>   13.6561    0.0000 </r>
       <r>   13.6561    0.0000 </r>
       <r>   16.0699    0.0000 </r>
       <r>   27.4299    0.0000 </r>
       <r>   32.3240    0.0000 </r>
       <r>   32.3240    0.0000 </r>
       <r>   40.8261    0.0000 </r>
      </set>
      <set comment="kpoint 23">
       <r>    2.0655    1.0000 </r>
       <r>    4.2926    1.0000 </r>
       <r>    4.2926    1.0000 </r>
       <r>    7.5365   -0.0000 </r>
       <r>    7.5365   -0.0000 </r>
       <r>    8.8753   -0.0000 </r>
       <r>   20.5715    0.0000 </r>
       <r>   20.5715    0.0000 </r>
       <r>   22.3640    0.0000 </r>
       <r>   35.4317    0.0000 </r>
       <r>   39.8260    0.0000 </r>
       <r>   39.8260    0.0000 </r>
      </set>
      <set comment="kpoint 24">
       <r>    3.1876    1.0000 </r>
       <r>    4.0621    1.0000 </r>
       <r>    4.2972    1.0000 </r>
       <r>    7.5776   -0.0000 </r>
       <r>    7.7074   -0.0000 </r>
       <r>   10.4419   -0.0000 </r>
       <r>   16.9579    0.0000 </r>
       <r>   19.5430    0.0000 </r>
       <r>   20.6071    0.0000 </r>
       <r>   36.6286    0.0000 </r>
       <r>   40.7781    0.0000 </r>
       <r>   41.8957    0.0000 </r>
      </set>
      <set comment="kpoint 25">
       <r>    3.3332    1.0000 </r>
       <r>    3.9876    1.0000 </r>
       <r>    4.6834    1.0000 </r>
       <r>    7.6104   -0.0000 </r>
       <r>    7.7596   -0.0000 </r>
       <r>   11.8127    0.0000 </r>
       <r>   14.6432    0.0000 </r>
       <r>   19.1876    0.0000 </r>
       <r>   20.1166    0.0000 </r>
       <r>   36.7206    0.0000 </r>
       <r>   41.5632    0.0000 </r>
       <r>   42.0017    0.0000 </r>
      </set>
      <set comment="kpoint 26">
       <r>   -0.7047    1.0000 </r>
       <r>    5.5128    1.0351 </r>
       <r>    5.5128    1.0351 </r>
       <r>    6.0363   -0.0336 </r>
       <r>    6.4680   -0.0000 </r>
       <r>    7.8141   -0.0000 </r>
       <r>   25.9330    0.0000 </r>
       <r>   27.8565    0.0000 </r>
       <r>   27.8565    0.0000 </r>
       <r>   29.5135    0.0000 </r>
       <r>   36.2251    0.0000 </r>
       <r>   36.2251    0.0000 </r>
      </set>
      <set comment="kpoint 27">
       <r>    3.7307    1.0000 </r>
       <r>    4.0320    1.0000 </r>
       <r>    4.2223    1.0000 </r>
       <r>    7.6921   -0.0000 </r>
       <r>    7.7503   -0.0000 </r>
       <r>   12.6440    0.0000 </r>
       <r>   15.6670    0.0000 </r>
       <r>   16.7518    0.0000 </r>
       <r>   19.4567    0.0000 </r>
       <r>   39.2371    0.0000 </r>
       <r>   41.1168    0.0000 </r>
       <r>   44.6641    0.0000 </r>
      </set>
      <set comment="kpoint 28">
       <r>    0.6342    1.0000 </r>
       <r>    5.2702    1.0012 </r>
       <r>    5.3273    1.0040 </r>
       <r>    6.2451   -0.0019 </r>
       <r>    6.7318   -0.0000 </r>
       <r>    7.9969   -0.0000 </r>
       <r>   22.7482    0.0000 </r>
       <r>   25.7846    0.0000 </r>
       <r>   25.8408    0.0000 </r>
       <r>   29.4875    0.0000 </r>
       <r>   35.6823    0.0000 </r>
       <r>   36.9337    0.0000 </r>
      </set>
      <set comment="kpoint 29">
       <r>    2.0575    1.0000 </r>
       <r>    4.7801    1.0000 </r>
       <r>    5.0344    1.0000 </r>
       <r>    6.6266   -0.0000 </r>
       <r>    7.6660   -0.0000 </r>
       <r>    8.4050   -0.0000 </r>
       <r>   18.4924    0.0000 </r>
       <r>   24.0776    0.0000 </r>
       <r>   24.5533    0.0000 </r>
       <r>   30.9930    0.0000 </r>
       <r>   34.6281    0.0000 </r>
       <r>   36.8703    0.0000 </r>
      </set>
      <set comment="kpoint 30">
       <r>    1.9435    1.0000 </r>
       <r>    4.7215    1.0000 </r>
       <r>    5.4061    1.0142 </r>
       <r>    6.3011   -0.0005 </r>
       <r>    7.3654   -0.0000 </r>
       <r>    8.4434   -0.0000 </r>
       <r>   20.8796    0.0000 </r>
       <r>   21.4509    0.0000 </r>
       <r>   26.7178    0.0000 </r>
       <r>   28.2226    0.0000 </r>
       <r>   35.2321    0.0000 </r>
       <r>   40.3469    0.0000 </r>
      </set>
      <set comment="kpoint 31">
       <r>    2.7511    1.0000 </r>
       <r>    4.7851    1.0000 </r>
       <r>    4.8517    1.0000 </r>
       <r>    6.7920   -0.0000 </r>
       <r>    8.3352   -0.0000 </r>
       <r>    9.5341   -0.0000 </r>
       <r>   15.1402    0.0000 </r>
       <r>   22.9837    0.0000 </r>
       <r>   23.8852    0.0000 </r>
       <r>   32.9126    0.0000 </r>
       <r>   34.0799    0.0000 </r>
       <r>   35.8934    0.0000 </r>
      </set>
      <set comment="kpoint 32">
       <r>    2.9881    1.0000 </r>
       <r>    4.2641    1.0000 </r>
       <r>    5.1957    1.0002 </r>
       <r>    6.6939   -0.0000 </r>
       <r>    7.8914   -0.0000 </r>
       <r>    9.8096   -0.0000 </r>
       <r>   17.0251    0.0000 </r>
       <r>   19.9317    0.0000 </r>
       <r>   26.1598    0.0000 </r>
       <r>   29.5964    0.0000 </r>
       <r>   34.1994    0.0000 </r>
       <r>   39.0996    0.0000 </r>
      </set>
      <set comment="kpoint 33">
       <r>    3.2655    1.0000 </r>
       <r>    4.2883    1.0000 </r>
       <r>    5.0000    1.0000 </r>
       <r>    6.8142   -0.0000 </r>
       <r>    8.1578   -0.0000 </r>
       <r>   11.3153    0.0000 </r>
       <r>   14.6007    0.0000 </r>
       <r>   19.4340    0.0000 </r>
       <r>   25.7954    0.0000 </r>
       <r>   31.1974    0.0000 </r>
       <r>   33.0459    0.0000 </r>
       <r>   37.8589    0.0000 </r>
      </set>
      <set comment="kpoint 34">
       <r>    3.7328    1.0000 </r>
       <r>    3.8947    1.0000 </r>
       <r>    4.8592    1.0000 </r>
       <r>    7.2089   -0.0000 </r>
       <r>    7.7839   -0.0000 </r>
       <r>   12.2511    0.0000 </r>
       <r>   15.5605    0.0000 </r>
       <r>   16.6759    0.0000 </r>
       <r>   28.0994    0.0000 </r>
       <r>   29.0846    0.0000 </r>
       <r>   32.2189    0.0000 </r>
       <r>   37.8764    0.0000 </r>
      </set>
      <set comment="kpoint 35">
       <r>    4.0269    1.0000 </r>
       <r>    4.0269    1.0000 </r>
       <r>    4.0269    1.0000 </r>
       <r>    7.7760   -0.0000 </r>
       <r>    7.7760   -0.0000 </r>
       <r>   15.2752    0.0000 </r>
       <r>   15.2752    0.0000 </r>
       <r>   15.2752    0.0000 </r>
       <r>   17.2539    0.0000 </r>
       <r>   44.3402    0.0000 </r>
       <r>   44.3402    0.0000 </r>
       <r>   44.3402    0.0000 </r>
      </set>
      <set comment="kpoint 36">
       <r>    1.7275    1.0000 </r>
       <r>    5.0606    1.0000 </r>
       <r>    5.8766    0.1057 </r>
       <r>    5.8766    0.1056 </r>
       <r>    6.8138   -0.0000 </r>
       <r>    8.3706   -0.0000 </r>
       <r>   23.3956    0.0000 </r>
       <r>   23.3956    0.0000 </r>
       <r>   23.8051    0.0000 </r>
       <r>   26.0226    0.0000 </r>
       <r>   39.8528    0.0000 </r>
       <r>   39.8528    0.0000 </r>
      </set>
      <set comment="kpoint 37">
       <r>    2.7541    1.0000 </r>
       <r>    4.3020    1.0000 </r>
       <r>    5.9214    0.0180 </r>
       <r>    6.3470   -0.0002 </r>
       <r>    7.5506   -0.0000 </r>
       <r>    9.2518   -0.0000 </r>
       <r>   19.3352    0.0000 </r>
       <r>   21.4112    0.0000 </r>
       <r>   23.8161    0.0000 </r>
       <r>   26.5832    0.0000 </r>
       <r>   37.8938    0.0000 </r>
       <r>   38.8482    0.0000 </r>
      </set>
      <set comment="kpoint 38">
       <r>    3.2760    1.0000 </r>
       <r>    3.8871    1.0000 </r>
       <r>    5.8294    0.2509 </r>
       <r>    6.5568   -0.0000 </r>
       <r>    8.2389   -0.0000 </r>
       <r>   11.2059   -0.0000 </r>
       <r>   15.5887    0.0000 </r>
       <r>   20.2112    0.0000 </r>
       <r>   23.5295    0.0000 </r>
       <r>   28.4390    0.0000 </r>
       <r>   34.5993    0.0000 </r>
       <r>   38.1964    0.0000 </r>
      </set>
      <set comment="kpoint 39">
       <r>    3.2614    1.0000 </r>
       <r>    3.7530    1.0000 </r>
       <r>    5.9850   -0.0320 </r>
       <r>    6.9307   -0.0000 </r>
       <r>    7.9104   -0.0000 </r>
       <r>   11.0678   -0.0000 </r>
       <r>   17.7376    0.0000 </r>
       <r>   18.1138    0.0000 </r>
       <r>   24.6598    0.0000 </r>
       <r>   26.2193    0.0000 </r>
       <r>   34.0796    0.0000 </r>
       <r>   39.0760    0.0000 </r>
      </set>
      <set comment="kpoint 40">
       <r>    3.4326    1.0000 </r>
       <r>    3.5333    1.0000 </r>
       <r>    5.8904    0.0732 </r>
       <r>    7.2550   -0.0000 </r>
       <r>    8.0831   -0.0000 </r>
       <r>   13.3169    0.0000 </r>
       <r>   14.9364    0.0000 </r>
       <r>   17.3933    0.0000 </r>
       <r>   24.8897    0.0000 </r>
       <r>   27.0379    0.0000 </r>
       <r>   32.0553    0.0000 </r>
       <r>   38.8818    0.0000 </r>
      </set>
      <set comment="kpoint 41">
       <r>    3.0643    1.0000 </r>
       <r>    3.7169    1.0000 </r>
       <r>    6.8145   -0.0000 </r>
       <r>    6.8145   -0.0000 </r>
       <r>    7.6161   -0.0000 </r>
       <r>   10.5885   -0.0000 </r>
       <r>   19.2197    0.0000 </r>
       <r>   19.2197    0.0000 </r>
       <r>   22.7795    0.0000 </r>
       <r>   24.5496    0.0000 </r>
       <r>   33.8603    0.0000 </r>
       <r>   42.2655    0.0000 </r>
      </set>
      <set comment="kpoint 42">
       <r>    3.1378    1.0000 </r>
       <r>    3.2841    1.0000 </r>
       <r>    7.0366   -0.0000 </r>
       <r>    7.2324   -0.0000 </r>
       <r>    8.1452   -0.0000 </r>
       <r>   12.9016    0.0000 </r>
       <r>   16.3091    0.0000 </r>
       <r>   17.8625    0.0000 </r>
       <r>   23.0223    0.0000 </r>
       <r>   24.9362    0.0000 </r>
       <r>   30.6916    0.0000 </r>
       <r>   42.2960    0.0000 </r>
      </set>
      <set comment="kpoint 43">
       <r>    3.0765    1.0000 </r>
       <r>    3.0765    1.0000 </r>
       <r>    7.1364   -0.0000 </r>
       <r>    8.0003   -0.0000 </r>
       <r>    8.0003   -0.0000 </r>
       <r>   15.2932    0.0000 </r>
       <r>   15.2932    0.0000 </r>
       <r>   16.0373    0.0000 </r>
       <r>   23.8427    0.0000 </r>
       <r>   23.8427    0.0000 </r>
       <r>   29.1518    0.0000 </r>
       <r>   42.8506    0.0000 </r>
      </set>
      <set comment="kpoint 44">
       <r>    2.8899    1.0000 </r>
       <r>    2.9249    1.0000 </r>
       <r>    7.9665   -0.0000 </r>
       <r>    7.9665   -0.0000 </r>
       <r>    8.1243   -0.0000 </r>
       <r>   14.7713    0.0000 </r>
       <r>   16.3486    0.0000 </r>
       <r>   16.3486    0.0000 </r>
       <r>   22.3948    0.0000 </r>
       <r>   23.1350    0.0000 </r>
       <r>   28.1044    0.0000 </r>
       <r>   44.7362    0.0000 </r>
      </set>
     </set>
    </set>
   </array>
  </eigenvalues>
  <separator name="orbital magnetization" >
   <v name="MAGDIPOLOUT">      0.00000000      0.00000000      0.00000000</v>
  </separator>
  <dos>
   <i name="efermi">      5.76736685 </i>
   <total>
    <array>
     <dimension dim="1">gridpoints</dimension>
     <dimension dim="2">spin</dimension>
     <field>energy</field>
     <field>total</field>
     <field>integrated</field>
     <set>
      <set comment="spin 1">
       <r>    -4.8138     0.0000     0.0000 </r>
       <r>    -4.6408     0.0000     0.0000 </r>
       <r>    -4.4678     0.0000     0.0000 </r>
       <r>    -4.2947     0.0000     0.0000 </r>
       <r>    -4.1217    -0.0000    -0.0000 </r>
       <r>    -3.9487    -0.0000    -0.0000 </r>
       <r>    -3.7756    -0.0000    -0.0000 </r>
       <r>    -3.6026    -0.0000    -0.0000 </r>
       <r>    -3.4296    -0.0000    -0.0000 </r>
       <r>    -3.2565    -0.0000    -0.0000 </r>
       <r>    -3.0835    -0.0000    -0.0000 </r>
       <r>    -2.9105    -0.0001    -0.0000 </r>
       <r>    -2.7375    -0.0010    -0.0002 </r>
       <r>    -2.5644     0.0046     0.0006 </r>
       <r>    -2.3914     0.0217     0.0044 </r>
       <r>    -2.2184     0.0108     0.0062 </r>
       <r>    -2.0453     0.0220     0.0100 </r>
       <r>    -1.8723     0.0196     0.0134 </r>
       <r>    -1.6993     0.0545     0.0229 </r>
       <r>    -1.5262     0.0820     0.0371 </r>
       <r>    -1.3532     0.0077     0.0384 </r>
       <r>    -1.1802    -0.0082     0.0370 </r>
       <r>    -1.0071     0.0452     0.0448 </r>
       <r>    -0.8341     0.1093     0.0637 </r>
       <r>    -0.6611     0.0649     0.0749 </r>
       <r>    -0.4880     0.0883     0.0902 </r>
       <r>    -0.3150     0.0918     0.1061 </r>
       <r>    -0.1420     0.0586     0.1163 </r>
       <r>     0.0311    -0.0102     0.1145 </r>
       <r>     0.2041     0.0471     0.1226 </r>
       <r>     0.3771     0.2244     0.1615 </r>
       <r>     0.5502     0.1706     0.1910 </r>
       <r>     0.7232     0.2359     0.2318 </r>
       <r>     0.8962     0.2528     0.2756 </r>
       <r>     1.0692     0.2795     0.3239 </r>
       <r>     1.2423     0.6461     0.4357 </r>
       <r>     1.4153     0.8774     0.5875 </r>
       <r>     1.5883     0.7478     0.7169 </r>
       <r>     1.7614     0.9567     0.8825 </r>
       <r>     1.9344     0.6997     1.0035 </r>
       <r>     2.1074     0.4302     1.0780 </r>
       <r>     2.2805     0.5579     1.1745 </r>
       <r>     2.4535     1.3171     1.4024 </r>
       <r>     2.6265     1.5291     1.6670 </r>
       <r>     2.7996     0.8585     1.8156 </r>
       <r>     2.9726     1.0815     2.0027 </r>
       <r>     3.1456     1.7199     2.3003 </r>
       <r>     3.3187     1.3827     2.5395 </r>
       <r>     3.4917     0.7146     2.6632 </r>
       <r>     3.6647     0.3371     2.7215 </r>
       <r>     3.8378     0.6605     2.8358 </r>
       <r>     4.0108     0.7155     2.9596 </r>
       <r>     4.1838     0.3251     3.0159 </r>
       <r>     4.3569     0.8820     3.1685 </r>
       <r>     4.5299     1.6298     3.4505 </r>
       <r>     4.7029     1.9680     3.7910 </r>
       <r>     4.8759     2.3700     4.2011 </r>
       <r>     5.0490     2.0135     4.5495 </r>
       <r>     5.2220     0.8930     4.7040 </r>
       <r>     5.3950     0.8941     4.8587 </r>
       <r>     5.5681     0.9988     5.0315 </r>
       <r>     5.7411     0.6695     5.1474 </r>
       <r>     5.9141     0.4542     5.2260 </r>
       <r>     6.0872     0.2792     5.2743 </r>
       <r>     6.2602     0.2239     5.3130 </r>
       <r>     6.4332     0.1561     5.3400 </r>
       <r>     6.6063     0.0951     5.3565 </r>
       <r>     6.7793     0.1316     5.3793 </r>
       <r>     6.9523     0.3311     5.4366 </r>
       <r>     7.1254     0.2058     5.4722 </r>
       <r>     7.2984     0.0892     5.4876 </r>
       <r>     7.4714     0.1197     5.5083 </r>
       <r>     7.6445     0.1020     5.5260 </r>
       <r>     7.8175    -0.0062     5.5249 </r>
       <r>     7.9905     0.0216     5.5287 </r>
       <r>     8.1636     0.2526     5.5724 </r>
       <r>     8.3366     0.2527     5.6161 </r>
       <r>     8.5096     0.0739     5.6289 </r>
       <r>     8.6826     0.1923     5.6621 </r>
       <r>     8.8557     0.1752     5.6925 </r>
       <r>     9.0287     0.1118     5.7118 </r>
[...]
      </set>
      <set comment="kpoint 27">
       <set comment="band 1">
        <r>  0.0299  0.0799  0.7405 </r>
       </set>
       <set comment="band 2">
        <r>  0.0000  0.1151  0.7288 </r>
       </set>
       <set comment="band 3">
        <r>  0.0084  0.1708  0.6330 </r>
       </set>
       <set comment="band 4">
        <r>  0.0000  0.0003  0.9804 </r>
       </set>
       <set comment="band 5">
        <r>  0.0002  0.0002  0.9822 </r>
       </set>
       <set comment="band 6">
        <r>  0.0491  0.2321  0.4989 </r>
       </set>
       <set comment="band 7">
        <r>  0.0000  0.2979  0.4029 </r>
       </set>
       <set comment="band 8">
        <r>  0.3570  0.1186  0.2297 </r>
       </set>
       <set comment="band 9">
        <r>  0.2752  0.2482  0.1416 </r>
       </set>
       <set comment="band 10">
        <r>  0.0000  0.0166  0.0899 </r>
       </set>
       <set comment="band 11">
        <r>  0.0013  0.0248  0.1251 </r>
       </set>
       <set comment="band 12">
        <r>  0.0000  0.0553  0.1035 </r>
       </set>
      </set>
      <set comment="kpoint 28">
       <set comment="band 1">
        <r>  0.3909  0.1568  0.0695 </r>
       </set>
       <set comment="band 2">
        <r>  0.0013  0.0283  0.8682 </r>
       </set>
       <set comment="band 3">
        <r>  0.0000  0.0134  0.9273 </r>
       </set>
       <set comment="band 4">
        <r>  0.0001  0.0071  0.9187 </r>
       </set>
       <set comment="band 5">
        <r>  0.0000  0.0067  0.9590 </r>
       </set>
       <set comment="band 6">
        <r>  0.0282  0.0093  0.9321 </r>
       </set>
       <set comment="band 7">
        <r>  0.0432  0.1998  0.3421 </r>
       </set>
       <set comment="band 8">
        <r>  0.0726  0.1068  0.2192 </r>
       </set>
       <set comment="band 9">
        <r>  0.0000  0.3440  0.3191 </r>
       </set>
       <set comment="band 10">
        <r>  0.0522  0.2781  0.1365 </r>
       </set>
       <set comment="band 11">
        <r>  0.0000  0.2299  0.2505 </r>
       </set>
       <set comment="band 12">
        <r>  0.0674  0.2246  0.0773 </r>
       </set>
      </set>
      <set comment="kpoint 29">
       <set comment="band 1">
        <r>  0.2425  0.1551  0.2815 </r>
       </set>
       <set comment="band 2">
        <r>  0.0069  0.0929  0.7254 </r>
       </set>
       <set comment="band 3">
        <r>  0.0000  0.0133  0.9203 </r>
       </set>
       <set comment="band 4">
        <r>  0.0004  0.0214  0.9163 </r>
       </set>
       <set comment="band 5">
        <r>  0.0000  0.0074  0.9680 </r>
       </set>
       <set comment="band 6">
        <r>  0.0612  0.0638  0.8049 </r>
       </set>
       <set comment="band 7">
        <r>  0.1441  0.2183  0.3427 </r>
       </set>
       <set comment="band 8">
        <r>  0.0000  0.4395  0.2502 </r>
       </set>
       <set comment="band 9">
        <r>  0.0825  0.0944  0.2029 </r>
       </set>
       <set comment="band 10">
        <r>  0.0141  0.2406  0.1786 </r>
       </set>
       <set comment="band 11">
        <r>  0.0000  0.1734  0.3662 </r>
       </set>
       <set comment="band 12">
        <r>  0.1262  0.1036  0.2158 </r>
       </set>
      </set>
      <set comment="kpoint 30">
       <set comment="band 1">
        <r>  0.2637  0.1879  0.2009 </r>
       </set>
       <set comment="band 2">
        <r>  0.0000  0.0258  0.8394 </r>
       </set>
       <set comment="band 3">
        <r>  0.0004  0.0353  0.8875 </r>
       </set>
       <set comment="band 4">
        <r>  0.0000  0.0142  0.9231 </r>
       </set>
       <set comment="band 5">
        <r>  0.0010  0.0076  0.9613 </r>
       </set>
       <set comment="band 6">
        <r>  0.0710  0.0517  0.8117 </r>
       </set>
       <set comment="band 7">
        <r>  0.0000  0.2663  0.3825 </r>
       </set>
       <set comment="band 8">
        <r>  0.1612  0.2774  0.2110 </r>
       </set>
       <set comment="band 9">
        <r>  0.0000  0.1344  0.3437 </r>
       </set>
       <set comment="band 10">
        <r>  0.0705  0.3259  0.0701 </r>
       </set>
       <set comment="band 11">
        <r>  0.0546  0.1249  0.3199 </r>
       </set>
       <set comment="band 12">
        <r>  0.0000  0.2706  0.0796 </r>
       </set>
      </set>
      <set comment="kpoint 31">
       <set comment="band 1">
        <r>  0.1167  0.0477  0.6215 </r>
       </set>
       <set comment="band 2">
        <r>  0.0044  0.2144  0.5335 </r>
       </set>
       <set comment="band 3">
        <r>  0.0000  0.0134  0.9163 </r>
       </set>
       <set comment="band 4">
        <r>  0.0144  0.0055  0.9229 </r>
       </set>
       <set comment="band 5">
        <r>  0.0000  0.0014  0.9864 </r>
       </set>
       <set comment="band 6">
        <r>  0.0315  0.2505  0.5486 </r>
       </set>
       <set comment="band 7">
        <r>  0.2806  0.0983  0.4152 </r>
       </set>
       <set comment="band 8">
        <r>  0.0000  0.4975  0.1858 </r>
       </set>
       <set comment="band 9">
        <r>  0.0819  0.1033  0.1919 </r>
       </set>
       <set comment="band 10">
        <r>  0.0004  0.1402  0.2088 </r>
       </set>
       <set comment="band 11">
        <r>  0.0000  0.1505  0.4136 </r>
       </set>
       <set comment="band 12">
        <r>  0.0688  0.1998  0.2547 </r>
       </set>
      </set>
      <set comment="kpoint 32">
       <set comment="band 1">
        <r>  0.1234  0.1326  0.4826 </r>
       </set>
       <set comment="band 2">
        <r>  0.0027  0.0800  0.7364 </r>
       </set>
       <set comment="band 3">
        <r>  0.0015  0.0389  0.8713 </r>
       </set>
       <set comment="band 4">
        <r>  0.0046  0.0162  0.9224 </r>
       </set>
       <set comment="band 5">
        <r>  0.0088  0.0075  0.9580 </r>
       </set>
       <set comment="band 6">
        <r>  0.0834  0.1764  0.5988 </r>
       </set>
       <set comment="band 7">
        <r>  0.1551  0.2357  0.3398 </r>
       </set>
       <set comment="band 8">
        <r>  0.1075  0.3135  0.2420 </r>
       </set>
       <set comment="band 9">
        <r>  0.0266  0.1859  0.2491 </r>
       </set>
       <set comment="band 10">
        <r>  0.0191  0.2303  0.1802 </r>
       </set>
       <set comment="band 11">
        <r>  0.0346  0.1449  0.3362 </r>
       </set>
       <set comment="band 12">
        <r>  0.0484  0.2763  0.2800 </r>
       </set>
      </set>
      <set comment="kpoint 33">
       <set comment="band 1">
        <r>  0.0607  0.0477  0.6989 </r>
       </set>
       <set comment="band 2">
        <r>  0.0000  0.1715  0.5975 </r>
       </set>
       <set comment="band 3">
        <r>  0.0103  0.0201  0.8853 </r>
       </set>
       <set comment="band 4">
        <r>  0.0161  0.0086  0.9188 </r>
       </set>
       <set comment="band 5">
        <r>  0.0000  0.0145  0.9642 </r>
       </set>
       <set comment="band 6">
        <r>  0.0000  0.3498  0.4327 </r>
       </set>
       <set comment="band 7">
        <r>  0.2902  0.1008  0.4054 </r>
       </set>
       <set comment="band 8">
        <r>  0.1045  0.3370  0.2215 </r>
       </set>
       <set comment="band 9">
        <r>  0.0316  0.1982  0.2258 </r>
       </set>
       <set comment="band 10">
        <r>  0.0000  0.0808  0.2643 </r>
       </set>
       <set comment="band 11">
        <r>  0.0043  0.3149  0.2470 </r>
       </set>
       <set comment="band 12">
        <r>  0.1050  0.2496  0.3051 </r>
       </set>
      </set>
      <set comment="kpoint 34">
       <set comment="band 1">
        <r>  0.0331  0.1204  0.6289 </r>
       </set>
       <set comment="band 2">
        <r>  0.0000  0.0767  0.7378 </r>
       </set>
       <set comment="band 3">
        <r>  0.0289  0.0261  0.8407 </r>
       </set>
       <set comment="band 4">
        <r>  0.0000  0.0216  0.9348 </r>
       </set>
       <set comment="band 5">
        <r>  0.0047  0.0172  0.9467 </r>
       </set>
       <set comment="band 6">
        <r>  0.0545  0.2979  0.4374 </r>
       </set>
       <set comment="band 7">
        <r>  0.0000  0.3613  0.3793 </r>
       </set>
       <set comment="band 8">
        <r>  0.3656  0.1390  0.2109 </r>
       </set>
       <set comment="band 9">
        <r>  0.0000  0.0961  0.3297 </r>
       </set>
       <set comment="band 10">
        <r>  0.0142  0.2144  0.1932 </r>
       </set>
       <set comment="band 11">
        <r>  0.0002  0.3525  0.1839 </r>
       </set>
       <set comment="band 12">
        <r>  0.2351  0.1269  0.3135 </r>
       </set>
      </set>
      <set comment="kpoint 35">
       <set comment="band 1">
        <r>  0.0000  0.1254  0.7165 </r>
       </set>
       <set comment="band 2">
        <r>  0.0000  0.1254  0.7165 </r>
       </set>
       <set comment="band 3">
        <r>  0.0000  0.1254  0.7165 </r>
       </set>
       <set comment="band 4">
        <r>  0.0000  0.0000  0.9837 </r>
       </set>
       <set comment="band 5">
        <r>  0.0000  0.0000  0.9837 </r>
       </set>
       <set comment="band 6">
        <r>  0.0000  0.2964  0.4073 </r>
       </set>
       <set comment="band 7">
        <r>  0.0000  0.2964  0.4073 </r>
       </set>
       <set comment="band 8">
        <r>  0.0000  0.2964  0.4073 </r>
       </set>
       <set comment="band 9">
        <r>  0.7357  0.0000  0.0000 </r>
       </set>
       <set comment="band 10">
        <r>  0.0000  0.0000  0.0000 </r>
       </set>
       <set comment="band 11">
        <r>  0.0000  0.0000  0.0000 </r>
       </set>
       <set comment="band 12">
        <r>  0.0000  0.0000  0.0000 </r>
       </set>
      </set>
      <set comment="kpoint 36">
       <set comment="band 1">
        <r>  0.2807  0.1973  0.1600 </r>
       </set>
       <set comment="band 2">
        <r>  0.0000  0.0000  0.8638 </r>
       </set>
       <set comment="band 3">
        <r>  0.0000  0.0317  0.9030 </r>
       </set>
       <set comment="band 4">
        <r>  0.0000  0.0317  0.9030 </r>
       </set>
       <set comment="band 5">
        <r>  0.0000  0.0000  0.9674 </r>
       </set>
       <set comment="band 6">
        <r>  0.0787  0.0346  0.8286 </r>
       </set>
       <set comment="band 7">
        <r>  0.0000  0.4113  0.2831 </r>
       </set>
       <set comment="band 8">
        <r>  0.0000  0.4113  0.2831 </r>
       </set>
       <set comment="band 9">
        <r>  0.0000  0.0000  0.4670 </r>
       </set>
       <set comment="band 10">
        <r>  0.2354  0.1592  0.0350 </r>
       </set>
       <set comment="band 11">
        <r>  0.0000  0.2796  0.0558 </r>
       </set>
       <set comment="band 12">
        <r>  0.0000  0.2796  0.0558 </r>
       </set>
      </set>
      <set comment="kpoint 37">
       <set comment="band 1">
        <r>  0.1391  0.1780  0.3826 </r>
       </set>
       <set comment="band 2">
        <r>  0.0001  0.0167  0.8234 </r>
       </set>
       <set comment="band 3">
        <r>  0.0000  0.0303  0.9038 </r>
       </set>
       <set comment="band 4">
        <r>  0.0034  0.0325  0.8963 </r>
       </set>
       <set comment="band 5">
        <r>  0.0000  0.0054  0.9677 </r>
       </set>
       <set comment="band 6">
        <r>  0.1309  0.1283  0.6097 </r>
       </set>
       <set comment="band 7">
        <r>  0.0772  0.3223  0.2952 </r>
       </set>
       <set comment="band 8">
        <r>  0.0000  0.4715  0.2234 </r>
       </set>
       <set comment="band 9">
        <r>  0.0763  0.0318  0.3896 </r>
       </set>
       <set comment="band 10">
        <r>  0.1268  0.1738  0.1768 </r>
       </set>
       <set comment="band 11">
        <r>  0.0545  0.3424  0.2108 </r>
       </set>
       <set comment="band 12">
        <r>  0.0000  0.1190  0.3510 </r>
       </set>
      </set>
      <set comment="kpoint 38">
       <set comment="band 1">
        <r>  0.0458  0.0731  0.6689 </r>
       </set>
       <set comment="band 2">
        <r>  0.0004  0.0935  0.7020 </r>
       </set>
       <set comment="band 3">
        <r>  0.0000  0.0284  0.9043 </r>
       </set>
       <set comment="band 4">
        <r>  0.0263  0.0181  0.8838 </r>
       </set>
       <set comment="band 5">
        <r>  0.0000  0.0015  0.9844 </r>
       </set>
       <set comment="band 6">
        <r>  0.0707  0.3182  0.3914 </r>
       </set>
       <set comment="band 7">
        <r>  0.2043  0.2206  0.3281 </r>
       </set>
       <set comment="band 8">
        <r>  0.0000  0.5137  0.1676 </r>
       </set>
       <set comment="band 9">
        <r>  0.1114  0.0207  0.3691 </r>
       </set>
       <set comment="band 10">
        <r>  0.0256  0.1173  0.2877 </r>
       </set>
       <set comment="band 11">
        <r>  0.1277  0.4233  0.1306 </r>
       </set>
       <set comment="band 12">
        <r>  0.0000  0.1148  0.3600 </r>
       </set>
      </set>
      <set comment="kpoint 39">
       <set comment="band 1">
        <r>  0.0417  0.1228  0.5966 </r>
       </set>
       <set comment="band 2">
        <r>  0.0000  0.0217  0.8046 </r>
       </set>
       <set comment="band 3">
        <r>  0.0138  0.0294  0.8810 </r>
       </set>
       <set comment="band 4">
        <r>  0.0000  0.0346  0.9100 </r>
       </set>
       <set comment="band 5">
        <r>  0.0060  0.0057  0.9633 </r>
       </set>
       <set comment="band 6">
        <r>  0.1260  0.2607  0.4044 </r>
       </set>
       <set comment="band 7">
        <r>  0.0000  0.4113  0.2974 </r>
       </set>
       <set comment="band 8">
        <r>  0.1654  0.3402  0.1831 </r>
       </set>
       <set comment="band 9">
        <r>  0.0000  0.0874  0.4377 </r>
       </set>
       <set comment="band 10">
        <r>  0.1276  0.1353  0.2229 </r>
       </set>
       <set comment="band 11">
        <r>  0.1608  0.3686  0.1326 </r>
       </set>
       <set comment="band 12">
        <r>  0.0740  0.0620  0.3234 </r>
       </set>
      </set>
      <set comment="kpoint 40">
       <set comment="band 1">
        <r>  0.0074  0.0413  0.7626 </r>
       </set>
       <set comment="band 2">
        <r>  0.0000  0.0800  0.7163 </r>
       </set>
       <set comment="band 3">
        <r>  0.0245  0.0277  0.8659 </r>
       </set>
       <set comment="band 4">
        <r>  0.0058  0.0282  0.9162 </r>
       </set>
       <set comment="band 5">
        <r>  0.0000  0.0118  0.9657 </r>
       </set>
       <set comment="band 6">
        <r>  0.0000  0.4328  0.3021 </r>
       </set>
       <set comment="band 7">
        <r>  0.1955  0.2534  0.2952 </r>
       </set>
       <set comment="band 8">
        <r>  0.1190  0.3785  0.1916 </r>
       </set>
       <set comment="band 9">
        <r>  0.0355  0.0865  0.3927 </r>
       </set>
       <set comment="band 10">
        <r>  0.0000  0.0885  0.3677 </r>
       </set>
       <set comment="band 11">
        <r>  0.2584  0.4240  0.0376 </r>
       </set>
       <set comment="band 12">
        <r>  0.0886  0.0468  0.3246 </r>
       </set>
      </set>
      <set comment="kpoint 41">
       <set comment="band 1">
        <r>  0.0452  0.1218  0.5887 </r>
       </set>
       <set comment="band 2">
        <r>  0.0000  0.0000  0.8308 </r>
       </set>
       <set comment="band 3">
        <r>  0.0000  0.0411  0.8985 </r>
       </set>
       <set comment="band 4">
        <r>  0.0000  0.0411  0.8985 </r>
       </set>
       <set comment="band 5">
        <r>  0.0000  0.0000  0.9759 </r>
       </set>
       <set comment="band 6">
        <r>  0.1686  0.2375  0.3782 </r>
       </set>
       <set comment="band 7">
        <r>  0.0000  0.5134  0.1689 </r>
       </set>
       <set comment="band 8">
        <r>  0.0000  0.5134  0.1689 </r>
       </set>
       <set comment="band 9">
        <r>  0.0000  0.0000  0.5767 </r>
       </set>
       <set comment="band 10">
        <r>  0.2654  0.0216  0.2255 </r>
       </set>
       <set comment="band 11">
        <r>  0.2221  0.2895  0.1529 </r>
       </set>
       <set comment="band 12">
        <r>  0.0000  0.0000  0.3352 </r>
       </set>
      </set>
      <set comment="kpoint 42">
       <set comment="band 1">
        <r>  0.0072  0.0559  0.7342 </r>
       </set>
       <set comment="band 2">
        <r>  0.0001  0.0135  0.8049 </r>
       </set>
       <set comment="band 3">
        <r>  0.0000  0.0306  0.9176 </r>
       </set>
       <set comment="band 4">
        <r>  0.0100  0.0334  0.9006 </r>
       </set>
       <set comment="band 5">
        <r>  0.0000  0.0014  0.9827 </r>
       </set>
       <set comment="band 6">
        <r>  0.0993  0.3860  0.2334 </r>
       </set>
       <set comment="band 7">
        <r>  0.0822  0.4242  0.1834 </r>
       </set>
       <set comment="band 8">
        <r>  0.0000  0.5510  0.1098 </r>
       </set>
       <set comment="band 9">
        <r>  0.0460  0.0072  0.5301 </r>
       </set>
       <set comment="band 10">
        <r>  0.0768  0.0623  0.3879 </r>
       </set>
       <set comment="band 11">
        <r>  0.4007  0.2572  0.0669 </r>
       </set>
       <set comment="band 12">
        <r>  0.0000  0.0462  0.2593 </r>
       </set>
      </set>
      <set comment="kpoint 43">
       <set comment="band 1">
        <r>  0.0000  0.0208  0.7916 </r>
       </set>
       <set comment="band 2">
        <r>  0.0000  0.0208  0.7916 </r>
       </set>
       <set comment="band 3">
        <r>  0.0079  0.0298  0.9076 </r>
       </set>
       <set comment="band 4">
        <r>  0.0000  0.0121  0.9633 </r>
       </set>
       <set comment="band 5">
        <r>  0.0000  0.0121  0.9633 </r>
       </set>
       <set comment="band 6">
        <r>  0.0000  0.5179  0.1580 </r>
       </set>
       <set comment="band 7">
        <r>  0.0000  0.5179  0.1580 </r>
       </set>
       <set comment="band 8">
        <r>  0.1672  0.3959  0.1039 </r>
       </set>
       <set comment="band 9">
        <r>  0.0000  0.0585  0.5066 </r>
       </set>
       <set comment="band 10">
        <r>  0.0000  0.0585  0.5066 </r>
       </set>
       <set comment="band 11">
        <r>  0.5626  0.1900  0.0035 </r>
       </set>
       <set comment="band 12">
        <r>  0.0129  0.0426  0.2131 </r>
       </set>
      </set>
      <set comment="kpoint 44">
       <set comment="band 1">
        <r>  0.0005  0.0140  0.7976 </r>
       </set>
       <set comment="band 2">
        <r>  0.0000  0.0000  0.8179 </r>
       </set>
       <set comment="band 3">
        <r>  0.0000  0.0124  0.9619 </r>
       </set>
       <set comment="band 4">
        <r>  0.0000  0.0124  0.9619 </r>
       </set>
       <set comment="band 5">
        <r>  0.0000  0.0000  0.9845 </r>
       </set>
       <set comment="band 6">
        <r>  0.0535  0.5134  0.0841 </r>
       </set>
       <set comment="band 7">
        <r>  0.0000  0.5953  0.0335 </r>
       </set>
       <set comment="band 8">
        <r>  0.0000  0.5953  0.0335 </r>
       </set>
       <set comment="band 9">
        <r>  0.0000  0.0000  0.6313 </r>
       </set>
       <set comment="band 10">
        <r>  0.0309  0.0210  0.5467 </r>
       </set>
       <set comment="band 11">
        <r>  0.6731  0.0741  0.0110 </r>
       </set>
       <set comment="band 12">
        <r>  0.0000  0.0000  0.0742 </r>
       </set>
      </set>
     </set>
    </set>
   </array>
  </projected>
 </calculation>
 <structure name="finalpos" >
  <crystal>
   <varray name="basis" >
    <v>      -1.42035858       1.42035858       1.42035858 </v>
    <v>       1.42035858      -1.42035858       1.42035858 </v>
    <v>       1.42035858       1.42035858      -1.42035858 </v>
   </varray>
   <i name="volume">     11.46183073 </i>
   <varray name="rec_basis" >
    <v>       0.00000000       0.35202378       0.35202378 </v>
    <v>       0.35202378       0.00000000       0.35202378 </v>
    <v>       0.35202378       0.35202378       0.00000000 </v>
   </varray>
  </crystal>
  <varray name="positions" >
   <v>       0.00000000       0.00000000       0.00000000 </v>
  </varray>
 </structure>
</modeling>
