bcc Fe                                  
   2.55000000000000     
    -0.500000    0.500000    0.500000
     0.500000   -0.500000    0.500000
     0.500000    0.500000   -0.500000
   Fe
     1
Direct
  0.000000  0.000000  0.000000
 
   20   20   20
  69.866      66.561      57.608      45.389      32.602      21.372      12.931      7.6689      5.2029      4.4937    
  4.3563      4.4937      5.2029      7.6689      12.931      21.372      32.602      45.389      57.608      66.561    
  66.561      65.485      58.494      47.522      35.178      23.751      14.723      8.7279      5.6197      4.5563    
  4.3223      4.3687      4.7589      6.3772      10.389      17.423      27.369      39.317      51.490      61.407    
  57.608      58.494      53.893      45.113      34.372      23.877      15.212      9.1821      5.8390      4.5520    
  4.2275      4.1858      4.4016      5.2448      7.8209      12.962      20.852      30.924      41.825      51.490    
  45.389      47.522      45.113      38.865      30.441      21.734      14.255      8.8642      5.7478      4.4602    
  4.0899      3.9776      4.1049      4.4933      5.8153      9.0046      14.514      22.130      30.924      39.317    
  32.602      35.178      34.372      30.441      24.488      17.971      12.170      7.8884      5.3622      4.2841    
  3.9295      3.7753      3.8249      4.0706      4.6168      6.1988      9.4592      14.514      20.852      27.369    
  21.372      23.751      23.877      21.734      17.971      13.597      9.5827      6.5839      4.8177      4.0615    
  3.7619      3.5979      3.5929      3.7548      4.0619      4.6743      6.1988      9.0046      12.962      17.423    
  12.931      14.723      15.212      14.255      12.170      9.5827      7.1490      5.3341      4.2906      3.8403    
  3.5980      3.4517      3.4228      3.5174      3.7363      4.0619      4.6168      5.8153      7.8209      10.389    
  7.6689      8.7279      9.1821      8.8642      7.8884      6.5839      5.3341      4.4163      3.9024      3.6377    
  3.4481      3.3379      3.3125      3.3712      3.5174      3.7548      4.0706      4.4933      5.2448      6.3772    
  5.2029      5.6197      5.8390      5.7478      5.3622      4.8177      4.2906      3.9024      3.6517      3.4584    
  3.3249      3.2593      3.2575      3.3125      3.4228      3.5929      3.8249      4.1049      4.4016      4.7589    
  4.4937      4.5563      4.5520      4.4602      4.2841      4.0615      3.8403      3.6377      3.4584      3.3221    
  3.2430      3.2242      3.2593      3.3379      3.4517      3.5979      3.7753      3.9776      4.1858      4.3687    
  4.3563      4.3223      4.2275      4.0899      3.9295      3.7619      3.5980      3.4481      3.3249      3.2430    
  3.2142      3.2430      3.3249      3.4481      3.5980      3.7619      3.9295      4.0899      4.2275      4.3223    
  4.4937      4.3687      4.1858      3.9776      3.7753      3.5979      3.4517      3.3379      3.2593      3.2242    
  3.2430      3.3221      3.4584      3.6377      3.8403      4.0615      4.2841      4.4602      4.5520      4.5563    
  5.2029      4.7589      4.4016      4.1049      3.8249      3.5929      3.4228      3.3125      3.2575      3.2593    
  3.3249      3.4584      3.6517      3.9024      4.2906      4.8177      5.3622      5.7478      5.8390      5.6197    
  7.6689      6.3772      5.2448      4.4933      4.0706      3.7548      3.5174      3.3712      3.3125      3.3379    
  3.4481      3.6377      3.9024      4.4163      5.3341      6.5839      7.8884      8.8642      9.1821      8.7279    
  12.931      10.389      7.8209      5.8153      4.6168      4.0619      3.7363      3.5174      3.4228      3.4517    
  3.5980      3.8403      4.2906      5.3341      7.1490      9.5827      12.170      14.255      15.212      14.723    
  21.372      17.423      12.962      9.0046      6.1988      4.6743      4.0619      3.7548      3.5929      3.5979    
  3.7619      4.0615      4.8177      6.5839      9.5827      13.597      17.971      21.734      23.877      23.751    
  32.602      27.369      20.852      14.514      9.4592      6.1988      4.6168      4.0706      3.8249      3.7753    
  3.9295      4.2841      5.3622      7.8884      12.170      17.971      24.488      30.441      34.372      35.178    
  45.389      39.317      30.924      22.130      14.514      9.0046      5.8153      4.4933      4.1049      3.9776    
  4.0899      4.4602      5.7478      8.8642      14.255      21.734      30.441      38.865      45.113      47.522    
  57.608      51.490      41.825      30.924      20.852      12.962      7.8209      5.2448      4.4016      4.1858    
  4.2275      4.5520      5.8390      9.1821      15.212      23.877      34.372      45.113      53.893      58.494    
  66.561      61.407      51.490      39.317      27.369      17.423      10.389      6.3772      4.7589      4.3687    
  4.3223      4.5563      5.6197      8.7279      14.723      23.751      35.178      47.522      58.494      65.485    
  66.561      65.485      58.494      47.522      35.178      23.751      14.723      8.7279      5.6197      4.5563    
  4.3223      4.3687      4.7589      6.3772      10.389      17.423      27.369      39.317      51.490      61.407    
  65.485      66.561      61.406      51.489      39.316      27.369      17.423      10.389      6.3773      4.7590    
  4.3687      4.3223      4.5563      5.6196      8.7279      14.723      23.751      35.179      47.523      58.494    
  58.494      61.406      58.493      50.598      39.816      28.545      18.693      11.374      6.9149      4.9062    
  4.3454      4.2136      4.3454      4.9062      6.9148      11.374      18.693      28.546      39.817      50.599    
  47.522      51.489      50.598      45.113      36.545      26.949      18.154      11.352      7.0146      4.9201    
  4.2602      4.0630      4.1080      4.3976      5.4304      8.2325      13.444      21.054      30.331      39.817    
  35.178      39.316      39.816      36.545      30.441      23.068      15.992      10.337      6.6251      4.7638    
  4.1283      3.8950      3.8662      4.0554      4.5056      5.9119      9.0564      14.223      21.054      28.545    
  23.751      27.369      28.545      26.949      23.068      17.972      12.860      8.6717      5.8858      4.4763    
  3.9664      3.7287      3.6529      3.7619      4.0377      4.5995      6.1062      9.0563      13.444      18.693    
  14.723      17.423      18.693      18.154      15.992      12.860      9.5827      6.8547      5.0483      4.1492    
  3.7906      3.5749      3.4833      3.5321      3.7225      4.0350      4.5995      5.9118      8.2323      11.374    
  8.7279      10.389      11.374      11.352      10.337      8.6717      6.8547      5.3340      4.3493      3.8666    
  3.6140      3.4392      3.3588      3.3775      3.4979      3.7225      4.0377      4.5056      5.4303      6.9148    
  5.6197      6.3773      6.9149      7.0146      6.6251      5.8858      5.0483      4.3493      3.9024      3.6446    
  3.4523      3.3278      3.2764      3.2937      3.3775      3.5321      3.7619      4.0554      4.3976      4.9062    
  4.5563      4.7590      4.9062      4.9201      4.7638      4.4763      4.1492      3.8666      3.6446      3.4584    
  3.3234      3.2505      3.2377      3.2764      3.3588      3.4833      3.6529      3.8662      4.1080      4.3454    
  4.3223      4.3687      4.3454      4.2602      4.1283      3.9664      3.7906      3.6140      3.4523      3.3234    
  3.2430      3.2192      3.2505      3.3278      3.4392      3.5749      3.7287      3.8950      4.0630      4.2136    
  4.3687      4.3223      4.2136      4.0630      3.8950      3.7287      3.5749      3.4392      3.3278      3.2505    
  3.2192      3.2430      3.3235      3.4523      3.6140      3.7907      3.9665      4.1284      4.2602      4.3454    
  4.7589      4.5563      4.3454      4.1080      3.8662      3.6529      3.4833      3.3588      3.2764      3.2377    
  3.2505      3.3235      3.4584      3.6447      3.8667      4.1493      4.4764      4.7638      4.9200      4.9062    
  6.3772      5.6196      4.9062      4.3976      4.0554      3.7619      3.5321      3.3775      3.2937      3.2764    
  3.3278      3.4523      3.6447      3.9025      4.3494      5.0484      5.8858      6.6250      7.0144      6.9148    
  10.389      8.7279      6.9148      5.4304      4.5056      4.0377      3.7225      3.4979      3.3775      3.3588    
  3.4392      3.6140      3.8667      4.3494      5.3341      6.8547      8.6715      10.337      11.352      11.374    
  17.423      14.723      11.374      8.2325      5.9119      4.5995      4.0350      3.7225      3.5321      3.4833    
  3.5749      3.7907      4.1493      5.0484      6.8547      9.5825      12.859      15.992      18.153      18.693    
  27.369      23.751      18.693      13.444      9.0564      6.1062      4.5995      4.0377      3.7619      3.6529    
  3.7287      3.9665      4.4764      5.8858      8.6715      12.859      17.971      23.067      26.949      28.545    
  39.317      35.179      28.546      21.054      14.223      9.0563      5.9118      4.5056      4.0554      3.8662    
  3.8950      4.1284      4.7638      6.6250      10.337      15.992      23.067      30.441      36.545      39.817    
  51.490      47.523      39.817      30.331      21.054      13.444      8.2323      5.4303      4.3976      4.1080    
  4.0630      4.2602      4.9200      7.0144      11.352      18.153      26.949      36.545      45.113      50.599    
  61.407      58.494      50.599      39.817      28.545      18.693      11.374      6.9148      4.9062      4.3454    
  4.2136      4.3454      4.9062      6.9148      11.374      18.693      28.545      39.817      50.599      58.494    
  57.608      58.494      53.893      45.113      34.372      23.877      15.212      9.1821      5.8390      4.5520    
  4.2275      4.1858      4.4016      5.2448      7.8209      12.962      20.852      30.924      41.825      51.490    
  58.494      61.406      58.493      50.598      39.816      28.545      18.693      11.374      6.9149      4.9062    
  4.3454      4.2136      4.3454      4.9062      6.9148      11.374      18.693      28.546      39.817      50.599    
  53.893      58.493      57.607      51.489      41.825      30.924      20.852      12.962      7.8210      5.2449    
  4.4017      4.1858      4.2275      4.5520      5.8390      9.1822      15.213      23.877      34.372      45.113    
  45.113      50.598      51.489      47.522      39.817      30.331      21.055      13.444      8.2326      5.4304    
  4.3976      4.1079      4.0630      4.2601      4.9200      7.0145      11.352      18.153      26.949      36.545    
  34.372      39.816      41.825      39.817      34.373      26.949      19.252      12.668      7.9918      5.3649    
  4.3226      3.9937      3.8806      3.9937      4.3227      5.3649      7.9917      12.668      19.251      26.949    
  23.877      28.545      30.924      30.331      26.949      21.735      15.992      10.896      7.1851      5.0563    
  4.1796      3.8583      3.7058      3.7443      3.9668      4.4093      5.6691      8.3691      12.668      18.153    
  15.212      18.693      20.852      21.055      19.252      15.992      12.170      8.6715      6.0926      4.6150    
  3.9964      3.7139      3.5535      3.5414      3.6829      3.9609      4.4508      5.6690      7.9916      11.352    
  9.1821      11.374      12.962      13.444      12.668      10.896      8.6715      6.5836      5.0481      4.1868    
  3.8061      3.5699      3.4278      3.3948      3.4741      3.6670      3.9609      4.4093      5.3648      7.0144    
  5.8390      6.9149      7.8210      8.2326      7.9918      7.1851      6.0926      5.0481      4.2904      3.8665    
  3.6194      3.4360      3.3294      3.3012      3.3485      3.4741      3.6829      3.9668      4.3226      4.9200    
  4.5520      4.9062      5.2449      5.4304      5.3649      5.0563      4.6150      4.1868      3.8665      3.6377    
  3.4523      3.3248      3.2612      3.2559      3.3012      3.3948      3.5414      3.7443      3.9937      4.2602    
  4.2275      4.3454      4.4017      4.3976      4.3226      4.1796      3.9964      3.8061      3.6194      3.4523    
  3.3249      3.2505      3.2314      3.2612      3.3294      3.4278      3.5535      3.7059      3.8806      4.0630    
  4.1858      4.2136      4.1858      4.1079      3.9937      3.8583      3.7139      3.5699      3.4360      3.3248    
  3.2505      3.2242      3.2505      3.3248      3.4360      3.5699      3.7140      3.8583      3.9937      4.1080    
  4.4016      4.3454      4.2275      4.0630      3.8806      3.7058      3.5535      3.4278      3.3294      3.2612    
  3.2314      3.2505      3.3249      3.4523      3.6195      3.8062      3.9965      4.1796      4.3226      4.3976    
  5.2448      4.9062      4.5520      4.2601      3.9937      3.7443      3.5414      3.3948      3.3012      3.2559    
  3.2612      3.3248      3.4523      3.6378      3.8667      4.1869      4.6152      5.0564      5.3648      5.4303    
  7.8209      6.9148      5.8390      4.9200      4.3227      3.9668      3.6829      3.4741      3.3485      3.3012    
  3.3294      3.4360      3.6195      3.8667      4.2906      5.0483      6.0927      7.1850      7.9916      8.2323    
  12.962      11.374      9.1822      7.0145      5.3649      4.4093      3.9609      3.6670      3.4741      3.3948    
  3.4278      3.5699      3.8062      4.1869      5.0483      6.5837      8.6714      10.895      12.668      13.444    
  20.852      18.693      15.213      11.352      7.9917      5.6691      4.4508      3.9609      3.6829      3.5414    
  3.5535      3.7140      3.9965      4.6152      6.0927      8.6714      12.170      15.992      19.251      21.054    
  30.924      28.546      23.877      18.153      12.668      8.3691      5.6690      4.4093      3.9668      3.7443    
  3.7059      3.8583      4.1796      5.0564      7.1850      10.895      15.992      21.734      26.949      30.331    
  41.825      39.817      34.372      26.949      19.251      12.668      7.9916      5.3648      4.3226      3.9937    
  3.8806      3.9937      4.3226      5.3648      7.9916      12.668      19.251      26.949      34.372      39.817    
  51.490      50.599      45.113      36.545      26.949      18.153      11.352      7.0144      4.9200      4.2602    
  4.0630      4.1080      4.3976      5.4303      8.2323      13.444      21.054      30.331      39.817      47.523    
  45.389      47.522      45.113      38.865      30.441      21.734      14.255      8.8642      5.7478      4.4602    
  4.0899      3.9776      4.1049      4.4933      5.8153      9.0046      14.514      22.130      30.924      39.317    
  47.522      51.489      50.598      45.113      36.545      26.949      18.154      11.352      7.0146      4.9201    
  4.2602      4.0630      4.1080      4.3976      5.4304      8.2325      13.444      21.054      30.331      39.817    
  45.113      50.598      51.489      47.522      39.817      30.331      21.055      13.444      8.2326      5.4304    
  4.3976      4.1079      4.0630      4.2601      4.9200      7.0145      11.352      18.153      26.949      36.545    
  38.865      45.113      47.522      45.389      39.317      30.924      22.130      14.514      9.0046      5.8153    
  4.4933      4.1049      3.9776      4.0899      4.4602      5.7477      8.8641      14.255      21.734      30.441    
  30.441      36.545      39.817      39.317      35.179      28.546      21.055      14.223      9.0563      5.9118    
  4.5055      4.0553      3.8662      3.8950      4.1283      4.7638      6.6250      10.337      15.992      23.067    
  21.734      26.949      30.331      30.924      28.546      23.877      18.154      12.668      8.3690      5.6689    
  4.4092      3.9668      3.7443      3.7059      3.8583      4.1796      5.0564      7.1850      10.895      15.992    
  14.255      18.154      21.055      22.130      21.055      18.154      14.255      10.337      7.1848      5.1770    
  4.2257      3.8491      3.6236      3.5447      3.6236      3.8491      4.2258      5.1772      7.1850      10.337    
  8.8642      11.352      13.444      14.514      14.223      12.668      10.337      7.8879      5.8855      4.6150    
  4.0102      3.7127      3.5100      3.4196      3.4473      3.5934      3.8485      4.2258      5.0564      6.6250    
  5.7478      7.0146      8.2326      9.0046      9.0563      8.3690      7.1848      5.8855      4.8174      4.1491    
  3.8061      3.5699      3.4075      3.3292      3.3334      3.4200      3.5934      3.8491      4.1796      4.7638    
  4.4602      4.9201      5.4304      5.8153      5.9118      5.6689      5.1770      4.6150      4.1491      3.8403    
  3.6140      3.4360      3.3214      3.2704      3.2757      3.3334      3.4473      3.6236      3.8583      4.1284    
  4.0899      4.2602      4.3976      4.4933      4.5055      4.4092      4.2257      4.0102      3.8061      3.6140    
  3.4482      3.3278      3.2612      3.2451      3.2704      3.3292      3.4196      3.5446      3.7059      3.8950    
  3.9776      4.0630      4.1079      4.1049      4.0553      3.9668      3.8491      3.7127      3.5699      3.4360    
  3.3278      3.2593      3.2377      3.2612      3.3214      3.4074      3.5100      3.6236      3.7443      3.8662    
  4.1049      4.1080      4.0630      3.9776      3.8662      3.7443      3.6236      3.5100      3.4075      3.3214    
  3.2612      3.2377      3.2593      3.3278      3.4360      3.5699      3.7127      3.8491      3.9668      4.0554    
  4.4933      4.3976      4.2601      4.0899      3.8950      3.7059      3.5447      3.4196      3.3292      3.2704    
  3.2451      3.2612      3.3278      3.4481      3.6140      3.8061      4.0103      4.2258      4.4093      4.5056    
  5.8153      5.4304      4.9200      4.4602      4.1283      3.8583      3.6236      3.4473      3.3334      3.2757    
  3.2704      3.3214      3.4360      3.6140      3.8403      4.1492      4.6151      5.1772      5.6690      5.9118    
  9.0046      8.2325      7.0145      5.7477      4.7638      4.1796      3.8491      3.5934      3.4200      3.3334    
  3.3292      3.4074      3.5699      3.8061      4.1492      4.8176      5.8857      7.1850      8.3691      9.0563    
  14.514      13.444      11.352      8.8641      6.6250      5.0564      4.2258      3.8485      3.5934      3.4473    
  3.4196      3.5100      3.7127      4.0103      4.6151      5.8857      7.8882      10.337      12.668      14.223    
  22.130      21.054      18.153      14.255      10.337      7.1850      5.1772      4.2258      3.8491      3.6236    
  3.5446      3.6236      3.8491      4.2258      5.1772      7.1850      10.337      14.255      18.153      21.054    
  30.924      30.331      26.949      21.734      15.992      10.895      7.1850      5.0564      4.1796      3.8583    
  3.7059      3.7443      3.9668      4.4093      5.6690      8.3691      12.668      18.153      23.877      28.546    
  39.317      39.817      36.545      30.441      23.067      15.992      10.337      6.6250      4.7638      4.1284    
  3.8950      3.8662      4.0554      4.5056      5.9118      9.0563      14.223      21.054      28.546      35.179    
  32.602      35.178      34.372      30.441      24.488      17.971      12.170      7.8884      5.3622      4.2841    
  3.9295      3.7753      3.8249      4.0706      4.6168      6.1988      9.4592      14.514      20.852      27.369    
  35.178      39.316      39.816      36.545      30.441      23.068      15.992      10.337      6.6251      4.7638    
  4.1283      3.8950      3.8662      4.0554      4.5056      5.9119      9.0564      14.223      21.054      28.545    
  34.372      39.816      41.825      39.817      34.373      26.949      19.252      12.668      7.9918      5.3649    
  4.3226      3.9937      3.8806      3.9937      4.3227      5.3649      7.9917      12.668      19.251      26.949    
  30.441      36.545      39.817      39.317      35.179      28.546      21.055      14.223      9.0563      5.9118    
  4.5055      4.0553      3.8662      3.8950      4.1283      4.7638      6.6250      10.337      15.992      23.067    
  24.488      30.441      34.373      35.179      32.603      27.370      20.852      14.514      9.4589      6.1985    
  4.6166      4.0705      3.8249      3.7753      3.9295      4.2840      5.3621      7.8882      12.170      17.971    
  17.971      23.068      26.949      28.546      27.370      23.752      18.693      13.444      9.0560      6.1058    
  4.5993      4.0376      3.7619      3.6529      3.7287      3.9664      4.4763      5.8857      8.6714      12.859    
  12.170      15.992      19.252      21.055      20.852      18.693      15.212      11.351      7.9912      5.6688    
  4.4506      3.9609      3.6830      3.5415      3.5535      3.7139      3.9965      4.6151      6.0927      8.6715    
  7.8884      10.337      12.668      14.223      14.514      13.444      11.351      8.8636      6.6246      5.0562    
  4.2258      3.8486      3.5935      3.4473      3.4196      3.5100      3.7127      4.0103      4.6152      5.8858    
  5.3622      6.6251      7.9918      9.0563      9.4589      9.0560      7.9912      6.6246      5.3619      4.4763    
  3.9966      3.7128      3.4990      3.3708      3.3288      3.3707      3.4990      3.7127      3.9965      4.4764    
  4.2841      4.7638      5.3649      5.9118      6.1985      6.1058      5.6688      5.0562      4.4763      4.0616    
  3.7908      3.5700      3.4075      3.3110      3.2754      3.2948      3.3707      3.5100      3.7140      3.9665    
  3.9295      4.1283      4.3226      4.5055      4.6166      4.5993      4.4506      4.2258      3.9966      3.7908    
  3.5982      3.4393      3.3294      3.2704      3.2551      3.2754      3.3288      3.4196      3.5535      3.7287    
  3.7753      3.8950      3.9937      4.0553      4.0705      4.0376      3.9609      3.8486      3.7128      3.5700    
  3.4393      3.3379      3.2764      3.2559      3.2704      3.3110      3.3707      3.4473      3.5414      3.6529    
  3.8249      3.8662      3.8806      3.8662      3.8249      3.7619      3.6830      3.5935      3.4990      3.4075    
  3.3294      3.2764      3.2575      3.2763      3.3294      3.4074      3.4990      3.5934      3.6829      3.7619    
  4.0706      4.0554      3.9937      3.8950      3.7753      3.6529      3.5415      3.4473      3.3708      3.3110    
  3.2704      3.2559      3.2763      3.3379      3.4392      3.5699      3.7127      3.8485      3.9609      4.0377    
  4.6168      4.5056      4.3227      4.1283      3.9295      3.7287      3.5535      3.4196      3.3288      3.2754    
  3.2551      3.2704      3.3294      3.4392      3.5980      3.7906      3.9965      4.2258      4.4508      4.5995    
  6.1988      5.9119      5.3649      4.7638      4.2840      3.9664      3.7139      3.5100      3.3707      3.2948    
  3.2754      3.3110      3.4074      3.5699      3.7906      4.0615      4.4763      5.0564      5.6691      6.1062    
  9.4592      9.0564      7.9917      6.6250      5.3621      4.4763      3.9965      3.7127      3.4990      3.3707    
  3.3288      3.3707      3.4990      3.7127      3.9965      4.4763      5.3621      6.6250      7.9917      9.0564    
  14.514      14.223      12.668      10.337      7.8882      5.8857      4.6151      4.0103      3.7127      3.5100    
  3.4196      3.4473      3.5934      3.8485      4.2258      5.0564      6.6250      8.8641      11.352      13.444    
  20.852      21.054      19.251      15.992      12.170      8.6714      6.0927      4.6152      3.9965      3.7140    
  3.5535      3.5414      3.6829      3.9609      4.4508      5.6691      7.9917      11.352      15.213      18.693    
  27.369      28.545      26.949      23.067      17.971      12.859      8.6715      5.8858      4.4764      3.9665    
  3.7287      3.6529      3.7619      4.0377      4.5995      6.1062      9.0564      13.444      18.693      23.751    
  21.372      23.751      23.877      21.734      17.971      13.597      9.5827      6.5839      4.8177      4.0615    
  3.7619      3.5979      3.5929      3.7548      4.0619      4.6743      6.1988      9.0046      12.962      17.423    
  23.751      27.369      28.545      26.949      23.068      17.972      12.860      8.6717      5.8858      4.4763    
  3.9664      3.7287      3.6529      3.7619      4.0377      4.5995      6.1062      9.0563      13.444      18.693    
  23.877      28.545      30.924      30.331      26.949      21.735      15.992      10.896      7.1851      5.0563    
  4.1796      3.8583      3.7058      3.7443      3.9668      4.4093      5.6691      8.3691      12.668      18.153    
  21.734      26.949      30.331      30.924      28.546      23.877      18.154      12.668      8.3690      5.6689    
  4.4092      3.9668      3.7443      3.7059      3.8583      4.1796      5.0564      7.1850      10.895      15.992    
  17.971      23.068      26.949      28.546      27.370      23.752      18.693      13.444      9.0560      6.1058    
  4.5993      4.0376      3.7619      3.6529      3.7287      3.9664      4.4763      5.8857      8.6714      12.859    
  13.597      17.972      21.735      23.877      23.752      21.372      17.423      12.962      9.0040      6.1984    
  4.6741      4.0619      3.7549      3.5929      3.5979      3.7619      4.0615      4.8176      6.5837      9.5825    
  9.5827      12.860      15.992      18.154      18.693      17.423      14.723      11.374      8.2319      5.9116    
  4.5995      4.0351      3.7226      3.5322      3.4834      3.5749      3.7906      4.1492      5.0483      6.8547    
  6.5839      8.6717      10.896      12.668      13.444      12.962      11.374      9.1816      7.0142      5.3648    
  4.4095      3.9611      3.6671      3.4742      3.3949      3.4278      3.5699      3.8061      4.1869      5.0484    
  4.8177      5.8858      7.1851      8.3690      9.0560      9.0040      8.2319      7.0142      5.7477      4.7640    
  4.1799      3.8493      3.5935      3.4201      3.3334      3.3292      3.4074      3.5699      3.8062      4.1493    
  4.0615      4.4763      5.0563      5.6689      6.1058      6.1984      5.9116      5.3648      4.7640      4.2843    
  3.9667      3.7141      3.5101      3.3707      3.2948      3.2754      3.3110      3.4074      3.5699      3.7907    
  3.7619      3.9664      4.1796      4.4092      4.5993      4.6741      4.5995      4.4095      4.1799      3.9667    
  3.7621      3.5750      3.4278      3.3292      3.2754      3.2587      3.2754      3.3292      3.4278      3.5749    
  3.5979      3.7287      3.8583      3.9668      4.0376      4.0619      4.0351      3.9611      3.8493      3.7141    
  3.5750      3.4517      3.3587      3.3011      3.2757      3.2754      3.2948      3.3334      3.3948      3.4833    
  3.5929      3.6529      3.7058      3.7443      3.7619      3.7549      3.7226      3.6671      3.5935      3.5101    
  3.4278      3.3587      3.3125      3.2937      3.3011      3.3292      3.3707      3.4200      3.4741      3.5321    
  3.7548      3.7619      3.7443      3.7059      3.6529      3.5929      3.5322      3.4742      3.4201      3.3707    
  3.3292      3.3011      3.2937      3.3125      3.3588      3.4278      3.5100      3.5934      3.6670      3.7225    
  4.0619      4.0377      3.9668      3.8583      3.7287      3.5979      3.4834      3.3949      3.3334      3.2948    
  3.2754      3.2757      3.3011      3.3588      3.4517      3.5749      3.7139      3.8491      3.9609      4.0350    
  4.6743      4.5995      4.4093      4.1796      3.9664      3.7619      3.5749      3.4278      3.3292      3.2754    
  3.2587      3.2754      3.3292      3.4278      3.5749      3.7619      3.9664      4.1796      4.4093      4.5995    
  6.1988      6.1062      5.6691      5.0564      4.4763      4.0615      3.7906      3.5699      3.4074      3.3110    
  3.2754      3.2948      3.3707      3.5100      3.7139      3.9664      4.2840      4.7638      5.3649      5.9119    
  9.0046      9.0563      8.3691      7.1850      5.8857      4.8176      4.1492      3.8061      3.5699      3.4074    
  3.3292      3.3334      3.4200      3.5934      3.8491      4.1796      4.7638      5.7477      7.0145      8.2325    
  12.962      13.444      12.668      10.895      8.6714      6.5837      5.0483      4.1869      3.8062      3.5699    
  3.4278      3.3948      3.4741      3.6670      3.9609      4.4093      5.3649      7.0145      9.1822      11.374    
  17.423      18.693      18.153      15.992      12.859      9.5825      6.8547      5.0484      4.1493      3.7907    
  3.5749      3.4833      3.5321      3.7225      4.0350      4.5995      5.9119      8.2325      11.374      14.723    
  12.931      14.723      15.212      14.255      12.170      9.5827      7.1490      5.3341      4.2906      3.8403    
  3.5980      3.4517      3.4228      3.5174      3.7363      4.0619      4.6168      5.8153      7.8209      10.389    
  14.723      17.423      18.693      18.154      15.992      12.860      9.5827      6.8547      5.0483      4.1492    
  3.7906      3.5749      3.4833      3.5321      3.7225      4.0350      4.5995      5.9118      8.2323      11.374    
  15.212      18.693      20.852      21.055      19.252      15.992      12.170      8.6715      6.0926      4.6150    