bcc Fe                                  
   2.55000000000000     
    -0.500000    0.500000    0.500000
     0.500000   -0.500000    0.500000
     0.500000    0.500000   -0.500000
   Fe
     1
Direct
  0.000000  0.000000  0.000000
 
   20   20   20
 0.69866389556E+02 0.66561283836E+02 0.57608299184E+02 0.45388708324E+02 0.32602499272E+02
 0.21371801371E+02 0.12930526701E+02 0.76689359413E+01 0.52028623320E+01 0.44936834837E+01
 0.43563325972E+01 0.44936834837E+01 0.52028623320E+01 0.76689359413E+01 0.12930526701E+02
 0.21371801371E+02 0.32602499272E+02 0.45388708324E+02 0.57608299184E+02 0.66561283836E+02
 0.66561283836E+02 0.65484735415E+02 0.58493973328E+02 0.47522228469E+02 0.35177895107E+02
 0.23751024106E+02 0.14723136493E+02 0.87278602862E+01 0.56196661873E+01 0.45563127542E+01
 0.43222935447E+01 0.43686792257E+01 0.47589425910E+01 0.63772140914E+01 0.10389292872E+02
 0.17423184009E+02 0.27369483636E+02 0.39316812291E+02 0.51490311214E+02 0.61407227203E+02
 0.57608299184E+02 0.58493973328E+02 0.53892946126E+02 0.45112722677E+02 0.34371887945E+02
 0.23876656935E+02 0.15212489066E+02 0.91821108733E+01 0.58389797877E+01 0.45519710305E+01
 0.42274992872E+01 0.41858202082E+01 0.44016325235E+01 0.52448032690E+01 0.78208569591E+01
 0.12962170057E+02 0.20851501633E+02 0.30923960867E+02 0.41825145926E+02 0.51490311214E+02
 0.45388708324E+02 0.47522228469E+02 0.45112722677E+02 0.38864567392E+02 0.30440521862E+02
 0.21734089038E+02 0.14254723924E+02 0.88641568779E+01 0.57477677323E+01 0.44602036972E+01
 0.40899169577E+01 0.39776471577E+01 0.41049499784E+01 0.44933340155E+01 0.58152831091E+01
 0.90045655644E+01 0.14514285123E+02 0.22129954175E+02 0.30923960867E+02 0.39316812291E+02
 0.32602499272E+02 0.35177895107E+02 0.34371887945E+02 0.30440521862E+02 0.24488377661E+02
 0.17971298886E+02 0.12170436472E+02 0.78883607178E+01 0.53622289145E+01 0.42840697663E+01
 0.39295292199E+01 0.37753215832E+01 0.38249106247E+01 0.40705508982E+01 0.46167984213E+01
 0.61987806278E+01 0.94591732149E+01 0.14514285123E+02 0.20851501633E+02 0.27369483636E+02
 0.21371801371E+02 0.23751024106E+02 0.23876656935E+02 0.21734089038E+02 0.17971298886E+02
 0.13596515184E+02 0.95826538122E+01 0.65838526071E+01 0.48177167921E+01 0.40614963576E+01
 0.37619196522E+01 0.35978618978E+01 0.35928858249E+01 0.37548132146E+01 0.40618852816E+01
 0.46742676680E+01 0.61987806278E+01 0.90045655644E+01 0.12962170057E+02 0.17423184009E+02
 0.12930526701E+02 0.14723136493E+02 0.15212489066E+02 0.14254723924E+02 0.12170436472E+02
 0.95826538122E+01 0.71490491857E+01 0.53341241813E+01 0.42906168547E+01 0.38402602075E+01
 0.35980162327E+01 0.34517386659E+01 0.34227560778E+01 0.35173992920E+01 0.37362785912E+01
 0.40618852816E+01 0.46167984213E+01 0.58152831091E+01 0.78208569591E+01 0.10389292872E+02
 0.76689359413E+01 0.87278602862E+01 0.91821108733E+01 0.88641568779E+01 0.78883607178E+01
 0.65838526071E+01 0.53341241813E+01 0.44163184342E+01 0.39024403436E+01 0.36377449669E+01
 0.34480801008E+01 0.33378734996E+01 0.33125284061E+01 0.33712052095E+01 0.35173992920E+01
 0.37548132146E+01 0.40705508982E+01 0.44933340155E+01 0.52448032690E+01 0.63772140914E+01
 0.52028623320E+01 0.56196661873E+01 0.58389797877E+01 0.57477677323E+01 0.53622289145E+01
 0.48177167921E+01 0.42906168547E+01 0.39024403436E+01 0.36516787200E+01 0.34584029331E+01
 0.33249144370E+01 0.32593109987E+01 0.32575306111E+01 0.33125284061E+01 0.34227560778E+01
 0.35928858249E+01 0.38249106247E+01 0.41049499784E+01 0.44016325235E+01 0.47589425910E+01
 0.44936834837E+01 0.45563127542E+01 0.45519710305E+01 0.44602036972E+01 0.42840697663E+01
 0.40614963576E+01 0.38402602075E+01 0.36377449669E+01 0.34584029331E+01 0.33221293337E+01
 0.32429953222E+01 0.32242053303E+01 0.32593109987E+01 0.33378734996E+01 0.34517386659E+01
 0.35978618978E+01 0.37753215832E+01 0.39776471577E+01 0.41858202082E+01 0.43686792257E+01
 0.43563325972E+01 0.43222935447E+01 0.42274992872E+01 0.40899169577E+01 0.39295292199E+01
 0.37619196522E+01 0.35980162327E+01 0.34480801008E+01 0.33249144370E+01 0.32429953222E+01
 0.32141602044E+01 0.32429953222E+01 0.33249144370E+01 0.34480801008E+01 0.35980162327E+01
 0.37619196522E+01 0.39295292199E+01 0.40899169577E+01 0.42274992872E+01 0.43222935447E+01
 0.44936834837E+01 0.43686792257E+01 0.41858202082E+01 0.39776471577E+01 0.37753215832E+01
 0.35978618978E+01 0.34517386659E+01 0.33378734996E+01 0.32593109987E+01 0.32242053303E+01
 0.32429953222E+01 0.33221293337E+01 0.34584029331E+01 0.36377449669E+01 0.38402602075E+01
 0.40614963576E+01 0.42840697663E+01 0.44602036972E+01 0.45519710305E+01 0.45563127542E+01
 0.52028623320E+01 0.47589425910E+01 0.44016325235E+01 0.41049499784E+01 0.38249106247E+01
 0.35928858249E+01 0.34227560778E+01 0.33125284061E+01 0.32575306111E+01 0.32593109987E+01
 0.33249144370E+01 0.34584029331E+01 0.36516787200E+01 0.39024403436E+01 0.42906168547E+01
 0.48177167921E+01 0.53622289145E+01 0.57477677323E+01 0.58389797877E+01 0.56196661873E+01
 0.76689359413E+01 0.63772140914E+01 0.52448032690E+01 0.44933340155E+01 0.40705508982E+01
 0.37548132146E+01 0.35173992920E+01 0.33712052095E+01 0.33125284061E+01 0.33378734996E+01
 0.34480801008E+01 0.36377449669E+01 0.39024403436E+01 0.44163184342E+01 0.53341241813E+01
 0.65838526071E+01 0.78883607178E+01 0.88641568779E+01 0.91821108733E+01 0.87278602862E+01
 0.12930526701E+02 0.10389292872E+02 0.78208569591E+01 0.58152831091E+01 0.46167984213E+01
 0.40618852816E+01 0.37362785912E+01 0.35173992920E+01 0.34227560778E+01 0.34517386659E+01
 0.35980162327E+01 0.38402602075E+01 0.42906168547E+01 0.53341241813E+01 0.71490491857E+01
 0.95826538122E+01 0.12170436472E+02 0.14254723924E+02 0.15212489066E+02 0.14723136493E+02
 0.21371801371E+02 0.17423184009E+02 0.12962170057E+02 0.90045655644E+01 0.61987806278E+01
 0.46742676680E+01 0.40618852816E+01 0.37548132146E+01 0.35928858249E+01 0.35978618978E+01
 0.37619196522E+01 0.40614963576E+01 0.48177167921E+01 0.65838526071E+01 0.95826538122E+01
 0.13596515184E+02 0.17971298886E+02 0.21734089038E+02 0.23876656935E+02 0.23751024106E+02
 0.32602499272E+02 0.27369483636E+02 0.20851501633E+02 0.14514285123E+02 0.94591732149E+01
 0.61987806278E+01 0.46167984213E+01 0.40705508982E+01 0.38249106247E+01 0.37753215832E+01
 0.39295292199E+01 0.42840697663E+01 0.53622289145E+01 0.78883607178E+01 0.12170436472E+02
 0.17971298886E+02 0.24488377661E+02 0.30440521862E+02 0.34371887945E+02 0.35177895107E+02
 0.45388708324E+02 0.39316812291E+02 0.30923960867E+02 0.22129954175E+02 0.14514285123E+02
 0.90045655644E+01 0.58152831091E+01 0.44933340155E+01 0.41049499784E+01 0.39776471577E+01
 0.40899169577E+01 0.44602036972E+01 0.57477677323E+01 0.88641568779E+01 0.14254723924E+02
 0.21734089038E+02 0.30440521862E+02 0.38864567392E+02 0.45112722677E+02 0.47522228469E+02
 0.57608299184E+02 0.51490311214E+02 0.41825145926E+02 0.30923960867E+02 0.20851501633E+02
 0.12962170057E+02 0.78208569591E+01 0.52448032690E+01 0.44016325235E+01 0.41858202082E+01
 0.42274992872E+01 0.45519710305E+01 0.58389797877E+01 0.91821108733E+01 0.15212489066E+02
 0.23876656935E+02 0.34371887945E+02 0.45112722677E+02 0.53892946126E+02 0.58493973328E+02
 0.66561283836E+02 0.61407227203E+02 0.51490311214E+02 0.39316812291E+02 0.27369483636E+02
 0.17423184009E+02 0.10389292872E+02 0.63772140914E+01 0.47589425910E+01 0.43686792257E+01
 0.43222935447E+01 0.45563127542E+01 0.56196661873E+01 0.87278602862E+01 0.14723136493E+02
 0.23751024106E+02 0.35177895107E+02 0.47522228469E+02 0.58493973328E+02 0.65484735415E+02
 0.66561283836E+02 0.65484735415E+02 0.58493973328E+02 0.47522228469E+02 0.35177895107E+02
 0.23751024106E+02 0.14723136493E+02 0.87278602862E+01 0.56196661873E+01 0.45563127542E+01
 0.43222935447E+01 0.43686792257E+01 0.47589425910E+01 0.63772140914E+01 0.10389292872E+02
 0.17423184009E+02 0.27369483636E+02 0.39316812291E+02 0.51490311214E+02 0.61407227203E+02
 0.65484735415E+02 0.66560758093E+02 0.61406364834E+02 0.51489436440E+02 0.39316194350E+02
 0.27369209191E+02 0.17423167222E+02 0.10389382670E+02 0.63772986097E+01 0.47589849735E+01
 0.43686902900E+01 0.43222885620E+01 0.45562937991E+01 0.56196405552E+01 0.87278746321E+01
 0.14723285996E+02 0.23751403747E+02 0.35178505878E+02 0.47522909528E+02 0.58494441029E+02
 0.58493973328E+02 0.61406364834E+02 0.58493458335E+02 0.50598358093E+02 0.39816349145E+02
 0.28545106253E+02 0.18692908844E+02 0.11374368763E+02 0.69149063303E+01 0.49062257660E+01
 0.43453800818E+01 0.42136303123E+01 0.43453629163E+01 0.49061727206E+01 0.69148201724E+01
 0.11374320459E+02 0.18693036563E+02 0.28545533570E+02 0.39817060812E+02 0.50599137820E+02
 0.47522228469E+02 0.51489436440E+02 0.50598358093E+02 0.45112697899E+02 0.36545219602E+02
 0.26948845895E+02 0.18153595925E+02 0.11352081386E+02 0.70145937825E+01 0.49200594522E+01
 0.42601539559E+01 0.40630395314E+01 0.41079617344E+01 0.43976076570E+01 0.54303924426E+01
 0.82324673296E+01 0.13443898873E+02 0.21054380905E+02 0.30330876963E+02 0.39816734735E+02
 0.35177895107E+02 0.39316194350E+02 0.39816349145E+02 0.36545219602E+02 0.30440880400E+02
 0.23068005275E+02 0.15991975870E+02 0.10337406157E+02 0.66250994142E+01 0.47638387672E+01
 0.41283359397E+01 0.38949577106E+01 0.38661879595E+01 0.40553845315E+01 0.45056470501E+01
 0.59119007410E+01 0.90564094217E+01 0.14222645290E+02 0.21054208837E+02 0.28545117662E+02
 0.23751024106E+02 0.27369209191E+02 0.28545106253E+02 0.26948845895E+02 0.23068005275E+02
 0.17971604587E+02 0.12859859980E+02 0.86716676843E+01 0.58858249484E+01 0.44763394232E+01
 0.39664105627E+01 0.37286581600E+01 0.36528722554E+01 0.37618874773E+01 0.40376873548E+01
 0.45995233860E+01 0.61061591931E+01 0.90563461334E+01 0.13443712835E+02 0.18692713757E+02
 0.14723136493E+02 0.17423167222E+02 0.18692908844E+02 0.18153595925E+02 0.15991975870E+02
 0.12859859980E+02 0.95826973710E+01 0.68547335147E+01 0.50482918438E+01 0.41491909191E+01
 0.37906080129E+01 0.35748729321E+01 0.34833373003E+01 0.35321409982E+01 0.37224551227E+01
 0.40350068605E+01 0.45995106440E+01 0.59118473781E+01 0.82323485404E+01 0.11374149376E+02
 0.87278602862E+01 0.10389382670E+02 0.11374368763E+02 0.11352081386E+02 0.10337406157E+02
 0.86716676843E+01 0.68547335147E+01 0.53340289131E+01 0.43492970850E+01 0.38665811673E+01
 0.36139632800E+01 0.34391797578E+01 0.33587793143E+01 0.33774734137E+01 0.34978651499E+01
 0.37224555956E+01 0.40376819836E+01 0.45056232639E+01 0.54303431076E+01 0.69147629915E+01
 0.56196661873E+01 0.63772986097E+01 0.69149063303E+01 0.70145937825E+01 0.66250994142E+01
 0.58858249484E+01 0.50482918438E+01 0.43492970850E+01 0.39023717185E+01 0.36446371388E+01
 0.34522967116E+01 0.33277589902E+01 0.32763598765E+01 0.32937270488E+01 0.33774743486E+01
 0.35321438533E+01 0.37618896761E+01 0.40553807553E+01 0.43975965134E+01 0.49061663085E+01
 0.45563127542E+01 0.47589849735E+01 0.49062257660E+01 0.49200594522E+01 0.47638387672E+01
 0.44763394232E+01 0.41491909191E+01 0.38665811673E+01 0.36446371388E+01 0.34583907694E+01
 0.33234477589E+01 0.32504518655E+01 0.32376737588E+01 0.32763598569E+01 0.33587827641E+01
 0.34833452282E+01 0.36528819135E+01 0.38661950330E+01 0.41079648042E+01 0.43453677958E+01
 0.43222935447E+01 0.43686902900E+01 0.43453800818E+01 0.42601539559E+01 0.41283359397E+01
 0.39664105627E+01 0.37906080129E+01 0.36139632800E+01 0.34522967116E+01 0.33234477589E+01
 0.32429995730E+01 0.32191536505E+01 0.32504510706E+01 0.33277639562E+01 0.34391953406E+01
 0.35748970266E+01 0.37286829673E+01 0.38949754206E+01 0.40630476680E+01 0.42136331458E+01
 0.43686792257E+01 0.43222885620E+01 0.42136303123E+01 0.40630395314E+01 0.38949577106E+01
 0.37286581600E+01 0.35748729321E+01 0.34391797578E+01 0.33277589902E+01 0.32504518655E+01
 0.32191536505E+01 0.32429983720E+01 0.33234538587E+01 0.34523210247E+01 0.36140081579E+01
 0.37906621074E+01 0.39664551046E+01 0.41283575235E+01 0.42601528943E+01 0.43453677958E+01
 0.47589425910E+01 0.45562937991E+01 0.43453629163E+01 0.41079617344E+01 0.38661879595E+01
 0.36528722554E+01 0.34833373003E+01 0.33587793143E+01 0.32763598765E+01 0.32376737588E+01
 0.32504510706E+01 0.33234538587E+01 0.34584187843E+01 0.36446976997E+01 0.38666661364E+01
 0.41492711491E+01 0.44763811868E+01 0.47638271546E+01 0.49200084310E+01 0.49061663085E+01
 0.63772140914E+01 0.56196405552E+01 0.49061727206E+01 0.43976076570E+01 0.40553845315E+01
 0.37618874773E+01 0.35321409982E+01 0.33774734137E+01 0.32937270488E+01 0.32763598569E+01
 0.33277639562E+01 0.34523210247E+01 0.36446976997E+01 0.39024700676E+01 0.43494040698E+01
 0.50483545950E+01 0.58857990731E+01 0.66249828740E+01 0.70144322237E+01 0.69147629915E+01
 0.10389292872E+02 0.87278746321E+01 0.69148201724E+01 0.54303924426E+01 0.45056470501E+01
 0.40376873548E+01 0.37224551227E+01 0.34978651499E+01 0.33774743486E+01 0.33587827641E+01
 0.34391953406E+01 0.36140081579E+01 0.38666661364E+01 0.43494040698E+01 0.53341010000E+01
 0.68546983773E+01 0.86714874777E+01 0.10337115676E+02 0.11351776683E+02 0.11374149376E+02
 0.17423184009E+02 0.14723285996E+02 0.11374320459E+02 0.82324673296E+01 0.59119007410E+01
 0.45995233860E+01 0.40350068605E+01 0.37224555956E+01 0.35321438533E+01 0.34833452282E+01
 0.35748970266E+01 0.37906621074E+01 0.41492711491E+01 0.50483545950E+01 0.68546983773E+01
 0.95824908342E+01 0.12859478442E+02 0.15991514662E+02 0.18153207637E+02 0.18692713757E+02
 0.27369483636E+02 0.23751403747E+02 0.18693036563E+02 0.13443898873E+02 0.90564094217E+01
 0.61061591931E+01 0.45995106440E+01 0.40376819836E+01 0.37618896761E+01 0.36528819135E+01
 0.37286829673E+01 0.39664551046E+01 0.44763811868E+01 0.58857990731E+01 0.86714874777E+01
 0.12859478442E+02 0.17971077979E+02 0.23067496968E+02 0.26948546339E+02 0.28545117662E+02
 0.39316812291E+02 0.35178505878E+02 0.28545533570E+02 0.21054380905E+02 0.14222645290E+02
 0.90563461334E+01 0.59118473781E+01 0.45056232639E+01 0.40553807553E+01 0.38661950330E+01
 0.38949754206E+01 0.41283575235E+01 0.47638271546E+01 0.66249828740E+01 0.10337115676E+02
 0.15991514662E+02 0.23067496968E+02 0.30440536596E+02 0.36545224042E+02 0.39816734735E+02
 0.51490311214E+02 0.47522909528E+02 0.39817060812E+02 0.30330876963E+02 0.21054208837E+02
 0.13443712835E+02 0.82323485404E+01 0.54303431076E+01 0.43975965134E+01 0.41079648042E+01
 0.40630476680E+01 0.42601528943E+01 0.49200084310E+01 0.70144322237E+01 0.11351776683E+02
 0.18153207637E+02 0.26948546339E+02 0.36545224042E+02 0.45113128207E+02 0.50599137820E+02
 0.61407227203E+02 0.58494441029E+02 0.50599137820E+02 0.39816734735E+02 0.28545117662E+02
 0.18692713757E+02 0.11374149376E+02 0.69147629915E+01 0.49061663085E+01 0.43453677958E+01
 0.42136331458E+01 0.43453677958E+01 0.49061663085E+01 0.69147629915E+01 0.11374149376E+02
 0.18692713757E+02 0.28545117662E+02 0.39816734735E+02 0.50599137820E+02 0.58494441029E+02
 0.57608299184E+02 0.58493973328E+02 0.53892946126E+02 0.45112722677E+02 0.34371887945E+02
 0.23876656935E+02 0.15212489066E+02 0.91821108733E+01 0.58389797877E+01 0.45519710305E+01
 0.42274992872E+01 0.41858202082E+01 0.44016325235E+01 0.52448032690E+01 0.78208569591E+01
 0.12962170057E+02 0.20851501633E+02 0.30923960867E+02 0.41825145926E+02 0.51490311214E+02
 0.58493973328E+02 0.61406364834E+02 0.58493458335E+02 0.50598358093E+02 0.39816349145E+02
 0.28545106253E+02 0.18692908844E+02 0.11374368763E+02 0.69149063303E+01 0.49062257660E+01
 0.43453800818E+01 0.42136303123E+01 0.43453629163E+01 0.49061727206E+01 0.69148201724E+01
 0.11374320459E+02 0.18693036563E+02 0.28545533570E+02 0.39817060812E+02 0.50599137820E+02
 0.53892946126E+02 0.58493458335E+02 0.57607421488E+02 0.51489407226E+02 0.41824530981E+02
 0.30923754512E+02 0.20851605864E+02 0.12962387278E+02 0.78210318090E+01 0.52448860078E+01
 0.44016508561E+01 0.41858157426E+01 0.42274881363E+01 0.45519505756E+01 0.58389662706E+01
 0.91821692036E+01 0.15212712947E+02 0.23877088605E+02 0.34372429192E+02 0.45113128207E+02
 0.45112722677E+02 0.50598358093E+02 0.51489407226E+02 0.47522217658E+02 0.39816801394E+02
 0.30331036260E+02 0.21054586729E+02 0.13444078203E+02 0.82325715516E+01 0.54304220524E+01
 0.43975974797E+01 0.41079482442E+01 0.40630367778E+01 0.42601489919E+01 0.49200254489E+01
 0.70145134711E+01 0.11351967674E+02 0.18153491147E+02 0.26948792595E+02 0.36545224042E+02
 0.34371887945E+02 0.39816349145E+02 0.41824530981E+02 0.39816801394E+02 0.34372611780E+02
 0.26949283717E+02 0.19251725246E+02 0.12667924939E+02 0.79917816918E+01 0.53648662063E+01
 0.43226101521E+01 0.39936929782E+01 0.38806327332E+01 0.39937256489E+01 0.43226623810E+01
 0.53648943331E+01 0.79917010251E+01 0.12667635224E+02 0.19251176721E+02 0.26948546339E+02
 0.23876656935E+02 0.28545106253E+02 0.30923754512E+02 0.30331036260E+02 0.26949283717E+02
 0.21734711722E+02 0.15992043823E+02 0.10895707255E+02 0.71850853898E+01 0.50563346280E+01
 0.41795540130E+01 0.38582863637E+01 0.37058479388E+01 0.37443346272E+01 0.39668293595E+01
 0.44093261351E+01 0.56690512008E+01 0.83691089959E+01 0.12667525890E+02 0.18153207637E+02
 0.15212489066E+02 0.18692908844E+02 0.20851605864E+02 0.21054586729E+02 0.19251725246E+02
 0.15992043823E+02 0.12170494998E+02 0.86714767375E+01 0.60925812132E+01 0.46150314848E+01
 0.39964370621E+01 0.37139025097E+01 0.35534540832E+01 0.35414444642E+01 0.36829454638E+01
 0.39608932655E+01 0.44507533342E+01 0.56690203731E+01 0.79915980264E+01 0.11351776683E+02
 0.91821108733E+01 0.11374368763E+02 0.12962387278E+02 0.13444078203E+02 0.12667924939E+02
 0.10895707255E+02 0.86714767375E+01 0.65835931749E+01 0.50481274437E+01 0.41867658466E+01
 0.38060771797E+01 0.35698683676E+01 0.34278262150E+01 0.33948417282E+01 0.34741354308E+01
 0.36669735587E+01 0.39608905872E+01 0.44093063103E+01 0.53648407843E+01 0.70144322237E+01
 0.58389797877E+01 0.69149063303E+01 0.78210318090E+01 0.82325715516E+01 0.79917816918E+01
 0.71850853898E+01 0.60925812132E+01 0.50481274437E+01 0.42904311972E+01 0.38665464077E+01
 0.36194170666E+01 0.34359876105E+01 0.33293750683E+01 0.33011666184E+01 0.33485087469E+01
 0.34741361731E+01 0.36829467649E+01 0.39668250452E+01 0.43226471338E+01 0.49200084310E+01
 0.45519710305E+01 0.49062257660E+01 0.52448860078E+01 0.54304220524E+01 0.53648662063E+01
 0.50563346280E+01 0.46150314848E+01 0.41867658466E+01 0.38665464077E+01 0.36377188988E+01
 0.34523202748E+01 0.33248378023E+01 0.32611964038E+01 0.32559098484E+01 0.33011632468E+01
 0.33948414467E+01 0.35414486333E+01 0.37443396673E+01 0.39937280239E+01 0.42601528943E+01
 0.42274992872E+01 0.43453800818E+01 0.44016508561E+01 0.43975974797E+01 0.43226101521E+01
 0.41795540130E+01 0.39964370621E+01 0.38060771797E+01 0.36194170666E+01 0.34523202748E+01
 0.33249387712E+01 0.32504661351E+01 0.32314319379E+01 0.32611870082E+01 0.33293680655E+01
 0.34278302151E+01 0.35534692790E+01 0.37058674705E+01 0.38806488708E+01 0.40630476680E+01
 0.41858202082E+01 0.42136303123E+01 0.41858157426E+01 0.41079482442E+01 0.39936929782E+01
 0.38582863637E+01 0.37139025097E+01 0.35698683676E+01 0.34359876105E+01 0.33248378023E+01
 0.32504661351E+01 0.32242139233E+01 0.32504519539E+01 0.33248234780E+01 0.34359909005E+01
 0.35698976268E+01 0.37139505484E+01 0.38583356883E+01 0.39937280239E+01 0.41079648042E+01
 0.44016325235E+01 0.43453629163E+01 0.42274881363E+01 0.40630367778E+01 0.38806327332E+01
 0.37058479388E+01 0.35534540832E+01 0.34278262150E+01 0.33293750683E+01 0.32611964038E+01
 0.32314319379E+01 0.32504519539E+01 0.33249210245E+01 0.34523225121E+01 0.36194600953E+01
 0.38061608858E+01 0.39965359551E+01 0.41796327516E+01 0.43226471338E+01 0.43975965134E+01
 0.52448032690E+01 0.49061727206E+01 0.45519505756E+01 0.42601489919E+01 0.39937256489E+01
 0.37443346272E+01 0.35414444642E+01 0.33948417282E+01 0.33011666184E+01 0.32559098484E+01
 0.32611870082E+01 0.33248234780E+01 0.34523225121E+01 0.36377675581E+01 0.38666555374E+01
 0.41869124313E+01 0.46151606680E+01 0.50563937260E+01 0.53648407843E+01 0.54303431076E+01
 0.78208569591E+01 0.69148201724E+01 0.58389662706E+01 0.49200254489E+01 0.43226623810E+01
 0.39668293595E+01 0.36829454638E+01 0.34741354308E+01 0.33485087469E+01 0.33011632468E+01
 0.33293680655E+01 0.34359909005E+01 0.36194600953E+01 0.38666555374E+01 0.42905978333E+01
 0.50482920295E+01 0.60926589417E+01 0.71850226393E+01 0.79915980264E+01 0.82323485404E+01
 0.12962170057E+02 0.11374320459E+02 0.91821692036E+01 0.70145134711E+01 0.53648943331E+01
 0.44093261351E+01 0.39608932655E+01 0.36669735587E+01 0.34741361731E+01 0.33948414467E+01
 0.34278302151E+01 0.35698976268E+01 0.38061608858E+01 0.41869124313E+01 0.50482920295E+01
 0.65836786015E+01 0.86713865560E+01 0.10895420006E+02 0.12667525890E+02 0.13443712835E+02
 0.20851501633E+02 0.18693036563E+02 0.15212712947E+02 0.11351967674E+02 0.79917010251E+01
 0.56690512008E+01 0.44507533342E+01 0.39608905872E+01 0.36829467649E+01 0.35414486333E+01
 0.35534692790E+01 0.37139505484E+01 0.39965359551E+01 0.46151606680E+01 0.60926589417E+01
 0.86713865560E+01 0.12170164316E+02 0.15991520205E+02 0.19251176721E+02 0.21054208837E+02
 0.30923960867E+02 0.28545533570E+02 0.23877088605E+02 0.18153491147E+02 0.12667635224E+02
 0.83691089959E+01 0.56690203731E+01 0.44093063103E+01 0.39668250452E+01 0.37443396673E+01
 0.37058674705E+01 0.38583356883E+01 0.41796327516E+01 0.50563937260E+01 0.71850226393E+01
 0.10895420006E+02 0.15991520205E+02 0.21734086797E+02 0.26948792595E+02 0.30330876963E+02
 0.41825145926E+02 0.39817060812E+02 0.34372429192E+02 0.26948792595E+02 0.19251176721E+02
 0.12667525890E+02 0.79915980264E+01 0.53648407843E+01 0.43226471338E+01 0.39937280239E+01
 0.38806488708E+01 0.39937280239E+01 0.43226471338E+01 0.53648407843E+01 0.79915980264E+01
 0.12667525890E+02 0.19251176721E+02 0.26948792595E+02 0.34372429192E+02 0.39817060812E+02
 0.51490311214E+02 0.50599137820E+02 0.45113128207E+02 0.36545224042E+02 0.26948546339E+02
 0.18153207637E+02 0.11351776683E+02 0.70144322237E+01 0.49200084310E+01 0.42601528943E+01
 0.40630476680E+01 0.41079648042E+01 0.43975965134E+01 0.54303431076E+01 0.82323485404E+01
 0.13443712835E+02 0.21054208837E+02 0.30330876963E+02 0.39817060812E+02 0.47522909528E+02
 0.45388708324E+02 0.47522228469E+02 0.45112722677E+02 0.38864567392E+02 0.30440521862E+02
 0.21734089038E+02 0.14254723924E+02 0.88641568779E+01 0.57477677323E+01 0.44602036972E+01
 0.40899169577E+01 0.39776471577E+01 0.41049499784E+01 0.44933340155E+01 0.58152831091E+01
 0.90045655644E+01 0.14514285123E+02 0.22129954175E+02 0.30923960867E+02 0.39316812291E+02
 0.47522228469E+02 0.51489436440E+02 0.50598358093E+02 0.45112697899E+02 0.36545219602E+02
 0.26948845895E+02 0.18153595925E+02 0.11352081386E+02 0.70145937825E+01 0.49200594522E+01
 0.42601539559E+01 0.40630395314E+01 0.41079617344E+01 0.43976076570E+01 0.54303924426E+01
 0.82324673296E+01 0.13443898873E+02 0.21054380905E+02 0.30330876963E+02 0.39816734735E+02
 0.45112722677E+02 0.50598358093E+02 0.51489407226E+02 0.47522217658E+02 0.39816801394E+02
 0.30331036260E+02 0.21054586729E+02 0.13444078203E+02 0.82325715516E+01 0.54304220524E+01
 0.43975974797E+01 0.41079482442E+01 0.40630367778E+01 0.42601489919E+01 0.49200254489E+01
 0.70145134711E+01 0.11351967674E+02 0.18153491147E+02 0.26948792595E+02 0.36545224042E+02
 0.38864567392E+02 0.45112697899E+02 0.47522217658E+02 0.45388779537E+02 0.39317006079E+02
 0.30924246656E+02 0.22130242803E+02 0.14514487785E+02 0.90046479971E+01 0.58152738208E+01
 0.44932898282E+01 0.41049147517E+01 0.39776327228E+01 0.40899093326E+01 0.44601822193E+01
 0.57477243054E+01 0.88641050689E+01 0.14254689762E+02 0.21734086797E+02 0.30440536596E+02
 0.30440521862E+02 0.36545219602E+02 0.39816801394E+02 0.39317006079E+02 0.35178823479E+02
 0.28545894903E+02 0.21054672153E+02 0.14222789838E+02 0.90563458500E+01 0.59117658282E+01
 0.45055336435E+01 0.40553243078E+01 0.38661736405E+01 0.38949696370E+01 0.41283487029E+01
 0.47638102834E+01 0.66249666536E+01 0.10337111079E+02 0.15991520205E+02 0.23067496968E+02
 0.21734089038E+02 0.26948845895E+02 0.30331036260E+02 0.30924246656E+02 0.28545894903E+02
 0.23877415727E+02 0.18153678168E+02 0.12667645346E+02 0.83689901831E+01 0.56688631326E+01
 0.44091837656E+01 0.39667616913E+01 0.37443204049E+01 0.37058655785E+01 0.38583337223E+01
 0.41796275141E+01 0.50563899739E+01 0.71850231248E+01 0.10895420006E+02 0.15991514662E+02
 0.14254723924E+02 0.18153595925E+02 0.21054586729E+02 0.22130242803E+02 0.21054672153E+02
 0.18153678168E+02 0.14254704459E+02 0.10336968399E+02 0.71848075235E+01 0.51770188772E+01
 0.42256952814E+01 0.38490652856E+01 0.36235707320E+01 0.35446527591E+01 0.36235769822E+01
 0.38491084095E+01 0.42258117090E+01 0.51772118229E+01 0.71850226393E+01 0.10337115676E+02
 0.88641568779E+01 0.11352081386E+02 0.13444078203E+02 0.14514487785E+02 0.14222789838E+02
 0.12667645346E+02 0.10336968399E+02 0.78879134825E+01 0.58854562806E+01 0.46149654995E+01
 0.40101820746E+01 0.37127034893E+01 0.35100255076E+01 0.34196161290E+01 0.34472884194E+01
 0.35934081242E+01 0.38485308957E+01 0.42258129931E+01 0.50563937260E+01 0.66249828740E+01
 0.57477677323E+01 0.70145937825E+01 0.82325715516E+01 0.90046479971E+01 0.90563458500E+01
 0.83689901831E+01 0.71848075235E+01 0.58854562806E+01 0.48174275601E+01 0.41491313415E+01
 0.38061422192E+01 0.35699374802E+01 0.34074542232E+01 0.33292180118E+01 0.33333781435E+01
 0.34200203566E+01 0.35934087445E+01 0.38491104233E+01 0.41796327516E+01 0.47638271546E+01
 0.44602036972E+01 0.49200594522E+01 0.54304220524E+01 0.58152738208E+01 0.59117658282E+01
 0.56688631326E+01 0.51770188772E+01 0.46149654995E+01 0.41491313415E+01 0.38402534371E+01
 0.36140478141E+01 0.34360420255E+01 0.33214498429E+01 0.32704132639E+01 0.32757006610E+01
 0.33333739736E+01 0.34472851681E+01 0.36235758640E+01 0.38583356883E+01 0.41283575235E+01
 0.40899169577E+01 0.42601539559E+01 0.43975974797E+01 0.44932898282E+01 0.45055336435E+01
 0.44091837656E+01 0.42256952814E+01 0.40101820746E+01 0.38061422192E+01 0.36140478141E+01
 0.34481529897E+01 0.33278099867E+01 0.32612051024E+01 0.32451219492E+01 0.32703991492E+01
 0.33292009717E+01 0.34196038381E+01 0.35446481694E+01 0.37058674705E+01 0.38949754206E+01
 0.39776471577E+01 0.40630395314E+01 0.41079482442E+01 0.41049147517E+01 0.40553243078E+01
 0.39667616913E+01 0.38490652856E+01 0.37127034893E+01 0.35699374802E+01 0.34360420255E+01
 0.33278099867E+01 0.32593349562E+01 0.32376741060E+01 0.32611798747E+01 0.33214122340E+01
 0.34074205994E+01 0.35100093470E+01 0.36235758640E+01 0.37443396673E+01 0.38661950330E+01
 0.41049499784E+01 0.41079617344E+01 0.40630367778E+01 0.39776327228E+01 0.38661736405E+01
 0.37443204049E+01 0.36235707320E+01 0.35100255076E+01 0.34074542232E+01 0.33214498429E+01
 0.32612051024E+01 0.32376741060E+01 0.32593047705E+01 0.33277563395E+01 0.34359846538E+01
 0.35699026326E+01 0.37127095457E+01 0.38491104233E+01 0.39668250452E+01 0.40553807553E+01
 0.44933340155E+01 0.43976076570E+01 0.42601489919E+01 0.40899093326E+01 0.38949696370E+01
 0.37058655785E+01 0.35446527591E+01 0.34196161290E+01 0.33292180118E+01 0.32704132639E+01
 0.32451219492E+01 0.32611798747E+01 0.33277563395E+01 0.34480850402E+01 0.36139978021E+01
 0.38061453074E+01 0.40102524284E+01 0.42258129931E+01 0.44093063103E+01 0.45056232639E+01
 0.58152831091E+01 0.54303924426E+01 0.49200254489E+01 0.44601822193E+01 0.41283487029E+01
 0.38583337223E+01 0.36235769822E+01 0.34472884194E+01 0.33333781435E+01 0.32757006610E+01
 0.32703991492E+01 0.33214122340E+01 0.34359846538E+01 0.36139978021E+01 0.38402545553E+01
 0.41492169949E+01 0.46151296005E+01 0.51772118229E+01 0.56690203731E+01 0.59118473781E+01
 0.90045655644E+01 0.82324673296E+01 0.70145134711E+01 0.57477243054E+01 0.47638102834E+01
 0.41796275141E+01 0.38491084095E+01 0.35934081242E+01 0.34200203566E+01 0.33333739736E+01
 0.33292009717E+01 0.34074205994E+01 0.35699026326E+01 0.38061453074E+01 0.41492169949E+01
 0.48176100370E+01 0.58856954806E+01 0.71850231248E+01 0.83691089959E+01 0.90563461334E+01
 0.14514285123E+02 0.13443898873E+02 0.11351967674E+02 0.88641050689E+01 0.66249666536E+01
 0.50563899739E+01 0.42258117090E+01 0.38485308957E+01 0.35934087445E+01 0.34472851681E+01
 0.34196038381E+01 0.35100093470E+01 0.37127095457E+01 0.40102524284E+01 0.46151296005E+01
 0.58856954806E+01 0.78881523789E+01 0.10337111079E+02 0.12667635224E+02 0.14222645290E+02
 0.22129954175E+02 0.21054380905E+02 0.18153491147E+02 0.14254689762E+02 0.10337111079E+02
 0.71850231248E+01 0.51772118229E+01 0.42258129931E+01 0.38491104233E+01 0.36235758640E+01
 0.35446481694E+01 0.36235758640E+01 0.38491104233E+01 0.42258129931E+01 0.51772118229E+01
 0.71850231248E+01 0.10337111079E+02 0.14254689762E+02 0.18153491147E+02 0.21054380905E+02
 0.30923960867E+02 0.30330876963E+02 0.26948792595E+02 0.21734086797E+02 0.15991520205E+02
 0.10895420006E+02 0.71850226393E+01 0.50563937260E+01 0.41796327516E+01 0.38583356883E+01
 0.37058674705E+01 0.37443396673E+01 0.39668250452E+01 0.44093063103E+01 0.56690203731E+01
 0.83691089959E+01 0.12667635224E+02 0.18153491147E+02 0.23877088605E+02 0.28545533570E+02
 0.39316812291E+02 0.39816734735E+02 0.36545224042E+02 0.30440536596E+02 0.23067496968E+02
 0.15991514662E+02 0.10337115676E+02 0.66249828740E+01 0.47638271546E+01 0.41283575235E+01
 0.38949754206E+01 0.38661950330E+01 0.40553807553E+01 0.45056232639E+01 0.59118473781E+01
 0.90563461334E+01 0.14222645290E+02 0.21054380905E+02 0.28545533570E+02 0.35178505878E+02
 0.32602499272E+02 0.35177895107E+02 0.34371887945E+02 0.30440521862E+02 0.24488377661E+02
 0.17971298886E+02 0.12170436472E+02 0.78883607178E+01 0.53622289145E+01 0.42840697663E+01
 0.39295292199E+01 0.37753215832E+01 0.38249106247E+01 0.40705508982E+01 0.46167984213E+01
 0.61987806278E+01 0.94591732149E+01 0.14514285123E+02 0.20851501633E+02 0.27369483636E+02
 0.35177895107E+02 0.39316194350E+02 0.39816349145E+02 0.36545219602E+02 0.30440880400E+02
 0.23068005275E+02 0.15991975870E+02 0.10337406157E+02 0.66250994142E+01 0.47638387672E+01