   1   1   0   0
  0.8290687E+01  0.2208365E-09  0.2208365E-09  0.2208365E-09  0.5000000E-15
  1.000000000000000E-004
  CAR 
 bcc Fe                                  
     58.75236211     -3.22399041  301      9.76833382      1.00000000
     -3.224  0.0000E+00  0.0000E+00  0.0000E+00  0.0000E+00
     -3.017  0.0000E+00  0.0000E+00  0.0000E+00  0.0000E+00
     -2.811  0.0000E+00  0.0000E+00  0.0000E+00  0.0000E+00
     -2.604  0.0000E+00  0.0000E+00  0.0000E+00  0.0000E+00
     -2.398  0.0000E+00  0.0000E+00  0.0000E+00  0.0000E+00
     -2.191 -0.2005E-35  0.0000E+00 -0.4142E-36  0.0000E+00
     -1.984 -0.6153E-28 -0.1247E-34 -0.1271E-28 -0.2575E-35
     -1.778 -0.2197E-21 -0.3083E-27 -0.4538E-22 -0.6369E-28
     -1.571 -0.8749E-16 -0.8867E-21 -0.1808E-16 -0.1832E-21
     -1.365 -0.4112E-11 -0.2851E-15 -0.8495E-12 -0.5890E-16
     -1.158 -0.2138E-07 -0.1072E-10 -0.4417E-08 -0.2215E-11
     -0.952 -0.1170E-04 -0.4462E-07 -0.2420E-05 -0.9221E-08
     -0.745 -0.5393E-03 -0.1935E-04 -0.1138E-03 -0.4006E-05
     -0.538  0.2174E-02 -0.6685E-03  0.3353E-03 -0.1421E-03
     -0.332  0.2130E-01  0.3645E-02  0.4735E-02  0.6109E-03
     -0.125  0.5679E-02  0.2178E-01  0.5908E-02  0.5109E-02
      0.081  0.1519E-01  0.3847E-02  0.9047E-02  0.5904E-02
      0.288  0.2139E-01  0.1777E-01  0.1347E-01  0.9575E-02
      0.495  0.1725E-01  0.1912E-01  0.1703E-01  0.1352E-01
      0.701  0.8767E-01  0.1916E-01  0.3514E-01  0.1748E-01
      0.908  0.1674E-01  0.8759E-01  0.3860E-01  0.3558E-01
      1.114 -0.4544E-02  0.1446E-01  0.3766E-01  0.3856E-01
      1.321  0.1818E-02 -0.3979E-02  0.3804E-01  0.3774E-01
      1.528  0.9390E-01 -0.9274E-03  0.5744E-01  0.3755E-01
      1.734  0.5832E-01  0.8662E-01  0.6949E-01  0.5544E-01
      1.941  0.7533E-01  0.6321E-01  0.8505E-01  0.6850E-01
      2.147  0.9834E-01  0.6061E-01  0.1054E+00  0.8103E-01
      2.354  0.5417E-01  0.7635E-01  0.1166E+00  0.9680E-01
      2.560 -0.1363E-01  0.8403E-01  0.1137E+00  0.1142E+00
      2.767  0.8384E-01  0.1091E-01  0.1311E+00  0.1164E+00
      2.974  0.4948E+00 -0.1188E-01  0.2333E+00  0.1140E+00
      3.180  0.4919E+00  0.7462E-01  0.3349E+00  0.1294E+00
      3.387  0.5193E+00  0.2393E+00  0.4422E+00  0.1788E+00
      3.593  0.4387E+00  0.1554E+00  0.5328E+00  0.2109E+00
      3.800  0.6819E+00  0.3607E+00  0.6737E+00  0.2854E+00
      4.007  0.7655E+00  0.1824E+00  0.8318E+00  0.3231E+00
      4.213  0.5387E+00  0.2297E+00  0.9431E+00  0.3706E+00
      4.420  0.3892E+00  0.6206E+00  0.1024E+01  0.4988E+00
      4.626  0.4290E+00  0.6099E+00  0.1112E+01  0.6248E+00
      4.833  0.2882E+00  0.2725E+00  0.1172E+01  0.6811E+00
      5.040  0.7393E+00  0.6939E+00  0.1324E+01  0.8244E+00
      5.246  0.1247E+01  0.7508E+00  0.1582E+01  0.9795E+00
      5.453  0.7600E+00  0.2627E+00  0.1739E+01  0.1034E+01
      5.659  0.3702E+00  0.1754E+00  0.1815E+01  0.1070E+01
      5.866  0.4556E+00  0.4194E+00  0.1910E+01  0.1157E+01
      6.072  0.8285E+00  0.6403E+00  0.2081E+01  0.1289E+01
      6.279  0.1361E+01  0.1099E+01  0.2362E+01  0.1516E+01
      6.486  0.7901E+00  0.7844E+00  0.2525E+01  0.1678E+01
      6.692  0.4736E+00  0.5078E+00  0.2623E+01  0.1783E+01
      6.899  0.3623E+00  0.6223E+00  0.2698E+01  0.1911E+01
      7.105  0.9089E-01  0.8607E+00  0.2717E+01  0.2089E+01
      7.312  0.4622E+00  0.9460E+00  0.2812E+01  0.2285E+01
      7.519  0.6062E+00  0.8239E+00  0.2937E+01  0.2455E+01
      7.725  0.2524E+00  0.6170E+00  0.2989E+01  0.2582E+01
      7.932  0.1463E+00  0.4873E+00  0.3020E+01  0.2683E+01
      8.138  0.4411E+00  0.3740E+00  0.3111E+01  0.2760E+01
      8.345  0.9488E+00  0.1726E+00  0.3307E+01  0.2796E+01
      8.552  0.9036E+00  0.2807E+00  0.3493E+01  0.2854E+01
      8.758  0.1102E+01  0.4847E+00  0.3721E+01  0.2954E+01
      8.965  0.1256E+01  0.1666E+00  0.3981E+01  0.2989E+01
      9.171  0.1454E+01  0.1658E+00  0.4281E+01  0.3023E+01
      9.378  0.1398E+01  0.1585E+00  0.4570E+01  0.3056E+01
      9.584  0.4627E+00  0.3012E+00  0.4665E+01  0.3118E+01
      9.791  0.4020E+00  0.8156E+00  0.4748E+01  0.3286E+01
      9.998  0.8023E+00  0.6695E+00  0.4914E+01  0.3425E+01
     10.204  0.6071E+00  0.4824E+00  0.5040E+01  0.3524E+01
     10.411  0.3636E+00  0.8019E+00  0.5115E+01  0.3690E+01
     10.617  0.3462E+00  0.9550E+00  0.5186E+01  0.3887E+01
     10.824  0.2936E+00  0.8740E+00  0.5247E+01  0.4068E+01
     11.031  0.2812E+00  0.1001E+01  0.5305E+01  0.4275E+01
     11.237  0.1554E+00  0.1495E+01  0.5337E+01  0.4583E+01
     11.444  0.4495E-01  0.1308E+01  0.5346E+01  0.4854E+01
     11.650  0.6835E-01  0.6858E+00  0.5360E+01  0.4995E+01
     11.857  0.1742E-01  0.5921E+00  0.5364E+01  0.5118E+01
     12.064  0.3222E+00  0.4667E+00  0.5431E+01  0.5214E+01
     12.270  0.1813E+00  0.2134E+00  0.5468E+01  0.5258E+01
     12.477  0.7334E-01  0.1423E+00  0.5483E+01  0.5287E+01
     12.683  0.9528E-01  0.2416E+00  0.5503E+01  0.5337E+01
     12.890  0.7323E-01  0.1193E+00  0.5518E+01  0.5362E+01
     13.096  0.3739E-01  0.5180E-01  0.5526E+01  0.5373E+01
     13.303  0.4444E-01  0.3462E+00  0.5535E+01  0.5444E+01
     13.510  0.1399E+00  0.1431E+00  0.5564E+01  0.5474E+01
     13.716  0.1961E+00  0.8670E-01  0.5604E+01  0.5492E+01
     13.923  0.8694E-01  0.5791E-01  0.5622E+01  0.5504E+01
     14.129  0.1110E+00  0.7408E-01  0.5645E+01  0.5519E+01
     14.336  0.1218E+00  0.8439E-01  0.5670E+01  0.5536E+01
     14.543  0.5105E-01  0.1478E+00  0.5681E+01  0.5567E+01
     14.749  0.1111E+00  0.9520E-01  0.5704E+01  0.5587E+01
     14.956  0.6777E-01  0.1701E+00  0.5718E+01  0.5622E+01
     15.162  0.1142E-01  0.1735E+00  0.5720E+01  0.5658E+01
     15.369  0.1407E+00  0.6503E-01  0.5749E+01  0.5671E+01
     15.576  0.1115E+00  0.5576E-01  0.5772E+01  0.5683E+01
     15.782  0.1026E+00  0.1124E+00  0.5794E+01  0.5706E+01
     15.989  0.2164E+00  0.6841E-01  0.5838E+01  0.5720E+01
     16.195  0.3246E-01  0.2523E-01  0.5845E+01  0.5725E+01
     16.402  0.1529E-02  0.1568E+00  0.5845E+01  0.5757E+01
     16.608  0.4375E-01  0.1208E+00  0.5854E+01  0.5782E+01
     16.815  0.6563E-02  0.2142E+00  0.5856E+01  0.5827E+01
     17.022  0.1648E-02  0.9136E-01  0.5856E+01  0.5846E+01
     17.228  0.1484E+00  0.9147E-04  0.5887E+01  0.5846E+01
     17.435  0.8717E-01  0.4312E-01  0.5905E+01  0.5854E+01
     17.641  0.4316E-01  0.7283E-02  0.5914E+01  0.5856E+01
     17.848  0.7066E-01 -0.3879E-02  0.5928E+01  0.5855E+01
     18.055 -0.3749E-02  0.1057E+00  0.5928E+01  0.5877E+01
     18.261  0.2338E-01  0.1254E+00  0.5932E+01  0.5903E+01
     18.468  0.8295E-01  0.4980E-01  0.5949E+01  0.5913E+01
     18.674  0.5493E-01  0.6941E-01  0.5961E+01  0.5928E+01
     18.881  0.8603E-01  0.1559E-01  0.5979E+01  0.5931E+01
     19.087  0.5894E-01  0.8505E-01  0.5991E+01  0.5948E+01
     19.294  0.7749E-02  0.2310E-01  0.5992E+01  0.5953E+01
     19.501 -0.1738E-02  0.7686E-01  0.5992E+01  0.5969E+01
     19.707 -0.7130E-04  0.4341E-01  0.5992E+01  0.5978E+01
     19.914 -0.1566E-02  0.5418E-01  0.5992E+01  0.5989E+01
     20.120  0.2056E-02  0.1598E-01  0.5992E+01  0.5992E+01
     20.327  0.7129E-01 -0.2218E-02  0.6007E+01  0.5992E+01
     20.534  0.1438E+00 -0.1187E-03  0.6037E+01  0.5992E+01
     20.740  0.2260E+00 -0.1523E-02  0.6083E+01  0.5992E+01
     20.947  0.6550E-01  0.1313E-02  0.6097E+01  0.5992E+01
     21.153  0.1816E+00  0.8089E-01  0.6134E+01  0.6009E+01
     21.360  0.4640E+00  0.7962E-01  0.6230E+01  0.6025E+01
     21.567  0.4506E+00  0.2415E+00  0.6323E+01  0.6075E+01
     21.773  0.6370E-01  0.1910E+00  0.6336E+01  0.6114E+01
     21.980  0.7613E-01  0.1221E+00  0.6352E+01  0.6140E+01
     22.186  0.2178E-01  0.4621E+00  0.6357E+01  0.6235E+01
     22.393 -0.7799E-02  0.4612E+00  0.6355E+01  0.6330E+01
     22.599  0.2455E-01  0.5351E-01  0.6360E+01  0.6342E+01
     22.806  0.2459E+00  0.6793E-01  0.6411E+01  0.6356E+01
     23.013  0.3930E+00  0.3534E-01  0.6492E+01  0.6363E+01
     23.219  0.6991E-01  0.8488E-01  0.6506E+01  0.6380E+01
     23.426  0.1661E+00  0.9421E-01  0.6541E+01  0.6400E+01
     23.632  0.3234E+00  0.2169E+00  0.6608E+01  0.6445E+01
     23.839  0.1547E+00  0.2672E+00  0.6640E+01  0.6500E+01
     24.046  0.4692E-01  0.1699E+00  0.6649E+01  0.6535E+01
     24.252  0.9585E-01  0.2470E+00  0.6669E+01  0.6586E+01
     24.459  0.1098E+00  0.2442E+00  0.6692E+01  0.6636E+01
     24.665  0.7342E-01  0.1054E+00  0.6707E+01  0.6658E+01
     24.872  0.2392E+00  0.6900E-01  0.6756E+01  0.6672E+01
     25.079  0.3608E+00  0.1343E+00  0.6831E+01  0.6700E+01
     25.285  0.4344E+00  0.1297E+00  0.6921E+01  0.6727E+01
     25.492  0.8504E-01  0.1275E+00  0.6938E+01  0.6753E+01
     25.698  0.2572E-01  0.4042E+00  0.6943E+01  0.6837E+01
     25.905  0.2832E-01  0.3543E+00  0.6949E+01  0.6910E+01
     26.111  0.3602E-01  0.1170E+00  0.6957E+01  0.6934E+01
     26.318  0.9955E-01  0.6811E-01  0.6977E+01  0.6948E+01
     26.525  0.2122E+00  0.1096E-01  0.7021E+01  0.6951E+01
     26.731  0.1772E+00  0.7795E-01  0.7058E+01  0.6967E+01
     26.938 -0.1051E-01  0.1065E+00  0.7056E+01  0.6989E+01
     27.144  0.1969E+00  0.2533E+00  0.7096E+01  0.7041E+01
     27.351  0.4467E+00  0.8548E-01  0.7189E+01  0.7059E+01
     27.558  0.3779E+00  0.6030E-02  0.7267E+01  0.7060E+01
     27.764  0.9960E-01  0.3666E+00  0.7287E+01  0.7136E+01
     27.971  0.9358E-01  0.4508E+00  0.7307E+01  0.7229E+01
     28.177  0.5570E-01  0.2760E+00  0.7318E+01  0.7286E+01
     28.384  0.1322E+00  0.2362E-01  0.7345E+01  0.7291E+01
     28.591  0.1398E+00  0.6161E-01  0.7374E+01  0.7303E+01
     28.797  0.1010E+00  0.1621E+00  0.7395E+01  0.7337E+01
     29.004  0.1227E+00  0.1764E+00  0.7420E+01  0.7373E+01
     29.210  0.2431E+00  0.9099E-01  0.7471E+01  0.7392E+01
     29.417  0.3601E+00  0.9252E-01  0.7545E+01  0.7411E+01
     29.623  0.1172E+00  0.2179E+00  0.7569E+01  0.7456E+01
     29.830  0.5298E-01  0.3647E+00  0.7580E+01  0.7532E+01
     30.037  0.9484E-01  0.1222E+00  0.7600E+01  0.7557E+01
     30.243  0.1601E+00  0.1188E+00  0.7633E+01  0.7581E+01
     30.450  0.1407E+00  0.1850E-01  0.7662E+01  0.7585E+01
     30.656  0.1561E+00  0.1456E+00  0.7694E+01  0.7615E+01
     30.863  0.3319E+00  0.1708E+00  0.7763E+01  0.7651E+01
     31.070  0.3632E+00  0.2355E+00  0.7838E+01  0.7699E+01
     31.276  0.2300E+00  0.3448E+00  0.7885E+01  0.7770E+01
     31.483  0.1867E+00  0.2551E+00  0.7924E+01  0.7823E+01
     31.689  0.1531E+00  0.1731E+00  0.7956E+01  0.7859E+01
     31.896  0.2630E+00  0.2600E+00  0.8010E+01  0.7913E+01
     32.103  0.3554E+00  0.2482E+00  0.8083E+01  0.7964E+01
     32.309  0.2919E+00  0.3750E+00  0.8144E+01  0.8041E+01
     32.516  0.2116E+00  0.1951E+00  0.8187E+01  0.8082E+01
     32.722  0.1574E+00  0.2413E+00  0.8220E+01  0.8131E+01
     32.929  0.1172E-01  0.1765E+00  0.8222E+01  0.8168E+01
     33.135  0.7050E-02  0.2005E+00  0.8224E+01  0.8209E+01
     33.342  0.5267E-01  0.7757E-01  0.8235E+01  0.8225E+01
     33.549  0.3687E+00 -0.5134E-02  0.8311E+01  0.8224E+01
     33.755  0.1742E+00  0.6206E-01  0.8347E+01  0.8237E+01
     33.962  0.1802E+00  0.3670E+00  0.8384E+01  0.8313E+01
     34.168  0.4026E+00  0.2665E+00  0.8467E+01  0.8368E+01
     34.375  0.3280E+00  0.2733E+00  0.8535E+01  0.8424E+01
     34.582  0.1084E+00  0.3289E+00  0.8557E+01  0.8492E+01
     34.788  0.2251E+00  0.2150E+00  0.8604E+01  0.8537E+01
     34.995  0.4129E+00  0.1084E+00  0.8689E+01  0.8559E+01
     35.201  0.1787E+00  0.2288E+00  0.8726E+01  0.8606E+01
     35.408 -0.8327E-02  0.4638E+00  0.8724E+01  0.8702E+01
     35.615 -0.9072E-02  0.1196E+00  0.8722E+01  0.8727E+01
     35.821  0.1002E+00 -0.4315E-03  0.8743E+01  0.8727E+01
     36.028  0.2948E+00  0.4935E-01  0.8804E+01  0.8737E+01
     36.234  0.2440E+00  0.9530E-01  0.8854E+01  0.8757E+01
     36.441  0.9979E-01  0.1967E+00  0.8875E+01  0.8797E+01
     36.647  0.1363E+00  0.3264E+00  0.8903E+01  0.8865E+01
     36.854  0.2794E+00  0.2101E+00  0.8961E+01  0.8908E+01
     37.061  0.3900E+00  0.8194E-01  0.9041E+01  0.8925E+01
     37.267  0.6539E-01  0.2927E+00  0.9055E+01  0.8986E+01
     37.474  0.9119E-01  0.2372E+00  0.9074E+01  0.9035E+01
     37.680  0.1392E+00  0.1150E+00  0.9103E+01  0.9058E+01
     37.887  0.1147E+00  0.2725E+00  0.9126E+01  0.9115E+01
     38.094  0.1369E+00  0.1344E+00  0.9155E+01  0.9142E+01
     38.300  0.2420E+00  0.8057E-01  0.9205E+01  0.9159E+01
     38.507  0.1920E+00  0.1231E+00  0.9244E+01  0.9185E+01
     38.713  0.7326E-01  0.2270E+00  0.9259E+01  0.9231E+01
     38.920  0.6223E-01  0.1346E+00  0.9272E+01  0.9259E+01
     39.127  0.1055E-02  0.6436E-01  0.9272E+01  0.9273E+01
     39.333  0.8285E-01  0.7282E-01  0.9290E+01  0.9288E+01
     39.540  0.3852E-01  0.4260E-01  0.9297E+01  0.9296E+01
     39.746  0.1910E+00 -0.7114E-02  0.9337E+01  0.9295E+01
     39.953  0.7287E+00  0.1126E+00  0.9488E+01  0.9318E+01
     40.159  0.3068E+00  0.5103E+00  0.9551E+01  0.9424E+01
     40.366  0.3442E+00  0.4663E+00  0.9622E+01  0.9520E+01
     40.573  0.1766E+00  0.1500E+00  0.9658E+01  0.9551E+01
     40.779 -0.3180E-02  0.2893E+00  0.9658E+01  0.9611E+01
     40.986  0.1512E+00  0.2774E+00  0.9689E+01  0.9668E+01
     41.192  0.1559E+00  0.5921E-01  0.9721E+01  0.9680E+01
     41.399  0.5332E-02  0.1160E+00  0.9722E+01  0.9704E+01
     41.606 -0.1935E-01  0.8108E-01  0.9718E+01  0.9721E+01
     41.812  0.1379E+00  0.3480E-01  0.9747E+01  0.9728E+01
     42.019  0.5478E+00  0.1705E+00  0.9860E+01  0.9763E+01
     42.225  0.2741E+00  0.2251E+00  0.9917E+01  0.9810E+01
     42.432 -0.8765E-02  0.2791E+00  0.9915E+01  0.9868E+01
     42.639 -0.5676E-02  0.1412E+00  0.9914E+01  0.9897E+01
     42.845 -0.8160E-02  0.7910E-01  0.9912E+01  0.9913E+01
     43.052  0.1264E+00  0.3781E-03  0.9938E+01  0.9913E+01
     43.258  0.3362E+00  0.1521E-01  0.1001E+02  0.9916E+01
     43.465  0.2863E+00  0.2991E+00  0.1007E+02  0.9978E+01
     43.671  0.8659E-01  0.2949E+00  0.1008E+02  0.1004E+02
     43.878  0.2064E+00  0.1180E+00  0.1013E+02  0.1006E+02
     44.085  0.3957E+00  0.1791E+00  0.1021E+02  0.1010E+02
     44.291  0.3496E+00  0.3234E+00  0.1028E+02  0.1017E+02
     44.498  0.2424E+00  0.3491E+00  0.1033E+02  0.1024E+02
     44.704  0.8130E-01  0.2529E+00  0.1035E+02  0.1029E+02
     44.911  0.2581E+00  0.1167E+00  0.1040E+02  0.1032E+02
     45.118  0.2068E+00  0.2818E+00  0.1044E+02  0.1037E+02
     45.324  0.1056E+00  0.2060E+00  0.1047E+02  0.1042E+02
     45.531  0.1346E+00  0.9266E-02  0.1049E+02  0.1042E+02
     45.737  0.2682E+00  0.1807E+00  0.1055E+02  0.1046E+02
     45.944  0.3329E+00  0.3731E+00  0.1062E+02  0.1053E+02
     46.151  0.3172E+00  0.1841E+00  0.1068E+02  0.1057E+02
     46.357  0.2509E+00  0.9815E-01  0.1074E+02  0.1059E+02
     46.564  0.1481E+00  0.4313E+00  0.1077E+02  0.1068E+02
     46.770  0.1020E+00  0.3036E+00  0.1079E+02  0.1074E+02
     46.977  0.7672E-01  0.1044E+00  0.1080E+02  0.1076E+02
     47.183  0.3431E-01  0.1948E+00  0.1081E+02  0.1080E+02
     47.390  0.2159E+00  0.4182E-01  0.1085E+02  0.1081E+02
     47.597  0.4877E+00  0.1032E+00  0.1096E+02  0.1083E+02
     47.803  0.2310E+00  0.2420E+00  0.1100E+02  0.1088E+02
     48.010  0.4482E-01  0.2885E+00  0.1101E+02  0.1094E+02
     48.216  0.3442E+00  0.2651E+00  0.1108E+02  0.1100E+02
     48.423  0.4479E+00  0.2455E+00  0.1118E+02  0.1105E+02
     48.630  0.1047E+00  0.2900E+00  0.1120E+02  0.1111E+02
     48.836  0.1180E+00  0.3596E+00  0.1122E+02  0.1118E+02
     49.043  0.3168E+00  0.2606E+00  0.1129E+02  0.1124E+02
     49.249  0.1598E+00  0.2676E+00  0.1132E+02  0.1129E+02
     49.456  0.1368E+00  0.4943E-01  0.1135E+02  0.1130E+02
     49.662  0.1669E+00 -0.1557E-01  0.1138E+02  0.1130E+02
     49.869  0.1009E+00  0.1034E+00  0.1140E+02  0.1132E+02
     50.076  0.1515E+00  0.3097E+00  0.1144E+02  0.1139E+02
     50.282  0.2723E+00  0.7291E-01  0.1149E+02  0.1140E+02
     50.489  0.4810E+00  0.1167E+00  0.1159E+02  0.1142E+02
     50.695  0.3011E+00  0.3880E+00  0.1165E+02  0.1150E+02
     50.902  0.9076E-01  0.4361E+00  0.1167E+02  0.1159E+02
     51.109  0.5068E-01  0.2594E+00  0.1168E+02  0.1165E+02
     51.315  0.8401E-01  0.1451E+00  0.1170E+02  0.1168E+02
     51.522  0.1397E+00  0.6491E-01  0.1173E+02  0.1169E+02
     51.728  0.1091E+00  0.1960E+00  0.1175E+02  0.1173E+02
     51.935 -0.3261E-02  0.8845E-01  0.1175E+02  0.1175E+02
     52.142 -0.3807E-02 -0.1658E-02  0.1175E+02  0.1175E+02
     52.348  0.1263E-01 -0.7462E-03  0.1175E+02  0.1175E+02
     52.555  0.1014E+00  0.3595E-01  0.1177E+02  0.1176E+02
     52.761  0.3027E+00  0.6927E-01  0.1184E+02  0.1177E+02
     52.968  0.1323E+00  0.5880E-01  0.1186E+02  0.1178E+02
     53.174  0.5002E-01  0.1567E+00  0.1187E+02  0.1182E+02
     53.381  0.1049E+00  0.2298E+00  0.1189E+02  0.1186E+02
     53.588  0.6561E-01  0.8126E-01  0.1191E+02  0.1188E+02
     53.794  0.5785E-03  0.9064E-01  0.1191E+02  0.1190E+02
     54.001  0.2763E-01  0.2827E-01  0.1191E+02  0.1191E+02
     54.207  0.9182E-02  0.3799E-01  0.1192E+02  0.1191E+02
     54.414 -0.4291E-02  0.1627E-01  0.1192E+02  0.1192E+02
     54.621  0.1908E-01 -0.2669E-02  0.1192E+02  0.1192E+02
     54.827  0.8848E-01 -0.5892E-03  0.1194E+02  0.1192E+02
     55.034  0.1013E+00  0.8763E-01  0.1196E+02  0.1193E+02
     55.240  0.5935E-01  0.6264E-01  0.1197E+02  0.1195E+02
     55.447 -0.4790E-02  0.6608E-01  0.1197E+02  0.1196E+02
     55.654  0.2469E-01  0.4869E-01  0.1197E+02  0.1197E+02
     55.860  0.9438E-01  0.4538E-01  0.1199E+02  0.1198E+02
     56.067  0.3124E-01  0.9242E-01  0.1200E+02  0.1200E+02
     56.273 -0.3741E-02  0.7817E-02  0.1200E+02  0.1200E+02
     56.480 -0.2199E-03 -0.2203E-02  0.1200E+02  0.1200E+02
     56.686 -0.8608E-06 -0.4694E-04  0.1200E+02  0.1200E+02
     56.893 -0.3419E-09 -0.8557E-07  0.1200E+02  0.1200E+02
     57.100 -0.1494E-13 -0.1645E-10  0.1200E+02  0.1200E+02
     57.306  0.0000E+00 -0.3611E-15  0.1200E+02  0.1200E+02
     57.513  0.0000E+00  0.0000E+00  0.1200E+02  0.1200E+02
     57.719  0.0000E+00  0.0000E+00  0.1200E+02  0.1200E+02
     57.926  0.0000E+00  0.0000E+00  0.1200E+02  0.1200E+02
     58.133  0.0000E+00  0.0000E+00  0.1200E+02  0.1200E+02
     58.339  0.0000E+00  0.0000E+00  0.1200E+02  0.1200E+02
     58.546  0.0000E+00  0.0000E+00  0.1200E+02  0.1200E+02
     58.752  0.0000E+00  0.0000E+00  0.1200E+02  0.1200E+02
