    1    1    1    2
  0.8290687E+01  0.2208365E-09  0.2208365E-09  0.2208365E-09  0.5000000E-15
  1.000000000000000E-004
  CAR 
 bcc Fe                                  
      8     44     12
 
  0.5000000E-01  0.5000000E-01  0.5000000E-01  0.8000000E-02
    1        0.109580      0.300077   1.000000   1.000000
    2        6.478481      7.661372   1.000000   1.000000
    3        6.478481      7.661372   1.000000   1.000000
    4        7.321213      8.548759   1.000000   1.000000
    5        8.665600     10.653258   1.000000  -0.000000
    6        8.665600     10.653258   1.000000  -0.000000
    7       35.776085     35.903392   0.000000   0.000000
    8       35.776085     35.903392   0.000000   0.000000
    9       38.490897     38.385458   0.000000   0.000000
   10       44.418792     45.097539   0.000000   0.000000
   11       46.264329     46.535898   0.000000   0.000000
   12       46.264329     46.535898   0.000000   0.000000
 
  0.1500000E+00  0.5000000E-01  0.5000000E-01  0.2400000E-01
    1        1.484188      1.707748   1.000000   1.000000
    2        5.978228      7.117993   1.000000   1.000000
    3        6.213698      7.371680   1.000000   1.000000
    4        8.400315      9.664990   1.000000   0.879141
    5        8.497301     10.389210   1.000000  -0.000051
    6        8.809998     10.810363   1.000000  -0.000000
    7       31.834962     32.224019   0.000000   0.000000
    8       33.978725     34.224519   0.000000   0.000000
    9       39.328542     39.299321   0.000000   0.000000
   10       40.215286     40.833777   0.000000   0.000000
   11       46.339672     46.610326   0.000000   0.000000
   12       47.485644     48.037119   0.000000   0.000000
 
  0.2500000E+00  0.5000000E-01  0.5000000E-01  0.2400000E-01
    1        2.863514      3.308397   1.000000   1.000000
    2        5.438203      6.527937   1.000000   1.000000
    3        6.418319      7.367684   1.000000   1.000000
    4        8.620505     10.436649   1.000000  -0.000012
    5        8.965037     10.990998   1.000000  -0.000000
    6        9.885771     11.167718   0.085818  -0.000000
    7       27.121387     27.737750   0.000000   0.000000
    8       31.960371     32.226501   0.000000   0.000000
    9       37.026228     37.572290   0.000000   0.000000
   10       39.755361     39.886845   0.000000   0.000000
   11       46.244633     46.733838   0.000000   0.000000
   12       48.592727     48.843327   0.000000   0.000000
 
  0.3500000E+00  0.5000000E-01  0.5000000E-01  0.2400000E-01
    1        3.069175      3.862638   1.000000   1.000000
    2        5.041148      6.094999   1.000000   1.000000
    3        8.006430      8.647404   1.000000   1.000000
    4        8.867619     10.643169   1.000000  -0.000000
    5        9.093063     11.148592   1.000010  -0.000000
    6       11.486960     12.691409  -0.000000  -0.000000
    7       22.719992     23.537334   0.000000   0.000000
    8       30.432199     30.672698   0.000000   0.000000
    9       34.857749     35.341970   0.000000   0.000000
   10       39.857424     40.106509   0.000000   0.000000
   11       45.983010     46.461841   0.000000   0.000000
   12       50.850227     51.018881   0.000000   0.000000
 
  0.4500000E+00  0.5000000E-01  0.5000000E-01  0.1200000E-01
    1        2.962956      3.841624   1.000000   1.000000
    2        4.896675      5.937877   1.000000   1.000000
    3        8.921196      9.650762   1.000000   0.914492
    4        9.056477     10.726609   1.000003  -0.000000
    5        9.144965     11.214032   1.000048  -0.000000
    6       12.489473     13.521923  -0.000000  -0.000000
    7       20.539613     21.509298   0.000000   0.000000
    8       29.868139     30.093367   0.000000   0.000000
    9       34.047013     34.500793   0.000000   0.000000
   10       39.875421     40.162220   0.000000   0.000000
   11       46.080863     46.579068   0.000000   0.000000
   12       50.311569     50.420719   0.000000   0.000000
 
 -0.5000000E-01  0.5000000E-01  0.5000000E-01  0.6000000E-02
    1       -0.406883     -0.221031   1.000000   1.000000
    2        6.695059      7.893063   1.000000   1.000000
    3        6.695089      7.893091   1.000000   1.000000
    4        6.788659      7.996809   1.000000   1.000000
    5        8.596996     10.583767   1.000000  -0.000000
    6        8.829415     10.850482   1.000000  -0.000000
    7       36.674256     36.672788   0.000000   0.000000
    8       37.844024     37.776424   0.000000   0.000000
    9       37.844069     37.776444   0.000000   0.000000
   10       43.975337     44.312020   0.000000   0.000000
   11       47.196023     47.372535   0.000000   0.000000
   12       48.298148     48.977988   0.000000   0.000000
 
  0.1500000E+00  0.1500000E+00  0.5000000E-01  0.2400000E-01
    1        2.950348      3.259665   1.000000   1.000000
    2        5.583241      6.715048   1.000000   1.000000
    3        5.673410      6.739953   1.000000   1.000000
    4        8.538141     10.403583   1.000000  -0.000034
    5        8.982228     10.962691   1.000000  -0.000000
    6        9.970554     11.247855  -0.026241  -0.000000
    7       29.282605     29.781266   0.000000   0.000000
    8       30.519302     30.935070   0.000000   0.000000
    9       36.014044     36.568981   0.000000   0.000000
   10       40.949638     40.919206   0.000000   0.000000
   11       47.365594     47.660138   0.000000   0.000000
   12       49.561132     49.952289   0.000000   0.000000
 
  0.2500000E+00  0.1500000E+00  0.5000000E-01  0.4800000E-01
    1        3.786498      4.454179   1.000000   1.000000
    2        5.144804      6.205427   1.000000   1.000000
    3        6.159321      6.998210   1.000000   1.000000
    4        8.717198     10.547673   1.000000  -0.000000
    5        9.174598     11.172809   1.000111  -0.000000
    6       11.983732     13.169475  -0.000000  -0.000000
    7       25.088625     25.756755   0.000000   0.000000
    8       28.406300     28.859194   0.000000   0.000000
    9       33.439731     33.923405   0.000000   0.000000
   10       41.834272     41.910603   0.000000   0.000000
   11       48.107083     48.355715   0.000000   0.000000
   12       50.390122     50.766012   0.000000   0.000000
 
  0.3500000E+00  0.1500000E+00  0.5000000E-01  0.4800000E-01
    1        3.639646      4.518630   1.000000   1.000000
    2        4.939511      5.959994   1.000000   1.000000
    3        7.233892      8.053490   1.000000   1.000000
    4        8.924261     10.751363   1.000000  -0.000000
    5        9.319551     11.273850   1.003364  -0.000000
    6       14.133081     15.105863  -0.000000  -0.000000
    7       21.257867     22.116462   0.000000   0.000000
    8       27.392018     27.836997   0.000000   0.000000
    9       32.161399     32.605564   0.000000   0.000000
   10       42.067445     42.230294   0.000000   0.000000
   11       48.919325     49.075522   0.000000   0.000000
   12       50.312926     50.706849   0.000000   0.000000
 
 -0.1500000E+00  0.1500000E+00  0.5000000E-01  0.2400000E-01
    1        0.597166      0.796698   1.000000   1.000000
    2        6.381361      7.549335   1.000000   1.000000
    3        6.618177      7.802953   1.000000   1.000000
    4        7.440276      8.676578   1.000000   1.000000
    5        8.245749     10.150490   1.000000  -0.010551
    6        8.944820     10.970837   1.000000  -0.000000
    7       33.890195     34.141824   0.000000   0.000000
    8       36.614688     36.710688   0.000000   0.000000
    9       37.839854     37.917908   0.000000   0.000000
   10       43.044887     43.340453   0.000000   0.000000
   11       45.021289     45.631230   0.000000   0.000000
   12       45.896298     46.485982   0.000000   0.000000
 
  0.2500000E+00  0.2500000E+00  0.5000000E-01  0.2400000E-01
    1        4.307745      5.174894   1.000000   1.000000
    2        5.053652      6.088139   1.000000   1.000000
    3        6.101697      6.937177   1.000000   1.000000
    4        8.896080     10.731093   1.000000  -0.000000
    5        9.310245     11.248689   1.002804  -0.000000
    6       14.775109     15.790080  -0.000000   0.000000
    7       22.935899     23.654804   0.000000   0.000000
    8       24.746491     25.326245   0.000000   0.000000
    9       31.854141     32.309438   0.000000   0.000000
   10       43.454513     43.535119   0.000000   0.000000
   11       47.405832     47.570657   0.000000   0.000000
   12       54.713632     55.016385   0.000000   0.000000
 
  0.3500000E+00  0.2500000E+00  0.5000000E-01  0.2400000E-01
    1        4.314260      5.233072   1.000000   1.000000
    2        5.142926      6.134209   1.000000   1.000000
    3        6.153318      7.078531   1.000000   1.000000
    4        9.061574     10.910652   1.000003  -0.000000
    5        9.302851     11.191823   1.002417  -0.000000
    6       17.170494     18.017730   0.000000   0.000000
    7       20.278102     21.108856   0.000000   0.000000
    8       23.823760     24.428233   0.000000   0.000000
    9       31.409081     31.864706   0.000000   0.000000
   10       44.237084     44.346591   0.000000   0.000000
   11       46.925102     47.025133   0.000000   0.000000
   12       54.993511     55.423746   0.000000   0.000000
 
 -0.2500000E+00  0.2500000E+00  0.5000000E-01  0.2400000E-01
    1        2.141929      2.441176   1.000000   1.000000
    2        5.855813      6.977695   1.000000   1.000000
    3        6.453173      7.576866   1.000000   1.000000
    4        8.267870      9.931676   1.000000   0.005800
    5        8.637273     10.035431   1.000000  -0.033840
    6        9.092630     11.112041   1.000010  -0.000000
    7       29.539451     30.061892   0.000000   0.000000
    8       34.178801     34.355065   0.000000   0.000000
    9       37.467369     37.760690   0.000000   0.000000
   10       41.928594     42.408080   0.000000   0.000000
   11       43.818809     44.232774   0.000000   0.000000
   12       45.569178     45.913582   0.000000   0.000000
 
 -0.1500000E+00  0.2500000E+00  0.5000000E-01  0.2400000E-01
    1        1.883319      2.131615   1.000000   1.000000
    2        6.222084      7.389032   1.000000   1.000000
    3        6.263634      7.429071   1.000000   1.000000
    4        7.924751      9.604647   1.000000   0.994614
    5        8.342821      9.696578   1.000000   0.783045
    6        9.224429     11.243829   1.000411  -0.000000
    7       31.483899     31.899478   0.000000   0.000000
    8       33.533702     33.874983   0.000000   0.000000
    9       38.061478     38.193567   0.000000   0.000000
   10       40.966874     41.444421   0.000000   0.000000
   11       43.402284     43.741670   0.000000   0.000000
   12       47.472862     47.933380   0.000000   0.000000
 
 -0.3500000E+00  0.3500000E+00  0.5000000E-01  0.2400000E-01
    1        2.944047      3.600788   1.000000   1.000000
    2        5.359031      6.440858   1.000000   1.000000
    3        7.231550      8.119641   1.000000   1.000000
    4        8.688345     10.344544   1.000000  -0.000179
    5        9.450669     11.342906   1.023606  -0.000000
    6        9.977435     11.349576  -0.029228  -0.000000
    7       24.795111     25.524256   0.000000   0.000000
    8       32.084697     32.262602   0.000000   0.000000
    9       36.110737     36.550689   0.000000   0.000000
   10       40.358535     40.728659   0.000000   0.000000
   11       44.019496     44.494261   0.000000   0.000000
   12       47.550064     47.805417   0.000000   0.000000
 
 -0.2500000E+00  0.3500000E+00  0.5000000E-01  0.4800000E-01
    1        3.189105      3.663632   1.000000   1.000000
    2        5.643589      6.797593   1.000000   1.000000
    3        6.222834      7.279797   1.000000   1.000000
    4        8.162501      9.807459   1.000000   0.337910
    5        9.317783     10.938608   1.003251  -0.000000
    6       10.092923     11.695131  -0.022008  -0.000000
    7       27.408863     28.024048   0.000000   0.000000
    8       30.822916     31.222171   0.000000   0.000000
    9       36.948743     37.262554   0.000000   0.000000
   10       39.831679     40.187515   0.000000   0.000000
   11       43.975084     44.276923   0.000000   0.000000
   12       48.296476     48.703301   0.000000   0.000000
 
 -0.4500000E+00  0.4500000E+00  0.5000000E-01  0.2400000E-01
    1        2.869820      3.738292   1.000000   1.000000
    2        5.064947      6.124529   1.000000   1.000000
    3        8.215995      9.371135   1.000000   1.008363
    4        8.822041     10.558991   1.000000  -0.000000
    5       10.794394     11.968908  -0.000000  -0.000000
    6       10.901600     12.337644  -0.000000  -0.000000
    7       21.161751     22.092936   0.000000   0.000000
    8       30.901563     31.061630   0.000000   0.000000
    9       34.784909     35.214895   0.000000   0.000000
   10       39.930097     40.308446   0.000000   0.000000
   11       44.501481     45.016514   0.000000   0.000000
   12       48.342742     48.479887   0.000000   0.000000
 
 -0.3500000E+00  0.4500000E+00  0.5000000E-01  0.4800000E-01
    1        3.389749      4.225772   1.000000   1.000000
    2        5.346291      6.425139   1.000000   1.000000
    3        6.783228      7.825634   1.000000   1.000000
    4        8.574679     10.223416   1.000000  -0.002976
    5        9.882476     11.528879   0.093563  -0.000000
    6       12.056959     13.268059  -0.000000  -0.000000
    7       22.916917     23.716922   0.000000   0.000000
    8       29.299880     29.705321   0.000000   0.000000
    9       35.024654     35.354997   0.000000   0.000000
   10       40.226114     40.591131   0.000000   0.000000
   11       44.851053     45.082841   0.000000   0.000000
   12       48.232142     48.651111   0.000000   0.000000
 
 -0.2500000E+00  0.4500000E+00  0.5000000E-01  0.2400000E-01
    1        4.062665      4.793892   1.000000   1.000000
    2        5.074794      6.262315   1.000000   1.000000
    3        6.225921      7.213596   1.000000   1.000000
    4        8.375699      9.987328   1.000000  -0.032383
    5        9.567006     11.305886   1.025803  -0.000000
    6       12.478313     13.700522  -0.000000  -0.000000
    7       25.131643     25.840212   0.000000   0.000000
    8       26.564376     27.094247   0.000000   0.000000
    9       36.868130     37.267257   0.000000   0.000000
   10       38.728572     38.938372   0.000000   0.000000
   11       43.788927     44.071441   0.000000   0.000000
   12       52.797100     53.199478   0.000000   0.000000
 
 -0.4500000E+00 -0.4500000E+00  0.5000000E-01  0.2400000E-01
    1        3.267546      4.195521   1.000000   1.000000
    2        5.244598      6.304160   1.000000   1.000000
    3        7.134680      8.282730   1.000000   1.000000
    4        8.642879     10.343197   1.000000  -0.000185
    5       10.330290     11.862421  -0.000260  -0.000000
    6       13.489720     14.476198  -0.000000  -0.000000
    7       20.547022     21.496079   0.000000   0.000000
    8       28.751429     29.150274   0.000000   0.000000
    9       34.276457     34.589932   0.000000   0.000000
   10       40.438135     40.828284   0.000000   0.000000
   11       45.569662     45.700602   0.000000   0.000000
   12       47.718516     48.185795   0.000000   0.000000
 
 -0.3500000E+00 -0.4500000E+00  0.5000000E-01  0.4800000E-01
    1        4.126822      5.083936   1.000000   1.000000
    2        5.179644      6.269566   1.000000   1.000000
    3        6.060877      7.143880   1.000000   1.000000
    4        8.755250     10.383573   1.000000  -0.000061
    5        9.767923     11.393074   0.501739  -0.000000
    6       15.361369     16.346577   0.000000   0.000000
    7       21.390705     22.221833   0.000000   0.000000
    8       25.058869     25.627401   0.000000   0.000000
    9       35.896961     36.261825   0.000000   0.000000
   10       39.846680     40.116564   0.000000   0.000000
   11       43.250180     43.436203   0.000000   0.000000
   12       52.630570     53.189100   0.000000   0.000000
 
 -0.3500000E+00 -0.3500000E+00  0.5000000E-01  0.8000000E-02
    1        4.786480      5.746735   1.000000   1.000000
    2        5.229782      6.349353   1.000000   1.000000
    3        5.229807      6.349361   1.000000   1.000000
    4        9.312712     10.924814   1.002944  -0.000000
    5        9.312745     10.924857   1.002946  -0.000000
    6       18.973157     19.830769   0.000000   0.000000
    7       18.973180     19.830798   0.000000   0.000000
    8       22.923146     23.571187   0.000000   0.000000
    9       36.365169     36.806222   0.000000   0.000000
   10       41.099290     41.281812   0.000000   0.000000
   11       41.099347     41.281880   0.000000   0.000000
   12       53.193340     53.976521   0.000000   0.000000
 
  0.1500000E+00  0.1500000E+00  0.1500000E+00  0.8000000E-02
    1        4.413856      4.818746   1.000000   1.000000
    2        5.141758      6.190340   1.000000   1.000000
    3        5.141758      6.190340   1.000000   1.000000
    4        8.933765     10.903387   1.000000  -0.000000
    5        8.933765     10.903387   1.000000  -0.000000
    6       12.043222     13.231090  -0.000000  -0.000000
    7       27.396075     27.923146   0.000000   0.000000
    8       27.396075     27.923146   0.000000   0.000000
    9       31.253266     31.803928   0.000000   0.000000
   10       44.023068     43.921859   0.000000   0.000000
   11       50.580853     50.815522   0.000000   0.000000
   12       50.580853     50.815522   0.000000   0.000000
 
  0.2500000E+00  0.1500000E+00  0.1500000E+00  0.2400000E-01
    1        4.489976      5.337607   1.000000   1.000000
    2        4.907917      5.896393   1.000000   1.000000
    3        6.028388      6.772729   1.000000   1.000000
    4        9.034977     10.982506   1.000001  -0.000000
    5        9.130782     11.177003   1.000031  -0.000000
    6       14.547370     15.563997  -0.000000   0.000000
    7       23.345941     24.031644   0.000000   0.000000
    8       26.154011     26.678780   0.000000   0.000000
    9       28.871236     29.382546   0.000000   0.000000
   10       45.844255     45.826379   0.000000   0.000000
   11       51.555691     51.773675   0.000000   0.000000
   12       52.670548     52.784472   0.000000   0.000000
 
  0.3500000E+00  0.1500000E+00  0.1500000E+00  0.1200000E-01
    1        4.304522      5.192395   1.000000   1.000000
    2        4.836823      5.803595   1.000000   1.000000
    3        6.644225      7.429698   1.000000   1.000000
    4        9.098435     11.039714   1.000012  -0.000000
    5        9.183422     11.258211   1.000142  -0.000000
    6       16.509343     17.333280   0.000000   0.000000
    7       20.623278     21.463777   0.000000   0.000000
    8       25.715074     26.236771   0.000000   0.000000
    9       28.200132     28.698289   0.000000   0.000000
   10       46.147368     46.192144   0.000000   0.000000
   11       52.383663     52.508717   0.000000   0.000000
   12       53.012016     53.392379   0.000000   0.000000
 
 -0.1500000E+00  0.1500000E+00  0.1500000E+00  0.6000000E-02
    1        1.507093      1.734430   1.000000   1.000000
    2        6.775158      7.941448   1.000000   1.000000
    3        6.775195      7.941462   1.000000   1.000000
    4        7.378164      8.691868   1.000000   1.000000
    5        7.450856      9.182948   1.000000   1.000140
    6        9.342637     11.374389   1.005165  -0.000000
    7       32.981813     33.289961   0.000000   0.000000
    8       36.386263     36.668740   0.000000   0.000000
    9       36.386323     36.668813   0.000000   0.000000
   10       38.364439     38.726103   0.000000   0.000000
   11       46.568989     47.010296   0.000000   0.000000
   12       46.569025     47.010314   0.000000   0.000000
 
  0.2500000E+00  0.2500000E+00  0.1500000E+00  0.2400000E-01
    1        4.697721      5.610310   1.000000   1.000000
    2        5.181467      6.103169   1.000000   1.000000
    3        5.820854      6.634558   1.000000   1.000000
    4        9.150636     11.158907   1.000056  -0.000000
    5        9.198166     11.247525   1.000210  -0.000000
    6       17.666149     18.500208   0.000000   0.000000
    7       21.500401     22.207949   0.000000   0.000000
    8       23.403419     24.030928   0.000000   0.000000
    9       27.147036     27.652753   0.000000   0.000000
   10       49.026239     49.020203   0.000000   0.000000
   11       51.467735     51.544436   0.000000   0.000000
   12       55.796064     55.935255   0.000000   0.000000
 
 -0.2500000E+00  0.2500000E+00  0.1500000E+00  0.2400000E-01
    1        2.868623      3.225840   1.000000   1.000000
    2        6.188997      7.562103   1.000000   1.000000
    3        6.517046      7.658620   1.000000   1.000000
    4        7.490708      8.939978   1.000000   1.000000
    5        8.481007      9.766757   1.000000   0.506673
    6        9.820101     11.749380   0.288879  -0.000000
    7       30.070557     30.603436   0.000000   0.000000
    8       33.439268     33.774178   0.000000   0.000000
    9       34.398412     34.821475   0.000000   0.000000
   10       38.368787     38.717067   0.000000   0.000000
   11       45.993419     46.373482   0.000000   0.000000
   12       47.445142     47.831272   0.000000   0.000000
 
 -0.3500000E+00  0.3500000E+00  0.1500000E+00  0.2400000E-01
    1        3.572454      4.306417   1.000000   1.000000
    2        5.838568      7.088830   1.000000   1.000000
    3        6.109403      7.219023   1.000000   1.000000
    4        8.134602      9.594121   1.000000   1.006061
    5        9.845713     11.208719   0.198167  -0.000000
    6       11.059542     12.586911  -0.000000  -0.000000
    7       25.348825     26.052407   0.000000   0.000000
    8       31.766856     32.119628   0.000000   0.000000
    9       32.443747     32.898344   0.000000   0.000000
   10       39.988089     40.298586   0.000000   0.000000
   11       44.823288     45.191019   0.000000   0.000000
   12       47.681585     48.104511   0.000000   0.000000
 
 -0.2500000E+00  0.3500000E+00  0.1500000E+00  0.2400000E-01
    1        3.834251      4.446755   1.000000   1.000000
    2        5.305565      6.693829   1.000000   1.000000
    3        6.726622      7.850694   1.000000   1.000000
    4        7.724816      9.080737   1.000000   1.000007
    5        9.334505     10.736156   1.004458  -0.000000
    6       11.099149     12.651290  -0.000000  -0.000000
    7       27.925803     28.574325   0.000000   0.000000
    8       29.152985     29.634168   0.000000   0.000000
    9       34.698410     35.068028   0.000000   0.000000
   10       36.888526     37.242165   0.000000   0.000000
   11       45.564675     45.940601   0.000000   0.000000
   12       51.198911     51.603162   0.000000   0.000000
 
 -0.4500000E+00  0.4500000E+00  0.1500000E+00  0.2400000E-01
    1        3.414207      4.393268   1.000000   1.000000
    2        5.855475      6.946158   1.000000   1.000000
    3        6.166360      7.388837   1.000000   1.000000
    4        8.275508      9.831855   1.000000   0.245659
    5       10.809709     12.240036  -0.000000  -0.000000
    6       13.324795     14.369047  -0.000000  -0.000000
    7       21.350255     22.229385   0.000000   0.000000
    8       30.930179     31.286449   0.000000   0.000000
    9       31.144962     31.579559   0.000000   0.000000
   10       41.960436     42.175189   0.000000   0.000000
   11       44.144544     44.519160   0.000000   0.000000
   12       46.598325     47.106566   0.000000   0.000000
 
 -0.3500000E+00  0.4500000E+00  0.1500000E+00  0.4800000E-01
    1        4.016282      5.006635   1.000000   1.000000
    2        5.037575      6.265563   1.000000   1.000000
    3        6.400411      7.536999   1.000000   1.000000
    4        8.290623      9.701211   1.000000   0.767065
    5       10.123301     11.571889  -0.015417  -0.000000
    6       13.688039     14.810155  -0.000000  -0.000000
    7       23.582037     24.325083   0.000000   0.000000
    8       27.183847     27.718097   0.000000   0.000000
    9       34.046062     34.413031   0.000000   0.000000
   10       38.243793     38.549198   0.000000   0.000000
   11       44.299148     44.689643   0.000000   0.000000
   12       50.540792     51.122686   0.000000   0.000000
 
 -0.4500000E+00 -0.4500000E+00  0.1500000E+00  0.2400000E-01
    1        3.813109      4.919928   1.000000   1.000000
    2        5.307447      6.537561   1.000000   1.000000
    3        6.107081      7.210803   1.000000   1.000000
    4        8.451149      9.893765   1.000000   0.068172
    5       10.536045     11.980184  -0.000000  -0.000000
    6       15.901424     16.803139   0.000000   0.000000
    7       20.659042     21.531141   0.000000   0.000000
    8       26.579264     27.105482   0.000000   0.000000
    9       33.594173     33.958152   0.000000   0.000000
   10       39.792373     40.017254   0.000000   0.000000
   11       43.049361     43.510524   0.000000   0.000000
   12       49.375809     49.993660   0.000000   0.000000
 
 -0.3500000E+00 -0.4500000E+00  0.1500000E+00  0.2400000E-01
    1        4.417227      5.677269   1.000000   1.000000
    2        4.581650      5.723036   1.000000   1.000000
    3        5.989661      7.072475   1.000000   1.000000
    4        9.101513     10.506802   1.000013  -0.000001
    5        9.961420     11.405892  -0.021158  -0.000000
    6       17.215793     18.123362   0.000000   0.000000
    7       21.495260     22.295569   0.000000   0.000000
    8       23.535598     24.125143   0.000000   0.000000
    9       36.171442     36.498116   0.000000   0.000000
   10       37.519201     37.816643   0.000000   0.000000
   11       41.992926     42.453864   0.000000   0.000000
   12       49.943026     50.645090   0.000000   0.000000
 
  0.2500000E+00  0.2500000E+00  0.2500000E+00  0.2000000E-02
    1        5.264025      6.139510   1.000000   1.000000
    2        5.264025      6.139510   1.000000   1.000000
    3        5.264068      6.139519   1.000000   1.000000
    4        9.204514     11.283486   1.000248  -0.000000
    5        9.204514     11.283486   1.000248  -0.000000
    6       21.006821     21.705877   0.000000   0.000000
    7       21.006821     21.705877   0.000000   0.000000
    8       21.006860     21.705932   0.000000   0.000000
    9       25.117755     25.650770   0.000000   0.000000
   10       55.076425     54.985077   0.000000   0.000000
   11       55.076425     54.985100   0.000000   0.000000
   12       55.076475     54.985105   0.000000   0.000000
 
 -0.2500000E+00  0.2500000E+00  0.2500000E+00  0.6000000E-02
    1        3.721019      4.297041   1.000000   1.000000
    2        5.492218      7.057822   1.000000   1.000000
    3        7.374252      8.532523   1.000000   1.000000
    4        7.374300      8.532525   1.000000   1.000000
    5        8.567552      9.867561   1.000000   0.132032
    6       10.871212     12.530173  -0.000000  -0.000000
    7       30.713366     31.303501   0.000000   0.000000
    8       31.538801     32.008299   0.000000   0.000000
    9       31.538829     32.008400   0.000000   0.000000
   10       34.197561     34.560554   0.000000   0.000000
   11       50.577586     50.975235   0.000000   0.000000
   12       50.577621     50.975245   0.000000   0.000000
 
 -0.3500000E+00  0.3500000E+00  0.2500000E+00  0.2400000E-01
    1        4.023765      4.953562   1.000000   1.000000
    2        4.627405      6.031013   1.000000   1.000000
    3        7.427064      8.590344   1.000000   1.000000
    4        7.984805      9.233383   1.000000   1.000512
    5        9.666010     11.018925   0.876412  -0.000000
    6       12.850201     14.066383  -0.000000  -0.000000
    7       26.402887     27.029274   0.000000   0.000000
    8       29.152060     29.609585   0.000000   0.000000
    9       31.068840     31.623900   0.000000   0.000000
   10       34.804387     35.190672   0.000000   0.000000
   11       49.216031     49.860568   0.000000   0.000000
   12       49.659345     50.020896   0.000000   0.000000
 
 -0.4500000E+00  0.4500000E+00  0.2500000E+00  0.2400000E-01
    1        3.701743      4.902108   1.000000   1.000000
    2        4.493028      5.749472   1.000000   1.000000
    3        7.289073      8.445195   1.000000   1.000000
    4        8.266595      9.564371   1.000000   1.027063
    5       10.668104     12.089087  -0.000000  -0.000000
    6       15.878816     16.761614   0.000000   0.000000
    7       21.892097     22.641689   0.000000   0.000000
    8       27.682726     28.100518   0.000000   0.000000
    9       30.766923     31.337389   0.000000   0.000000
   10       36.687000     37.014544   0.000000   0.000000
   11       45.798674     46.534417   0.000000   0.000000
   12       48.886907     49.234521   0.000000   0.000000
 
 -0.3500000E+00  0.4500000E+00  0.2500000E+00  0.2400000E-01
    1        3.904078      5.088278   1.000000   1.000000
    2        3.942444      5.254815   1.000000   1.000000
    3        7.550105      8.714328   1.000000   1.000000
    4        8.851078     10.123157   1.000000  -0.015446
    5       10.195654     11.590143  -0.005017  -0.000000
    6       15.741050     16.639953   0.000000   0.000000
    7       24.358124     25.010234   0.000000   0.000000
    8       25.158014     25.653626   0.000000   0.000000
    9       32.116768     32.651446   0.000000   0.000000
   10       34.297963     34.708397   0.000000   0.000000
   11       45.206756     45.914825   0.000000   0.000000
   12       50.208170     50.606571   0.000000   0.000000
 
 -0.4500000E+00 -0.4500000E+00  0.2500000E+00  0.2400000E-01
    1        3.624276      4.906097   1.000000   1.000000
    2        3.895921      5.163501   1.000000   1.000000