 running on    4 total cores
 distrk:  each k-point on    4 cores,    1 groups
 distr:  one band on    1 cores,    4 groups
 using from now: INCAR     
 vasp.5.4.4.18Apr17-6-g9f103f2a35 (build Jul 01 2019 03:25:34) complex          
  
 POSCAR found type information on POSCAR  Fe
 POSCAR found :  1 types and       1 ions
 scaLAPACK will be used
 LDA part: xc-table for Pade appr. of Perdew
 POSCAR, INCAR and KPOINTS ok, starting setup
 FFT: planning ...
 WAVECAR not read
 entering main loop
       N       E                     dE             d eps       ncg     rms          rms(c)
DAV:   1     0.100176741573E+02    0.10018E+02   -0.26382E+03  2416   0.503E+02
DAV:   2    -0.764547522496E+01   -0.17663E+02   -0.16486E+02  2296   0.975E+01
DAV:   3    -0.785281537225E+01   -0.20734E+00   -0.20639E+00  2464   0.112E+01
DAV:   4    -0.785323708412E+01   -0.42171E-03   -0.42169E-03  2392   0.476E-01
DAV:   5    -0.785323829894E+01   -0.12148E-05   -0.12153E-05  1816   0.263E-02    0.179E+01
DAV:   6    -0.737996020989E+01    0.47328E+00   -0.44453E+00  2444   0.261E+01    0.443E+00
DAV:   7    -0.734890818671E+01    0.31052E-01   -0.44296E-02  2500   0.182E+00    0.260E+00
DAV:   8    -0.733648103652E+01    0.12427E-01   -0.35893E-03  2512   0.469E-01    0.138E+00
DAV:   9    -0.732923511684E+01    0.72459E-02   -0.30296E-03  2368   0.378E-01    0.181E-01
DAV:  10    -0.732956653592E+01   -0.33142E-03   -0.22620E-04  2144   0.136E-01    0.356E-02
DAV:  11    -0.732954975423E+01    0.16782E-04   -0.58761E-06  1116   0.262E-02
   1 F= -.73295498E+01 E0= -.73284840E+01  d E =-.319740E-02  mag=     1.4674
 writing wavefunctions
