<?xml version="1.0" encoding="ISO-8859-1"?>
<modeling>
 <generator>
  <i name="program" type="string">vasp </i>
  <i name="version" type="string">5.4.4.18Apr17-6-g9f103f2a35  </i>
  <i name="subversion" type="string">(build Jul 01 2019 03:25:34) complex            parallel </i>
  <i name="platform" type="string">LinuxIFC </i>
  <i name="date" type="string">2020 07 08 </i>
  <i name="time" type="string">18:31:51 </i>
 </generator>
 <incar>
  <i type="string" name="SYSTEM"> bcc Fe</i>
  <i type="string" name="PREC">normal</i>
  <i type="int" name="ISPIN">     2</i>
  <i name="EDIFF">      0.00010000</i>
  <i name="ENCUT">    268.00000000</i>
  <v name="MAGMOM">      3.00000000</v>
  <v type="int" name="KPOINT_BSE">    -1     0     0     0</v>
 </incar>
 <structure name="primitive_cell" >
  <crystal>
   <varray name="basis" >
    <v>      -1.27500000       1.27500000       1.27500000 </v>
    <v>       1.27500000      -1.27500000       1.27500000 </v>
    <v>       1.27500000       1.27500000      -1.27500000 </v>
   </varray>
   <i name="volume">      8.29068750 </i>
   <varray name="rec_basis" >
    <v>       0.00000000       0.39215686       0.39215686 </v>
    <v>       0.39215686       0.00000000       0.39215686 </v>
    <v>       0.39215686       0.39215686       0.00000000 </v>
   </varray>
  </crystal>
  <varray name="positions" >
   <v>       0.00000000       0.00000000       0.00000000 </v>
  </varray>
 </structure>
 <varray name="primitive_index" >
  <v type="int" >        1 </v>
 </varray>
 <kpoints>
  <generation param="Monkhorst-Pack">
   <v type="int" name="divisions">      10       10       10 </v>
   <v name="usershift">      0.00000000       0.00000000       0.00000000 </v>
   <v name="genvec1">      0.10000000       0.00000000       0.00000000 </v>
   <v name="genvec2">      0.00000000       0.10000000       0.00000000 </v>
   <v name="genvec3">      0.00000000       0.00000000       0.10000000 </v>
   <v name="shift">      0.50000000       0.50000000       0.50000000 </v>
  </generation>
  <varray name="kpointlist" >
   <v>       0.05000000       0.05000000       0.05000000 </v>
   <v>       0.15000000       0.05000000       0.05000000 </v>
   <v>       0.25000000       0.05000000       0.05000000 </v>
   <v>       0.35000000       0.05000000       0.05000000 </v>
   <v>       0.45000000       0.05000000       0.05000000 </v>
   <v>      -0.05000000       0.05000000       0.05000000 </v>
   <v>       0.15000000       0.15000000       0.05000000 </v>
   <v>       0.25000000       0.15000000       0.05000000 </v>
   <v>       0.35000000       0.15000000       0.05000000 </v>
   <v>      -0.15000000       0.15000000       0.05000000 </v>
   <v>       0.25000000       0.25000000       0.05000000 </v>
   <v>       0.35000000       0.25000000       0.05000000 </v>
   <v>      -0.25000000       0.25000000       0.05000000 </v>
   <v>      -0.15000000       0.25000000       0.05000000 </v>
   <v>      -0.35000000       0.35000000       0.05000000 </v>
   <v>      -0.25000000       0.35000000       0.05000000 </v>
   <v>      -0.45000000       0.45000000       0.05000000 </v>
   <v>      -0.35000000       0.45000000       0.05000000 </v>
   <v>      -0.25000000       0.45000000       0.05000000 </v>
   <v>      -0.45000000      -0.45000000       0.05000000 </v>
   <v>      -0.35000000      -0.45000000       0.05000000 </v>
   <v>      -0.35000000      -0.35000000       0.05000000 </v>
   <v>       0.15000000       0.15000000       0.15000000 </v>
   <v>       0.25000000       0.15000000       0.15000000 </v>
   <v>       0.35000000       0.15000000       0.15000000 </v>
   <v>      -0.15000000       0.15000000       0.15000000 </v>
   <v>       0.25000000       0.25000000       0.15000000 </v>
   <v>      -0.25000000       0.25000000       0.15000000 </v>
   <v>      -0.35000000       0.35000000       0.15000000 </v>
   <v>      -0.25000000       0.35000000       0.15000000 </v>
   <v>      -0.45000000       0.45000000       0.15000000 </v>
   <v>      -0.35000000       0.45000000       0.15000000 </v>
   <v>      -0.45000000      -0.45000000       0.15000000 </v>
   <v>      -0.35000000      -0.45000000       0.15000000 </v>
   <v>       0.25000000       0.25000000       0.25000000 </v>
   <v>      -0.25000000       0.25000000       0.25000000 </v>
   <v>      -0.35000000       0.35000000       0.25000000 </v>
   <v>      -0.45000000       0.45000000       0.25000000 </v>
   <v>      -0.35000000       0.45000000       0.25000000 </v>
   <v>      -0.45000000      -0.45000000       0.25000000 </v>
   <v>      -0.35000000       0.35000000       0.35000000 </v>
   <v>      -0.45000000       0.45000000       0.35000000 </v>
   <v>      -0.45000000      -0.45000000       0.35000000 </v>
   <v>      -0.45000000       0.45000000       0.45000000 </v>
  </varray>
  <varray name="weights" >
   <v>       0.00800000 </v>
   <v>       0.02400000 </v>
   <v>       0.02400000 </v>
   <v>       0.02400000 </v>
   <v>       0.01200000 </v>
   <v>       0.00600000 </v>
   <v>       0.02400000 </v>
   <v>       0.04800000 </v>
   <v>       0.04800000 </v>
   <v>       0.02400000 </v>
   <v>       0.02400000 </v>
   <v>       0.02400000 </v>
   <v>       0.02400000 </v>
   <v>       0.02400000 </v>
   <v>       0.02400000 </v>
   <v>       0.04800000 </v>
   <v>       0.02400000 </v>
   <v>       0.04800000 </v>
   <v>       0.02400000 </v>
   <v>       0.02400000 </v>
   <v>       0.04800000 </v>
   <v>       0.00800000 </v>
   <v>       0.00800000 </v>
   <v>       0.02400000 </v>
   <v>       0.01200000 </v>
   <v>       0.00600000 </v>
   <v>       0.02400000 </v>
   <v>       0.02400000 </v>
   <v>       0.02400000 </v>
   <v>       0.02400000 </v>
   <v>       0.02400000 </v>
   <v>       0.04800000 </v>
   <v>       0.02400000 </v>
   <v>       0.02400000 </v>
   <v>       0.00200000 </v>
   <v>       0.00600000 </v>
   <v>       0.02400000 </v>
   <v>       0.02400000 </v>
   <v>       0.02400000 </v>
   <v>       0.02400000 </v>
   <v>       0.00600000 </v>
   <v>       0.02400000 </v>
   <v>       0.00800000 </v>
   <v>       0.00600000 </v>
  </varray>
 </kpoints>
 <parameters>
  <separator name="general" >
   <i type="string" name="SYSTEM">bcc Fe</i>
   <i type="logical" name="LCOMPAT"> F  </i>
  </separator>
  <separator name="electronic" >
   <i type="string" name="PREC">normal</i>
   <i name="ENMAX">    268.00000000</i>
   <i name="ENAUG">    511.36800000</i>
   <i name="EDIFF">      0.00010000</i>
   <i type="int" name="IALGO">    38</i>
   <i type="int" name="IWAVPR">    10</i>
   <i type="int" name="NBANDS">    12</i>
   <i name="NELECT">      8.00000000</i>
   <i type="int" name="TURBO">     0</i>
   <i type="int" name="IRESTART">     0</i>
   <i type="int" name="NREBOOT">     0</i>
   <i type="int" name="NMIN">     0</i>
   <i name="EREF">      0.00000000</i>
   <separator name="electronic smearing" >
    <i type="int" name="ISMEAR">     1</i>
    <i name="SIGMA">      0.20000000</i>
    <i name="KSPACING">      0.50000000</i>
    <i type="logical" name="KGAMMA"> T  </i>
   </separator>
   <separator name="electronic projectors" >
    <i type="logical" name="LREAL"> F  </i>
    <v name="ROPT">      0.00000000</v>
    <i type="int" name="LMAXPAW">  -100</i>
    <i type="int" name="LMAXMIX">     2</i>
    <i type="logical" name="NLSPLINE"> F  </i>
   </separator>
   <separator name="electronic startup" >
    <i type="int" name="ISTART">     0</i>
    <i type="int" name="ICHARG">     2</i>
    <i type="int" name="INIWAV">     1</i>
   </separator>
   <separator name="electronic spin" >
    <i type="int" name="ISPIN">     2</i>
    <i type="logical" name="LNONCOLLINEAR"> F  </i>
    <v name="MAGMOM">      3.00000000</v>
    <i name="NUPDOWN">     -1.00000000</i>
    <i type="logical" name="LSORBIT"> F  </i>
    <v name="SAXIS">      0.00000000      0.00000000      1.00000000</v>
    <i type="logical" name="LSPIRAL"> F  </i>
    <v name="QSPIRAL">      0.00000000      0.00000000      0.00000000</v>
    <i type="logical" name="LZEROZ"> F  </i>
   </separator>
   <separator name="electronic exchange-correlation" >
    <i type="logical" name="LASPH"> F  </i>
    <i type="logical" name="LMETAGGA"> F  </i>
   </separator>
   <separator name="electronic convergence" >
    <i type="int" name="NELM">    60</i>
    <i type="int" name="NELMDL">    -5</i>
    <i type="int" name="NELMIN">     2</i>
    <i name="ENINI">    268.00000000</i>
    <separator name="electronic convergence detail" >
     <i type="logical" name="LDIAG"> T  </i>
     <i type="logical" name="LSUBROT"> F  </i>
     <i name="WEIMIN">      0.00000000</i>
     <i name="EBREAK">      0.00000208</i>
     <i name="DEPER">      0.30000000</i>
     <i type="int" name="NRMM">     4</i>
     <i name="TIME">      0.40000000</i>
    </separator>
   </separator>
   <separator name="electronic mixer" >
    <i name="AMIX">      0.40000000</i>
    <i name="BMIX">      1.00000000</i>
    <i name="AMIN">      0.10000000</i>
    <i name="AMIX_MAG">      1.60000000</i>
    <i name="BMIX_MAG">      1.00000000</i>
    <separator name="electronic mixer details" >
     <i type="int" name="IMIX">     4</i>
     <i type="logical" name="MIXFIRST"> F  </i>
     <i type="int" name="MAXMIX">   -45</i>
     <i name="WC">    100.00000000</i>
     <i type="int" name="INIMIX">     1</i>
     <i type="int" name="MIXPRE">     1</i>
     <i type="int" name="MREMOVE">     5</i>
    </separator>
   </separator>
   <separator name="electronic dipolcorrection" >
    <i type="logical" name="LDIPOL"> F  </i>
    <i type="logical" name="LMONO"> F  </i>
    <i type="int" name="IDIPOL">     0</i>
    <i name="EPSILON">      1.00000000</i>
    <v name="DIPOL">   -100.00000000   -100.00000000   -100.00000000</v>
    <i name="EFIELD">      0.00000000</i>
   </separator>
  </separator>
  <separator name="grids" >
   <i type="int" name="NGX">    10</i>
   <i type="int" name="NGY">    10</i>
   <i type="int" name="NGZ">    10</i>
   <i type="int" name="NGXF">    20</i>
   <i type="int" name="NGYF">    20</i>
   <i type="int" name="NGZF">    20</i>
   <i type="logical" name="ADDGRID"> F  </i>
  </separator>
  <separator name="ionic" >
   <i type="int" name="NSW">     0</i>
   <i type="int" name="IBRION">    -1</i>
   <i type="int" name="MDALGO">     0</i>
   <i type="int" name="ISIF">     2</i>
   <i name="PSTRESS">      0.00000000</i>
   <i name="EDIFFG">      0.00100000</i>
   <i type="int" name="NFREE">     0</i>
   <i name="POTIM">      0.50000000</i>
   <i name="SMASS">     -3.00000000</i>
   <i name="SCALEE">      1.00000000</i>
  </separator>
  <separator name="ionic md" >
   <i name="TEBEG">      0.00010000</i>
   <i name="TEEND">      0.00010000</i>
   <i type="int" name="NBLOCK">     1</i>
   <i type="int" name="KBLOCK">     1</i>
   <i type="int" name="NPACO">   256</i>
   <i name="APACO">     16.00000000</i>
  </separator>
  <separator name="symmetry" >
   <i type="int" name="ISYM">     2</i>
   <i name="SYMPREC">      0.00001000</i>
  </separator>
  <separator name="dos" >
   <i type="int" name="LORBIT">     0</i>
   <v name="RWIGS">     -1.00000000</v>
   <i type="int" name="NEDOS">   301</i>
   <i name="EMIN">     10.00000000</i>
   <i name="EMAX">    -10.00000000</i>
   <i name="EFERMI">      0.00000000</i>
  </separator>
  <separator name="writing" >
   <i type="int" name="NWRITE">     2</i>
   <i type="logical" name="LWAVE"> T  </i>
   <i type="logical" name="LDOWNSAMPLE"> F  </i>
   <i type="logical" name="LCHARG"> T  </i>
   <i type="logical" name="LPARD"> F  </i>
   <i type="logical" name="LVTOT"> F  </i>
   <i type="logical" name="LVHAR"> F  </i>
   <i type="logical" name="LELF"> F  </i>
   <i type="logical" name="LOPTICS"> F  </i>
   <v name="STM">      0.00000000      0.00000000      0.00000000      0.00000000      0.00000000      0.00000000      0.00000000</v>
  </separator>
  <separator name="performance" >
   <i type="int" name="NPAR">     4</i>
   <i type="int" name="NSIM">     4</i>
   <i type="int" name="NBLK">    -1</i>
   <i type="logical" name="LPLANE"> T  </i>
   <i type="logical" name="LSCALAPACK"> T  </i>
   <i type="logical" name="LSCAAWARE"> F  </i>
   <i type="logical" name="LSCALU"> F  </i>
   <i type="logical" name="LASYNC"> F  </i>
   <i type="logical" name="LORBITALREAL"> F  </i>
  </separator>
  <separator name="miscellaneous" >
   <i type="int" name="IDIOT">     3</i>
   <i type="int" name="ISPECIAL">     0</i>
   <i type="logical" name="LMUSIC"> F  </i>
   <v name="POMASS">     55.84700000</v>
   <v name="DARWINR">      0.00000000</v>
   <v name="DARWINV">      1.00000000</v>
   <i type="logical" name="LCORR"> T  </i>
  </separator>
  <i type="logical" name="GGA_COMPAT"> T  </i>
  <i type="logical" name="LBERRY"> F  </i>
  <i type="int" name="ICORELEVEL">     0</i>
  <i type="logical" name="LDAU"> F  </i>
  <i type="int" name="I_CONSTRAINED_M">     0</i>
  <separator name="electronic exchange-correlation" >
   <i type="string" name="GGA">--</i>
   <i type="int" name="VOSKOWN">     0</i>
   <i type="logical" name="LHFCALC"> F  </i>
   <i type="string" name="PRECFOCK"></i>
   <i type="logical" name="LSYMGRAD"> F  </i>
   <i type="logical" name="LHFONE"> F  </i>
   <i type="logical" name="LRHFCALC"> F  </i>
   <i type="logical" name="LTHOMAS"> F  </i>
   <i type="logical" name="LMODELHF"> F  </i>
   <i name="ENCUT4O">     -1.00000000</i>
   <i type="int" name="EXXOEP">     0</i>
   <i type="int" name="FOURORBIT">     0</i>
   <i name="AEXX">      0.00000000</i>
   <i name="HFALPHA">      0.00000000</i>
   <i name="MCALPHA">      0.00000000</i>
   <i name="ALDAX">      1.00000000</i>
   <i name="AGGAX">      1.00000000</i>
   <i name="ALDAC">      1.00000000</i>
   <i name="AGGAC">      1.00000000</i>
   <i type="int" name="NKREDX">     1</i>
   <i type="int" name="NKREDY">     1</i>
   <i type="int" name="NKREDZ">     1</i>
   <i type="logical" name="SHIFTRED"> F  </i>
   <i type="logical" name="ODDONLY"> F  </i>
   <i type="logical" name="EVENONLY"> F  </i>
   <i type="int" name="LMAXFOCK">     0</i>
   <i type="int" name="NMAXFOCKAE">     0</i>
   <i type="logical" name="LFOCKAEDFT"> F  </i>
   <i name="HFSCREEN">      0.00000000</i>
   <i name="HFSCREENC">      0.00000000</i>
   <i type="int" name="NBANDSGWLOW">     0</i>
  </separator>
  <separator name="vdW DFT" >
   <i type="logical" name="LUSE_VDW"> F  </i>
   <i name="Zab_VDW">     -0.84910000</i>
   <i name="PARAM1">      0.12340000</i>
   <i name="PARAM2">      1.00000000</i>
   <i name="PARAM3">      0.00000000</i>
  </separator>
  <separator name="model GW" >
   <i type="int" name="MODEL_GW">     0</i>
   <i name="MODEL_EPS0">      4.97441250</i>
   <i name="MODEL_ALPHA">      1.00000000</i>
  </separator>
  <separator name="linear response parameters" >
   <i type="logical" name="LEPSILON"> F  </i>
   <i type="logical" name="LRPA"> F  </i>
   <i type="logical" name="LNABLA"> F  </i>
   <i type="logical" name="LVEL"> F  </i>
   <i type="int" name="KINTER">     0</i>
   <i name="CSHIFT">      0.10000000</i>
   <i name="OMEGAMAX">     -1.00000000</i>
   <i name="DEG_THRESHOLD">      0.00200000</i>
   <i name="RTIME">     -0.10000000</i>
   <i name="WPLASMAI">      0.00000000</i>
   <v name="DFIELD">      0.00000000      0.00000000      0.00000000</v>
   <v name="WPLASMA">      0.00000000      0.00000000      0.00000000      0.00000000      0.00000000      0.00000000      0.00000000      0.00000000      0.00000000</v>
  </separator>
  <separator name="orbital magnetization" >
   <i type="logical" name="NUCIND"> F  </i>
   <v name="MAGPOS">      0.00000000      0.00000000      0.00000000</v>
   <i type="logical" name="LNICSALL"> T  </i>
   <i type="logical" name="ORBITALMAG"> F  </i>
   <i type="logical" name="LMAGBLOCH"> F  </i>
   <i type="logical" name="LCHIMAG"> F  </i>
   <i type="logical" name="LGAUGE"> T  </i>
   <i type="int" name="MAGATOM">     0</i>
   <v name="MAGDIPOL">      0.00000000      0.00000000      0.00000000</v>
   <v name="AVECCONST">      0.00000000      0.00000000      0.00000000</v>
  </separator>
  <separator name="response functions" >
   <i type="logical" name="LADDER"> F  </i>
   <i type="logical" name="LRPAFORCE"> F  </i>
   <i type="logical" name="LFXC"> F  </i>
   <i type="logical" name="LHARTREE"> T  </i>
   <i type="int" name="IBSE">     0</i>
   <v type="int" name="KPOINT">    -1     0     0     0</v>
   <i type="logical" name="LTCTE"> F  </i>
   <i type="logical" name="LTETE"> F  </i>
   <i type="logical" name="LTRIPLET"> F  </i>
   <i type="logical" name="LFXCEPS"> F  </i>
   <i type="logical" name="LFXHEG"> F  </i>
   <i type="int" name="NATURALO">     2</i>
   <i type="logical" name="L2ORDER"> F  </i>
   <i type="logical" name="LMP2LT"> F  </i>
   <i type="logical" name="LUSEW"> F  </i>
   <i name="ENCUTGW">     -2.00000000</i>
   <i name="ENCUTGWSOFT">     -2.00000000</i>
   <i name="ENCUTLF">     -1.00000000</i>
   <i type="int" name="LMAXMP2">    -1</i>
   <i name="SCISSOR">      0.00000000</i>
   <i type="int" name="NOMEGA">     0</i>
   <i type="int" name="NOMEGAR">     0</i>
   <i type="int" name="NBANDSGW">    -1</i>
   <i type="int" name="NBANDSO">    -1</i>
   <i type="int" name="NBANDSV">    -1</i>
   <i type="int" name="NELM">     1</i>
   <i type="int" name="NELMHF">     1</i>
   <i type="int" name="DIM">     3</i>
   <i type="int" name="ANTIRES">     0</i>
   <i name="OMEGAMAX">    -30.00000000</i>
   <i name="OMEGAMIN">    -30.00000000</i>
   <i name="OMEGATL">   -200.00000000</i>
   <i type="int" name="OMEGAGRID">   140</i>
   <i name="CSHIFT">     -0.10000000</i>
   <i type="logical" name="SELFENERGY"> F  </i>
   <i type="logical" name="LSPECTRAL"> F  </i>
   <i type="logical" name="LSPECTRALGW"> F  </i>
   <i type="logical" name="LSINGLES"> F  </i>
   <i type="logical" name="LFERMIGW"> F  </i>
   <i type="logical" name="ODDONLYGW"> F  </i>
   <i type="logical" name="EVENONLYGW"> F  </i>
   <i type="int" name="NKREDLFX">     1</i>
   <i type="int" name="NKREDLFY">     1</i>
   <i type="int" name="NKREDLFZ">     1</i>
   <i type="int" name="MAXMEM">  2800</i>
   <i type="int" name="TELESCOPE">     0</i>
   <i type="int" name="TAUPAR">     1</i>
   <i type="int" name="OMEGAPAR">    -1</i>
   <i name="LAMBDA">      1.00000000</i>
  </separator>
  <separator name="External order field" >
   <i name="OFIELD_KAPPA">      0.00000000</i>
   <v name="OFIELD_K">      0.00000000      0.00000000      0.00000000</v>
   <i name="OFIELD_Q6_NEAR">      0.00000000</i>
   <i name="OFIELD_Q6_FAR">      0.00000000</i>
   <i name="OFIELD_A">      0.00000000</i>
  </separator>
 </parameters>
 <atominfo>
  <atoms>       1 </atoms>
  <types>       1 </types>
  <array name="atoms" >
   <dimension dim="1">ion</dimension>
   <field type="string">element</field>
   <field type="int">atomtype</field>
   <set>
    <rc><c>Fe</c><c>   1</c></rc>
   </set>
  </array>
  <array name="atomtypes" >
   <dimension dim="1">type</dimension>
   <field type="int">atomspertype</field>
   <field type="string">element</field>
   <field>mass</field>
   <field>valence</field>
   <field type="string">pseudopotential</field>
   <set>
    <rc><c>   1</c><c>Fe</c><c>     55.84700000</c><c>      8.00000000</c><c>  PAW_PBE Fe 06Sep2000                  </c></rc>
   </set>
  </array>
 </atominfo>
 <structure name="initialpos" >
  <crystal>
   <varray name="basis" >
    <v>      -1.27500000       1.27500000       1.27500000 </v>
    <v>       1.27500000      -1.27500000       1.27500000 </v>
    <v>       1.27500000       1.27500000      -1.27500000 </v>
   </varray>
   <i name="volume">      8.29068750 </i>
   <varray name="rec_basis" >
    <v>       0.00000000       0.39215686       0.39215686 </v>
    <v>       0.39215686       0.00000000       0.39215686 </v>
    <v>       0.39215686       0.39215686       0.00000000 </v>
   </varray>
  </crystal>
  <varray name="positions" >
   <v>       0.00000000       0.00000000       0.00000000 </v>
  </varray>
 </structure>
 <calculation>
  <scstep>
   <time name="dav">    0.13    0.14</time>
   <time name="total">    0.14    0.15</time>
   <energy>
    <i name="alphaZ">     83.36314208 </i>
    <i name="ewald">   -657.62117166 </i>
    <i name="hartreedc">    -88.31410480 </i>
    <i name="XCdc">      6.14461489 </i>
    <i name="pawpsdc">    553.75926685 </i>
    <i name="pawaedc">   -561.48528711 </i>
    <i name="eentropy">     -0.00182878 </i>
    <i name="bandstr">     79.89219772 </i>
    <i name="atom">    594.28084496 </i>
    <i name="e_fr_energy">     10.01767416 </i>
    <i name="e_wo_entrp">     10.01950294 </i>
    <i name="e_0_energy">     10.01828375 </i>
   </energy>
  </scstep>
  <scstep>
   <time name="dav">    0.11    0.11</time>
   <time name="total">    0.11    0.11</time>
   <energy>
    <i name="e_fr_energy">     -7.64547522 </i>
    <i name="e_wo_entrp">     -7.64463382 </i>
    <i name="e_0_energy">     -7.64519476 </i>
   </energy>
  </scstep>
  <scstep>
   <time name="dav">    0.12    0.12</time>
   <time name="total">    0.12    0.12</time>
   <energy>
    <i name="e_fr_energy">     -7.85281537 </i>
    <i name="e_wo_entrp">     -7.85088442 </i>
    <i name="e_0_energy">     -7.85217172 </i>
   </energy>
  </scstep>
  <scstep>
   <time name="dav">    0.11    0.11</time>
   <time name="total">    0.11    0.12</time>
   <energy>
    <i name="e_fr_energy">     -7.85323708 </i>
    <i name="e_wo_entrp">     -7.85130527 </i>
    <i name="e_0_energy">     -7.85259315 </i>
   </energy>
  </scstep>
  <scstep>
   <time name="dav">    0.10    0.10</time>
   <time name="total">    0.10    0.10</time>
   <energy>
    <i name="e_fr_energy">     -7.85323830 </i>
    <i name="e_wo_entrp">     -7.85130649 </i>
    <i name="e_0_energy">     -7.85259436 </i>
   </energy>
  </scstep>
  <scstep>
   <time name="dav">    0.12    0.12</time>
   <time name="total">    0.12    0.13</time>
   <energy>
    <i name="e_fr_energy">     -7.37996021 </i>
    <i name="e_wo_entrp">     -7.37834170 </i>
    <i name="e_0_energy">     -7.37942071 </i>
   </energy>
  </scstep>
  <scstep>
   <time name="dav">    0.12    0.12</time>
   <time name="total">    0.13    0.13</time>
   <energy>
    <i name="e_fr_energy">     -7.34890819 </i>
    <i name="e_wo_entrp">     -7.34565360 </i>
    <i name="e_0_energy">     -7.34782333 </i>
   </energy>
  </scstep>
  <scstep>
   <time name="dav">    0.12    0.12</time>
   <time name="total">    0.13    0.13</time>
   <energy>
    <i name="e_fr_energy">     -7.33648104 </i>
    <i name="e_wo_entrp">     -7.33342665 </i>
    <i name="e_0_energy">     -7.33546291 </i>
   </energy>
  </scstep>
  <scstep>
   <time name="dav">    0.11    0.11</time>
   <time name="total">    0.12    0.12</time>
   <energy>
    <i name="e_fr_energy">     -7.32923512 </i>
    <i name="e_wo_entrp">     -7.32624628 </i>
    <i name="e_0_energy">     -7.32823884 </i>
   </energy>
  </scstep>
  <scstep>
   <time name="dav">    0.10    0.11</time>
   <time name="total">    0.11    0.12</time>
   <energy>
    <i name="e_fr_energy">     -7.32956654 </i>
    <i name="e_wo_entrp">     -7.32640781 </i>
    <i name="e_0_energy">     -7.32851363 </i>
   </energy>
  </scstep>
  <scstep>
   <time name="dav">    0.08    0.08</time>
   <time name="total">    0.08    0.08</time>
   <energy>
    <i name="alphaZ">     83.36314208 </i>
    <i name="ewald">   -657.62117166 </i>
    <i name="hartreedc">    -72.68680549 </i>
    <i name="XCdc">      4.73087628 </i>
    <i name="pawpsdc">    930.81671682 </i>
    <i name="pawaedc">   -941.38275375 </i>
    <i name="eentropy">     -0.00319740 </i>
    <i name="bandstr">     51.17279840 </i>
    <i name="atom">    594.28084496 </i>
    <i name="e_fr_energy">     -7.32954975 </i>
    <i name="e_wo_entrp">     -7.32635236 </i>
    <i name="e_0_energy">     -7.32848396 </i>
   </energy>
  </scstep>
  <structure>
   <crystal>
    <varray name="basis" >
     <v>      -1.27500000       1.27500000       1.27500000 </v>
     <v>       1.27500000      -1.27500000       1.27500000 </v>
     <v>       1.27500000       1.27500000      -1.27500000 </v>
    </varray>
    <i name="volume">      8.29068750 </i>
    <varray name="rec_basis" >
     <v>       0.00000000       0.39215686       0.39215686 </v>
     <v>       0.39215686       0.00000000       0.39215686 </v>
     <v>       0.39215686       0.39215686       0.00000000 </v>
    </varray>
   </crystal>
   <varray name="positions" >
    <v>       0.00000000       0.00000000       0.00000000 </v>
   </varray>
  </structure>
  <varray name="forces" >
   <v>      -0.00000000      -0.00000000       0.00000000 </v>
  </varray>
  <varray name="stress" >
   <v>    1176.90556295      -0.00000000       0.00000000 </v>
   <v>       0.00000000    1176.90556295      -0.00000000 </v>
   <v>      -0.00000000       0.00000000    1176.90556295 </v>
  </varray>
  <energy>
   <i name="e_fr_energy">     -7.32954975 </i>
   <i name="e_wo_entrp">     -7.32848396 </i>
   <i name="e_0_energy">     -0.00319740 </i>
  </energy>
  <time name="totalsc">    1.36    1.49</time>
  <eigenvalues>
   <array>
    <dimension dim="1">band</dimension>
    <dimension dim="2">kpoint</dimension>
    <dimension dim="3">spin</dimension>
    <field>eigene</field>
    <field>occ</field>
    <set>
     <set comment="spin 1">
      <set comment="kpoint 1">
       <r>    0.1096    1.0000 </r>
       <r>    6.4785    1.0000 </r>
       <r>    6.4785    1.0000 </r>
       <r>    7.3212    1.0000 </r>
       <r>    8.6656    1.0000 </r>
       <r>    8.6656    1.0000 </r>
       <r>   35.7761    0.0000 </r>
       <r>   35.7761    0.0000 </r>
       <r>   38.4909    0.0000 </r>
       <r>   44.4188    0.0000 </r>
       <r>   46.2643    0.0000 </r>
       <r>   46.2643    0.0000 </r>
      </set>
      <set comment="kpoint 2">
       <r>    1.4842    1.0000 </r>
       <r>    5.9782    1.0000 </r>
       <r>    6.2137    1.0000 </r>
       <r>    8.4003    1.0000 </r>
       <r>    8.4973    1.0000 </r>
       <r>    8.8100    1.0000 </r>
       <r>   31.8350    0.0000 </r>
       <r>   33.9787    0.0000 </r>
       <r>   39.3285    0.0000 </r>
       <r>   40.2153    0.0000 </r>
       <r>   46.3397    0.0000 </r>
       <r>   47.4856    0.0000 </r>
      </set>
      <set comment="kpoint 3">
       <r>    2.8635    1.0000 </r>
       <r>    5.4382    1.0000 </r>
       <r>    6.4183    1.0000 </r>
       <r>    8.6205    1.0000 </r>
       <r>    8.9650    1.0000 </r>
       <r>    9.8858    0.0858 </r>
       <r>   27.1214    0.0000 </r>
       <r>   31.9604    0.0000 </r>
       <r>   37.0262    0.0000 </r>
       <r>   39.7554    0.0000 </r>
       <r>   46.2446    0.0000 </r>
       <r>   48.5927    0.0000 </r>
      </set>
      <set comment="kpoint 4">
       <r>    3.0692    1.0000 </r>
       <r>    5.0411    1.0000 </r>
       <r>    8.0064    1.0000 </r>
       <r>    8.8676    1.0000 </r>
       <r>    9.0931    1.0000 </r>
       <r>   11.4870   -0.0000 </r>
       <r>   22.7200    0.0000 </r>
       <r>   30.4322    0.0000 </r>
       <r>   34.8577    0.0000 </r>
       <r>   39.8574    0.0000 </r>
       <r>   45.9830    0.0000 </r>
       <r>   50.8502    0.0000 </r>
      </set>
      <set comment="kpoint 5">
       <r>    2.9630    1.0000 </r>
       <r>    4.8967    1.0000 </r>
       <r>    8.9212    1.0000 </r>
       <r>    9.0565    1.0000 </r>
       <r>    9.1450    1.0000 </r>
       <r>   12.4895   -0.0000 </r>
       <r>   20.5396    0.0000 </r>
       <r>   29.8681    0.0000 </r>
       <r>   34.0470    0.0000 </r>
       <r>   39.8754    0.0000 </r>
       <r>   46.0809    0.0000 </r>
       <r>   50.3116    0.0000 </r>
      </set>
      <set comment="kpoint 6">
       <r>   -0.4069    1.0000 </r>
       <r>    6.6951    1.0000 </r>
       <r>    6.6951    1.0000 </r>
       <r>    6.7887    1.0000 </r>
       <r>    8.5970    1.0000 </r>
       <r>    8.8294    1.0000 </r>
       <r>   36.6743    0.0000 </r>
       <r>   37.8440    0.0000 </r>
       <r>   37.8441    0.0000 </r>
       <r>   43.9753    0.0000 </r>
       <r>   47.1960    0.0000 </r>
       <r>   48.2981    0.0000 </r>
      </set>
      <set comment="kpoint 7">
       <r>    2.9503    1.0000 </r>
       <r>    5.5832    1.0000 </r>
       <r>    5.6734    1.0000 </r>
       <r>    8.5381    1.0000 </r>
       <r>    8.9822    1.0000 </r>
       <r>    9.9706   -0.0262 </r>
       <r>   29.2826    0.0000 </r>
       <r>   30.5193    0.0000 </r>
       <r>   36.0140    0.0000 </r>
       <r>   40.9496    0.0000 </r>
       <r>   47.3656    0.0000 </r>
       <r>   49.5611    0.0000 </r>
      </set>
      <set comment="kpoint 8">
       <r>    3.7865    1.0000 </r>
       <r>    5.1448    1.0000 </r>
       <r>    6.1593    1.0000 </r>
       <r>    8.7172    1.0000 </r>
       <r>    9.1746    1.0001 </r>
       <r>   11.9837   -0.0000 </r>
       <r>   25.0886    0.0000 </r>
       <r>   28.4063    0.0000 </r>
       <r>   33.4397    0.0000 </r>
       <r>   41.8343    0.0000 </r>
       <r>   48.1071    0.0000 </r>
       <r>   50.3901    0.0000 </r>
      </set>
      <set comment="kpoint 9">
       <r>    3.6396    1.0000 </r>
       <r>    4.9395    1.0000 </r>
       <r>    7.2339    1.0000 </r>
       <r>    8.9243    1.0000 </r>
       <r>    9.3196    1.0034 </r>
       <r>   14.1331   -0.0000 </r>
       <r>   21.2579    0.0000 </r>
       <r>   27.3920    0.0000 </r>
       <r>   32.1614    0.0000 </r>
       <r>   42.0674    0.0000 </r>
       <r>   48.9193    0.0000 </r>
       <r>   50.3129    0.0000 </r>
      </set>
      <set comment="kpoint 10">
       <r>    0.5972    1.0000 </r>
       <r>    6.3814    1.0000 </r>
       <r>    6.6182    1.0000 </r>
       <r>    7.4403    1.0000 </r>
       <r>    8.2457    1.0000 </r>
       <r>    8.9448    1.0000 </r>
       <r>   33.8902    0.0000 </r>
       <r>   36.6147    0.0000 </r>
       <r>   37.8399    0.0000 </r>
       <r>   43.0449    0.0000 </r>
       <r>   45.0213    0.0000 </r>
       <r>   45.8963    0.0000 </r>
      </set>
      <set comment="kpoint 11">
       <r>    4.3077    1.0000 </r>
       <r>    5.0537    1.0000 </r>
       <r>    6.1017    1.0000 </r>
       <r>    8.8961    1.0000 </r>
       <r>    9.3102    1.0028 </r>
       <r>   14.7751   -0.0000 </r>
       <r>   22.9359    0.0000 </r>
       <r>   24.7465    0.0000 </r>
       <r>   31.8541    0.0000 </r>
       <r>   43.4545    0.0000 </r>
       <r>   47.4058    0.0000 </r>
       <r>   54.7136    0.0000 </r>
      </set>
      <set comment="kpoint 12">
       <r>    4.3143    1.0000 </r>
       <r>    5.1429    1.0000 </r>
       <r>    6.1533    1.0000 </r>
       <r>    9.0616    1.0000 </r>
       <r>    9.3029    1.0024 </r>
       <r>   17.1705    0.0000 </r>
       <r>   20.2781    0.0000 </r>
       <r>   23.8238    0.0000 </r>
       <r>   31.4091    0.0000 </r>
       <r>   44.2371    0.0000 </r>
       <r>   46.9251    0.0000 </r>
       <r>   54.9935    0.0000 </r>
      </set>
      <set comment="kpoint 13">
       <r>    2.1419    1.0000 </r>
       <r>    5.8558    1.0000 </r>
       <r>    6.4532    1.0000 </r>
       <r>    8.2679    1.0000 </r>
       <r>    8.6373    1.0000 </r>
       <r>    9.0926    1.0000 </r>
       <r>   29.5395    0.0000 </r>
       <r>   34.1788    0.0000 </r>
       <r>   37.4674    0.0000 </r>
       <r>   41.9286    0.0000 </r>
       <r>   43.8188    0.0000 </r>
       <r>   45.5692    0.0000 </r>
      </set>
      <set comment="kpoint 14">
       <r>    1.8833    1.0000 </r>
       <r>    6.2221    1.0000 </r>
       <r>    6.2636    1.0000 </r>
       <r>    7.9248    1.0000 </r>
       <r>    8.3428    1.0000 </r>
       <r>    9.2244    1.0004 </r>
       <r>   31.4839    0.0000 </r>
       <r>   33.5337    0.0000 </r>
       <r>   38.0615    0.0000 </r>
       <r>   40.9669    0.0000 </r>
       <r>   43.4023    0.0000 </r>
       <r>   47.4729    0.0000 </r>
      </set>
      <set comment="kpoint 15">
       <r>    2.9440    1.0000 </r>
       <r>    5.3590    1.0000 </r>
       <r>    7.2315    1.0000 </r>
       <r>    8.6883    1.0000 </r>
       <r>    9.4507    1.0236 </r>
       <r>    9.9774   -0.0292 </r>
       <r>   24.7951    0.0000 </r>
       <r>   32.0847    0.0000 </r>
       <r>   36.1107    0.0000 </r>
       <r>   40.3585    0.0000 </r>
       <r>   44.0195    0.0000 </r>
       <r>   47.5501    0.0000 </r>
      </set>
      <set comment="kpoint 16">
       <r>    3.1891    1.0000 </r>
       <r>    5.6436    1.0000 </r>
       <r>    6.2228    1.0000 </r>
       <r>    8.1625    1.0000 </r>
       <r>    9.3178    1.0033 </r>
       <r>   10.0929   -0.0220 </r>
       <r>   27.4089    0.0000 </r>
       <r>   30.8229    0.0000 </r>
       <r>   36.9487    0.0000 </r>
       <r>   39.8317    0.0000 </r>
       <r>   43.9751    0.0000 </r>
       <r>   48.2965    0.0000 </r>
      </set>
      <set comment="kpoint 17">
       <r>    2.8698    1.0000 </r>
       <r>    5.0649    1.0000 </r>
       <r>    8.2160    1.0000 </r>
       <r>    8.8220    1.0000 </r>
       <r>   10.7944   -0.0000 </r>
       <r>   10.9016   -0.0000 </r>
       <r>   21.1618    0.0000 </r>
       <r>   30.9016    0.0000 </r>
       <r>   34.7849    0.0000 </r>
       <r>   39.9301    0.0000 </r>
       <r>   44.5015    0.0000 </r>
       <r>   48.3427    0.0000 </r>
      </set>
      <set comment="kpoint 18">
       <r>    3.3897    1.0000 </r>
       <r>    5.3463    1.0000 </r>
       <r>    6.7832    1.0000 </r>
       <r>    8.5747    1.0000 </r>
       <r>    9.8825    0.0936 </r>
       <r>   12.0570   -0.0000 </r>
       <r>   22.9169    0.0000 </r>
       <r>   29.2999    0.0000 </r>
       <r>   35.0247    0.0000 </r>
       <r>   40.2261    0.0000 </r>
       <r>   44.8511    0.0000 </r>
       <r>   48.2321    0.0000 </r>
      </set>
      <set comment="kpoint 19">
       <r>    4.0627    1.0000 </r>
       <r>    5.0748    1.0000 </r>
       <r>    6.2259    1.0000 </r>
       <r>    8.3757    1.0000 </r>
       <r>    9.5670    1.0258 </r>
       <r>   12.4783   -0.0000 </r>
       <r>   25.1316    0.0000 </r>
       <r>   26.5644    0.0000 </r>
       <r>   36.8681    0.0000 </r>
       <r>   38.7286    0.0000 </r>
       <r>   43.7889    0.0000 </r>
       <r>   52.7971    0.0000 </r>
      </set>
      <set comment="kpoint 20">
       <r>    3.2675    1.0000 </r>
       <r>    5.2446    1.0000 </r>
       <r>    7.1347    1.0000 </r>
       <r>    8.6429    1.0000 </r>
       <r>   10.3303   -0.0003 </r>
       <r>   13.4897   -0.0000 </r>
       <r>   20.5470    0.0000 </r>
       <r>   28.7514    0.0000 </r>
       <r>   34.2765    0.0000 </r>
       <r>   40.4381    0.0000 </r>
       <r>   45.5697    0.0000 </r>
       <r>   47.7185    0.0000 </r>
      </set>
      <set comment="kpoint 21">
       <r>    4.1268    1.0000 </r>
       <r>    5.1796    1.0000 </r>
       <r>    6.0609    1.0000 </r>
       <r>    8.7553    1.0000 </r>
       <r>    9.7679    0.5017 </r>
       <r>   15.3614    0.0000 </r>
       <r>   21.3907    0.0000 </r>
       <r>   25.0589    0.0000 </r>
       <r>   35.8970    0.0000 </r>
       <r>   39.8467    0.0000 </r>
       <r>   43.2502    0.0000 </r>
       <r>   52.6306    0.0000 </r>
      </set>
      <set comment="kpoint 22">
       <r>    4.7865    1.0000 </r>
       <r>    5.2298    1.0000 </r>
       <r>    5.2298    1.0000 </r>
       <r>    9.3127    1.0029 </r>
       <r>    9.3127    1.0029 </r>
       <r>   18.9732    0.0000 </r>
       <r>   18.9732    0.0000 </r>
       <r>   22.9231    0.0000 </r>
       <r>   36.3652    0.0000 </r>
       <r>   41.0993    0.0000 </r>
       <r>   41.0993    0.0000 </r>
       <r>   53.1933    0.0000 </r>
      </set>
      <set comment="kpoint 23">
       <r>    4.4139    1.0000 </r>
       <r>    5.1418    1.0000 </r>
       <r>    5.1418    1.0000 </r>
       <r>    8.9338    1.0000 </r>
       <r>    8.9338    1.0000 </r>
       <r>   12.0432   -0.0000 </r>
       <r>   27.3961    0.0000 </r>
       <r>   27.3961    0.0000 </r>
       <r>   31.2533    0.0000 </r>
       <r>   44.0231    0.0000 </r>
       <r>   50.5809    0.0000 </r>
       <r>   50.5809    0.0000 </r>
      </set>
      <set comment="kpoint 24">
       <r>    4.4900    1.0000 </r>
       <r>    4.9079    1.0000 </r>
       <r>    6.0284    1.0000 </r>
       <r>    9.0350    1.0000 </r>
       <r>    9.1308    1.0000 </r>
       <r>   14.5474   -0.0000 </r>
       <r>   23.3459    0.0000 </r>
       <r>   26.1540    0.0000 </r>
       <r>   28.8712    0.0000 </r>
       <r>   45.8443    0.0000 </r>
       <r>   51.5557    0.0000 </r>
       <r>   52.6705    0.0000 </r>
      </set>
      <set comment="kpoint 25">
       <r>    4.3045    1.0000 </r>
       <r>    4.8368    1.0000 </r>
       <r>    6.6442    1.0000 </r>
       <r>    9.0984    1.0000 </r>
       <r>    9.1834    1.0001 </r>
       <r>   16.5093    0.0000 </r>
       <r>   20.6233    0.0000 </r>
       <r>   25.7151    0.0000 </r>
       <r>   28.2001    0.0000 </r>
       <r>   46.1474    0.0000 </r>
       <r>   52.3837    0.0000 </r>
       <r>   53.0120    0.0000 </r>
      </set>
      <set comment="kpoint 26">
       <r>    1.5071    1.0000 </r>
       <r>    6.7752    1.0000 </r>
       <r>    6.7752    1.0000 </r>
       <r>    7.3782    1.0000 </r>
       <r>    7.4509    1.0000 </r>
       <r>    9.3426    1.0052 </r>
       <r>   32.9818    0.0000 </r>
       <r>   36.3863    0.0000 </r>
       <r>   36.3863    0.0000 </r>
       <r>   38.3644    0.0000 </r>
       <r>   46.5690    0.0000 </r>
       <r>   46.5690    0.0000 </r>
      </set>
      <set comment="kpoint 27">
       <r>    4.6977    1.0000 </r>
       <r>    5.1815    1.0000 </r>
       <r>    5.8209    1.0000 </r>
       <r>    9.1506    1.0001 </r>
       <r>    9.1982    1.0002 </r>
       <r>   17.6661    0.0000 </r>
       <r>   21.5004    0.0000 </r>
       <r>   23.4034    0.0000 </r>
       <r>   27.1470    0.0000 </r>
       <r>   49.0262    0.0000 </r>
       <r>   51.4677    0.0000 </r>
       <r>   55.7961    0.0000 </r>
      </set>
      <set comment="kpoint 28">
       <r>    2.8686    1.0000 </r>
       <r>    6.1890    1.0000 </r>
       <r>    6.5170    1.0000 </r>
       <r>    7.4907    1.0000 </r>
       <r>    8.4810    1.0000 </r>
       <r>    9.8201    0.2889 </r>
       <r>   30.0706    0.0000 </r>
       <r>   33.4393    0.0000 </r>
       <r>   34.3984    0.0000 </r>
       <r>   38.3688    0.0000 </r>
       <r>   45.9934    0.0000 </r>
       <r>   47.4451    0.0000 </r>
      </set>
      <set comment="kpoint 29">
       <r>    3.5725    1.0000 </r>
       <r>    5.8386    1.0000 </r>
       <r>    6.1094    1.0000 </r>
       <r>    8.1346    1.0000 </r>
       <r>    9.8457    0.1982 </r>
       <r>   11.0595   -0.0000 </r>
       <r>   25.3488    0.0000 </r>
       <r>   31.7669    0.0000 </r>
       <r>   32.4437    0.0000 </r>
       <r>   39.9881    0.0000 </r>
       <r>   44.8233    0.0000 </r>
       <r>   47.6816    0.0000 </r>
      </set>
      <set comment="kpoint 30">
       <r>    3.8343    1.0000 </r>
       <r>    5.3056    1.0000 </r>
       <r>    6.7266    1.0000 </r>
       <r>    7.7248    1.0000 </r>
       <r>    9.3345    1.0045 </r>
       <r>   11.0991   -0.0000 </r>
       <r>   27.9258    0.0000 </r>
       <r>   29.1530    0.0000 </r>
       <r>   34.6984    0.0000 </r>
       <r>   36.8885    0.0000 </r>
       <r>   45.5647    0.0000 </r>
       <r>   51.1989    0.0000 </r>
      </set>
      <set comment="kpoint 31">
       <r>    3.4142    1.0000 </r>
       <r>    5.8555    1.0000 </r>
       <r>    6.1664    1.0000 </r>
       <r>    8.2755    1.0000 </r>
       <r>   10.8097   -0.0000 </r>
       <r>   13.3248   -0.0000 </r>
       <r>   21.3503    0.0000 </r>
       <r>   30.9302    0.0000 </r>
       <r>   31.1450    0.0000 </r>
       <r>   41.9604    0.0000 </r>
       <r>   44.1445    0.0000 </r>
       <r>   46.5983    0.0000 </r>
      </set>
      <set comment="kpoint 32">
       <r>    4.0163    1.0000 </r>
       <r>    5.0376    1.0000 </r>
       <r>    6.4004    1.0000 </r>
       <r>    8.2906    1.0000 </r>
       <r>   10.1233   -0.0154 </r>
       <r>   13.6880   -0.0000 </r>
       <r>   23.5820    0.0000 </r>
       <r>   27.1838    0.0000 </r>
       <r>   34.0461    0.0000 </r>
       <r>   38.2438    0.0000 </r>
       <r>   44.2991    0.0000 </r>
       <r>   50.5408    0.0000 </r>
      </set>
      <set comment="kpoint 33">
       <r>    3.8131    1.0000 </r>
       <r>    5.3074    1.0000 </r>
       <r>    6.1071    1.0000 </r>
       <r>    8.4511    1.0000 </r>
       <r>   10.5360   -0.0000 </r>
       <r>   15.9014    0.0000 </r>
       <r>   20.6590    0.0000 </r>
       <r>   26.5793    0.0000 </r>
       <r>   33.5942    0.0000 </r>
       <r>   39.7924    0.0000 </r>
       <r>   43.0494    0.0000 </r>
       <r>   49.3758    0.0000 </r>
      </set>
      <set comment="kpoint 34">
       <r>    4.4172    1.0000 </r>
       <r>    4.5817    1.0000 </r>
       <r>    5.9897    1.0000 </r>
       <r>    9.1015    1.0000 </r>
       <r>    9.9614   -0.0212 </r>
       <r>   17.2158    0.0000 </r>
       <r>   21.4953    0.0000 </r>
       <r>   23.5356    0.0000 </r>
       <r>   36.1714    0.0000 </r>
       <r>   37.5192    0.0000 </r>
       <r>   41.9929    0.0000 </r>
       <r>   49.9430    0.0000 </r>
      </set>
      <set comment="kpoint 35">
       <r>    5.2640    1.0000 </r>
       <r>    5.2640    1.0000 </r>
       <r>    5.2641    1.0000 </r>
       <r>    9.2045    1.0002 </r>
       <r>    9.2045    1.0002 </r>
       <r>   21.0068    0.0000 </r>
       <r>   21.0068    0.0000 </r>
       <r>   21.0069    0.0000 </r>
       <r>   25.1178    0.0000 </r>
       <r>   55.0764    0.0000 </r>
       <r>   55.0764    0.0000 </r>
       <r>   55.0765    0.0000 </r>
      </set>
      <set comment="kpoint 36">
       <r>    3.7210    1.0000 </r>
       <r>    5.4922    1.0000 </r>
       <r>    7.3743    1.0000 </r>
       <r>    7.3743    1.0000 </r>
       <r>    8.5676    1.0000 </r>
       <r>   10.8712   -0.0000 </r>
       <r>   30.7134    0.0000 </r>
       <r>   31.5388    0.0000 </r>
       <r>   31.5388    0.0000 </r>
       <r>   34.1976    0.0000 </r>
       <r>   50.5776    0.0000 </r>
       <r>   50.5776    0.0000 </r>
      </set>
      <set comment="kpoint 37">
       <r>    4.0238    1.0000 </r>
       <r>    4.6274    1.0000 </r>
       <r>    7.4271    1.0000 </r>
       <r>    7.9848    1.0000 </r>
       <r>    9.6660    0.8764 </r>
       <r>   12.8502   -0.0000 </r>
       <r>   26.4029    0.0000 </r>
       <r>   29.1521    0.0000 </r>
       <r>   31.0688    0.0000 </r>
       <r>   34.8044    0.0000 </r>
       <r>   49.2160    0.0000 </r>
       <r>   49.6593    0.0000 </r>
      </set>
      <set comment="kpoint 38">
       <r>    3.7017    1.0000 </r>
       <r>    4.4930    1.0000 </r>
       <r>    7.2891    1.0000 </r>
       <r>    8.2666    1.0000 </r>
       <r>   10.6681   -0.0000 </r>
       <r>   15.8788    0.0000 </r>
       <r>   21.8921    0.0000 </r>
       <r>   27.6827    0.0000 </r>
       <r>   30.7669    0.0000 </r>
       <r>   36.6870    0.0000 </r>
       <r>   45.7987    0.0000 </r>
       <r>   48.8869    0.0000 </r>
      </set>
      <set comment="kpoint 39">
       <r>    3.9041    1.0000 </r>
       <r>    3.9424    1.0000 </r>
       <r>    7.5501    1.0000 </r>
       <r>    8.8511    1.0000 </r>
       <r>   10.1957   -0.0050 </r>
       <r>   15.7411    0.0000 </r>
       <r>   24.3581    0.0000 </r>
       <r>   25.1580    0.0000 </r>
       <r>   32.1168    0.0000 </r>
       <r>   34.2980    0.0000 </r>
       <r>   45.2068    0.0000 </r>
       <r>   50.2082    0.0000 </r>
      </set>
      <set comment="kpoint 40">
       <r>    3.6243    1.0000 </r>
       <r>    3.8959    1.0000 </r>
       <r>    7.4624    1.0000 </r>
       <r>    9.3036    1.0025 </r>
       <r>   10.4583   -0.0000 </r>
       <r>   18.7065    0.0000 </r>
       <r>   21.0495    0.0000 </r>
       <r>   24.1864    0.0000 </r>
       <r>   32.4738    0.0000 </r>
       <r>   34.9288    0.0000 </r>
       <r>   43.1931    0.0000 </r>
       <r>   50.0309    0.0000 </r>
      </set>
      <set comment="kpoint 41">
       <r>    3.6833    1.0000 </r>
       <r>    3.7350    1.0000 </r>
       <r>    8.7461    1.0000 </r>
       <r>    8.7462    1.0000 </r>
       <r>    9.7407    0.6158 </r>
       <r>   15.1515   -0.0000 </r>
       <r>   26.4377    0.0000 </r>
       <r>   26.4378    0.0000 </r>
       <r>   29.7570    0.0000 </r>
       <r>   32.4267    0.0000 </r>
       <r>   45.1797    0.0000 </r>
       <r>   53.4500    0.0000 </r>
      </set>
      <set comment="kpoint 42">
       <r>    3.2063    1.0000 </r>
       <r>    3.3299    1.0000 </r>
       <r>    9.0193    1.0000 </r>
       <r>    9.3360    1.0046 </r>
       <r>   10.5262   -0.0000 </r>
       <r>   18.3429    0.0000 </r>
       <r>   22.7731    0.0000 </r>
       <r>   24.7379    0.0000 </r>
       <r>   30.1664    0.0000 </r>
       <r>   32.5993    0.0000 </r>
       <r>   41.8924    0.0000 </r>
       <r>   53.3481    0.0000 </r>
      </set>
      <set comment="kpoint 43">
       <r>    3.0109    1.0000 </r>
       <r>    3.0109    1.0000 </r>
       <r>    9.1843    1.0001 </r>
       <r>   10.3515   -0.0001 </r>
       <r>   10.3517   -0.0001 </r>
       <r>   21.3915    0.0000 </r>
       <r>   21.3916    0.0000 </r>
       <r>   22.5844    0.0000 </r>
       <r>   31.1683    0.0000 </r>
       <r>   31.1684    0.0000 </r>
       <r>   40.3650    0.0000 </r>
       <r>   53.9267    0.0000 </r>
      </set>
      <set comment="kpoint 44">
       <r>    2.7077    1.0000 </r>
       <r>    2.7370    1.0000 </r>
       <r>   10.3018   -0.0005 </r>
       <r>   10.3019   -0.0005 </r>
       <r>   10.4864   -0.0000 </r>
       <r>   20.8361    0.0000 </r>
       <r>   22.8377    0.0000 </r>
       <r>   22.8378    0.0000 </r>
       <r>   29.3182    0.0000 </r>
       <r>   30.3465    0.0000 </r>
       <r>   39.2223    0.0000 </r>
       <r>   55.6131    0.0000 </r>
      </set>
     </set>
     <set comment="spin 2">
      <set comment="kpoint 1">
       <r>    0.3001    1.0000 </r>
       <r>    7.6614    1.0000 </r>
       <r>    7.6614    1.0000 </r>
       <r>    8.5488    1.0000 </r>
       <r>   10.6533   -0.0000 </r>
       <r>   10.6533   -0.0000 </r>
       <r>   35.9034    0.0000 </r>
       <r>   35.9034    0.0000 </r>
       <r>   38.3855    0.0000 </r>
       <r>   45.0975    0.0000 </r>
       <r>   46.5359    0.0000 </r>
       <r>   46.5359    0.0000 </r>
      </set>
      <set comment="kpoint 2">
       <r>    1.7077    1.0000 </r>
       <r>    7.1180    1.0000 </r>
       <r>    7.3717    1.0000 </r>
       <r>    9.6650    0.8791 </r>
       <r>   10.3892   -0.0001 </r>
       <r>   10.8104   -0.0000 </r>
       <r>   32.2240    0.0000 </r>
       <r>   34.2245    0.0000 </r>
       <r>   39.2993    0.0000 </r>
       <r>   40.8338    0.0000 </r>
       <r>   46.6103    0.0000 </r>
       <r>   48.0371    0.0000 </r>
      </set>
      <set comment="kpoint 3">
       <r>    3.3084    1.0000 </r>
       <r>    6.5279    1.0000 </r>
       <r>    7.3677    1.0000 </r>
       <r>   10.4366   -0.0000 </r>
       <r>   10.9910   -0.0000 </r>
       <r>   11.1677   -0.0000 </r>
       <r>   27.7377    0.0000 </r>
       <r>   32.2265    0.0000 </r>
       <r>   37.5723    0.0000 </r>
       <r>   39.8868    0.0000 </r>
       <r>   46.7338    0.0000 </r>
       <r>   48.8433    0.0000 </r>
      </set>
      <set comment="kpoint 4">
       <r>    3.8626    1.0000 </r>
       <r>    6.0950    1.0000 </r>
       <r>    8.6474    1.0000 </r>
       <r>   10.6432   -0.0000 </r>
       <r>   11.1486   -0.0000 </r>
       <r>   12.6914   -0.0000 </r>
       <r>   23.5373    0.0000 </r>
       <r>   30.6727    0.0000 </r>
       <r>   35.3420    0.0000 </r>
       <r>   40.1065    0.0000 </r>
       <r>   46.4618    0.0000 </r>
       <r>   51.0189    0.0000 </r>
      </set>
      <set comment="kpoint 5">
       <r>    3.8416    1.0000 </r>
       <r>    5.9379    1.0000 </r>
       <r>    9.6508    0.9145 </r>
       <r>   10.7266   -0.0000 </r>
       <r>   11.2140   -0.0000 </r>
       <r>   13.5219   -0.0000 </r>
       <r>   21.5093    0.0000 </r>
       <r>   30.0934    0.0000 </r>
       <r>   34.5008    0.0000 </r>
       <r>   40.1622    0.0000 </r>
       <r>   46.5791    0.0000 </r>
       <r>   50.4207    0.0000 </r>
      </set>
      <set comment="kpoint 6">
       <r>   -0.2210    1.0000 </r>
       <r>    7.8931    1.0000 </r>
       <r>    7.8931    1.0000 </r>
       <r>    7.9968    1.0000 </r>
       <r>   10.5838   -0.0000 </r>
       <r>   10.8505   -0.0000 </r>
       <r>   36.6728    0.0000 </r>
       <r>   37.7764    0.0000 </r>
       <r>   37.7764    0.0000 </r>
       <r>   44.3120    0.0000 </r>
       <r>   47.3725    0.0000 </r>
       <r>   48.9780    0.0000 </r>
      </set>
      <set comment="kpoint 7">
       <r>    3.2597    1.0000 </r>
       <r>    6.7150    1.0000 </r>
       <r>    6.7400    1.0000 </r>
       <r>   10.4036   -0.0000 </r>
       <r>   10.9627   -0.0000 </r>
       <r>   11.2479   -0.0000 </r>
       <r>   29.7813    0.0000 </r>
       <r>   30.9351    0.0000 </r>
       <r>   36.5690    0.0000 </r>
       <r>   40.9192    0.0000 </r>
       <r>   47.6601    0.0000 </r>
       <r>   49.9523    0.0000 </r>
      </set>
      <set comment="kpoint 8">
       <r>    4.4542    1.0000 </r>
       <r>    6.2054    1.0000 </r>
       <r>    6.9982    1.0000 </r>
       <r>   10.5477   -0.0000 </r>
       <r>   11.1728   -0.0000 </r>
       <r>   13.1695   -0.0000 </r>
       <r>   25.7568    0.0000 </r>
       <r>   28.8592    0.0000 </r>
       <r>   33.9234    0.0000 </r>
       <r>   41.9106    0.0000 </r>
       <r>   48.3557    0.0000 </r>
       <r>   50.7660    0.0000 </r>
      </set>
      <set comment="kpoint 9">
       <r>    4.5186    1.0000 </r>
       <r>    5.9600    1.0000 </r>
       <r>    8.0535    1.0000 </r>
       <r>   10.7514   -0.0000 </r>
       <r>   11.2739   -0.0000 </r>
       <r>   15.1059   -0.0000 </r>
       <r>   22.1165    0.0000 </r>
       <r>   27.8370    0.0000 </r>
       <r>   32.6056    0.0000 </r>
       <r>   42.2303    0.0000 </r>
       <r>   49.0755    0.0000 </r>
       <r>   50.7068    0.0000 </r>
      </set>
      <set comment="kpoint 10">
       <r>    0.7967    1.0000 </r>
       <r>    7.5493    1.0000 </r>
       <r>    7.8030    1.0000 </r>
       <r>    8.6766    1.0000 </r>
       <r>   10.1505   -0.0106 </r>
       <r>   10.9708   -0.0000 </r>
       <r>   34.1418    0.0000 </r>
       <r>   36.7107    0.0000 </r>
       <r>   37.9179    0.0000 </r>
       <r>   43.3405    0.0000 </r>
       <r>   45.6312    0.0000 </r>
       <r>   46.4860    0.0000 </r>
      </set>
      <set comment="kpoint 11">
       <r>    5.1749    1.0000 </r>
       <r>    6.0881    1.0000 </r>
       <r>    6.9372    1.0000 </r>
       <r>   10.7311   -0.0000 </r>
       <r>   11.2487   -0.0000 </r>
       <r>   15.7901    0.0000 </r>
       <r>   23.6548    0.0000 </r>
       <r>   25.3262    0.0000 </r>
       <r>   32.3094    0.0000 </r>
       <r>   43.5351    0.0000 </r>
       <r>   47.5707    0.0000 </r>
       <r>   55.0164    0.0000 </r>
      </set>
      <set comment="kpoint 12">
       <r>    5.2331    1.0000 </r>
       <r>    6.1342    1.0000 </r>
       <r>    7.0785    1.0000 </r>
       <r>   10.9107   -0.0000 </r>
       <r>   11.1918   -0.0000 </r>
       <r>   18.0177    0.0000 </r>
       <r>   21.1089    0.0000 </r>
       <r>   24.4282    0.0000 </r>
       <r>   31.8647    0.0000 </r>
       <r>   44.3466    0.0000 </r>
       <r>   47.0251    0.0000 </r>
       <r>   55.4237    0.0000 </r>
      </set>
      <set comment="kpoint 13">
       <r>    2.4412    1.0000 </r>
       <r>    6.9777    1.0000 </r>
       <r>    7.5769    1.0000 </r>
       <r>    9.9317    0.0058 </r>
       <r>   10.0354   -0.0338 </r>
       <r>   11.1120   -0.0000 </r>
       <r>   30.0619    0.0000 </r>
       <r>   34.3551    0.0000 </r>
       <r>   37.7607    0.0000 </r>
       <r>   42.4081    0.0000 </r>
       <r>   44.2328    0.0000 </r>
       <r>   45.9136    0.0000 </r>
      </set>
      <set comment="kpoint 14">
       <r>    2.1316    1.0000 </r>
       <r>    7.3890    1.0000 </r>
       <r>    7.4291    1.0000 </r>
       <r>    9.6046    0.9946 </r>
       <r>    9.6966    0.7830 </r>
       <r>   11.2438   -0.0000 </r>
       <r>   31.8995    0.0000 </r>
       <r>   33.8750    0.0000 </r>
       <r>   38.1936    0.0000 </r>
       <r>   41.4444    0.0000 </r>
       <r>   43.7417    0.0000 </r>
       <r>   47.9334    0.0000 </r>
      </set>
      <set comment="kpoint 15">
       <r>    3.6008    1.0000 </r>
       <r>    6.4409    1.0000 </r>
       <r>    8.1196    1.0000 </r>
       <r>   10.3445   -0.0002 </r>
       <r>   11.3429   -0.0000 </r>
       <r>   11.3496   -0.0000 </r>
       <r>   25.5243    0.0000 </r>
       <r>   32.2626    0.0000 </r>
       <r>   36.5507    0.0000 </r>
       <r>   40.7287    0.0000 </r>
       <r>   44.4943    0.0000 </r>
       <r>   47.8054    0.0000 </r>
      </set>
      <set comment="kpoint 16">
       <r>    3.6636    1.0000 </r>
       <r>    6.7976    1.0000 </r>
       <r>    7.2798    1.0000 </r>
       <r>    9.8075    0.3379 </r>
       <r>   10.9386   -0.0000 </r>
       <r>   11.6951   -0.0000 </r>
       <r>   28.0240    0.0000 </r>
       <r>   31.2222    0.0000 </r>
       <r>   37.2626    0.0000 </r>
       <r>   40.1875    0.0000 </r>
       <r>   44.2769    0.0000 </r>
       <r>   48.7033    0.0000 </r>
      </set>
      <set comment="kpoint 17">
       <r>    3.7383    1.0000 </r>
       <r>    6.1245    1.0000 </r>
       <r>    9.3711    1.0084 </r>
       <r>   10.5590   -0.0000 </r>
       <r>   11.9689   -0.0000 </r>
       <r>   12.3376   -0.0000 </r>
       <r>   22.0929    0.0000 </r>
       <r>   31.0616    0.0000 </r>
       <r>   35.2149    0.0000 </r>
       <r>   40.3084    0.0000 </r>
       <r>   45.0165    0.0000 </r>
       <r>   48.4799    0.0000 </r>
      </set>
      <set comment="kpoint 18">
       <r>    4.2258    1.0000 </r>
       <r>    6.4251    1.0000 </r>
       <r>    7.8256    1.0000 </r>
       <r>   10.2234   -0.0030 </r>
       <r>   11.5289   -0.0000 </r>
       <r>   13.2681   -0.0000 </r>
       <r>   23.7169    0.0000 </r>
       <r>   29.7053    0.0000 </r>
       <r>   35.3550    0.0000 </r>
       <r>   40.5911    0.0000 </r>
       <r>   45.0828    0.0000 </r>
       <r>   48.6511    0.0000 </r>
      </set>
      <set comment="kpoint 19">
       <r>    4.7939    1.0000 </r>
       <r>    6.2623    1.0000 </r>
       <r>    7.2136    1.0000 </r>
       <r>    9.9873   -0.0324 </r>
       <r>   11.3059   -0.0000 </r>
       <r>   13.7005   -0.0000 </r>
       <r>   25.8402    0.0000 </r>
       <r>   27.0942    0.0000 </r>
       <r>   37.2673    0.0000 </r>
       <r>   38.9384    0.0000 </r>
       <r>   44.0714    0.0000 </r>
       <r>   53.1995    0.0000 </r>
      </set>
      <set comment="kpoint 20">
       <r>    4.1955    1.0000 </r>
       <r>    6.3042    1.0000 </r>
       <r>    8.2827    1.0000 </r>
       <r>   10.3432   -0.0002 </r>
       <r>   11.8624   -0.0000 </r>
       <r>   14.4762   -0.0000 </r>
       <r>   21.4961    0.0000 </r>
       <r>   29.1503    0.0000 </r>
       <r>   34.5899    0.0000 </r>
       <r>   40.8283    0.0000 </r>
       <r>   45.7006    0.0000 </r>
       <r>   48.1858    0.0000 </r>
      </set>
      <set comment="kpoint 21">
       <r>    5.0839    1.0000 </r>
       <r>    6.2696    1.0000 </r>
       <r>    7.1439    1.0000 </r>
       <r>   10.3836   -0.0001 </r>
       <r>   11.3931   -0.0000 </r>
       <r>   16.3466    0.0000 </r>
       <r>   22.2218    0.0000 </r>
       <r>   25.6274    0.0000 </r>
       <r>   36.2618    0.0000 </r>
       <r>   40.1166    0.0000 </r>
       <r>   43.4362    0.0000 </r>
       <r>   53.1891    0.0000 </r>
      </set>
      <set comment="kpoint 22">
       <r>    5.7467    1.0000 </r>
       <r>    6.3494    1.0000 </r>
       <r>    6.3494    1.0000 </r>
       <r>   10.9248   -0.0000 </r>
       <r>   10.9249   -0.0000 </r>
       <r>   19.8308    0.0000 </r>
       <r>   19.8308    0.0000 </r>
       <r>   23.5712    0.0000 </r>
       <r>   36.8062    0.0000 </r>
       <r>   41.2818    0.0000 </r>
       <r>   41.2819    0.0000 </r>
       <r>   53.9765    0.0000 </r>
      </set>
      <set comment="kpoint 23">
       <r>    4.8187    1.0000 </r>
       <r>    6.1903    1.0000 </r>
       <r>    6.1903    1.0000 </r>
       <r>   10.9034   -0.0000 </r>
       <r>   10.9034   -0.0000 </r>
       <r>   13.2311   -0.0000 </r>
       <r>   27.9231    0.0000 </r>
       <r>   27.9231    0.0000 </r>
       <r>   31.8039    0.0000 </r>
       <r>   43.9219    0.0000 </r>
       <r>   50.8155    0.0000 </r>
       <r>   50.8155    0.0000 </r>
      </set>
      <set comment="kpoint 24">
       <r>    5.3376    1.0000 </r>
       <r>    5.8964    1.0000 </r>
       <r>    6.7727    1.0000 </r>
       <r>   10.9825   -0.0000 </r>
       <r>   11.1770   -0.0000 </r>
       <r>   15.5640    0.0000 </r>
       <r>   24.0316    0.0000 </r>
       <r>   26.6788    0.0000 </r>
       <r>   29.3825    0.0000 </r>
       <r>   45.8264    0.0000 </r>
       <r>   51.7737    0.0000 </r>
       <r>   52.7845    0.0000 </r>
      </set>
      <set comment="kpoint 25">
       <r>    5.1924    1.0000 </r>
       <r>    5.8036    1.0000 </r>
       <r>    7.4297    1.0000 </r>
       <r>   11.0397   -0.0000 </r>
       <r>   11.2582   -0.0000 </r>
       <r>   17.3333    0.0000 </r>
       <r>   21.4638    0.0000 </r>
       <r>   26.2368    0.0000 </r>
       <r>   28.6983    0.0000 </r>
       <r>   46.1921    0.0000 </r>
       <r>   52.5087    0.0000 </r>
       <r>   53.3924    0.0000 </r>
      </set>
      <set comment="kpoint 26">
       <r>    1.7344    1.0000 </r>
       <r>    7.9414    1.0000 </r>
       <r>    7.9415    1.0000 </r>
       <r>    8.6919    1.0000 </r>
       <r>    9.1829    1.0001 </r>
       <r>   11.3744   -0.0000 </r>
       <r>   33.2900    0.0000 </r>
       <r>   36.6687    0.0000 </r>
       <r>   36.6688    0.0000 </r>
       <r>   38.7261    0.0000 </r>
       <r>   47.0103    0.0000 </r>
       <r>   47.0103    0.0000 </r>
      </set>
      <set comment="kpoint 27">
       <r>    5.6103    1.0000 </r>
       <r>    6.1032    1.0000 </r>
       <r>    6.6346    1.0000 </r>
       <r>   11.1589   -0.0000 </r>
       <r>   11.2475   -0.0000 </r>
       <r>   18.5002    0.0000 </r>
       <r>   22.2079    0.0000 </r>
       <r>   24.0309    0.0000 </r>
       <r>   27.6528    0.0000 </r>
       <r>   49.0202    0.0000 </r>
       <r>   51.5444    0.0000 </r>
       <r>   55.9353    0.0000 </r>
      </set>
      <set comment="kpoint 28">
       <r>    3.2258    1.0000 </r>
       <r>    7.5621    1.0000 </r>
       <r>    7.6586    1.0000 </r>
       <r>    8.9400    1.0000 </r>
       <r>    9.7668    0.5067 </r>
       <r>   11.7494   -0.0000 </r>
       <r>   30.6034    0.0000 </r>
       <r>   33.7742    0.0000 </r>
       <r>   34.8215    0.0000 </r>
       <r>   38.7171    0.0000 </r>
       <r>   46.3735    0.0000 </r>
       <r>   47.8313    0.0000 </r>
      </set>
      <set comment="kpoint 29">
       <r>    4.3064    1.0000 </r>
       <r>    7.0888    1.0000 </r>
       <r>    7.2190    1.0000 </r>
       <r>    9.5941    1.0061 </r>
       <r>   11.2087   -0.0000 </r>
       <r>   12.5869   -0.0000 </r>
       <r>   26.0524    0.0000 </r>
       <r>   32.1196    0.0000 </r>
       <r>   32.8983    0.0000 </r>
       <r>   40.2986    0.0000 </r>
       <r>   45.1910    0.0000 </r>
       <r>   48.1045    0.0000 </r>
      </set>
      <set comment="kpoint 30">
       <r>    4.4468    1.0000 </r>
       <r>    6.6938    1.0000 </r>
       <r>    7.8507    1.0000 </r>
       <r>    9.0807    1.0000 </r>
       <r>   10.7362   -0.0000 </r>
       <r>   12.6513   -0.0000 </r>
       <r>   28.5743    0.0000 </r>
       <r>   29.6342    0.0000 </r>
       <r>   35.0680    0.0000 </r>
       <r>   37.2422    0.0000 </r>
       <r>   45.9406    0.0000 </r>
       <r>   51.6032    0.0000 </r>
      </set>
      <set comment="kpoint 31">
       <r>    4.3933    1.0000 </r>
       <r>    6.9462    1.0000 </r>
       <r>    7.3888    1.0000 </r>
       <r>    9.8319    0.2457 </r>
       <r>   12.2400   -0.0000 </r>
       <r>   14.3690   -0.0000 </r>
       <r>   22.2294    0.0000 </r>
       <r>   31.2864    0.0000 </r>
       <r>   31.5796    0.0000 </r>
       <r>   42.1752    0.0000 </r>
       <r>   44.5192    0.0000 </r>
       <r>   47.1066    0.0000 </r>
      </set>
      <set comment="kpoint 32">
       <r>    5.0066    1.0000 </r>
       <r>    6.2656    1.0000 </r>
       <r>    7.5370    1.0000 </r>
       <r>    9.7012    0.7671 </r>
       <r>   11.5719   -0.0000 </r>
       <r>   14.8102   -0.0000 </r>
       <r>   24.3251    0.0000 </r>
       <r>   27.7181    0.0000 </r>
       <r>   34.4130    0.0000 </r>
       <r>   38.5492    0.0000 </r>
       <r>   44.6896    0.0000 </r>
       <r>   51.1227    0.0000 </r>
      </set>
      <set comment="kpoint 33">
       <r>    4.9199    1.0000 </r>
       <r>    6.5376    1.0000 </r>
       <r>    7.2108    1.0000 </r>
       <r>    9.8938    0.0682 </r>
       <r>   11.9802   -0.0000 </r>
       <r>   16.8031    0.0000 </r>
       <r>   21.5311    0.0000 </r>
       <r>   27.1055    0.0000 </r>
       <r>   33.9582    0.0000 </r>
       <r>   40.0173    0.0000 </r>
       <r>   43.5105    0.0000 </r>
       <r>   49.9937    0.0000 </r>
      </set>
      <set comment="kpoint 34">
       <r>    5.6773    1.0000 </r>
       <r>    5.7230    1.0000 </r>
       <r>    7.0725    1.0000 </r>
       <r>   10.5068   -0.0000 </r>
       <r>   11.4059   -0.0000 </r>
       <r>   18.1234    0.0000 </r>
       <r>   22.2956    0.0000 </r>
       <r>   24.1251    0.0000 </r>
       <r>   36.4981    0.0000 </r>
       <r>   37.8166    0.0000 </r>
       <r>   42.4539    0.0000 </r>
       <r>   50.6451    0.0000 </r>
      </set>
      <set comment="kpoint 35">
       <r>    6.1395    1.0000 </r>
       <r>    6.1395    1.0000 </r>
       <r>    6.1395    1.0000 </r>
       <r>   11.2835   -0.0000 </r>
       <r>   11.2835   -0.0000 </r>
       <r>   21.7059    0.0000 </r>
       <r>   21.7059    0.0000 </r>
       <r>   21.7059    0.0000 </r>
       <r>   25.6508    0.0000 </r>
       <r>   54.9851    0.0000 </r>
       <r>   54.9851    0.0000 </r>
       <r>   54.9851    0.0000 </r>
      </set>
      <set comment="kpoint 36">
       <r>    4.2970    1.0000 </r>
       <r>    7.0578    1.0000 </r>
       <r>    8.5325    1.0000 </r>
       <r>    8.5325    1.0000 </r>
       <r>    9.8676    0.1320 </r>
       <r>   12.5302   -0.0000 </r>
       <r>   31.3035    0.0000 </r>
       <r>   32.0083    0.0000 </r>
       <r>   32.0084    0.0000 </r>
       <r>   34.5606    0.0000 </r>
       <r>   50.9752    0.0000 </r>
       <r>   50.9752    0.0000 </r>
      </set>
      <set comment="kpoint 37">
       <r>    4.9536    1.0000 </r>
       <r>    6.0310    1.0000 </r>
       <r>    8.5903    1.0000 </r>
       <r>    9.2334    1.0005 </r>
       <r>   11.0189   -0.0000 </r>
       <r>   14.0664   -0.0000 </r>
       <r>   27.0293    0.0000 </r>
       <r>   29.6096    0.0000 </r>
       <r>   31.6239    0.0000 </r>
       <r>   35.1907    0.0000 </r>
       <r>   49.8606    0.0000 </r>
       <r>   50.0209    0.0000 </r>
      </set>
      <set comment="kpoint 38">
       <r>    4.9021    1.0000 </r>
       <r>    5.7495    1.0000 </r>
       <r>    8.4452    1.0000 </r>
       <r>    9.5644    1.0271 </r>
       <r>   12.0891   -0.0000 </r>
       <r>   16.7616    0.0000 </r>
       <r>   22.6417    0.0000 </r>
       <r>   28.1005    0.0000 </r>
       <r>   31.3374    0.0000 </r>
       <r>   37.0145    0.0000 </r>
       <r>   46.5344    0.0000 </r>
       <r>   49.2345    0.0000 </r>
      </set>
      <set comment="kpoint 39">
       <r>    5.0883    1.0000 </r>
       <r>    5.2548    1.0000 </r>
       <r>    8.7143    1.0000 </r>
       <r>   10.1232   -0.0154 </r>
       <r>   11.5901   -0.0000 </r>
       <r>   16.6400    0.0000 </r>
       <r>   25.0102    0.0000 </r>
       <r>   25.6536    0.0000 </r>
       <r>   32.6514    0.0000 </r>
       <r>   34.7084    0.0000 </r>
       <r>   45.9148    0.0000 </r>
       <r>   50.6066    0.0000 </r>
      </set>
      <set comment="kpoint 40">
       <r>    4.9061    1.0000 </r>
       <r>    5.1635    1.0000 </r>
       <r>    8.5993    1.0000 </r>
       <r>   10.6181   -0.0000 </r>
       <r>   11.8636   -0.0000 </r>
       <r>   19.4460    0.0000 </r>
       <r>   21.7592    0.0000 </r>
       <r>   24.6951    0.0000 </r>
       <r>   32.9827    0.0000 </r>
       <r>   35.3214    0.0000 </r>
       <r>   43.9608    0.0000 </r>
       <r>   50.4241    0.0000 </r>
      </set>
      <set comment="kpoint 41">
       <r>    4.8212    1.0000 </r>
       <r>    5.1187    1.0000 </r>
       <r>    9.9695   -0.0257 </r>
       <r>    9.9695   -0.0257 </r>
       <r>   11.1076   -0.0000 </r>
       <r>   16.0344    0.0000 </r>
       <r>   26.8568    0.0000 </r>
       <r>   26.8569    0.0000 </r>
       <r>   30.5373    0.0000 </r>
       <r>   32.9310    0.0000 </r>
       <r>   45.9195    0.0000 </r>
       <r>   53.7016    0.0000 </r>
      </set>
      <set comment="kpoint 42">
       <r>    4.5059    1.0000 </r>
       <r>    4.5976    1.0000 </r>
       <r>   10.2806   -0.0009 </r>
       <r>   10.6076   -0.0000 </r>
       <r>   11.9391   -0.0000 </r>
       <r>   18.9900    0.0000 </r>
       <r>   23.2826    0.0000 </r>
       <r>   25.0940    0.0000 </r>
       <r>   30.9076    0.0000 </r>
       <r>   33.1293    0.0000 </r>
       <r>   42.7113    0.0000 </r>
       <r>   53.6161    0.0000 </r>
      </set>
      <set comment="kpoint 43">
       <r>    4.2984    1.0000 </r>
       <r>    4.2984    1.0000 </r>
       <r>   10.4468   -0.0000 </r>
       <r>   11.7358   -0.0000 </r>
       <r>   11.7358   -0.0000 </r>
       <r>   21.8777    0.0000 </r>
       <r>   21.8778    0.0000 </r>
       <r>   22.9722    0.0000 </r>
       <r>   31.8202    0.0000 </r>
       <r>   31.8202    0.0000 </r>
       <r>   41.2229    0.0000 </r>
       <r>   54.1880    0.0000 </r>
      </set>
      <set comment="kpoint 44">
       <r>    4.0015    1.0000 </r>
       <r>    4.0125    1.0000 </r>
       <r>   11.6795   -0.0000 </r>
       <r>   11.6795   -0.0000 </r>
       <r>   11.9007   -0.0000 </r>
       <r>   21.2178    0.0000 </r>
       <r>   23.0990    0.0000 </r>
       <r>   23.0991    0.0000 </r>
       <r>   30.2082    0.0000 </r>
       <r>   31.0966    0.0000 </r>
       <r>   40.1013    0.0000 </r>
       <r>   55.7874    0.0000 </r>
      </set>
     </set>
    </set>
   </array>
  </eigenvalues>
  <separator name="orbital magnetization" >
   <v name="MAGDIPOLOUT">      0.00000000      0.00000000      0.00000000</v>
  </separator>
  <dos>
   <i name="efermi">      9.76833382 </i>
   <total>
    <array>
     <dimension dim="1">gridpoints</dimension>
     <dimension dim="2">spin</dimension>
     <field>energy</field>
     <field>total</field>
     <field>integrated</field>
     <set>
      <set comment="spin 1">
       <r>    -3.2240     0.0000     0.0000 </r>
       <r>    -3.0174     0.0000     0.0000 </r>
       <r>    -2.8108     0.0000     0.0000 </r>
       <r>    -2.6042     0.0000     0.0000 </r>
       <r>    -2.3976     0.0000     0.0000 </r>
       <r>    -2.1911    -0.0000    -0.0000 </r>
       <r>    -1.9845    -0.0000    -0.0000 </r>
       <r>    -1.7779    -0.0000    -0.0000 </r>
       <r>    -1.5713    -0.0000    -0.0000 </r>
       <r>    -1.3647    -0.0000    -0.0000 </r>
       <r>    -1.1581    -0.0000    -0.0000 </r>
       <r>    -0.9515    -0.0000    -0.0000 </r>
       <r>    -0.7449    -0.0005    -0.0001 </r>
       <r>    -0.5383     0.0022     0.0003 </r>
       <r>    -0.3318     0.0213     0.0047 </r>
       <r>    -0.1252     0.0057     0.0059 </r>
       <r>     0.0814     0.0152     0.0090 </r>
       <r>     0.2880     0.0214     0.0135 </r>
       <r>     0.4946     0.0173     0.0170 </r>
       <r>     0.7012     0.0877     0.0351 </r>
       <r>     0.9078     0.0167     0.0386 </r>
       <r>     1.1144    -0.0045     0.0377 </r>
       <r>     1.3209     0.0018     0.0380 </r>
       <r>     1.5275     0.0939     0.0574 </r>
       <r>     1.7341     0.0583     0.0695 </r>
       <r>     1.9407     0.0753     0.0850 </r>
       <r>     2.1473     0.0983     0.1054 </r>
       <r>     2.3539     0.0542     0.1166 </r>
       <r>     2.5605    -0.0136     0.1137 </r>
       <r>     2.7671     0.0838     0.1311 </r>
       <r>     2.9736     0.4948     0.2333 </r>
       <r>     3.1802     0.4919     0.3349 </r>
       <r>     3.3868     0.5193     0.4422 </r>
       <r>     3.5934     0.4387     0.5328 </r>
       <r>     3.8000     0.6819     0.6737 </r>
       <r>     4.0066     0.7655     0.8318 </r>
       <r>     4.2132     0.5387     0.9431 </r>
       <r>     4.4198     0.3892     1.0235 </r>
       <r>     4.6263     0.4290     1.1121 </r>
       <r>     4.8329     0.2882     1.1717 </r>
       <r>     5.0395     0.7393     1.3244 </r>
       <r>     5.2461     1.2467     1.5820 </r>
       <r>     5.4527     0.7600     1.7390 </r>
       <r>     5.6593     0.3702     1.8154 </r>
       <r>     5.8659     0.4556     1.9096 </r>
       <r>     6.0725     0.8285     2.0807 </r>
       <r>     6.2791     1.3606     2.3618 </r>
       <r>     6.4856     0.7901     2.5250 </r>
       <r>     6.6922     0.4736     2.6229 </r>
       <r>     6.8988     0.3623     2.6977 </r>
       <r>     7.1054     0.0909     2.7165 </r>
       <r>     7.3120     0.4622     2.8120 </r>
       <r>     7.5186     0.6062     2.9372 </r>
       <r>     7.7252     0.2524     2.9894 </r>
       <r>     7.9318     0.1463     3.0196 </r>
       <r>     8.1383     0.4411     3.1107 </r>
       <r>     8.3449     0.9488     3.3068 </r>
       <r>     8.5515     0.9036     3.4934 </r>
       <r>     8.7581     1.1024     3.7212 </r>
       <r>     8.9647     1.2558     3.9806 </r>
       <r>     9.1713     1.4537     4.2809 </r>
       <r>     9.3779     1.3984     4.5698 </r>
       <r>     9.5845     0.4627     4.6654 </r>
       <r>     9.7910     0.4020     4.7484 </r>
       <r>     9.9976     0.8023     4.9142 </r>
       <r>    10.2042     0.6071     5.0396 </r>
       <r>    10.4108     0.3636     5.1147 </r>
       <r>    10.6174     0.3462     5.1863 </r>
       <r>    10.8240     0.2936     5.2469 </r>
       <r>    11.0306     0.2812     5.3050 </r>
       <r>    11.2372     0.1554     5.3371 </r>
       <r>    11.4437     0.0450     5.3464 </r>
       <r>    11.6503     0.0683     5.3605 </r>
       <r>    11.8569     0.0174     5.3641 </r>
       <r>    12.0635     0.3222     5.4307 </r>
       <r>    12.2701     0.1813     5.4681 </r>
       <r>    12.4767     0.0733     5.4833 </r>
       <r>    12.6833     0.0953     5.5030 </r>
       <r>    12.8899     0.0732     5.5181 </r>
       <r>    13.0964     0.0374     5.5258 </r>
       <r>    13.3030     0.0444     5.5350 </r>
       <r>    13.5096     0.1399     5.5639 </r>
       <r>    13.7162     0.1961     5.6044 </r>
       <r>    13.9228     0.0869     5.6224 </r>
       <r>    14.1294     0.1110     5.6453 </r>
       <r>    14.3360     0.1218     5.6705 </r>
       <r>    14.5426     0.0511     5.6810 </r>
       <r>    14.7492     0.1111     5.7040 </r>
       <r>    14.9557     0.0678     5.7180 </r>
       <r>    15.1623     0.0114     5.7203 </r>
       <r>    15.3689     0.1407     5.7494 </r>
       <r>    15.5755     0.1115     5.7724 </r>
       <r>    15.7821     0.1026     5.7936 </r>
       <r>    15.9887     0.2164     5.8383 </r>
       <r>    16.1953     0.0325     5.8450 </r>
       <r>    16.4019     0.0015     5.8454 </r>
       <r>    16.6084     0.0438     5.8544 </r>
       <r>    16.8150     0.0066     5.8558 </r>
       <r>    17.0216     0.0016     5.8561 </r>
       <r>    17.2282     0.1484     5.8868 </r>
       <r>    17.4348     0.0872     5.9048 </r>
       <r>    17.6414     0.0432     5.9137 </r>
       <r>    17.8480     0.0707     5.9283 </r>
       <r>    18.0546    -0.0037     5.9275 </r>
       <r>    18.2611     0.0234     5.9323 </r>
       <r>    18.4677     0.0829     5.9495 </r>
       <r>    18.6743     0.0549     5.9608 </r>
       <r>    18.8809     0.0860     5.9786 </r>
       <r>    19.0875     0.0589     5.9908 </r>
       <r>    19.2941     0.0077     5.9924 </r>
       <r>    19.5007    -0.0017     5.9920 </r>
       <r>    19.7073    -0.0001     5.9920 </r>
       <r>    19.9138    -0.0016     5.9917 </r>
       <r>    20.1204     0.0021     5.9921 </r>
       <r>    20.3270     0.0713     6.0068 </r>
       <r>    20.5336     0.1438     6.0365 </r>
       <r>    20.7402     0.2260     6.0832 </r>
       <r>    20.9468     0.0655     6.0968 </r>
       <r>    21.1534     0.1816     6.1343 </r>
       <r>    21.3600     0.4640     6.2301 </r>
       <r>    21.5666     0.4506     6.3232 </r>
       <r>    21.7731     0.0637     6.3364 </r>
       <r>    21.9797     0.0761     6.3521 </r>
       <r>    22.1863     0.0218     6.3566 </r>
       <r>    22.3929    -0.0078     6.3550 </r>
       <r>    22.5995     0.0245     6.3601 </r>
       <r>    22.8061     0.2459     6.4109 </r>
       <r>    23.0127     0.3930     6.4920 </r>
       <r>    23.2193     0.0699     6.5065 </r>
       <r>    23.4258     0.1661     6.5408 </r>
       <r>    23.6324     0.3234     6.6076 </r>
       <r>    23.8390     0.1547     6.6396 </r>
       <r>    24.0456     0.0469     6.6493 </r>
       <r>    24.2522     0.0958     6.6691 </r>
       <r>    24.4588     0.1098     6.6918 </r>
       <r>    24.6654     0.0734     6.7069 </r>
       <r>    24.8720     0.2392     6.7563 </r>
       <r>    25.0785     0.3608     6.8309 </r>
       <r>    25.2851     0.4344     6.9206 </r>
       <r>    25.4917     0.0850     6.9382 </r>
       <r>    25.6983     0.0257     6.9435 </r>
       <r>    25.9049     0.0283     6.9493 </r>
       <r>    26.1115     0.0360     6.9568 </r>
       <r>    26.3181     0.0995     6.9774 </r>
       <r>    26.5247     0.2122     7.0212 </r>
       <r>    26.7312     0.1772     7.0578 </r>
       <r>    26.9378    -0.0105     7.0556 </r>
       <r>    27.1444     0.1969     7.0963 </r>
       <r>    27.3510     0.4467     7.1886 </r>
       <r>    27.5576     0.3779     7.2667 </r>
       <r>    27.7642     0.0996     7.2872 </r>
       <r>    27.9708     0.0936     7.3066 </r>
       <r>    28.1774     0.0557     7.3181 </r>
       <r>    28.3839     0.1322     7.3454 </r>
       <r>    28.5905     0.1398     7.3743 </r>
       <r>    28.7971     0.1010     7.3951 </r>
       <r>    29.0037     0.1227     7.4205 </r>
       <r>    29.2103     0.2431     7.4707 </r>
       <r>    29.4169     0.3601     7.5451 </r>
       <r>    29.6235     0.1172     7.5693 </r>
       <r>    29.8301     0.0530     7.5803 </r>
       <r>    30.0367     0.0948     7.5999 </r>
       <r>    30.2432     0.1601     7.6329 </r>
       <r>    30.4498     0.1407     7.6620 </r>
       <r>    30.6564     0.1561     7.6942 </r>
       <r>    30.8630     0.3319     7.7628 </r>
       <r>    31.0696     0.3632     7.8378 </r>
       <r>    31.2762     0.2300     7.8854 </r>
       <r>    31.4828     0.1867     7.9239 </r>
       <r>    31.6894     0.1531     7.9556 </r>
       <r>    31.8959     0.2630     8.0099 </r>
       <r>    32.1025     0.3554     8.0833 </r>
       <r>    32.3091     0.2919     8.1436 </r>
       <r>    32.5157     0.2116     8.1873 </r>
       <r>    32.7223     0.1574     8.2198 </r>
       <r>    32.9289     0.0117     8.2223 </r>
       <r>    33.1355     0.0070     8.2237 </r>
       <r>    33.3421     0.0527     8.2346 </r>
       <r>    33.5486     0.3687     8.3108 </r>
       <r>    33.7552     0.1742     8.3467 </r>
       <r>    33.9618     0.1802     8.3840 </r>
       <r>    34.1684     0.4026     8.4671 </r>
       <r>    34.3750     0.3280     8.5349 </r>
       <r>    34.5816     0.1084     8.5573 </r>
       <r>    34.7882     0.2251     8.6038 </r>
       <r>    34.9948     0.4129     8.6891 </r>
       <r>    35.2013     0.1787     8.7260 </r>
       <r>    35.4079    -0.0083     8.7243 </r>
       <r>    35.6145    -0.0091     8.7224 </r>
       <r>    35.8211     0.1002     8.7431 </r>
       <r>    36.0277     0.2948     8.8040 </r>
       <r>    36.2343     0.2440     8.8544 </r>
       <r>    36.4409     0.0998     8.8750 </r>
       <r>    36.6475     0.1363     8.9032 </r>
       <r>    36.8541     0.2794     8.9609 </r>
       <r>    37.0606     0.3900     9.0415 </r>
       <r>    37.2672     0.0654     9.0550 </r>
       <r>    37.4738     0.0912     9.0738 </r>
       <r>    37.6804     0.1392     9.1026 </r>
       <r>    37.8870     0.1147     9.1263 </r>
       <r>    38.0936     0.1369     9.1546 </r>
       <r>    38.3002     0.2420     9.2046 </r>
       <r>    38.5068     0.1920     9.2442 </r>
       <r>    38.7133     0.0733     9.2593 </r>
       <r>    38.9199     0.0622     9.2722 </r>
       <r>    39.1265     0.0011     9.2724 </r>
       <r>    39.3331     0.0829     9.2895 </r>
       <r>    39.5397     0.0385     9.2975 </r>
       <r>    39.7463     0.1910     9.3370 </r>
       <r>    39.9529     0.7287     9.4875 </r>
       <r>    40.1595     0.3068     9.5509 </r>
       <r>    40.3660     0.3442     9.6220 </r>
       <r>    40.5726     0.1766     9.6585 </r>
       <r>    40.7792    -0.0032     9.6578 </r>
       <r>    40.9858     0.1512     9.6891 </r>
       <r>    41.1924     0.1559     9.7213 </r>
       <r>    41.3990     0.0053     9.7224 </r>
       <r>    41.6056    -0.0194     9.7184 </r>
       <r>    41.8122     0.1379     9.7469 </r>
       <r>    42.0187     0.5478     9.8600 </r>
       <r>    42.2253     0.2741     9.9166 </r>
       <r>    42.4319    -0.0088     9.9148 </r>
       <r>    42.6385    -0.0057     9.9137 </r>
       <r>    42.8451    -0.0082     9.9120 </r>
       <r>    43.0517     0.1264     9.9381 </r>
       <r>    43.2583     0.3362    10.0075 </r>
       <r>    43.4649     0.2863    10.0667 </r>
       <r>    43.6714     0.0866    10.0846 </r>
       <r>    43.8780     0.2064    10.1272 </r>
       <r>    44.0846     0.3957    10.2090 </r>
       <r>    44.2912     0.3496    10.2812 </r>
       <r>    44.4978     0.2424    10.3313 </r>
       <r>    44.7044     0.0813    10.3481 </r>
       <r>    44.9110     0.2581    10.4014 </r>
       <r>    45.1176     0.2068    10.4441 </r>
       <r>    45.3242     0.1056    10.4659 </r>
       <r>    45.5307     0.1346    10.4937 </r>
       <r>    45.7373     0.2682    10.5491 </r>
       <r>    45.9439     0.3329    10.6179 </r>
       <r>    46.1505     0.3172    10.6834 </r>
       <r>    46.3571     0.2509    10.7352 </r>
       <r>    46.5637     0.1481    10.7658 </r>
       <r>    46.7703     0.1020    10.7869 </r>
       <r>    46.9769     0.0767    10.8028 </r>
       <r>    47.1834     0.0343    10.8099 </r>
       <r>    47.3900     0.2159    10.8545 </r>
       <r>    47.5966     0.4877    10.9552 </r>
       <r>    47.8032     0.2310    11.0029 </r>
       <r>    48.0098     0.0448    11.0122 </r>
       <r>    48.2164     0.3442    11.0833 </r>
       <r>    48.4230     0.4479    11.1758 </r>
       <r>    48.6296     0.1047    11.1974 </r>
       <r>    48.8361     0.1180    11.2218 </r>
       <r>    49.0427     0.3168    11.2873 </r>
       <r>    49.2493     0.1598    11.3203 </r>
       <r>    49.4559     0.1368    11.3485 </r>
       <r>    49.6625     0.1669    11.3830 </r>
       <r>    49.8691     0.1009    11.4039 </r>
       <r>    50.0757     0.1515    11.4352 </r>
       <r>    50.2823     0.2723    11.4914 </r>
       <r>    50.4888     0.4810    11.5908 </r>
       <r>    50.6954     0.3011    11.6530 </r>
       <r>    50.9020     0.0908    11.6717 </r>
       <r>    51.1086     0.0507    11.6822 </r>
       <r>    51.3152     0.0840    11.6996 </r>
       <r>    51.5218     0.1397    11.7284 </r>
       <r>    51.7284     0.1091    11.7510 </r>
       <r>    51.9350    -0.0033    11.7503 </r>
       <r>    52.1416    -0.0038    11.7495 </r>
       <r>    52.3481     0.0126    11.7521 </r>
       <r>    52.5547     0.1014    11.7731 </r>
       <r>    52.7613     0.3027    11.8356 </r>
       <r>    52.9679     0.1323    11.8629 </r>
       <r>    53.1745     0.0500    11.8733 </r>
       <r>    53.3811     0.1049    11.8949 </r>
       <r>    53.5877     0.0656    11.9085 </r>
       <r>    53.7943     0.0006    11.9086 </r>
       <r>    54.0008     0.0276    11.9143 </r>
       <r>    54.2074     0.0092    11.9162 </r>
       <r>    54.4140    -0.0043    11.9153 </r>
       <r>    54.6206     0.0191    11.9193 </r>
       <r>    54.8272     0.0885    11.9376 </r>
       <r>    55.0338     0.1013    11.9585 </r>
       <r>    55.2404     0.0593    11.9708 </r>
       <r>    55.4470    -0.0048    11.9698 </r>
       <r>    55.6535     0.0247    11.9749 </r>
       <r>    55.8601     0.0944    11.9944 </r>
       <r>    56.0667     0.0312    12.0008 </r>
       <r>    56.2733    -0.0037    12.0000 </r>
       <r>    56.4799    -0.0002    12.0000 </r>
       <r>    56.6865    -0.0000    12.0000 </r>
       <r>    56.8931    -0.0000    12.0000 </r>
       <r>    57.0997    -0.0000    12.0000 </r>
       <r>    57.3062     0.0000    12.0000 </r>
       <r>    57.5128     0.0000    12.0000 </r>
       <r>    57.7194     0.0000    12.0000 </r>
       <r>    57.9260     0.0000    12.0000 </r>
       <r>    58.1326     0.0000    12.0000 </r>
       <r>    58.3392     0.0000    12.0000 </r>
       <r>    58.5458     0.0000    12.0000 </r>
       <r>    58.7524     0.0000    12.0000 </r>
      </set>
      <set comment="spin 2">
       <r>    -3.2240     0.0000     0.0000 </r>
       <r>    -3.0174     0.0000     0.0000 </r>
       <r>    -2.8108     0.0000     0.0000 </r>
       <r>    -2.6042     0.0000     0.0000 </r>
       <r>    -2.3976     0.0000     0.0000 </r>
       <r>    -2.1911     0.0000     0.0000 </r>
       <r>    -1.9845    -0.0000    -0.0000 </r>
       <r>    -1.7779    -0.0000    -0.0000 </r>
       <r>    -1.5713    -0.0000    -0.0000 </r>
       <r>    -1.3647    -0.0000    -0.0000 </r>
       <r>    -1.1581    -0.0000    -0.0000 </r>
       <r>    -0.9515    -0.0000    -0.0000 </r>
       <r>    -0.7449    -0.0000    -0.0000 </r>
       <r>    -0.5383    -0.0007    -0.0001 </r>
       <r>    -0.3318     0.0036     0.0006 </r>
       <r>    -0.1252     0.0218     0.0051 </r>
       <r>     0.0814     0.0038     0.0059 </r>
       <r>     0.2880     0.0178     0.0096 </r>
       <r>     0.4946     0.0191     0.0135 </r>
       <r>     0.7012     0.0192     0.0175 </r>
       <r>     0.9078     0.0876     0.0356 </r>
       <r>     1.1144     0.0145     0.0386 </r>
       <r>     1.3209    -0.0040     0.0377 </r>
       <r>     1.5275    -0.0009     0.0375 </r>
       <r>     1.7341     0.0866     0.0554 </r>
       <r>     1.9407     0.0632     0.0685 </r>
       <r>     2.1473     0.0606     0.0810 </r>
       <r>     2.3539     0.0763     0.0968 </r>
       <r>     2.5605     0.0840     0.1142 </r>
       <r>     2.7671     0.0109     0.1164 </r>
       <r>     2.9736    -0.0119     0.1140 </r>
       <r>     3.1802     0.0746     0.1294 </r>
       <r>     3.3868     0.2393     0.1788 </r>
       <r>     3.5934     0.1554     0.2109 </r>
       <r>     3.8000     0.3607     0.2854 </r>
       <r>     4.0066     0.1824     0.3231 </r>
       <r>     4.2132     0.2297     0.3706 </r>
       <r>     4.4198     0.6206     0.4988 </r>
       <r>     4.6263     0.6099     0.6248 </r>
       <r>     4.8329     0.2725     0.6811 </r>
       <r>     5.0395     0.6939     0.8244 </r>
       <r>     5.2461     0.7508     0.9795 </r>
       <r>     5.4527     0.2627     1.0338 </r>
       <r>     5.6593     0.1754     1.0700 </r>
       <r>     5.8659     0.4194     1.1567 </r>
       <r>     6.0725     0.6403     1.2890 </r>
       <r>     6.2791     1.0987     1.5159 </r>
       <r>     6.4856     0.7844     1.6780 </r>
       <r>     6.6922     0.5078     1.7829 </r>
       <r>     6.8988     0.6223     1.9115 </r>
       <r>     7.1054     0.8607     2.0893 </r>
       <r>     7.3120     0.9460     2.2847 </r>
       <r>     7.5186     0.8239     2.4549 </r>
       <r>     7.7252     0.6170     2.5824 </r>
       <r>     7.9318     0.4873     2.6830 </r>
       <r>     8.1383     0.3740     2.7603 </r>
       <r>     8.3449     0.1726     2.7960 </r>
       <r>     8.5515     0.2807     2.8539 </r>
       <r>     8.7581     0.4847     2.9541 </r>
       <r>     8.9647     0.1666     2.9885 </r>
       <r>     9.1713     0.1658     3.0228 </r>
       <r>     9.3779     0.1585     3.0555 </r>
       <r>     9.5845     0.3012     3.1177 </r>
       <r>     9.7910     0.8156     3.2862 </r>
       <r>     9.9976     0.6695     3.4245 </r>
       <r>    10.2042     0.4824     3.5242 </r>
       <r>    10.4108     0.8019     3.6899 </r>
       <r>    10.6174     0.9550     3.8871 </r>
       <r>    10.8240     0.8740     4.0677 </r>
       <r>    11.0306     1.0014     4.2746 </r>
       <r>    11.2372     1.4949     4.5834 </r>
       <r>    11.4437     1.3076     4.8535 </r>
       <r>    11.6503     0.6858     4.9952 </r>
       <r>    11.8569     0.5921     5.1175 </r>
       <r>    12.0635     0.4667     5.2139 </r>
       <r>    12.2701     0.2134     5.2580 </r>
       <r>    12.4767     0.1423     5.2874 </r>
       <r>    12.6833     0.2416     5.3373 </r>
       <r>    12.8899     0.1193     5.3620 </r>
       <r>    13.0964     0.0518     5.3727 </r>
       <r>    13.3030     0.3462     5.4442 </r>
       <r>    13.5096     0.1431     5.4737 </r>
       <r>    13.7162     0.0867     5.4917 </r>
       <r>    13.9228     0.0579     5.5036 </r>
       <r>    14.1294     0.0741     5.5189 </r>
       <r>    14.3360     0.0844     5.5364 </r>
       <r>    14.5426     0.1478     5.5669 </r>
       <r>    14.7492     0.0952     5.5866 </r>
       <r>    14.9557     0.1701     5.6217 </r>
       <r>    15.1623     0.1735     5.6576 </r>
       <r>    15.3689     0.0650     5.6710 </r>
       <r>    15.5755     0.0558     5.6825 </r>
       <r>    15.7821     0.1124     5.7057 </r>
       <r>    15.9887     0.0684     5.7199 </r>
       <r>    16.1953     0.0252     5.7251 </r>
       <r>    16.4019     0.1568     5.7575 </r>
       <r>    16.6084     0.1208     5.7824 </r>
       <r>    16.8150     0.2142     5.8267 </r>
       <r>    17.0216     0.0914     5.8456 </r>
       <r>    17.2282     0.0001     5.8456 </r>
       <r>    17.4348     0.0431     5.8545 </r>
       <r>    17.6414     0.0073     5.8560 </r>
       <r>    17.8480    -0.0039     5.8552 </r>
       <r>    18.0546     0.1057     5.8770 </r>
       <r>    18.2611     0.1254     5.9029 </r>
       <r>    18.4677     0.0498     5.9132 </r>
       <r>    18.6743     0.0694     5.9276 </r>
       <r>    18.8809     0.0156     5.9308 </r>
       <r>    19.0875     0.0850     5.9484 </r>
       <r>    19.2941     0.0231     5.9531 </r>
       <r>    19.5007     0.0769     5.9690 </r>
       <r>    19.7073     0.0434     5.9780 </r>
       <r>    19.9138     0.0542     5.9892 </r>
       <r>    20.1204     0.0160     5.9925 </r>
       <r>    20.3270    -0.0022     5.9920 </r>
       <r>    20.5336    -0.0001     5.9920 </r>
       <r>    20.7402    -0.0015     5.9917 </r>
       <r>    20.9468     0.0013     5.9920 </r>
       <r>    21.1534     0.0809     6.0087 </r>
       <r>    21.3600     0.0796     6.0251 </r>
       <r>    21.5666     0.2415     6.0750 </r>
       <r>    21.7731     0.1910     6.1145 </r>
       <r>    21.9797     0.1221     6.1397 </r>
       <r>    22.1863     0.4621     6.2352 </r>
       <r>    22.3929     0.4612     6.3305 </r>
       <r>    22.5995     0.0535     6.3415 </r>
       <r>    22.8061     0.0679     6.3556 </r>
       <r>    23.0127     0.0353     6.3629 </r>
       <r>    23.2193     0.0849     6.3804 </r>
       <r>    23.4258     0.0942     6.3999 </r>
       <r>    23.6324     0.2169     6.4447 </r>
       <r>    23.8390     0.2672     6.4999 </r>
       <r>    24.0456     0.1699     6.5350 </r>
       <r>    24.2522     0.2470     6.5860 </r>
       <r>    24.4588     0.2442     6.6365 </r>
       <r>    24.6654     0.1054     6.6582 </r>
       <r>    24.8720     0.0690     6.6725 </r>
       <r>    25.0785     0.1343     6.7002 </r>
       <r>    25.2851     0.1297     6.7270 </r>
       <r>    25.4917     0.1275     6.7534 </r>
       <r>    25.6983     0.4042     6.8369 </r>
       <r>    25.9049     0.3543     6.9101 </r>
       <r>    26.1115     0.1170     6.9342 </r>
       <r>    26.3181     0.0681     6.9483 </r>
       <r>    26.5247     0.0110     6.9506 </r>
       <r>    26.7312     0.0779     6.9667 </r>
       <r>    26.9378     0.1065     6.9887 </r>
       <r>    27.1444     0.2533     7.0410 </r>
       <r>    27.3510     0.0855     7.0587 </r>
       <r>    27.5576     0.0060     7.0599 </r>
       <r>    27.7642     0.3666     7.1356 </r>
       <r>    27.9708     0.4508     7.2288 </r>
       <r>    28.1774     0.2760     7.2858 </r>
       <r>    28.3839     0.0236     7.2907 </r>
       <r>    28.5905     0.0616     7.3034 </r>
       <r>    28.7971     0.1621     7.3369 </r>
       <r>    29.0037     0.1764     7.3733 </r>
       <r>    29.2103     0.0910     7.3921 </r>
       <r>    29.4169     0.0925     7.4112 </r>
       <r>    29.6235     0.2179     7.4562 </r>
       <r>    29.8301     0.3647     7.5316 </r>
       <r>    30.0367     0.1222     7.5568 </r>
       <r>    30.2432     0.1188     7.5813 </r>
       <r>    30.4498     0.0185     7.5852 </r>
       <r>    30.6564     0.1456     7.6152 </r>
       <r>    30.8630     0.1708     7.6505 </r>
       <r>    31.0696     0.2355     7.6992 </r>
       <r>    31.2762     0.3448     7.7704 </r>
       <r>    31.4828     0.2551     7.8231 </r>
       <r>    31.6894     0.1731     7.8589 </r>
       <r>    31.8959     0.2600     7.9126 </r>
       <r>    32.1025     0.2482     7.9638 </r>
       <r>    32.3091     0.3750     8.0413 </r>
       <r>    32.5157     0.1951     8.0816 </r>
       <r>    32.7223     0.2413     8.1314 </r>
       <r>    32.9289     0.1765     8.1679 </r>
       <r>    33.1355     0.2005     8.2093 </r>
       <r>    33.3421     0.0776     8.2254 </r>
       <r>    33.5486    -0.0051     8.2243 </r>
       <r>    33.7552     0.0621     8.2371 </r>
       <r>    33.9618     0.3670     8.3129 </r>
       <r>    34.1684     0.2665     8.3680 </r>
       <r>    34.3750     0.2733     8.4244 </r>
       <r>    34.5816     0.3289     8.4924 </r>
       <r>    34.7882     0.2150     8.5368 </r>
       <r>    34.9948     0.1084     8.5592 </r>
       <r>    35.2013     0.2288     8.6065 </r>
       <r>    35.4079     0.4638     8.7023 </r>
       <r>    35.6145     0.1196     8.7270 </r>
       <r>    35.8211    -0.0004     8.7269 </r>
       <r>    36.0277     0.0493     8.7371 </r>
       <r>    36.2343     0.0953     8.7568 </r>
       <r>    36.4409     0.1967     8.7974 </r>
       <r>    36.6475     0.3264     8.8649 </r>
       <r>    36.8541     0.2101     8.9083 </r>
       <r>    37.0606     0.0819     8.9252 </r>
       <r>    37.2672     0.2927     8.9857 </r>
       <r>    37.4738     0.2372     9.0347 </r>
       <r>    37.6804     0.1150     9.0584 </r>
       <r>    37.8870     0.2725     9.1147 </r>
       <r>    38.0936     0.1344     9.1425 </r>
       <r>    38.3002     0.0806     9.1591 </r>
       <r>    38.5068     0.1231     9.1846 </r>
       <r>    38.7133     0.2270     9.2314 </r>
       <r>    38.9199     0.1346     9.2592 </r>
       <r>    39.1265     0.0644     9.2725 </r>
       <r>    39.3331     0.0728     9.2876 </r>
       <r>    39.5397     0.0426     9.2964 </r>
       <r>    39.7463    -0.0071     9.2949 </r>
       <r>    39.9529     0.1126     9.3182 </r>
       <r>    40.1595     0.5103     9.4236 </r>
       <r>    40.3660     0.4663     9.5199 </r>
       <r>    40.5726     0.1500     9.5509 </r>
       <r>    40.7792     0.2893     9.6107 </r>
       <r>    40.9858     0.2774     9.6680 </r>
       <r>    41.1924     0.0592     9.6802 </r>
       <r>    41.3990     0.1160     9.7042 </r>
       <r>    41.6056     0.0811     9.7210 </r>
       <r>    41.8122     0.0348     9.7281 </r>
       <r>    42.0187     0.1705     9.7634 </r>
       <r>    42.2253     0.2251     9.8099 </r>
       <r>    42.4319     0.2791     9.8675 </r>
       <r>    42.6385     0.1412     9.8967 </r>
       <r>    42.8451     0.0791     9.9131 </r>
       <r>    43.0517     0.0004     9.9131 </r>
       <r>    43.2583     0.0152     9.9163 </r>
       <r>    43.4649     0.2991     9.9781 </r>
       <r>    43.6714     0.2949    10.0390 </r>
       <r>    43.8780     0.1180    10.0634 </r>
       <r>    44.0846     0.1791    10.1004 </r>
       <r>    44.2912     0.3234    10.1672 </r>
       <r>    44.4978     0.3491    10.2393 </r>
       <r>    44.7044     0.2529    10.2915 </r>
       <r>    44.9110     0.1167    10.3156 </r>
       <r>    45.1176     0.2818    10.3738 </r>
       <r>    45.3242     0.2060    10.4164 </r>
       <r>    45.5307     0.0093    10.4183 </r>
       <r>    45.7373     0.1807    10.4556 </r>
       <r>    45.9439     0.3731    10.5327 </r>
       <r>    46.1505     0.1841    10.5708 </r>
       <r>    46.3571     0.0981    10.5910 </r>
       <r>    46.5637     0.4313    10.6801 </r>
       <r>    46.7703     0.3036    10.7429 </r>
       <r>    46.9769     0.1044    10.7644 </r>
       <r>    47.1834     0.1948    10.8047 </r>
       <r>    47.3900     0.0418    10.8133 </r>
       <r>    47.5966     0.1032    10.8346 </r>
       <r>    47.8032     0.2420    10.8846 </r>
       <r>    48.0098     0.2885    10.9442 </r>
       <r>    48.2164     0.2651    10.9990 </r>
       <r>    48.4230     0.2455    11.0497 </r>
       <r>    48.6296     0.2900    11.1096 </r>
       <r>    48.8361     0.3596    11.1839 </r>
       <r>    49.0427     0.2606    11.2377 </r>
       <r>    49.2493     0.2676    11.2930 </r>
       <r>    49.4559     0.0494    11.3032 </r>
       <r>    49.6625    -0.0156    11.3000 </r>
       <r>    49.8691     0.1034    11.3213 </r>
       <r>    50.0757     0.3097    11.3853 </r>
       <r>    50.2823     0.0729    11.4004 </r>
       <r>    50.4888     0.1167    11.4245 </r>
       <r>    50.6954     0.3880    11.5047 </r>
       <r>    50.9020     0.4361    11.5948 </r>
       <r>    51.1086     0.2594    11.6484 </r>
       <r>    51.3152     0.1451    11.6783 </r>
       <r>    51.5218     0.0649    11.6917 </r>
       <r>    51.7284     0.1960    11.7322 </r>
       <r>    51.9350     0.0885    11.7505 </r>
       <r>    52.1416    -0.0017    11.7502 </r>
       <r>    52.3481    -0.0007    11.7500 </r>
       <r>    52.5547     0.0359    11.7574 </r>
       <r>    52.7613     0.0693    11.7718 </r>
       <r>    52.9679     0.0588    11.7839 </r>
       <r>    53.1745     0.1567    11.8163 </r>
       <r>    53.3811     0.2298    11.8637 </r>
       <r>    53.5877     0.0813    11.8805 </r>
       <r>    53.7943     0.0906    11.8993 </r>
       <r>    54.0008     0.0283    11.9051 </r>
       <r>    54.2074     0.0380    11.9129 </r>
       <r>    54.4140     0.0163    11.9163 </r>
       <r>    54.6206    -0.0027    11.9157 </r>
       <r>    54.8272    -0.0006    11.9156 </r>
       <r>    55.0338     0.0876    11.9337 </r>
       <r>    55.2404     0.0626    11.9467 </r>
       <r>    55.4470     0.0661    11.9603 </r>
       <r>    55.6535     0.0487    11.9704 </r>
       <r>    55.8601     0.0454    11.9798 </r>
       <r>    56.0667     0.0924    11.9988 </r>
       <r>    56.2733     0.0078    12.0005 </r>
       <r>    56.4799    -0.0022    12.0000 </r>
       <r>    56.6865    -0.0000    12.0000 </r>
       <r>    56.8931    -0.0000    12.0000 </r>
       <r>    57.0997    -0.0000    12.0000 </r>
       <r>    57.3062    -0.0000    12.0000 </r>
       <r>    57.5128     0.0000    12.0000 </r>
       <r>    57.7194     0.0000    12.0000 </r>
       <r>    57.9260     0.0000    12.0000 </r>
       <r>    58.1326     0.0000    12.0000 </r>
       <r>    58.3392     0.0000    12.0000 </r>
       <r>    58.5458     0.0000    12.0000 </r>
       <r>    58.7524     0.0000    12.0000 </r>
      </set>
     </set>
    </array>
   </total>
  </dos>
 </calculation>
 <structure name="finalpos" >
  <crystal>
   <varray name="basis" >
    <v>      -1.27500000       1.27500000       1.27500000 </v>
    <v>       1.27500000      -1.27500000       1.27500000 </v>
    <v>       1.27500000       1.27500000      -1.27500000 </v>
   </varray>
   <i name="volume">      8.29068750 </i>
   <varray name="rec_basis" >
    <v>       0.00000000       0.39215686       0.39215686 </v>
    <v>       0.39215686       0.00000000       0.39215686 </v>
    <v>       0.39215686       0.39215686       0.00000000 </v>
   </varray>
  </crystal>
  <varray name="positions" >
   <v>       0.00000000       0.00000000       0.00000000 </v>
  </varray>
 </structure>
</modeling>
