bcc Fe                                  
   2.85000000000000     
    -0.500000    0.500000    0.500000
     0.500000   -0.500000    0.500000
     0.500000    0.500000   -0.500000
   Fe
     1
Direct
  0.000000  0.000000  0.000000
 
   20   20   20
  98.079      92.340      77.141      57.279      37.758      22.020      11.610      6.3749      4.6334      4.0331    
  3.8437      4.0331      4.6334      6.3749      11.610      22.020      37.758      57.279      77.141      92.340    
  92.340      90.467      78.569      60.588      41.491      25.157      13.644      7.2891      4.8774      4.1254    
  3.8139      3.8740      4.3197      5.3773      8.8876      16.914      30.175      47.775      67.025      83.516    
  77.141      78.569      70.816      56.561      40.070      25.162      14.138      7.6772      4.9861      4.1295    
  3.7288      3.6765      3.9609      4.6246      6.4775      11.589      21.215      35.158      51.584      67.025    
  57.279      60.588      56.561      46.662      34.081      22.094      12.902      7.3242      4.8762      4.0369    
  3.5992      3.4693      3.6159      4.0757      4.9508      7.4954      13.304      22.852      35.158      47.775    
  37.758      41.491      40.070      34.081      25.621      17.152      10.492      6.3963      4.5661      3.8580    
  3.4396      3.2755      3.3270      3.6099      4.1671      5.1862      7.9045      13.304      21.215      30.175    
  22.020      25.157      25.162      22.094      17.152      11.967      7.8295      5.3042      4.1711      3.6215    
  3.2662      3.1087      3.1105      3.2662      3.6210      4.2002      5.1862      7.4954      11.589      16.914    
  11.610      13.644      14.138      12.902      10.492      7.8295      5.6964      4.4182      3.7915      3.3677    
  3.0968      2.9731      2.9614      3.0458      3.2511      3.6210      4.1671      4.9508      6.4775      8.8876    
  6.3749      7.2891      7.6772      7.3242      6.3963      5.3042      4.4182      3.8522      3.4433      3.1356    
  2.9489      2.8684      2.8650      2.9214      3.0458      3.2662      3.6099      4.0757      4.6246      5.3773    
  4.6334      4.8774      4.9861      4.8762      4.5661      4.1711      3.7915      3.4433      3.1558      2.9523    
  2.8366      2.7957      2.8097      2.8650      2.9614      3.1105      3.3270      3.6159      3.9609      4.3197    
  4.0331      4.1254      4.1295      4.0369      3.8580      3.6215      3.3677      3.1356      2.9523      2.8298    
  2.7678      2.7595      2.7957      2.8684      2.9731      3.1087      3.2755      3.4693      3.6765      3.8740    
  3.8437      3.8139      3.7288      3.5992      3.4396      3.2662      3.0968      2.9489      2.8366      2.7678    
  2.7448      2.7678      2.8366      2.9489      3.0968      3.2662      3.4396      3.5992      3.7288      3.8139    
  4.0331      3.8740      3.6765      3.4693      3.2755      3.1087      2.9731      2.8684      2.7957      2.7595    
  2.7678      2.8298      2.9523      3.1356      3.3677      3.6215      3.8580      4.0369      4.1295      4.1254    
  4.6334      4.3197      3.9609      3.6159      3.3270      3.1105      2.9614      2.8650      2.8097      2.7957    
  2.8366      2.9523      3.1558      3.4433      3.7915      4.1711      4.5661      4.8762      4.9861      4.8774    
  6.3749      5.3773      4.6246      4.0757      3.6099      3.2662      3.0458      2.9214      2.8650      2.8684    
  2.9489      3.1356      3.4433      3.8522      4.4182      5.3042      6.3963      7.3242      7.6772      7.2891    
  11.610      8.8876      6.4775      4.9508      4.1671      3.6210      3.2511      3.0458      2.9614      2.9731    
  3.0968      3.3677      3.7915      4.4182      5.6964      7.8295      10.492      12.902      14.138      13.644    
  22.020      16.914      11.589      7.4954      5.1862      4.2002      3.6210      3.2662      3.1105      3.1087    
  3.2662      3.6215      4.1711      5.3042      7.8295      11.967      17.152      22.094      25.162      25.157    
  37.758      30.175      21.215      13.304      7.9045      5.1862      4.1671      3.6099      3.3270      3.2755    
  3.4396      3.8580      4.5661      6.3963      10.492      17.152      25.621      34.081      40.070      41.491    
  57.279      47.775      35.158      22.852      13.304      7.4954      4.9508      4.0757      3.6159      3.4693    
  3.5992      4.0369      4.8762      7.3242      12.902      22.094      34.081      46.662      56.561      60.588    
  77.141      67.025      51.584      35.158      21.215      11.589      6.4775      4.6246      3.9609      3.6765    
  3.7288      4.1295      4.9861      7.6772      14.138      25.162      40.070      56.561      70.816      78.569    
  92.340      83.516      67.025      47.775      30.175      16.914      8.8876      5.3773      4.3197      3.8740    
  3.8139      4.1254      4.8774      7.2891      13.644      25.157      41.491      60.588      78.569      90.467    
  92.340      90.467      78.569      60.588      41.491      25.157      13.644      7.2891      4.8774      4.1254    
  3.8139      3.8740      4.3197      5.3773      8.8876      16.914      30.175      47.775      67.025      83.516    
  90.467      92.331      83.503      67.015      47.770      30.174      16.914      8.8877      5.3781      4.3210    
  3.8743      3.8129      4.1244      4.8775      7.2899      13.645      25.159      41.496      60.597      78.576    
  78.569      83.503      78.563      65.486      48.417      31.726      18.441      9.8768      5.7552      4.4180    
  3.8722      3.7007      3.8722      4.4180      5.7550      9.8764      18.441      31.728      48.423      65.493    
  60.588      67.015      65.486      56.562      43.237      29.275      17.629      9.7908      5.7947      4.3919    
  3.8040      3.5543      3.6068      3.9753      4.7132      6.8063      12.082      21.403      34.215      48.419    
  41.491      47.770      48.417      43.237      34.083      23.791      14.854      8.6768      5.4433      4.2412    
  3.6747      3.3921      3.3631      3.5770      4.0794      4.9904      7.5195      12.937      21.402      31.725    
  25.157      30.174      31.726      29.275      23.791      17.154      11.198      7.0368      4.8584      3.9945    
  3.4989      3.2300      3.1617      3.2676      3.5824      4.1418      5.1090      7.5202      12.082      18.440    
  13.644      16.914      18.441      17.629      14.854      11.198      7.8298      5.4875      4.2756      3.6983    
  3.3006      3.0795      3.0079      3.0551      3.2337      3.5900      4.1426      4.9914      6.8067      9.8758    
  7.2891      8.8877      9.8768      9.7908      8.6768      7.0368      5.4875      4.4178      3.8205      3.4015    
  3.1083      2.9492      2.8968      2.9230      3.0261      3.2342      3.5831      4.0796      4.7126      5.7539    
  4.8774      5.3781      5.7552      5.7947      5.4433      4.8584      4.2756      3.8205      3.4433      3.1447    
  2.9473      2.8469      2.8214      2.8491      2.9232      3.0553      3.2675      3.5763      3.9742      4.4171    
  4.1254      4.3210      4.4180      4.3919      4.2412      3.9945      3.6983      3.4015      3.1447      2.9525    
  2.8324      2.7792      2.7799      2.8214      2.8968      3.0076      3.1611      3.3625      3.6065      3.8726    
  3.8139      3.8743      3.8722      3.8040      3.6747      3.4989      3.3006      3.1083      2.9473      2.8324    
  2.7679      2.7514      2.7792      2.8468      2.9490      3.0791      3.2298      3.3924      3.5551      3.7019    
  3.8740      3.8129      3.7007      3.5543      3.3921      3.2300      3.0795      2.9492      2.8469      2.7792    
  2.7514      2.7678      2.8323      2.9471      3.1082      3.3007      3.4995      3.6756      3.8049      3.8726    
  4.3197      4.1244      3.8722      3.6068      3.3631      3.1617      3.0079      2.8968      2.8214      2.7799    
  2.7792      2.8323      2.9523      3.1447      3.4018      3.6989      3.9952      4.2416      4.3917      4.4171    
  5.3773      4.8775      4.4180      3.9753      3.5770      3.2676      3.0551      2.9230      2.8491      2.8214    
  2.8468      2.9471      3.1447      3.4436      3.8211      4.2761      4.8585      5.4427      5.7936      5.7539    
  8.8876      7.2899      5.7550      4.7132      4.0794      3.5824      3.2337      3.0261      2.9232      2.8968    
  2.9490      3.1082      3.4018      3.8211      4.4182      5.4874      7.0360      8.6754      9.7893      9.8758    
  16.914      13.645      9.8764      6.8063      4.9904      4.1418      3.5900      3.2342      3.0553      3.0076    
  3.0791      3.3007      3.6989      4.2761      5.4874      7.8288      11.196      14.852      17.627      18.440    
  30.175      25.159      18.441      12.082      7.5195      5.1090      4.1426      3.5831      3.2675      3.1611    
  3.2298      3.4995      3.9952      4.8585      7.0360      11.196      17.152      23.788      29.273      31.725    
  47.775      41.496      31.728      21.403      12.937      7.5202      4.9914      4.0796      3.5763      3.3625    
  3.3924      3.6756      4.2416      5.4427      8.6754      14.852      23.788      34.081      43.236      48.419    
  67.025      60.597      48.423      34.215      21.402      12.082      6.8067      4.7126      3.9742      3.6065    
  3.5551      3.8049      4.3917      5.7936      9.7893      17.627      29.273      43.236      56.564      65.493    
  83.516      78.576      65.493      48.419      31.725      18.440      9.8758      5.7539      4.4171      3.8726    
  3.7019      3.8726      4.4171      5.7539      9.8758      18.440      31.725      48.419      65.493      78.576    
  77.141      78.569      70.816      56.561      40.070      25.162      14.138      7.6772      4.9861      4.1295    
  3.7288      3.6765      3.9609      4.6246      6.4775      11.589      21.215      35.158      51.584      67.025    
  78.569      83.503      78.563      65.486      48.417      31.726      18.441      9.8768      5.7552      4.4180    
  3.8722      3.7007      3.8722      4.4180      5.7550      9.8764      18.441      31.728      48.423      65.493    
  70.816      78.563      77.132      67.016      51.579      35.157      21.216      11.590      6.4780      4.6246    
  3.9609      3.6764      3.7287      4.1295      4.9860      7.6772      14.139      25.164      40.074      56.564    
  56.561      65.486      67.016      60.590      48.421      34.217      21.405      12.083      6.8072      4.7127    
  3.9742      3.6064      3.5551      3.8049      4.3918      5.7936      9.7895      17.628      29.275      43.236    
  40.070      48.417      51.579      48.421      40.075      29.278      18.962      11.148      6.5546      4.6286    
  3.9021      3.4982      3.3752      3.4982      3.9021      4.6287      6.5543      11.147      18.958      29.273    
  25.162      31.726      35.157      34.217      29.278      22.098      14.854      9.2087      5.8370      4.3845    
  3.7506      3.3625      3.2076      3.2449      3.4877      3.9802      4.7939      6.8636      11.147      17.627    
  14.138      18.441      21.216      21.405      18.962      14.854      10.493      7.0359      4.9790      4.0613    
  3.5442      3.2127      3.0635      3.0572      3.1875      3.4951      4.0092      4.7939      6.5543      9.7893    
  7.6772      9.8768      11.590      12.083      11.148      9.2087      7.0359      5.3029      4.2751      3.7229    
  3.3192      3.0650      2.9466      2.9295      2.9982      3.1734      3.4951      3.9801      4.6287      5.7936    
  4.9861      5.7552      6.4780      6.8072      6.5546      5.8370      4.9790      4.2751      3.7912      3.4017    
  3.1118      2.9359      2.8574      2.8485      2.8934      2.9981      3.1875      3.4877      3.9021      4.3917    
  4.1295      4.4180      4.6246      4.7127      4.6286      4.3845      4.0613      3.7229      3.4017      3.1360    
  2.9474      2.8385      2.7966      2.8041      2.8486      2.9295      3.0572      3.2448      3.4982      3.8049    
  3.7288      3.8722      3.9609      3.9742      3.9021      3.7506      3.5442      3.3192      3.1118      2.9474    
  2.8367      2.7792      2.7684      2.7967      2.8574      2.9467      3.0636      3.2077      3.3752      3.5551    
  3.6765      3.7007      3.6764      3.6064      3.4982      3.3625      3.2127      3.0650      2.9359      2.8385    
  2.7792      2.7595      2.7792      2.8385      2.9359      3.0650      3.2127      3.3625      3.4982      3.6065    
  3.9609      3.8722      3.7287      3.5551      3.3752      3.2076      3.0635      2.9466      2.8574      2.7966    
  2.7684      2.7792      2.8367      2.9473      3.1118      3.3192      3.5443      3.7506      3.9021      3.9742    
  4.6246      4.4180      4.1295      3.8049      3.4982      3.2449      3.0572      2.9295      2.8485      2.8041    
  2.7967      2.8385      2.9473      3.1360      3.4018      3.7231      4.0615      4.3847      4.6287      4.7126    
  6.4775      5.7550      4.9860      4.3918      3.9021      3.4877      3.1875      2.9982      2.8934      2.8486    
  2.8574      2.9359      3.1118      3.4018      3.7915      4.2757      4.9794      5.8371      6.5543      6.8067    
  11.589      9.8764      7.6772      5.7936      4.6287      3.9802      3.4951      3.1734      2.9981      2.9295    
  2.9467      3.0650      3.3192      3.7231      4.2757      5.3035      7.0359      9.2078      11.147      12.082    
  21.215      18.441      14.139      9.7895      6.5543      4.7939      4.0092      3.4951      3.1875      3.0572    
  3.0636      3.2127      3.5443      4.0615      4.9794      7.0359      10.491      14.852      18.958      21.402    
  35.158      31.728      25.164      17.628      11.147      6.8636      4.7939      3.9801      3.4877      3.2448    
  3.2077      3.3625      3.7506      4.3847      5.8371      9.2078      14.852      22.094      29.275      34.215    
  51.584      48.423      40.074      29.275      18.958      11.147      6.5543      4.6287      3.9021      3.4982    
  3.3752      3.4982      3.9021      4.6287      6.5543      11.147      18.958      29.275      40.074      48.423    
  67.025      65.493      56.564      43.236      29.273      17.627      9.7893      5.7936      4.3917      3.8049    
  3.5551      3.6065      3.9742      4.7126      6.8067      12.082      21.402      34.215      48.423      60.597    
  57.279      60.588      56.561      46.662      34.081      22.094      12.902      7.3242      4.8762      4.0369    
  3.5992      3.4693      3.6159      4.0757      4.9508      7.4954      13.304      22.852      35.158      47.775    
  60.588      67.015      65.486      56.562      43.237      29.275      17.629      9.7908      5.7947      4.3919    
  3.8040      3.5543      3.6068      3.9753      4.7132      6.8063      12.082      21.403      34.215      48.419    
  56.561      65.486      67.016      60.590      48.421      34.217      21.405      12.083      6.8072      4.7127    
  3.9742      3.6064      3.5551      3.8049      4.3918      5.7936      9.7895      17.628      29.275      43.236    
  46.662      56.562      60.590      57.281      47.777      35.161      22.854      13.306      7.4956      4.9496    
  4.0748      3.6161      3.4702      3.5995      4.0362      4.8752      7.3237      12.902      22.094      34.081    
  34.081      43.237      48.421      47.777      41.499      31.732      21.406      12.938      7.5194      4.9900    
  4.0792      3.5770      3.3631      3.3921      3.6747      4.2412      5.4431      8.6760      14.852      23.788    
  22.094      29.275      34.217      35.161      31.732      25.168      17.630      11.146      6.8618      4.7926    
  3.9802      3.4884      3.2451      3.2071      3.3619      3.7509      4.3855      5.8377      9.2078      14.852    
  12.902      17.629      21.405      22.854      21.406      17.630      12.902      8.6740      5.8355      4.4407    
  3.7950      3.3593      3.1261      3.0571      3.1262      3.3594      3.7953      4.4417      5.8371      8.6754    
  7.3242      9.7908      12.083      13.306      12.938      11.146      8.6740      6.3936      4.8568      4.0613    
  3.5602      3.2086      3.0146      2.9442      2.9685      3.0949      3.3611      3.7946      4.3847      5.4427    
  4.8762      5.7947      6.8072      7.4956      7.5194      6.8618      5.8355      4.8568      4.1702      3.6987    
  3.3193      3.0604      2.9182      2.8644      2.8738      2.9433      3.0945      3.3588      3.7506      4.2416    
  4.0369      4.3919      4.7127      4.9496      4.9900      4.7926      4.4407      4.0613      3.6987      3.3683    
  3.1085      2.9358      2.8438      2.8127      2.8247      2.8737      2.9683      3.1262      3.3625      3.6756    
  3.5992      3.8040      3.9742      4.0748      4.0792      3.9802      3.7950      3.5602      3.3193      3.1085    
  2.9490      2.8468      2.7966      2.7885      2.8128      2.8645      2.9445      3.0575      3.2077      3.3924    
  3.4693      3.5543      3.6064      3.6161      3.5770      3.4884      3.3593      3.2086      3.0604      2.9358    
  2.8468      2.7956      2.7799      2.7967      2.8440      2.9185      3.0148      3.1262      3.2448      3.3625    
  3.6159      3.6068      3.5551      3.4702      3.3631      3.2451      3.1261      3.0146      2.9182      2.8438    
  2.7966      2.7799      2.7957      2.8469      2.9359      3.0603      3.2083      3.3588      3.4877      3.5763    
  4.0757      3.9753      3.8049      3.5995      3.3921      3.2071      3.0571      2.9442      2.8644      2.8127    
  2.7885      2.7967      2.8469      2.9490      3.1082      3.3188      3.5597      3.7946      3.9801      4.0796    
  4.9508      4.7132      4.3918      4.0362      3.6747      3.3619      3.1262      2.9685      2.8738      2.8247    
  2.8128      2.8440      2.9359      3.1082      3.3677      3.6983      4.0616      4.4417      4.7939      4.9914    
  7.4954      6.8063      5.7936      4.8752      4.2412      3.7509      3.3594      3.0949      2.9433      2.8737    
  2.8645      2.9185      3.0603      3.3188      3.6983      4.1708      4.8585      5.8377      6.8636      7.5202    
  13.304      12.082      9.7895      7.3237      5.4431      4.3855      3.7953      3.3611      3.0945      2.9683    
  2.9445      3.0148      3.2083      3.5597      4.0616      4.8585      6.3961      8.6760      11.147      12.937    
  22.852      21.403      17.628      12.902      8.6760      5.8377      4.4417      3.7946      3.3588      3.1262    
  3.0575      3.1262      3.3588      3.7946      4.4417      5.8377      8.6760      12.902      17.628      21.403    
  35.158      34.215      29.275      22.094      14.852      9.2078      5.8371      4.3847      3.7506      3.3625    
  3.2077      3.2448      3.4877      3.9801      4.7939      6.8636      11.147      17.628      25.164      31.728    
  47.775      48.419      43.236      34.081      23.788      14.852      8.6754      5.4427      4.2416      3.6756    
  3.3924      3.3625      3.5763      4.0796      4.9914      7.5202      12.937      21.403      31.728      41.496    
  37.758      41.491      40.070      34.081      25.621      17.152      10.492      6.3963      4.5661      3.8580    
  3.4396      3.2755      3.3270      3.6099      4.1671      5.1862      7.9045      13.304      21.215      30.175    
  41.491      47.770      48.417      43.237      34.083      23.791      14.854      8.6768      5.4433      4.2412    
  3.6747      3.3921      3.3631      3.5770      4.0794      4.9904      7.5195      12.937      21.402      31.725    
  40.070      48.417      51.579      48.421      40.075      29.278      18.962      11.148      6.5546      4.6286    
  3.9021      3.4982      3.3752      3.4982      3.9021      4.6287      6.5543      11.147      18.958      29.273    
  34.081      43.237      48.421      47.777      41.499      31.732      21.406      12.938      7.5194      4.9900    
  4.0792      3.5770      3.3631      3.3921      3.6747      4.2412      5.4431      8.6760      14.852      23.788    
  25.621      34.083      40.075      41.499      37.766      30.181      21.218      13.304      7.9032      5.1852    
  4.1666      3.6098      3.3270      3.2756      3.4396      3.8580      4.5661      6.3961      10.491      17.152    
  17.152      23.791      29.278      31.732      30.181      25.162      18.441      12.079      7.5169      5.1074    
  4.1420      3.5830      3.2675      3.1611      3.2298      3.4995      3.9953      4.8585      7.0359      11.196    
  10.492      14.854      18.962      21.406      21.218      18.441      14.136      9.7856      6.5512      4.7923    
  4.0088      3.4951      3.1875      3.0572      3.0635      3.2127      3.5443      4.0616      4.9794      7.0360    
  6.3963      8.6768      11.148      12.938      13.304      12.079      9.7856      7.3198      5.4406      4.3847    
  3.7953      3.3614      3.0946      2.9683      2.9445      3.0148      3.2083      3.5597      4.0615      4.8585    
  4.5661      5.4433      6.5546      7.5194      7.9032      7.5169      6.5512      5.4406      4.5650      3.9954    
  3.5448      3.2087      3.0005      2.8969      2.8669      2.8969      3.0004      3.2083      3.5443      3.9952    
  3.8580      4.2412      4.6286      4.9900      5.1852      5.1074      4.7923      4.3847      3.9954      3.6225    
  3.3012      3.0649      2.9183      2.8445      2.8219      2.8382      2.8969      3.0148      3.2127      3.4995    
  3.4396      3.6747      3.9021      4.0792      4.1666      4.1420      4.0088      3.7953      3.5448      3.3012    
  3.0972      2.9491      2.8573      2.8128      2.8036      2.8219      2.8669      2.9445      3.0636      3.2298    
  3.2755      3.3921      3.4982      3.5770      3.6098      3.5830      3.4951      3.3614      3.2087      3.0649    
  2.9491      2.8683      2.8213      2.8041      2.8128      2.8445      2.8969      2.9683      3.0572      3.1611    
  3.3270      3.3631      3.3752      3.3631      3.3270      3.2675      3.1875      3.0946      3.0005      2.9183    
  2.8573      2.8213      2.8097      2.8214      2.8574      2.9182      3.0004      3.0945      3.1875      3.2675    
  3.6099      3.5770      3.4982      3.3921      3.2756      3.1611      3.0572      2.9683      2.8969      2.8445    
  2.8128      2.8041      2.8214      2.8683      2.9489      3.0646      3.2083      3.3611      3.4951      3.5831    
  4.1671      4.0794      3.9021      3.6747      3.4396      3.2298      3.0635      2.9445      2.8669      2.8219    
  2.8036      2.8128      2.8574      2.9489      3.0967      3.3005      3.5443      3.7953      4.0092      4.1426    
  5.1862      4.9904      4.6287      4.2412      3.8580      3.4995      3.2127      3.0148      2.8969      2.8382    
  2.8219      2.8445      2.9182      3.0646      3.3005      3.6218      3.9953      4.3855      4.7939      5.1090    
  7.9045      7.5195      6.5543      5.4431      4.5661      3.9953      3.5443      3.2083      3.0004      2.8969    
  2.8669      2.8969      3.0004      3.2083      3.5443      3.9953      4.5661      5.4431      6.5543      7.5195    
  13.304      12.937      11.147      8.6760      6.3961      4.8585      4.0616      3.5597      3.2083      3.0148    
  2.9445      2.9683      3.0945      3.3611      3.7953      4.3855      5.4431      7.3237      9.7895      12.082    
  21.215      21.402      18.958      14.852      10.491      7.0359      4.9794      4.0615      3.5443      3.2127    
  3.0636      3.0572      3.1875      3.4951      4.0092      4.7939      6.5543      9.7895      14.139      18.441    
  30.175      31.725      29.273      23.788      17.152      11.196      7.0360      4.8585      3.9952      3.4995    
  3.2298      3.1611      3.2675      3.5831      4.1426      5.1090      7.5195      12.082      18.441      25.159    
  22.020      25.157      25.162      22.094      17.152      11.967      7.8295      5.3042      4.1711      3.6215    
  3.2662      3.1087      3.1105      3.2662      3.6210      4.2002      5.1862      7.4954      11.589      16.914    
  25.157      30.174      31.726      29.275      23.791      17.154      11.198      7.0368      4.8584      3.9945    
  3.4989      3.2300      3.1617      3.2676      3.5824      4.1418      5.1090      7.5202      12.082      18.440    
  25.162      31.726      35.157      34.217      29.278      22.098      14.854      9.2087      5.8370      4.3845    
  3.7506      3.3625      3.2076      3.2449      3.4877      3.9802      4.7939      6.8636      11.147      17.627    
  22.094      29.275      34.217      35.161      31.732      25.168      17.630      11.146      6.8618      4.7926    
  3.9802      3.4884      3.2451      3.2071      3.3619      3.7509      4.3855      5.8377      9.2078      14.852    
  17.152      23.791      29.278      31.732      30.181      25.162      18.441      12.079      7.5169      5.1074    
  4.1420      3.5830      3.2675      3.1611      3.2298      3.4995      3.9953      4.8585      7.0359      11.196    
  11.967      17.154      22.098      25.168      25.162      22.021      16.911      11.583      7.4912      5.1848    
  4.2006      3.6214      3.2658      3.1101      3.1089      3.2668      3.6218      4.1708      5.3035      7.8288    
  7.8295      11.198      14.854      17.630      18.441      16.911      13.638      9.8701      6.8028      4.9899    
  4.1427      3.5904      3.2339      3.0551      3.0079      3.0794      3.3005      3.6983      4.2757      5.4874    
  5.3042      7.0368      9.2087      11.146      12.079      11.583      9.8701      7.6727      5.7923      4.6297    
  3.9815      3.4956      3.1733      2.9981      2.9298      2.9467      3.0646      3.3188      3.7231      4.2761    
  4.1711      4.8584      5.8370      6.8618      7.5169      7.4912      6.8028      5.7923      4.8763      4.2433    
  3.7524      3.3598      3.0949      2.9434      2.8738      2.8644      2.9182      3.0603      3.3192      3.6989    
  3.6215      3.9945      4.3845      4.7926      5.1074      5.1848      4.9899      4.6297      4.2433      3.8600    
  3.5005      3.2129      3.0148      2.8970      2.8383      2.8219      2.8445      2.9185      3.0650      3.3007    
  3.2662      3.4989      3.7506      3.9802      4.1420      4.2006      4.1427      3.9815      3.7524      3.5005    
  3.2672      3.0794      2.9466      2.8644      2.8219      2.8090      2.8219      2.8645      2.9467      3.0791    
  3.1087      3.2300      3.3625      3.4884      3.5830      3.6214      3.5904      3.4956      3.3598      3.2129    
  3.0794      2.9728      2.8967      2.8485      2.8247      2.8219      2.8382      2.8737      2.9295      3.0076    
  3.1105      3.1617      3.2076      3.2451      3.2675      3.2658      3.2339      3.1733      3.0949      3.0148    
  2.9466      2.8967      2.8649      2.8491      2.8486      2.8644      2.8969      2.9433      2.9981      3.0553    
  3.2662      3.2676      3.2449      3.2071      3.1611      3.1101      3.0551      2.9981      2.9434      2.8970    
  2.8644      2.8485      2.8491      2.8650      2.8968      2.9467      3.0148      3.0949      3.1734      3.2342    
  3.6210      3.5824      3.4877      3.3619      3.2298      3.1089      3.0079      2.9298      2.8738      2.8383    
  2.8219      2.8247      2.8486      2.8968      2.9730      3.0794      3.2127      3.3594      3.4951      3.5900    
  4.2002      4.1418      3.9802      3.7509      3.4995      3.2668      3.0794      2.9467      2.8644      2.8219    
  2.8090      2.8219      2.8644      2.9467      3.0794      3.2668      3.4995      3.7509      3.9802      4.1418    
  5.1862      5.1090      4.7939      4.3855      3.9953      3.6218      3.3005      3.0646      2.9182      2.8445    
  2.8219      2.8382      2.8969      3.0148      3.2127      3.4995      3.8580      4.2412      4.6287      4.9904    
  7.4954      7.5202      6.8636      5.8377      4.8585      4.1708      3.6983      3.3188      3.0603      2.9185    
  2.8645      2.8737      2.9433      3.0949      3.3594      3.7509      4.2412      4.8752      5.7936      6.8063    
  11.589      12.082      11.147      9.2078      7.0359      5.3035      4.2757      3.7231      3.3192      3.0650    
  2.9467      2.9295      2.9981      3.1734      3.4951      3.9802      4.6287      5.7936      7.6772      9.8764    
  16.914      18.440      17.627      14.852      11.196      7.8288      5.4874      4.2761      3.6989      3.3007    
  3.0791      3.0076      3.0553      3.2342      3.5900      4.1418      4.9904      6.8063      9.8764      13.645    
  11.610      13.644      14.138      12.902      10.492      7.8295      5.6964      4.4182      3.7915      3.3677    
  3.0968      2.9731      2.9614      3.0458      3.2511      3.6210      4.1671      4.9508      6.4775      8.8876    
  13.644      16.914      18.441      17.629      14.854      11.198      7.8298      5.4875      4.2756      3.6983    
  3.3006      3.0795      3.0079      3.0551      3.2337      3.5900      4.1426      4.9914      6.8067      9.8758    
  14.138      18.441      21.216      21.405      18.962      14.854      10.493      7.0359      4.9790      4.0613    