bcc Fe                                  
   2.85000000000000     
    -0.500000    0.500000    0.500000
     0.500000   -0.500000    0.500000
     0.500000    0.500000   -0.500000
   Fe
     1
Direct
  0.000000  0.000000  0.000000
 
   20   20   20
 0.98078665738E+02 0.92339613780E+02 0.77140882595E+02 0.57278897053E+02 0.37757974198E+02
 0.22020120916E+02 0.11609712432E+02 0.63748881216E+01 0.46334067038E+01 0.40330769857E+01
 0.38436565973E+01 0.40330769857E+01 0.46334067038E+01 0.63748881216E+01 0.11609712432E+02
 0.22020120916E+02 0.37757974198E+02 0.57278897053E+02 0.77140882595E+02 0.92339613780E+02
 0.92339613780E+02 0.90467369641E+02 0.78568583127E+02 0.60588106118E+02 0.41490621051E+02
 0.25157388768E+02 0.13643843134E+02 0.72891175455E+01 0.48774001575E+01 0.41254489121E+01
 0.38138805619E+01 0.38739594475E+01 0.43197133099E+01 0.53772924133E+01 0.88876368901E+01
 0.16913847978E+02 0.30174911504E+02 0.47774614055E+02 0.67025221090E+02 0.83516091847E+02
 0.77140882595E+02 0.78568583127E+02 0.70815991274E+02 0.56560931367E+02 0.40069754137E+02
 0.25162022559E+02 0.14138112862E+02 0.76772463883E+01 0.49860520706E+01 0.41294936073E+01
 0.37287535080E+01 0.36764555297E+01 0.39608774538E+01 0.46245503471E+01 0.64775497987E+01
 0.11588510303E+02 0.21215290167E+02 0.35158234277E+02 0.51584085556E+02 0.67025221090E+02
 0.57278897053E+02 0.60588106118E+02 0.56560931367E+02 0.46661893803E+02 0.34081001809E+02
 0.22093819069E+02 0.12902382030E+02 0.73241609888E+01 0.48762391181E+01 0.40369282809E+01
 0.35991805077E+01 0.34692931292E+01 0.36158762337E+01 0.40756830800E+01 0.49507559420E+01
 0.74954306799E+01 0.13304389737E+02 0.22851634210E+02 0.35158234277E+02 0.47774614055E+02
 0.37757974198E+02 0.41490621051E+02 0.40069754137E+02 0.34081001809E+02 0.25620615322E+02
 0.17152364115E+02 0.10491928694E+02 0.63963395496E+01 0.45661131968E+01 0.38579741115E+01
 0.34395874255E+01 0.32755496538E+01 0.33270208578E+01 0.36099104903E+01 0.41670576806E+01
 0.51862247985E+01 0.79045218763E+01 0.13304389737E+02 0.21215290167E+02 0.30174911504E+02
 0.22020120916E+02 0.25157388768E+02 0.25162022559E+02 0.22093819069E+02 0.17152364115E+02
 0.11966619664E+02 0.78294763177E+01 0.53042133219E+01 0.41710847646E+01 0.36215330680E+01
 0.32662167395E+01 0.31086992533E+01 0.31105007339E+01 0.32661568706E+01 0.36209812577E+01
 0.42002463018E+01 0.51862247985E+01 0.74954306799E+01 0.11588510303E+02 0.16913847978E+02
 0.11609712432E+02 0.13643843134E+02 0.14138112862E+02 0.12902382030E+02 0.10491928694E+02
 0.78294763177E+01 0.56963818259E+01 0.44182254224E+01 0.37915042007E+01 0.33677491776E+01
 0.30967820309E+01 0.29730546695E+01 0.29613751265E+01 0.30457870584E+01 0.32510700348E+01
 0.36209812577E+01 0.41670576806E+01 0.49507559420E+01 0.64775497987E+01 0.88876368901E+01
 0.63748881216E+01 0.72891175455E+01 0.76772463883E+01 0.73241609888E+01 0.63963395496E+01
 0.53042133219E+01 0.44182254224E+01 0.38522143241E+01 0.34433206474E+01 0.31355954819E+01
 0.29489079092E+01 0.28684368630E+01 0.28650136421E+01 0.29214305311E+01 0.30457870584E+01
 0.32661568706E+01 0.36099104903E+01 0.40756830800E+01 0.46245503471E+01 0.53772924133E+01
 0.46334067038E+01 0.48774001575E+01 0.49860520706E+01 0.48762391181E+01 0.45661131968E+01
 0.41710847646E+01 0.37915042007E+01 0.34433206474E+01 0.31557587220E+01 0.29522943403E+01
 0.28366491853E+01 0.27956823258E+01 0.28096996622E+01 0.28650136421E+01 0.29613751265E+01
 0.31105007339E+01 0.33270208578E+01 0.36158762337E+01 0.39608774538E+01 0.43197133099E+01
 0.40330769857E+01 0.41254489121E+01 0.41294936073E+01 0.40369282809E+01 0.38579741115E+01
 0.36215330680E+01 0.33677491776E+01 0.31355954819E+01 0.29522943403E+01 0.28297837610E+01
 0.27678182375E+01 0.27594704415E+01 0.27956823258E+01 0.28684368630E+01 0.29730546695E+01
 0.31086992533E+01 0.32755496538E+01 0.34692931292E+01 0.36764555297E+01 0.38739594475E+01
 0.38436565973E+01 0.38138805619E+01 0.37287535080E+01 0.35991805077E+01 0.34395874255E+01
 0.32662167395E+01 0.30967820309E+01 0.29489079092E+01 0.28366491853E+01 0.27678182375E+01
 0.27448070149E+01 0.27678182375E+01 0.28366491853E+01 0.29489079092E+01 0.30967820309E+01
 0.32662167395E+01 0.34395874255E+01 0.35991805077E+01 0.37287535080E+01 0.38138805619E+01
 0.40330769857E+01 0.38739594475E+01 0.36764555297E+01 0.34692931292E+01 0.32755496538E+01
 0.31086992533E+01 0.29730546695E+01 0.28684368630E+01 0.27956823258E+01 0.27594704415E+01
 0.27678182375E+01 0.28297837610E+01 0.29522943403E+01 0.31355954819E+01 0.33677491776E+01
 0.36215330680E+01 0.38579741115E+01 0.40369282809E+01 0.41294936073E+01 0.41254489121E+01
 0.46334067038E+01 0.43197133099E+01 0.39608774538E+01 0.36158762337E+01 0.33270208578E+01
 0.31105007339E+01 0.29613751265E+01 0.28650136421E+01 0.28096996622E+01 0.27956823258E+01
 0.28366491853E+01 0.29522943403E+01 0.31557587220E+01 0.34433206474E+01 0.37915042007E+01
 0.41710847646E+01 0.45661131968E+01 0.48762391181E+01 0.49860520706E+01 0.48774001575E+01
 0.63748881216E+01 0.53772924133E+01 0.46245503471E+01 0.40756830800E+01 0.36099104903E+01
 0.32661568706E+01 0.30457870584E+01 0.29214305311E+01 0.28650136421E+01 0.28684368630E+01
 0.29489079092E+01 0.31355954819E+01 0.34433206474E+01 0.38522143241E+01 0.44182254224E+01
 0.53042133219E+01 0.63963395496E+01 0.73241609888E+01 0.76772463883E+01 0.72891175455E+01
 0.11609712432E+02 0.88876368901E+01 0.64775497987E+01 0.49507559420E+01 0.41670576806E+01
 0.36209812577E+01 0.32510700348E+01 0.30457870584E+01 0.29613751265E+01 0.29730546695E+01
 0.30967820309E+01 0.33677491776E+01 0.37915042007E+01 0.44182254224E+01 0.56963818259E+01
 0.78294763177E+01 0.10491928694E+02 0.12902382030E+02 0.14138112862E+02 0.13643843134E+02
 0.22020120916E+02 0.16913847978E+02 0.11588510303E+02 0.74954306799E+01 0.51862247985E+01
 0.42002463018E+01 0.36209812577E+01 0.32661568706E+01 0.31105007339E+01 0.31086992533E+01
 0.32662167395E+01 0.36215330680E+01 0.41710847646E+01 0.53042133219E+01 0.78294763177E+01
 0.11966619664E+02 0.17152364115E+02 0.22093819069E+02 0.25162022559E+02 0.25157388768E+02
 0.37757974198E+02 0.30174911504E+02 0.21215290167E+02 0.13304389737E+02 0.79045218763E+01
 0.51862247985E+01 0.41670576806E+01 0.36099104903E+01 0.33270208578E+01 0.32755496538E+01
 0.34395874255E+01 0.38579741115E+01 0.45661131968E+01 0.63963395496E+01 0.10491928694E+02
 0.17152364115E+02 0.25620615322E+02 0.34081001809E+02 0.40069754137E+02 0.41490621051E+02
 0.57278897053E+02 0.47774614055E+02 0.35158234277E+02 0.22851634210E+02 0.13304389737E+02
 0.74954306799E+01 0.49507559420E+01 0.40756830800E+01 0.36158762337E+01 0.34692931292E+01
 0.35991805077E+01 0.40369282809E+01 0.48762391181E+01 0.73241609888E+01 0.12902382030E+02
 0.22093819069E+02 0.34081001809E+02 0.46661893803E+02 0.56560931367E+02 0.60588106118E+02
 0.77140882595E+02 0.67025221090E+02 0.51584085556E+02 0.35158234277E+02 0.21215290167E+02
 0.11588510303E+02 0.64775497987E+01 0.46245503471E+01 0.39608774538E+01 0.36764555297E+01
 0.37287535080E+01 0.41294936073E+01 0.49860520706E+01 0.76772463883E+01 0.14138112862E+02
 0.25162022559E+02 0.40069754137E+02 0.56560931367E+02 0.70815991274E+02 0.78568583127E+02
 0.92339613780E+02 0.83516091847E+02 0.67025221090E+02 0.47774614055E+02 0.30174911504E+02
 0.16913847978E+02 0.88876368901E+01 0.53772924133E+01 0.43197133099E+01 0.38739594475E+01
 0.38138805619E+01 0.41254489121E+01 0.48774001575E+01 0.72891175455E+01 0.13643843134E+02
 0.25157388768E+02 0.41490621051E+02 0.60588106118E+02 0.78568583127E+02 0.90467369641E+02
 0.92339613780E+02 0.90467369641E+02 0.78568583127E+02 0.60588106118E+02 0.41490621051E+02
 0.25157388768E+02 0.13643843134E+02 0.72891175455E+01 0.48774001575E+01 0.41254489121E+01
 0.38138805619E+01 0.38739594475E+01 0.43197133099E+01 0.53772924133E+01 0.88876368901E+01
 0.16913847978E+02 0.30174911504E+02 0.47774614055E+02 0.67025221090E+02 0.83516091847E+02
 0.90467369641E+02 0.92330963188E+02 0.83503420317E+02 0.67015073817E+02 0.47769900741E+02
 0.30173899404E+02 0.16913743771E+02 0.88876939023E+01 0.53781302144E+01 0.43210140401E+01
 0.38743370257E+01 0.38128837266E+01 0.41243583980E+01 0.48774629643E+01 0.72899479435E+01
 0.13644631160E+02 0.25159183602E+02 0.41495748988E+02 0.60596502671E+02 0.78575711014E+02
 0.78568583127E+02 0.83503420317E+02 0.78563212422E+02 0.65485586465E+02 0.48417113864E+02
 0.31725854868E+02 0.18441272591E+02 0.98768231775E+01 0.57551849216E+01 0.44179964752E+01
 0.38722203124E+01 0.37007119009E+01 0.38721913564E+01 0.44179659231E+01 0.57549862011E+01
 0.98763883136E+01 0.18441412778E+02 0.31728263880E+02 0.48422794530E+02 0.65493014858E+02
 0.60588106118E+02 0.67015073817E+02 0.65485586465E+02 0.56561978066E+02 0.43237360525E+02
 0.29275460016E+02 0.17628693979E+02 0.97907756927E+01 0.57947440609E+01 0.43919330515E+01
 0.38040431026E+01 0.35543047554E+01 0.36067670701E+01 0.39753372370E+01 0.47132325561E+01
 0.68063423005E+01 0.12081705822E+02 0.21403161795E+02 0.34215036280E+02 0.48419046510E+02
 0.41490621051E+02 0.47769900741E+02 0.48417113864E+02 0.43237360525E+02 0.34083237047E+02
 0.23790867485E+02 0.14853514789E+02 0.86768179791E+01 0.54433125081E+01 0.42411941764E+01
 0.36747305740E+01 0.33921230512E+01 0.33631153033E+01 0.35769975479E+01 0.40793535858E+01
 0.49903785337E+01 0.75195491430E+01 0.12936734337E+02 0.21402387941E+02 0.31725140634E+02
 0.25157388768E+02 0.30173899404E+02 0.31725854868E+02 0.29275460016E+02 0.23790867485E+02
 0.17153915292E+02 0.11198064921E+02 0.70368237912E+01 0.48584052475E+01 0.39945269771E+01
 0.34988962339E+01 0.32299876195E+01 0.31616949826E+01 0.32675623747E+01 0.35823753031E+01
 0.41418344624E+01 0.51090479258E+01 0.75201616368E+01 0.12081831619E+02 0.18440287842E+02
 0.13643843134E+02 0.16913743771E+02 0.18441272591E+02 0.17628693979E+02 0.14853514789E+02
 0.11198064921E+02 0.78298332582E+01 0.54875469675E+01 0.42756036650E+01 0.36982874932E+01
 0.33005503078E+01 0.30794623408E+01 0.30079031081E+01 0.30550698066E+01 0.32337483663E+01
 0.35900108275E+01 0.41425964720E+01 0.49913518779E+01 0.68066725437E+01 0.98758349276E+01
 0.72891175455E+01 0.88876939023E+01 0.98768231775E+01 0.97907756927E+01 0.86768179791E+01
 0.70368237912E+01 0.54875469675E+01 0.44177666506E+01 0.38205044377E+01 0.34015268527E+01
 0.31083460537E+01 0.29492314884E+01 0.28968408016E+01 0.29230235866E+01 0.30261483052E+01
 0.32342206682E+01 0.35830564101E+01 0.40795948813E+01 0.47126476399E+01 0.57538875907E+01
 0.48774001575E+01 0.53781302144E+01 0.57551849216E+01 0.57947440609E+01 0.54433125081E+01
 0.48584052475E+01 0.42756036650E+01 0.38205044377E+01 0.34432913156E+01 0.31447418670E+01
 0.29473360789E+01 0.28468993487E+01 0.28214060455E+01 0.28491018638E+01 0.29232047211E+01
 0.30553136446E+01 0.32674734116E+01 0.35762938176E+01 0.39742275241E+01 0.44170872314E+01
 0.41254489121E+01 0.43210140401E+01 0.44179964752E+01 0.43919330515E+01 0.42411941764E+01
 0.39945269771E+01 0.36982874932E+01 0.34015268527E+01 0.31447418670E+01 0.29524505262E+01
 0.28324363670E+01 0.27791970549E+01 0.27798800196E+01 0.28214153424E+01 0.28967995163E+01
 0.30076484268E+01 0.31611454519E+01 0.33624676544E+01 0.36064612841E+01 0.38725991925E+01
 0.38138805619E+01 0.38743370257E+01 0.38722203124E+01 0.38040431026E+01 0.36747305740E+01
 0.34988962339E+01 0.33005503078E+01 0.31083460537E+01 0.29473360789E+01 0.28324363670E+01
 0.27678516726E+01 0.27514206987E+01 0.27791561444E+01 0.28467597756E+01 0.29489528922E+01
 0.30791268222E+01 0.32298299316E+01 0.33924156017E+01 0.35551444305E+01 0.37018712253E+01
 0.38739594475E+01 0.38128837266E+01 0.37007119009E+01 0.35543047554E+01 0.33921230512E+01
 0.32299876195E+01 0.30794623408E+01 0.29492314884E+01 0.28468993487E+01 0.27791970549E+01
 0.27514206987E+01 0.27678111236E+01 0.28323139775E+01 0.29471369032E+01 0.31081977997E+01
 0.33006739680E+01 0.34994500897E+01 0.36756288969E+01 0.38049160743E+01 0.38725991925E+01
 0.43197133099E+01 0.41243583980E+01 0.38721913564E+01 0.36067670701E+01 0.33631153033E+01
 0.31616949826E+01 0.30079031081E+01 0.28968408016E+01 0.28214060455E+01 0.27798800196E+01
 0.27791561444E+01 0.28323139775E+01 0.29523100791E+01 0.31447376327E+01 0.34018074413E+01
 0.36988754054E+01 0.39952331541E+01 0.42416427477E+01 0.43917498804E+01 0.44170872314E+01
 0.53772924133E+01 0.48774629643E+01 0.44179659231E+01 0.39753372370E+01 0.35769975479E+01
 0.32675623747E+01 0.30550698066E+01 0.29230235866E+01 0.28491018638E+01 0.28214153424E+01
 0.28467597756E+01 0.29471369032E+01 0.31447376327E+01 0.34436357371E+01 0.38210884448E+01
 0.42761106112E+01 0.48584825687E+01 0.54427460317E+01 0.57936037872E+01 0.57538875907E+01
 0.88876368901E+01 0.72899479435E+01 0.57549862011E+01 0.47132325561E+01 0.40793535858E+01
 0.35823753031E+01 0.32337483663E+01 0.30261483052E+01 0.29232047211E+01 0.28967995163E+01
 0.29489528922E+01 0.31081977997E+01 0.34018074413E+01 0.38210884448E+01 0.44181973626E+01
 0.54873989611E+01 0.70359607784E+01 0.86754263729E+01 0.97892976785E+01 0.98758349276E+01
 0.16913847978E+02 0.13644631160E+02 0.98763883136E+01 0.68063423005E+01 0.49903785337E+01
 0.41418344624E+01 0.35900108275E+01 0.32342206682E+01 0.30553136446E+01 0.30076484268E+01
 0.30791268222E+01 0.33006739680E+01 0.36988754054E+01 0.42761106112E+01 0.54873989611E+01
 0.78288356313E+01 0.11196385663E+02 0.14851519859E+02 0.17626907458E+02 0.18440287842E+02
 0.30174911504E+02 0.25159183602E+02 0.18441412778E+02 0.12081705822E+02 0.75195491430E+01
 0.51090479258E+01 0.41425964720E+01 0.35830564101E+01 0.32674734116E+01 0.31611454519E+01
 0.32298299316E+01 0.34994500897E+01 0.39952331541E+01 0.48584825687E+01 0.70359607784E+01
 0.11196385663E+02 0.17151614142E+02 0.23788260517E+02 0.29273309431E+02 0.31725140634E+02
 0.47774614055E+02 0.41495748988E+02 0.31728263880E+02 0.21403161795E+02 0.12936734337E+02
 0.75201616368E+01 0.49913518779E+01 0.40795948813E+01 0.35762938176E+01 0.33624676544E+01
 0.33924156017E+01 0.36756288969E+01 0.42416427477E+01 0.54427460317E+01 0.86754263729E+01
 0.14851519859E+02 0.23788260517E+02 0.34080561940E+02 0.43236214191E+02 0.48419046510E+02
 0.67025221090E+02 0.60596502671E+02 0.48422794530E+02 0.34215036280E+02 0.21402387941E+02
 0.12081831619E+02 0.68066725437E+01 0.47126476399E+01 0.39742275241E+01 0.36064612841E+01
 0.35551444305E+01 0.38049160743E+01 0.43917498804E+01 0.57936037872E+01 0.97892976785E+01
 0.17626907458E+02 0.29273309431E+02 0.43236214191E+02 0.56564468076E+02 0.65493014858E+02
 0.83516091847E+02 0.78575711014E+02 0.65493014858E+02 0.48419046510E+02 0.31725140634E+02
 0.18440287842E+02 0.98758349276E+01 0.57538875907E+01 0.44170872314E+01 0.38725991925E+01
 0.37018712253E+01 0.38725991925E+01 0.44170872314E+01 0.57538875907E+01 0.98758349276E+01
 0.18440287842E+02 0.31725140634E+02 0.48419046510E+02 0.65493014858E+02 0.78575711014E+02
 0.77140882595E+02 0.78568583127E+02 0.70815991274E+02 0.56560931367E+02 0.40069754137E+02
 0.25162022559E+02 0.14138112862E+02 0.76772463883E+01 0.49860520706E+01 0.41294936073E+01
 0.37287535080E+01 0.36764555297E+01 0.39608774538E+01 0.46245503471E+01 0.64775497987E+01
 0.11588510303E+02 0.21215290167E+02 0.35158234277E+02 0.51584085556E+02 0.67025221090E+02
 0.78568583127E+02 0.83503420317E+02 0.78563212422E+02 0.65485586465E+02 0.48417113864E+02
 0.31725854868E+02 0.18441272591E+02 0.98768231775E+01 0.57551849216E+01 0.44179964752E+01
 0.38722203124E+01 0.37007119009E+01 0.38721913564E+01 0.44179659231E+01 0.57549862011E+01
 0.98763883136E+01 0.18441412778E+02 0.31728263880E+02 0.48422794530E+02 0.65493014858E+02
 0.70815991274E+02 0.78563212422E+02 0.77131741280E+02 0.67016373916E+02 0.51578909287E+02
 0.35157147485E+02 0.21216320487E+02 0.11589581954E+02 0.64779551374E+01 0.46245996030E+01
 0.39608888514E+01 0.36764395643E+01 0.37287082203E+01 0.41294806199E+01 0.49860020292E+01
 0.76771542546E+01 0.14138582165E+02 0.25164096886E+02 0.40073556879E+02 0.56564468076E+02
 0.56560931367E+02 0.65485586465E+02 0.67016373916E+02 0.60589965108E+02 0.48420690221E+02
 0.34216511444E+02 0.21404894418E+02 0.12083457303E+02 0.68071712823E+01 0.47126768306E+01
 0.39742308252E+01 0.36064494449E+01 0.35550976876E+01 0.38049122660E+01 0.43917609688E+01
 0.57935804464E+01 0.97895396493E+01 0.17627888266E+02 0.29274688694E+02 0.43236214191E+02
 0.40069754137E+02 0.48417113864E+02 0.51578909287E+02 0.48420690221E+02 0.40075175681E+02
 0.29278331708E+02 0.18961636361E+02 0.11148171102E+02 0.65546189364E+01 0.46286280995E+01
 0.39020577450E+01 0.34982290744E+01 0.33751543616E+01 0.34982281786E+01 0.39021017230E+01
 0.46286761809E+01 0.65543175055E+01 0.11146774177E+02 0.18958398870E+02 0.29273309431E+02
 0.25162022559E+02 0.31725854868E+02 0.35157147485E+02 0.34216511444E+02 0.29278331708E+02
 0.22097651078E+02 0.14854356059E+02 0.92086897689E+01 0.58369948523E+01 0.43844835218E+01
 0.37506106826E+01 0.33624663938E+01 0.32076146374E+01 0.32448555210E+01 0.34877382436E+01
 0.39801535727E+01 0.47939097957E+01 0.68635651844E+01 0.11146576560E+02 0.17626907458E+02
 0.14138112862E+02 0.18441272591E+02 0.21216320487E+02 0.21404894418E+02 0.18961636361E+02
 0.14854356059E+02 0.10492552826E+02 0.70358526210E+01 0.49789544482E+01 0.40612713661E+01
 0.35442421607E+01 0.32126638743E+01 0.30635008227E+01 0.30571588262E+01 0.31875432694E+01
 0.34951316144E+01 0.40091969374E+01 0.47939286349E+01 0.65543059853E+01 0.97892976785E+01
 0.76772463883E+01 0.98768231775E+01 0.11589581954E+02 0.12083457303E+02 0.11148171102E+02
 0.92086897689E+01 0.70358526210E+01 0.53029175244E+01 0.42751195884E+01 0.37229142035E+01
 0.33192310302E+01 0.30649590328E+01 0.29466471071E+01 0.29295009448E+01 0.29981654468E+01
 0.31734203400E+01 0.34950903481E+01 0.39801254635E+01 0.46286901635E+01 0.57936037872E+01
 0.49860520706E+01 0.57551849216E+01 0.64779551374E+01 0.68071712823E+01 0.65546189364E+01
 0.58369948523E+01 0.49789544482E+01 0.42751195884E+01 0.37911927950E+01 0.34017388626E+01
 0.31118119634E+01 0.29359193872E+01 0.28573597261E+01 0.28485431933E+01 0.28933839123E+01
 0.29981484524E+01 0.31874858992E+01 0.34876710062E+01 0.39020589311E+01 0.43917498804E+01
 0.41294936073E+01 0.44179964752E+01 0.46245996030E+01 0.47126768306E+01 0.46286280995E+01
 0.43844835218E+01 0.40612713661E+01 0.37229142035E+01 0.34017388626E+01 0.31359650031E+01
 0.29473839049E+01 0.28384719165E+01 0.27966491811E+01 0.28041067885E+01 0.28485717356E+01
 0.29295316533E+01 0.30571680751E+01 0.32448486786E+01 0.34982232486E+01 0.38049160743E+01
 0.37287535080E+01 0.38722203124E+01 0.39608888514E+01 0.39742308252E+01 0.39020577450E+01
 0.37506106826E+01 0.35442421607E+01 0.33192310302E+01 0.31118119634E+01 0.29473839049E+01
 0.28367263158E+01 0.27791904391E+01 0.27684065264E+01 0.27966666411E+01 0.28574068118E+01
 0.29467072450E+01 0.30635508847E+01 0.32076513321E+01 0.33751920760E+01 0.35551444305E+01
 0.36764555297E+01 0.37007119009E+01 0.36764395643E+01 0.36064494449E+01 0.34982290744E+01
 0.33624663938E+01 0.32126638743E+01 0.30649590328E+01 0.29359193872E+01 0.28384719165E+01
 0.27791904391E+01 0.27594806460E+01 0.27791791815E+01 0.28384661161E+01 0.29359285638E+01
 0.30649714371E+01 0.32126625175E+01 0.33624532082E+01 0.34982232486E+01 0.36064612841E+01
 0.39608774538E+01 0.38721913564E+01 0.37287082203E+01 0.35550976876E+01 0.33751543616E+01
 0.32076146374E+01 0.30635008227E+01 0.29466471071E+01 0.28573597261E+01 0.27966491811E+01
 0.27684065264E+01 0.27791791815E+01 0.28366919125E+01 0.29473449269E+01 0.31117951106E+01
 0.33192414545E+01 0.35442617455E+01 0.37506217540E+01 0.39020589311E+01 0.39742275241E+01
 0.46245503471E+01 0.44179659231E+01 0.41294806199E+01 0.38049122660E+01 0.34982281786E+01
 0.32448555210E+01 0.30571588262E+01 0.29295009448E+01 0.28485431933E+01 0.28041067885E+01
 0.27966666411E+01 0.28384661161E+01 0.29473449269E+01 0.31359524904E+01 0.34018365711E+01
 0.37231387040E+01 0.40615382077E+01 0.43846747432E+01 0.46286901635E+01 0.47126476399E+01
 0.64775497987E+01 0.57549862011E+01 0.49860020292E+01 0.43917609688E+01 0.39021017230E+01
 0.34877382436E+01 0.31875432694E+01 0.29981654468E+01 0.28933839123E+01 0.28485717356E+01
 0.28574068118E+01 0.29359285638E+01 0.31117951106E+01 0.34018365711E+01 0.37915489923E+01
 0.42756787310E+01 0.49794315134E+01 0.58370977473E+01 0.65543059853E+01 0.68066725437E+01
 0.11588510303E+02 0.98763883136E+01 0.76771542546E+01 0.57935804464E+01 0.46286761809E+01
 0.39801535727E+01 0.34951316144E+01 0.31734203400E+01 0.29981484524E+01 0.29295316533E+01
 0.29467072450E+01 0.30649714371E+01 0.33192414545E+01 0.37231387040E+01 0.42756787310E+01
 0.53035280120E+01 0.70359186822E+01 0.92078151764E+01 0.11146576560E+02 0.12081831619E+02
 0.21215290167E+02 0.18441412778E+02 0.14138582165E+02 0.97895396493E+01 0.65543175055E+01
 0.47939097957E+01 0.40091969374E+01 0.34950903481E+01 0.31874858992E+01 0.30571680751E+01
 0.30635508847E+01 0.32126625175E+01 0.35442617455E+01 0.40615382077E+01 0.49794315134E+01
 0.70359186822E+01 0.10491368347E+02 0.14851717563E+02 0.18958398870E+02 0.21402387941E+02
 0.35158234277E+02 0.31728263880E+02 0.25164096886E+02 0.17627888266E+02 0.11146774177E+02
 0.68635651844E+01 0.47939286349E+01 0.39801254635E+01 0.34876710062E+01 0.32448486786E+01
 0.32076513321E+01 0.33624532082E+01 0.37506217540E+01 0.43846747432E+01 0.58370977473E+01
 0.92078151764E+01 0.14851717563E+02 0.22093647420E+02 0.29274688694E+02 0.34215036280E+02
 0.51584085556E+02 0.48422794530E+02 0.40073556879E+02 0.29274688694E+02 0.18958398870E+02
 0.11146576560E+02 0.65543059853E+01 0.46286901635E+01 0.39020589311E+01 0.34982232486E+01
 0.33751920760E+01 0.34982232486E+01 0.39020589311E+01 0.46286901635E+01 0.65543059853E+01
 0.11146576560E+02 0.18958398870E+02 0.29274688694E+02 0.40073556879E+02 0.48422794530E+02
 0.67025221090E+02 0.65493014858E+02 0.56564468076E+02 0.43236214191E+02 0.29273309431E+02
 0.17626907458E+02 0.97892976785E+01 0.57936037872E+01 0.43917498804E+01 0.38049160743E+01
 0.35551444305E+01 0.36064612841E+01 0.39742275241E+01 0.47126476399E+01 0.68066725437E+01
 0.12081831619E+02 0.21402387941E+02 0.34215036280E+02 0.48422794530E+02 0.60596502671E+02
 0.57278897053E+02 0.60588106118E+02 0.56560931367E+02 0.46661893803E+02 0.34081001809E+02
 0.22093819069E+02 0.12902382030E+02 0.73241609888E+01 0.48762391181E+01 0.40369282809E+01
 0.35991805077E+01 0.34692931292E+01 0.36158762337E+01 0.40756830800E+01 0.49507559420E+01
 0.74954306799E+01 0.13304389737E+02 0.22851634210E+02 0.35158234277E+02 0.47774614055E+02
 0.60588106118E+02 0.67015073817E+02 0.65485586465E+02 0.56561978066E+02 0.43237360525E+02
 0.29275460016E+02 0.17628693979E+02 0.97907756927E+01 0.57947440609E+01 0.43919330515E+01
 0.38040431026E+01 0.35543047554E+01 0.36067670701E+01 0.39753372370E+01 0.47132325561E+01
 0.68063423005E+01 0.12081705822E+02 0.21403161795E+02 0.34215036280E+02 0.48419046510E+02
 0.56560931367E+02 0.65485586465E+02 0.67016373916E+02 0.60589965108E+02 0.48420690221E+02
 0.34216511444E+02 0.21404894418E+02 0.12083457303E+02 0.68071712823E+01 0.47126768306E+01
 0.39742308252E+01 0.36064494449E+01 0.35550976876E+01 0.38049122660E+01 0.43917609688E+01
 0.57935804464E+01 0.97895396493E+01 0.17627888266E+02 0.29274688694E+02 0.43236214191E+02
 0.46661893803E+02 0.56561978066E+02 0.60589965108E+02 0.57280935102E+02 0.47776690791E+02
 0.35160669215E+02 0.22854273394E+02 0.13306227347E+02 0.74955819837E+01 0.49496414040E+01
 0.40747779431E+01 0.36161487537E+01 0.34702043219E+01 0.35994699353E+01 0.40361607188E+01
 0.48751846170E+01 0.73236755601E+01 0.12902379324E+02 0.22093647420E+02 0.34080561940E+02
 0.34081001809E+02 0.43237360525E+02 0.48420690221E+02 0.47776690791E+02 0.41498531908E+02
 0.31731646150E+02 0.21406081345E+02 0.12937874119E+02 0.75193587256E+01 0.49899591514E+01
 0.40791505920E+01 0.35769721919E+01 0.33631307604E+01 0.33921281993E+01 0.36747335933E+01
 0.42411692208E+01 0.54430844300E+01 0.86759992860E+01 0.14851717563E+02 0.23788260517E+02
 0.22093819069E+02 0.29275460016E+02 0.34216511444E+02 0.35160669215E+02 0.31731646150E+02
 0.25167500849E+02 0.17629785889E+02 0.11146388238E+02 0.68617929733E+01 0.47925754829E+01
 0.39801528060E+01 0.34884258386E+01 0.32451005021E+01 0.32071023676E+01 0.33619277025E+01
 0.37508902637E+01 0.43855158639E+01 0.58376992176E+01 0.92078151764E+01 0.14851519859E+02
 0.12902382030E+02 0.17628693979E+02 0.21404894418E+02 0.22854273394E+02 0.21406081345E+02
 0.17629785889E+02 0.12902185880E+02 0.86740014439E+01 0.58354862945E+01 0.44407000445E+01
 0.37949639757E+01 0.33593390777E+01 0.31260971113E+01 0.30570600214E+01 0.31261624748E+01
 0.33594108972E+01 0.37952577308E+01 0.44416522622E+01 0.58370977473E+01 0.86754263729E+01
 0.73241609888E+01 0.97907756927E+01 0.12083457303E+02 0.13306227347E+02 0.12937874119E+02
 0.11146388238E+02 0.86740014439E+01 0.63935583848E+01 0.48567984430E+01 0.40612973365E+01
 0.35602432304E+01 0.32085920482E+01 0.30145896292E+01 0.29442065090E+01 0.29685053211E+01
 0.30949301687E+01 0.33611471745E+01 0.37945974216E+01 0.43846747432E+01 0.54427460317E+01
 0.48762391181E+01 0.57947440609E+01 0.68071712823E+01 0.74955819837E+01 0.75193587256E+01
 0.68617929733E+01 0.58354862945E+01 0.48567984430E+01 0.41701940928E+01 0.36986724629E+01
 0.33193218976E+01 0.30603787802E+01 0.29181919700E+01 0.28643866079E+01 0.28737721172E+01
 0.29433274991E+01 0.30945005784E+01 0.33587685094E+01 0.37506217540E+01 0.42416427477E+01
 0.40369282809E+01 0.43919330515E+01 0.47126768306E+01 0.49496414040E+01 0.49899591514E+01
 0.47925754829E+01 0.44407000445E+01 0.40612973365E+01 0.36986724629E+01 0.33683132630E+01
 0.31084973676E+01 0.29358408468E+01 0.28437859956E+01 0.28127452724E+01 0.28246740205E+01
 0.28736601690E+01 0.29683016797E+01 0.31261853674E+01 0.33624532082E+01 0.36756288969E+01
 0.35991805077E+01 0.38040431026E+01 0.39742308252E+01 0.40747779431E+01 0.40791505920E+01
 0.39801528060E+01 0.37949639757E+01 0.35602432304E+01 0.33193218976E+01 0.31084973676E+01
 0.29490462722E+01 0.28467919213E+01 0.27966290160E+01 0.27884980191E+01 0.28128247978E+01
 0.28645235164E+01 0.29444740616E+01 0.30575297697E+01 0.32076513321E+01 0.33924156017E+01
 0.34692931292E+01 0.35543047554E+01 0.36064494449E+01 0.36161487537E+01 0.35769721919E+01
 0.34884258386E+01 0.33593390777E+01 0.32085920482E+01 0.30603787802E+01 0.29358408468E+01
 0.28467919213E+01 0.27956122313E+01 0.27798671104E+01 0.27967323986E+01 0.28439845004E+01
 0.29184544710E+01 0.30148395306E+01 0.31261853674E+01 0.32448486786E+01 0.33624676544E+01
 0.36158762337E+01 0.36067670701E+01 0.35550976876E+01 0.34702043219E+01 0.33631307604E+01
 0.32451005021E+01 0.31260971113E+01 0.30145896292E+01 0.29181919700E+01 0.28437859956E+01
 0.27966290160E+01 0.27798671104E+01 0.27956956867E+01 0.28469057325E+01 0.29359085725E+01
 0.30603100456E+01 0.32082946900E+01 0.33587685094E+01 0.34876710062E+01 0.35762938176E+01
 0.40756830800E+01 0.39753372370E+01 0.38049122660E+01 0.35994699353E+01 0.33921281993E+01
 0.32071023676E+01 0.30570600214E+01 0.29442065090E+01 0.28643866079E+01 0.28127452724E+01
 0.27884980191E+01 0.27967323986E+01 0.28469057325E+01 0.29489979595E+01 0.31081883514E+01
 0.33188154132E+01 0.35597116544E+01 0.37945974216E+01 0.39801254635E+01 0.40795948813E+01
 0.49507559420E+01 0.47132325561E+01 0.43917609688E+01 0.40361607188E+01 0.36747335933E+01
 0.33619277025E+01 0.31261624748E+01 0.29685053211E+01 0.28737721172E+01 0.28246740205E+01
 0.28128247978E+01 0.28439845004E+01 0.29359085725E+01 0.31081883514E+01 0.33677489869E+01
 0.36983185752E+01 0.40615718462E+01 0.44416522622E+01 0.47939286349E+01 0.49913518779E+01
 0.74954306799E+01 0.68063423005E+01 0.57935804464E+01 0.48751846170E+01 0.42411692208E+01
 0.37508902637E+01 0.33594108972E+01 0.30949301687E+01 0.29433274991E+01 0.28736601690E+01
 0.28645235164E+01 0.29184544710E+01 0.30603100456E+01 0.33188154132E+01 0.36983185752E+01
 0.41707876003E+01 0.48585260305E+01 0.58376992176E+01 0.68635651844E+01 0.75201616368E+01
 0.13304389737E+02 0.12081705822E+02 0.97895396493E+01 0.73236755601E+01 0.54430844300E+01
 0.43855158639E+01 0.37952577308E+01 0.33611471745E+01 0.30945005784E+01 0.29683016797E+01
 0.29444740616E+01 0.30148395306E+01 0.32082946900E+01 0.35597116544E+01 0.40615718462E+01
 0.48585260305E+01 0.63961368194E+01 0.86759992860E+01 0.11146774177E+02 0.12936734337E+02
 0.22851634210E+02 0.21403161795E+02 0.17627888266E+02 0.12902379324E+02 0.86759992860E+01
 0.58376992176E+01 0.44416522622E+01 0.37945974216E+01 0.33587685094E+01 0.31261853674E+01
 0.30575297697E+01 0.31261853674E+01 0.33587685094E+01 0.37945974216E+01 0.44416522622E+01
 0.58376992176E+01 0.86759992860E+01 0.12902379324E+02 0.17627888266E+02 0.21403161795E+02
 0.35158234277E+02 0.34215036280E+02 0.29274688694E+02 0.22093647420E+02 0.14851717563E+02
 0.92078151764E+01 0.58370977473E+01 0.43846747432E+01 0.37506217540E+01 0.33624532082E+01
 0.32076513321E+01 0.32448486786E+01 0.34876710062E+01 0.39801254635E+01 0.47939286349E+01
 0.68635651844E+01 0.11146774177E+02 0.17627888266E+02 0.25164096886E+02 0.31728263880E+02
 0.47774614055E+02 0.48419046510E+02 0.43236214191E+02 0.34080561940E+02 0.23788260517E+02
 0.14851519859E+02 0.86754263729E+01 0.54427460317E+01 0.42416427477E+01 0.36756288969E+01
 0.33924156017E+01 0.33624676544E+01 0.35762938176E+01 0.40795948813E+01 0.49913518779E+01
 0.75201616368E+01 0.12936734337E+02 0.21403161795E+02 0.31728263880E+02 0.41495748988E+02
 0.37757974198E+02 0.41490621051E+02 0.40069754137E+02 0.34081001809E+02 0.25620615322E+02
 0.17152364115E+02 0.10491928694E+02 0.63963395496E+01 0.45661131968E+01 0.38579741115E+01
 0.34395874255E+01 0.32755496538E+01 0.33270208578E+01 0.36099104903E+01 0.41670576806E+01
 0.51862247985E+01 0.79045218763E+01 0.13304389737E+02 0.21215290167E+02 0.30174911504E+02
 0.41490621051E+02 0.47769900741E+02 0.48417113864E+02 0.43237360525E+02 0.34083237047E+02
 0.23790867485E+02 0.14853514789E+02 0.86768179791E+01 0.54433125081E+01 0.42411941764E+01