   1   1   0   0
  0.1157456E+02  0.2468172E-09  0.2468172E-09  0.2468172E-09  0.5000000E-15
  1.000000000000000E-004
  CAR 
 bcc Fe                                  
     46.80393784     -4.84525333  301      5.65167336      1.00000000
     -4.845  0.0000E+00  0.0000E+00  0.0000E+00  0.0000E+00
     -4.673  0.0000E+00  0.0000E+00  0.0000E+00  0.0000E+00
     -4.501  0.0000E+00  0.0000E+00  0.0000E+00  0.0000E+00
     -4.329  0.0000E+00  0.0000E+00  0.0000E+00  0.0000E+00
     -4.157 -0.1066E-30  0.0000E+00 -0.1835E-31  0.0000E+00
     -3.984 -0.7254E-25 -0.1912E-31 -0.1249E-25 -0.3292E-32
     -3.812 -0.1107E-19 -0.1558E-25 -0.1905E-20 -0.2682E-26
     -3.640 -0.3653E-15 -0.2846E-20 -0.6289E-16 -0.4899E-21
     -3.468 -0.2731E-11 -0.1123E-15 -0.4702E-12 -0.1933E-16
     -3.296 -0.4450E-08 -0.1011E-11 -0.7666E-09 -0.1741E-12
     -3.124 -0.1538E-05 -0.1981E-08 -0.2655E-06 -0.3412E-09
     -2.951 -0.1046E-03 -0.8272E-06 -0.1828E-04 -0.1428E-06
     -2.779 -0.9904E-03 -0.6898E-04 -0.1888E-03 -0.1202E-04
     -2.607  0.4703E-02 -0.8748E-03  0.6209E-03 -0.1626E-03
     -2.435  0.2166E-01  0.2948E-02  0.4350E-02  0.3450E-03
     -2.263  0.1103E-01  0.2078E-01  0.6249E-02  0.3922E-02
     -2.091  0.2216E-01  0.1231E-01  0.1006E-01  0.6042E-02
     -1.918  0.1974E-01  0.1930E-01  0.1346E-01  0.9365E-02
     -1.746  0.5570E-01  0.2139E-01  0.2305E-01  0.1305E-01
     -1.574  0.8159E-01  0.4149E-01  0.3710E-01  0.2019E-01
     -1.402  0.7433E-02  0.8908E-01  0.3838E-01  0.3553E-01
     -1.230 -0.8125E-02  0.1830E-01  0.3698E-01  0.3868E-01
     -1.058  0.4726E-01 -0.8647E-02  0.4512E-01  0.3719E-01
     -0.885  0.1091E+00  0.1855E-01  0.6390E-01  0.4038E-01
     -0.713  0.6566E-01  0.1068E+00  0.7520E-01  0.5877E-01
     -0.541  0.8865E-01  0.6714E-01  0.9046E-01  0.7033E-01
     -0.369  0.9235E-01  0.7729E-01  0.1064E+00  0.8364E-01
     -0.197  0.5749E-01  0.6866E-01  0.1163E+00  0.9546E-01
     -0.025 -0.1052E-01  0.8754E-01  0.1145E+00  0.1105E+00
      0.148  0.5086E-01  0.3539E-01  0.1232E+00  0.1166E+00
      0.320  0.2258E+00 -0.1257E-01  0.1621E+00  0.1145E+00
      0.492  0.1698E+00  0.5406E-01  0.1913E+00  0.1238E+00
      0.664  0.2361E+00  0.1898E+00  0.2320E+00  0.1564E+00
      0.836  0.2474E+00  0.1288E+00  0.2745E+00  0.1786E+00
      1.008  0.2798E+00  0.9074E-01  0.3227E+00  0.1942E+00
      1.180  0.6490E+00  0.1743E+00  0.4345E+00  0.2242E+00
      1.353  0.8817E+00  0.9956E-01  0.5863E+00  0.2414E+00
      1.525  0.7548E+00  0.8342E-01  0.7162E+00  0.2557E+00
      1.697  0.9620E+00  0.3828E-01  0.8818E+00  0.2623E+00
      1.869  0.7116E+00  0.8823E-01  0.1004E+01  0.2775E+00
      2.041  0.4337E+00  0.3788E+00  0.1079E+01  0.3427E+00
      2.213  0.5850E+00  0.4359E+00  0.1180E+01  0.4178E+00
      2.386  0.1359E+01  0.3152E+00  0.1414E+01  0.4721E+00
      2.558  0.1519E+01  0.2242E+00  0.1675E+01  0.5107E+00
      2.730  0.8648E+00  0.3807E+00  0.1824E+01  0.5762E+00
      2.902  0.1141E+01  0.4039E+00  0.2021E+01  0.6458E+00
      3.074  0.1755E+01  0.4675E+00  0.2323E+01  0.7262E+00
      3.246  0.1349E+01  0.8369E+00  0.2555E+01  0.8703E+00
      3.419  0.6693E+00  0.5732E+00  0.2670E+01  0.9690E+00
      3.591  0.3399E+00  0.2635E+00  0.2729E+01  0.1014E+01
      3.763  0.7204E+00  0.3539E+00  0.2853E+01  0.1075E+01
      3.935  0.6710E+00  0.4437E+00  0.2968E+01  0.1152E+01
      4.107  0.3455E+00  0.8925E+00  0.3028E+01  0.1305E+01
      4.279  0.1041E+01  0.1524E+01  0.3207E+01  0.1568E+01
      4.452  0.1720E+01  0.1179E+01  0.3503E+01  0.1771E+01
      4.624  0.2075E+01  0.1061E+01  0.3860E+01  0.1953E+01
      4.796  0.2430E+01  0.1197E+01  0.4279E+01  0.2159E+01
      4.968  0.1822E+01  0.1273E+01  0.4592E+01  0.2378E+01
      5.140  0.8045E+00  0.1217E+01  0.4731E+01  0.2588E+01
      5.312  0.9838E+00  0.9433E+00  0.4900E+01  0.2750E+01
      5.485  0.9507E+00  0.3779E+00  0.5064E+01  0.2816E+01
      5.657  0.6247E+00  0.9601E-01  0.5172E+01  0.2832E+01
      5.829  0.4039E+00  0.4586E+00  0.5241E+01  0.2911E+01
      6.001  0.2467E+00  0.4932E+00  0.5284E+01  0.2996E+01
      6.173  0.2018E+00  0.2146E+00  0.5318E+01  0.3033E+01
      6.345  0.1479E+00  0.2271E+00  0.5344E+01  0.3072E+01
      6.518  0.9192E-01  0.3939E+00  0.5360E+01  0.3140E+01
      6.690  0.1850E+00  0.9143E+00  0.5391E+01  0.3297E+01
      6.862  0.3303E+00  0.9213E+00  0.5448E+01  0.3456E+01
      7.034  0.1641E+00  0.9802E+00  0.5477E+01  0.3625E+01
      7.206  0.8571E-01  0.1389E+01  0.5491E+01  0.3864E+01
      7.378  0.1303E+00  0.1385E+01  0.5514E+01  0.4102E+01
      7.551  0.7541E-01  0.1917E+01  0.5527E+01  0.4432E+01
      7.723 -0.1546E-01  0.2315E+01  0.5524E+01  0.4831E+01
      7.895  0.5800E-01  0.1416E+01  0.5534E+01  0.5075E+01
      8.067  0.2942E+00  0.7176E+00  0.5585E+01  0.5198E+01
      8.239  0.2005E+00  0.4473E+00  0.5619E+01  0.5275E+01
      8.411  0.8796E-01  0.3767E+00  0.5634E+01  0.5340E+01
      8.584  0.2138E+00  0.1549E+00  0.5671E+01  0.5367E+01
      8.756  0.1575E+00  0.3289E+00  0.5698E+01  0.5423E+01
      8.928  0.9710E-01  0.3056E+00  0.5715E+01  0.5476E+01
      9.100  0.1764E-01  0.1868E+00  0.5718E+01  0.5508E+01
      9.272  0.4659E-01  0.1092E+00  0.5726E+01  0.5527E+01
      9.444  0.1810E+00  0.9613E-01  0.5757E+01  0.5543E+01
      9.617  0.1289E+00  0.2188E+00  0.5779E+01  0.5581E+01
      9.789  0.1165E+00  0.2086E+00  0.5800E+01  0.5617E+01
      9.961  0.1665E+00  0.1188E+00  0.5828E+01  0.5637E+01
     10.133  0.9298E-01  0.1651E+00  0.5844E+01  0.5666E+01
     10.305  0.6467E-02  0.1094E+00  0.5845E+01  0.5685E+01
     10.477  0.3765E-01  0.1583E+00  0.5852E+01  0.5712E+01
     10.650  0.1942E-01  0.6599E-01  0.5855E+01  0.5723E+01
     10.822  0.7000E-01  0.1357E+00  0.5867E+01  0.5747E+01
     10.994  0.1631E+00  0.2801E+00  0.5895E+01  0.5795E+01
     11.166  0.8993E-01  0.2046E+00  0.5911E+01  0.5830E+01
     11.338  0.8454E-01  0.8413E-01  0.5925E+01  0.5845E+01
     11.510  0.1839E-01  0.7408E-03  0.5928E+01  0.5845E+01
     11.682 -0.4891E-02  0.3453E-01  0.5928E+01  0.5851E+01
     11.855  0.5907E-01  0.2361E-01  0.5938E+01  0.5855E+01
     12.027  0.7710E-01  0.4586E-01  0.5951E+01  0.5863E+01
     12.199  0.8223E-01  0.1701E+00  0.5965E+01  0.5892E+01
     12.371  0.1238E+00  0.8842E-01  0.5987E+01  0.5907E+01
     12.543  0.3295E-01  0.7996E-01  0.5992E+01  0.5921E+01
     12.715  0.9359E-03  0.9822E-01  0.5992E+01  0.5938E+01
     12.888  0.9703E-01  0.7397E-01  0.6009E+01  0.5951E+01
     13.060  0.1502E+00  0.2954E-01  0.6035E+01  0.5956E+01
     13.232  0.2188E+00  0.8532E-01  0.6073E+01  0.5970E+01
     13.404  0.1412E+00  0.5246E-01  0.6097E+01  0.5979E+01
     13.576  0.1132E+00  0.5711E-01  0.6116E+01  0.5989E+01
     13.748  0.3167E+00  0.1938E-01  0.6171E+01  0.5993E+01
     13.921  0.2873E+00 -0.5745E-02  0.6220E+01  0.5992E+01
     14.093  0.1990E+00 -0.1261E-01  0.6255E+01  0.5989E+01
     14.265  0.1188E+00  0.1096E+00  0.6275E+01  0.6008E+01
     14.437  0.2360E+00  0.3199E+00  0.6316E+01  0.6063E+01
     14.609  0.2069E+00  0.1641E+00  0.6351E+01  0.6092E+01
     14.781  0.3743E-01  0.1658E+00  0.6358E+01  0.6120E+01
     14.954  0.8261E-01  0.3584E+00  0.6372E+01  0.6182E+01
     15.126  0.1761E+00  0.3788E+00  0.6402E+01  0.6247E+01
     15.298  0.2057E+00  0.2526E+00  0.6438E+01  0.6291E+01
     15.470  0.1299E+00  0.2363E+00  0.6460E+01  0.6331E+01
     15.642  0.2275E+00  0.1433E+00  0.6499E+01  0.6356E+01
     15.814  0.4290E+00  0.2311E-01  0.6573E+01  0.6360E+01
     15.987  0.3771E+00  0.7248E-01  0.6638E+01  0.6372E+01
     16.159  0.7284E-01  0.2433E+00  0.6651E+01  0.6414E+01
     16.331 -0.5109E-02  0.3087E+00  0.6650E+01  0.6467E+01
     16.503  0.7321E-01  0.2012E+00  0.6662E+01  0.6502E+01
     16.675  0.1871E+00  0.2629E+00  0.6695E+01  0.6547E+01
     16.847  0.2091E+00  0.3817E+00  0.6731E+01  0.6613E+01
     17.020  0.1101E+00  0.2190E+00  0.6749E+01  0.6651E+01
     17.192  0.3552E+00  0.5658E-01  0.6811E+01  0.6660E+01
     17.364  0.4757E+00  0.7533E-01  0.6893E+01  0.6673E+01
     17.536  0.2278E+00  0.1505E+00  0.6932E+01  0.6699E+01
     17.708  0.4480E-01  0.2162E+00  0.6939E+01  0.6737E+01
     17.880 -0.8537E-02  0.2706E+00  0.6938E+01  0.6783E+01
     18.053 -0.1317E-01  0.3210E+00  0.6936E+01  0.6838E+01
     18.225  0.7009E-01  0.2458E+00  0.6948E+01  0.6881E+01
     18.397  0.2747E+00  0.2482E+00  0.6995E+01  0.6923E+01
     18.569  0.2966E+00  0.9077E-01  0.7046E+01  0.6939E+01
     18.741  0.1747E+00 -0.1252E-01  0.7076E+01  0.6937E+01
     18.913  0.9000E-01  0.1850E-01  0.7092E+01  0.6940E+01
     19.086  0.2547E+00  0.2216E+00  0.7136E+01  0.6978E+01
     19.258  0.2239E+00  0.3497E+00  0.7174E+01  0.7038E+01
     19.430  0.2733E+00  0.2232E+00  0.7221E+01  0.7077E+01
     19.602  0.3031E+00  0.4697E-01  0.7273E+01  0.7085E+01
     19.774  0.2849E+00  0.1820E+00  0.7322E+01  0.7116E+01
     19.946  0.1310E+00  0.2607E+00  0.7345E+01  0.7161E+01
     20.119  0.2637E-01  0.3090E+00  0.7349E+01  0.7214E+01
     20.291  0.9240E-02  0.3908E+00  0.7351E+01  0.7282E+01
     20.463  0.2319E+00  0.2222E+00  0.7391E+01  0.7320E+01
     20.635  0.2899E+00  0.8163E-01  0.7441E+01  0.7334E+01
     20.807  0.1185E+00  0.7023E-01  0.7461E+01  0.7346E+01
     20.979  0.3906E-01  0.7520E-01  0.7468E+01  0.7359E+01
     21.152  0.6112E-01  0.2445E+00  0.7479E+01  0.7401E+01
     21.324  0.3376E+00  0.2779E+00  0.7537E+01  0.7449E+01
     21.496  0.2470E+00  0.1187E+00  0.7579E+01  0.7469E+01
     21.668  0.1307E-01  0.8127E-02  0.7581E+01  0.7471E+01
     21.840  0.6071E-01  0.1582E+00  0.7592E+01  0.7498E+01
     22.012  0.1935E+00  0.2775E+00  0.7625E+01  0.7546E+01
     22.184  0.2084E+00  0.1728E+00  0.7661E+01  0.7576E+01
     22.357  0.1908E+00  0.2506E-01  0.7694E+01  0.7580E+01
     22.529  0.3252E+00  0.5056E-01  0.7750E+01  0.7589E+01
     22.701  0.2752E+00  0.1514E+00  0.7797E+01  0.7615E+01
     22.873  0.2551E+00  0.3045E+00  0.7841E+01  0.7667E+01
     23.045  0.4172E+00  0.3838E+00  0.7913E+01  0.7733E+01
     23.217  0.3258E+00  0.2859E+00  0.7969E+01  0.7782E+01
     23.390  0.1428E+00  0.2747E+00  0.7994E+01  0.7830E+01
     23.562  0.1115E+00  0.3752E+00  0.8013E+01  0.7894E+01
     23.734  0.2063E+00  0.3860E+00  0.8048E+01  0.7961E+01
     23.906  0.4100E+00  0.2233E+00  0.8119E+01  0.7999E+01
     24.078  0.4106E+00  0.2278E+00  0.8190E+01  0.8038E+01
     24.250  0.2931E+00  0.1657E+00  0.8240E+01  0.8067E+01
     24.423  0.9303E-01  0.2609E+00  0.8256E+01  0.8112E+01
     24.595 -0.1362E-02  0.4165E+00  0.8256E+01  0.8184E+01
     24.767  0.2043E+00  0.3048E+00  0.8291E+01  0.8236E+01
     24.939  0.3163E+00  0.2045E+00  0.8346E+01  0.8271E+01
     25.111  0.2269E+00  0.5488E-01  0.8385E+01  0.8281E+01
     25.283  0.1859E+00  0.5265E-01  0.8417E+01  0.8290E+01
     25.456  0.2758E+00  0.1675E+00  0.8464E+01  0.8319E+01
     25.628  0.4183E+00  0.3820E+00  0.8536E+01  0.8384E+01
     25.800  0.1556E+00  0.3367E+00  0.8563E+01  0.8442E+01
     25.972  0.3308E+00  0.2939E+00  0.8620E+01  0.8493E+01
     26.144  0.4866E+00  0.2339E+00  0.8704E+01  0.8533E+01
     26.316  0.1881E+00  0.3353E+00  0.8736E+01  0.8591E+01
     26.489  0.3526E+00  0.4833E+00  0.8797E+01  0.8674E+01
     26.661  0.3213E+00  0.2578E+00  0.8852E+01  0.8718E+01
     26.833  0.4149E-01  0.1881E+00  0.8859E+01  0.8751E+01
     27.005 -0.2307E-02  0.2762E+00  0.8859E+01  0.8798E+01
     27.177  0.9887E-01  0.2475E+00  0.8876E+01  0.8841E+01
     27.349  0.9152E-01  0.6831E-01  0.8892E+01  0.8853E+01
     27.522  0.1713E+00 -0.3238E-02  0.8921E+01  0.8852E+01
     27.694  0.3540E+00  0.1008E+00  0.8982E+01  0.8870E+01
     27.866  0.2991E+00  0.1857E+00  0.9034E+01  0.8902E+01
     28.038  0.1696E+00  0.3542E+00  0.9063E+01  0.8963E+01
     28.210 -0.3780E-02  0.3039E+00  0.9062E+01  0.9015E+01
     28.382  0.1061E-01  0.1304E+00  0.9064E+01  0.9037E+01
     28.555  0.1227E+00  0.8828E-01  0.9085E+01  0.9052E+01
     28.727  0.2139E+00  0.1039E+00  0.9122E+01  0.9070E+01
     28.899  0.2703E+00  0.1681E+00  0.9168E+01  0.9099E+01
     29.071  0.2093E+00  0.6836E-01  0.9204E+01  0.9111E+01
     29.243  0.8897E-01  0.1148E+00  0.9220E+01  0.9131E+01
     29.415  0.2273E+00  0.2712E+00  0.9259E+01  0.9178E+01
     29.588  0.1739E+00  0.2876E+00  0.9289E+01  0.9227E+01
     29.760  0.8417E-01  0.2112E+00  0.9303E+01  0.9263E+01
     29.932  0.1720E+00  0.2283E-01  0.9333E+01  0.9267E+01
     30.104  0.2845E+00  0.8737E-01  0.9382E+01  0.9282E+01
     30.276  0.5866E+00  0.1621E+00  0.9483E+01  0.9310E+01
     30.448  0.5376E+00  0.2903E+00  0.9575E+01  0.9360E+01
     30.621  0.2835E+00  0.3173E+00  0.9624E+01  0.9415E+01
     30.793  0.2306E+00  0.7038E+00  0.9664E+01  0.9536E+01
     30.965  0.2036E+00  0.6420E+00  0.9699E+01  0.9647E+01
     31.137  0.1048E+00  0.2472E+00  0.9717E+01  0.9689E+01
     31.309  0.1751E+00  0.9233E-01  0.9747E+01  0.9705E+01
     31.481  0.1490E+00  0.6710E-03  0.9773E+01  0.9705E+01
     31.654  0.3304E-01  0.6637E-01  0.9779E+01  0.9717E+01
     31.826  0.1077E-01  0.1850E+00  0.9780E+01  0.9748E+01
     31.998  0.6257E-01  0.1383E+00  0.9791E+01  0.9772E+01
     32.170  0.9238E-01  0.1054E+00  0.9807E+01  0.9790E+01
     32.342  0.1176E+00  0.2434E-01  0.9827E+01  0.9795E+01
     32.514  0.1444E+00  0.5960E-01  0.9852E+01  0.9805E+01
     32.686  0.3769E+00  0.1593E+00  0.9917E+01  0.9832E+01
     32.859  0.6063E+00  0.4423E+00  0.1002E+02  0.9908E+01
     33.031  0.4726E+00  0.3303E+00  0.1010E+02  0.9965E+01
     33.203  0.1745E+00  0.3518E-01  0.1013E+02  0.9971E+01
     33.375  0.3229E+00  0.2773E+00  0.1019E+02  0.1002E+02
     33.547  0.6706E+00  0.3450E+00  0.1030E+02  0.1008E+02
     33.719  0.3433E+00  0.2148E+00  0.1036E+02  0.1012E+02
     33.892  0.8077E-01  0.6928E+00  0.1038E+02  0.1023E+02
     34.064  0.1171E+00  0.5661E+00  0.1040E+02  0.1033E+02
     34.236  0.2745E+00  0.1887E+00  0.1044E+02  0.1036E+02
     34.408  0.1994E+00  0.2078E+00  0.1048E+02  0.1040E+02
     34.580  0.3063E+00  0.6765E-01  0.1053E+02  0.1041E+02
     34.752  0.3292E+00  0.1347E+00  0.1059E+02  0.1044E+02
     34.925  0.1575E+00  0.4666E+00  0.1062E+02  0.1052E+02
     35.097  0.2224E+00  0.3437E+00  0.1065E+02  0.1057E+02
     35.269  0.7274E-01  0.2128E+00  0.1067E+02  0.1061E+02
     35.441  0.5932E-01  0.1729E+00  0.1068E+02  0.1064E+02
     35.613  0.1862E+00  0.1145E+00  0.1071E+02  0.1066E+02
     35.785  0.2305E+00  0.8974E-01  0.1075E+02  0.1068E+02
     35.958  0.2786E+00  0.1218E+00  0.1080E+02  0.1070E+02
     36.130  0.1855E+00  0.1884E+00  0.1083E+02  0.1073E+02
     36.302  0.2414E+00  0.2387E+00  0.1087E+02  0.1077E+02
     36.474  0.2964E+00  0.2652E+00  0.1092E+02  0.1082E+02
     36.646  0.4053E+00  0.4060E+00  0.1099E+02  0.1089E+02
     36.818  0.5533E+00  0.2416E+00  0.1109E+02  0.1093E+02
     36.991  0.4397E+00  0.2269E+00  0.1116E+02  0.1097E+02
     37.163  0.2075E+00  0.4729E+00  0.1120E+02  0.1105E+02
     37.335  0.1795E+00  0.3098E+00  0.1123E+02  0.1110E+02
     37.507  0.1082E+00  0.2316E+00  0.1125E+02  0.1114E+02
     37.679  0.2998E-01  0.4321E+00  0.1125E+02  0.1122E+02
     37.851  0.1788E+00  0.1124E+00  0.1128E+02  0.1124E+02
     38.024  0.5254E+00  0.9928E-01  0.1137E+02  0.1125E+02
     38.196  0.5089E+00  0.2166E+00  0.1146E+02  0.1129E+02
     38.368  0.1688E+00  0.2908E+00  0.1149E+02  0.1134E+02
     38.540  0.8887E-01  0.2470E+00  0.1150E+02  0.1138E+02
     38.712  0.1819E+00  0.2425E+00  0.1154E+02  0.1142E+02
     38.884  0.1942E+00  0.3366E+00  0.1157E+02  0.1148E+02
     39.057  0.1949E+00  0.4478E+00  0.1160E+02  0.1156E+02
     39.229  0.1347E+00  0.3182E+00  0.1163E+02  0.1161E+02
     39.401  0.8230E-01  0.1138E-01  0.1164E+02  0.1162E+02
     39.573  0.5106E-01  0.6896E-01  0.1165E+02  0.1163E+02
     39.745  0.9649E-01  0.7736E-01  0.1167E+02  0.1164E+02
     39.917  0.7661E-01  0.1162E-01  0.1168E+02  0.1164E+02
     40.090  0.2928E+00  0.1207E+00  0.1173E+02  0.1166E+02
     40.262  0.2727E+00  0.1551E+00  0.1178E+02  0.1169E+02
     40.434  0.4028E-01  0.9303E-01  0.1178E+02  0.1171E+02
     40.606 -0.1281E-01  0.1195E+00  0.1178E+02  0.1173E+02
     40.778  0.7758E-01  0.2097E+00  0.1179E+02  0.1176E+02
     40.950  0.1537E+00  0.2262E+00  0.1182E+02  0.1180E+02
     41.123  0.1037E+00  0.2728E-01  0.1184E+02  0.1181E+02
     41.295  0.1308E-01  0.3814E-01  0.1184E+02  0.1181E+02
     41.467  0.4249E-01  0.1214E+00  0.1185E+02  0.1183E+02
     41.639  0.2268E+00  0.1291E+00  0.1189E+02  0.1186E+02
     41.811  0.1273E+00  0.1082E+00  0.1191E+02  0.1188E+02
     41.983 -0.5154E-02  0.8056E-01  0.1191E+02  0.1189E+02
     42.156  0.1457E-01  0.1009E+00  0.1191E+02  0.1191E+02
     42.328  0.2730E-01  0.1169E-01  0.1192E+02  0.1191E+02
     42.500  0.6952E-01  0.7200E-02  0.1193E+02  0.1191E+02
     42.672  0.6863E-01  0.2831E-01  0.1194E+02  0.1191E+02
     42.844  0.6052E-01  0.3300E-02  0.1195E+02  0.1192E+02
     43.016  0.7800E-01  0.6029E-01  0.1196E+02  0.1193E+02
     43.188  0.7071E-02  0.1565E+00  0.1196E+02  0.1195E+02
     43.361 -0.3045E-02  0.7217E-01  0.1196E+02  0.1196E+02
     43.533 -0.1950E-03 -0.3136E-02  0.1196E+02  0.1196E+02
     43.705 -0.1480E-03 -0.2755E-02  0.1196E+02  0.1196E+02
     43.877 -0.2169E-02 -0.6720E-05  0.1196E+02  0.1196E+02
     44.049  0.4772E-03  0.1438E-01  0.1196E+02  0.1197E+02
     44.221  0.7015E-01  0.1771E-01  0.1198E+02  0.1197E+02
     44.394  0.1221E+00  0.7627E-01  0.1200E+02  0.1198E+02
     44.566  0.2446E-01  0.9656E-01  0.1200E+02  0.1200E+02
     44.738 -0.5227E-02  0.8527E-02  0.1200E+02  0.1200E+02
     44.910 -0.5676E-03 -0.3617E-02  0.1200E+02  0.1200E+02
     45.082 -0.8656E-05 -0.2435E-03  0.1200E+02  0.1200E+02
     45.254 -0.2608E-07 -0.2765E-05  0.1200E+02  0.1200E+02
     45.427 -0.1670E-10 -0.6655E-08  0.1200E+02  0.1200E+02
     45.599 -0.2352E-14 -0.3581E-11  0.1200E+02  0.1200E+02
     45.771  0.0000E+00 -0.4256E-15  0.1200E+02  0.1200E+02
     45.943  0.0000E+00  0.0000E+00  0.1200E+02  0.1200E+02
     46.115  0.0000E+00  0.0000E+00  0.1200E+02  0.1200E+02
     46.287  0.0000E+00  0.0000E+00  0.1200E+02  0.1200E+02
     46.460  0.0000E+00  0.0000E+00  0.1200E+02  0.1200E+02
     46.632  0.0000E+00  0.0000E+00  0.1200E+02  0.1200E+02
     46.804  0.0000E+00  0.0000E+00  0.1200E+02  0.1200E+02
