BCC W                                   
   3.20000000000000     
    -0.500000    0.500000    0.500000
     0.500000   -0.500000    0.500000
     0.500000    0.500000   -0.500000
   W 
     1
Direct
  0.000000  0.000000  0.000000
 
   20   20   20
  14.085      13.456      12.211      11.447      11.336      11.041      9.9107      8.2847      6.9573      6.2287    
  5.9999      6.2287      6.9573      8.2847      9.9107      11.041      11.336      11.447      12.211      13.456    
  13.456      13.207      12.095      11.161      10.924      10.812      10.024      8.5724      7.1724      6.3060    
  5.9361      6.0076      6.5372      7.6017      9.1194      10.439      10.990      11.076      11.543      12.612    
  12.211      12.095      11.140      10.136      9.7479      9.7289      9.3294      8.2865      7.0692      6.1985    
  5.7516      5.6970      6.0287      6.7918      8.0100      9.3381      10.200      10.518      10.838      11.543    
  11.447      11.161      10.136      8.9653      8.3248      8.2268      8.0917      7.5014      6.6341      5.9042    
  5.4690      5.3481      5.5246      6.0417      6.9203      8.0888      9.1928      9.9616      10.518      11.076    
  11.336      10.924      9.7479      8.3248      7.3204      6.9411      6.8207      6.5211      5.9936      5.4758    
  5.1269      5.0035      5.0892      5.4147      6.0294      6.9353      8.0579      9.1928      10.200      10.990    
  11.041      10.812      9.7289      8.2268      6.9411      6.2158      5.9056      5.6646      5.3384      5.0064    
  4.7749      4.6946      4.7487      4.9483      5.3591      6.0177      6.9353      8.0888      9.3381      10.439    
  9.9107      10.024      9.3294      8.0917      6.8207      5.9056      5.3852      5.0678      4.8057      4.5887    
  4.4602      4.4376      4.4989      4.6391      4.9038      5.3591      6.0294      6.9203      8.0100      9.1194    
  8.2847      8.5724      8.2865      7.5014      6.5211      5.6646      5.0678      4.6852      4.4334      4.2770    
  4.2145      4.2363      4.3176      4.4448      4.6391      4.9483      5.4147      6.0417      6.7918      7.6017    
  6.9573      7.1724      7.0692      6.6341      5.9936      5.3384      4.8057      4.4334      4.2014      4.0799    
  4.0479      4.0883      4.1825      4.3176      4.4989      4.7487      5.0892      5.5246      6.0287      6.5372    
  6.2287      6.3060      6.1985      5.9042      5.4758      5.0064      4.5887      4.2770      4.0799      3.9793    
  3.9548      3.9934      4.0883      4.2363      4.4376      4.6946      5.0035      5.3481      5.6970      6.0076    
  5.9999      5.9361      5.7516      5.4690      5.1269      4.7749      4.4602      4.2145      4.0479      3.9548    
  3.9253      3.9548      4.0479      4.2145      4.4602      4.7749      5.1269      5.4690      5.7516      5.9361    
  6.2287      6.0076      5.6970      5.3481      5.0035      4.6946      4.4376      4.2363      4.0883      3.9934    
  3.9548      3.9793      4.0799      4.2770      4.5887      5.0064      5.4758      5.9042      6.1985      6.3060    
  6.9573      6.5372      6.0287      5.5246      5.0892      4.7487      4.4989      4.3176      4.1825      4.0883    
  4.0479      4.0799      4.2014      4.4334      4.8057      5.3384      5.9936      6.6341      7.0692      7.1724    
  8.2847      7.6017      6.7918      6.0417      5.4147      4.9483      4.6391      4.4448      4.3176      4.2363    
  4.2145      4.2770      4.4334      4.6852      5.0678      5.6646      6.5211      7.5014      8.2865      8.5724    
  9.9107      9.1194      8.0100      6.9203      6.0294      5.3591      4.9038      4.6391      4.4989      4.4376    
  4.4602      4.5887      4.8057      5.0678      5.3852      5.9056      6.8207      8.0917      9.3294      10.024    
  11.041      10.439      9.3381      8.0888      6.9353      6.0177      5.3591      4.9483      4.7487      4.6946    
  4.7749      5.0064      5.3384      5.6646      5.9056      6.2158      6.9411      8.2268      9.7289      10.812    
  11.336      10.990      10.200      9.1928      8.0579      6.9353      6.0294      5.4147      5.0892      5.0035    
  5.1269      5.4758      5.9936      6.5211      6.8207      6.9411      7.3204      8.3248      9.7479      10.924    
  11.447      11.076      10.518      9.9616      9.1928      8.0888      6.9203      6.0417      5.5246      5.3481    
  5.4690      5.9042      6.6341      7.5014      8.0917      8.2268      8.3248      8.9653      10.136      11.161    
  12.211      11.543      10.838      10.518      10.200      9.3381      8.0100      6.7918      6.0287      5.6970    
  5.7516      6.1985      7.0692      8.2865      9.3294      9.7289      9.7479      10.136      11.140      12.095    
  13.456      12.612      11.543      11.076      10.990      10.439      9.1194      7.6017      6.5372      6.0076    
  5.9361      6.3060      7.1724      8.5724      10.024      10.812      10.924      11.161      12.095      13.207    
  13.456      13.207      12.095      11.161      10.924      10.812      10.024      8.5724      7.1724      6.3060    
  5.9361      6.0076      6.5372      7.6017      9.1194      10.439      10.990      11.076      11.543      12.612    
  13.207      13.439      12.588      11.525      11.068      10.988      10.438      9.1185      7.6036      6.5408    
  6.0087      5.9334      6.3031      7.1729      8.5753      10.026      10.816      10.933      11.177      12.109    
  12.095      12.588      12.087      11.102      10.487      10.357      10.044      9.0523      7.6856      6.5772    
  5.9477      5.7483      5.9476      6.5772      7.6855      9.0523      10.045      10.362      10.496      11.113    
  11.161      11.525      11.102      10.139      9.3657      9.1072      8.9482      8.3489      7.3341      6.3718    
  5.7482      5.4827      5.5483      5.9612      6.7508      7.8822      8.9887      9.6701      10.022      10.488    
  10.924      11.068      10.487      9.3657      8.3282      7.8048      7.6165      7.2899      6.6543      5.9525    
  5.4327      5.1719      5.1633      5.4059      5.9493      6.7949      7.8548      8.8617      9.6687      10.356    
  10.812      10.988      10.357      9.1072      7.8048      6.9435      6.5448      6.2729      5.8815      5.4253    
  5.0537      4.8535      4.8288      4.9670      5.3194      5.9282      6.7897      7.8564      8.9893      10.043    
  10.024      10.438      10.044      8.9482      7.6165      6.5448      5.9063      5.5360      5.2216      4.9175    
  4.6792      4.5614      4.5597      4.6548      4.8767      5.2920      5.9301      6.7974      7.8830      9.0508    
  8.5724      9.1185      9.0523      8.3489      7.2899      6.2729      5.5360      5.0667      4.7474      4.5136    
  4.3670      4.3192      4.3530      4.4450      4.6038      4.8778      5.3211      5.9499      6.7492      7.6823    
  7.1724      7.6036      7.6856      7.3341      6.6543      5.8815      5.2216      4.7474      4.4333      4.2392    
  4.1452      4.1379      4.1968      4.3004      4.4453      4.6553      4.9668      5.4041      5.9582      6.5747    
  6.3060      6.5408      6.5772      6.3718      5.9525      5.4253      4.9175      4.5136      4.2392      4.0803    
  4.0128      4.0187      4.0839      4.1968      4.3528      4.5590      4.8273      5.1616      5.5474      5.9486    
  5.9361      6.0087      5.9477      5.7482      5.4327      5.0537      4.6792      4.3670      4.1452      4.0128    
  3.9549      3.9583      4.0185      4.1375      4.3185      4.5606      4.8531      5.1726      5.4849      5.7514    
  6.0076      5.9334      5.7483      5.4827      5.1719      4.8535      4.5614      4.3192      4.1379      4.0187    
  3.9583      3.9547      4.0125      4.1448      4.3668      4.6796      5.0551      5.4349      5.7504      5.9486    
  6.5372      6.3031      5.9476      5.5483      5.1633      4.8288      4.5597      4.3530      4.1968      4.0839    
  4.0185      4.0125      4.0800      4.2394      4.5145      4.9190      5.4270      5.9535      6.3712      6.5747    
  7.6017      7.1729      6.5772      5.9612      5.4059      4.9670      4.6548      4.4450      4.3004      4.1968    
  4.1375      4.1448      4.2394      4.4342      4.7489      5.2228      5.8817      6.6527      7.3312      7.6823    
  9.1194      8.5753      7.6855      6.7508      5.9493      5.3194      4.8767      4.6038      4.4453      4.3528    
  4.3185      4.3668      4.5145      4.7489      5.0677      5.5357      6.2710      7.2869      8.3460      9.0508    
  10.439      10.026      9.0523      7.8822      6.7949      5.9282      5.2920      4.8778      4.6553      4.5590    
  4.5606      4.6796      4.9190      5.2228      5.5357      5.9043      6.5417      7.6131      8.9455      10.043    
  10.990      10.816      10.045      8.9887      7.8548      6.7897      5.9301      5.3211      4.9668      4.8273    
  4.8531      5.0551      5.4270      5.8817      6.2710      6.5417      6.9398      7.8006      9.1035      10.356    
  11.076      10.933      10.362      9.6701      8.8617      7.8564      6.7974      5.9499      5.4041      5.1616    
  5.1726      5.4349      5.9535      6.6527      7.2869      7.6131      7.8006      8.3232      9.3622      10.488    
  11.543      11.177      10.496      10.022      9.6687      8.9893      7.8830      6.7492      5.9582      5.5474    
  5.4849      5.7504      6.3712      7.3312      8.3460      8.9455      9.1035      9.3622      10.141      11.113    
  12.612      12.109      11.113      10.488      10.356      10.043      9.0508      7.6823      6.5747      5.9486    
  5.7514      5.9486      6.5747      7.6823      9.0508      10.043      10.356      10.488      11.113      12.109    
  12.211      12.095      11.140      10.136      9.7479      9.7289      9.3294      8.2865      7.0692      6.1985    
  5.7516      5.6970      6.0287      6.7918      8.0100      9.3381      10.200      10.518      10.838      11.543    
  12.095      12.588      12.087      11.102      10.487      10.357      10.044      9.0523      7.6856      6.5772    
  5.9477      5.7483      5.9476      6.5772      7.6855      9.0523      10.045      10.362      10.496      11.113    
  11.140      12.087      12.197      11.529      10.830      10.516      10.201      9.3393      8.0106      6.7920    
  6.0289      5.6970      5.7516      6.1986      7.0693      8.2869      9.3307      9.7325      9.7540      10.141    
  10.136      11.102      11.529      11.166      10.492      10.024      9.6722      8.9918      7.8840      6.7495    
  5.9584      5.5475      5.4848      5.7504      6.3713      7.3314      8.3466      8.9472      9.1057      9.3622    
  9.7479      10.487      10.830      10.492      9.7560      9.1111      8.6686      8.1383      7.3277      6.4273    
  5.7282      5.3147      5.1878      5.3147      5.7282      6.4271      7.3268      8.1358      8.6635      9.1035    
  9.7289      10.357      10.516      10.024      9.1111      8.2326      7.6180      7.1268      6.5509      5.9127    
  5.3756      5.0280      4.8947      4.9435      5.1946      5.6908      6.4082      7.2731      8.1355      8.9455    
  9.3294      10.044      10.201      9.6722      8.6686      7.6180      6.8220      6.2711      5.8035      5.3543    
  4.9757      4.7280      4.6317      4.6568      4.8061      5.1337      5.6715      6.4083      7.3268      8.3460    
  8.2865      9.0523      9.3393      8.9918      8.1383      7.1268      6.2711      5.6620      5.2207      4.8724    
  4.6092      4.4566      4.4135      4.4496      4.5542      4.7632      5.1336      5.6908      6.4271      7.3312    
  7.0692      7.6856      8.0106      7.8840      7.3277      6.5509      5.8035      5.2207      4.8049      4.5142    
  4.3281      4.2433      4.2438      4.3013      4.3996      4.5542      4.8060      5.1946      5.7281      6.3712    
  6.1985      6.5772      6.7920      6.7495      6.4273      5.9127      5.3543      4.8724      4.5142      4.2778    
  4.1454      4.0989      4.1211      4.1930      4.3013      4.4496      4.6568      4.9435      5.3147      5.7504    
  5.7516      5.9477      6.0289      5.9584      5.7282      5.3756      4.9757      4.6092      4.3281      4.1454    
  4.0481      4.0187      4.0451      4.1211      4.2438      4.4135      4.6318      4.8948      5.1878      5.4849    
  5.6970      5.7483      5.6970      5.5475      5.3147      5.0280      4.7280      4.4566      4.2433      4.0989    
  4.0187      3.9934      4.0186      4.0988      4.2433      4.4567      4.7281      5.0280      5.3147      5.5474    
  6.0287      5.9476      5.7516      5.4848      5.1878      4.8947      4.6317      4.4135      4.2438      4.1211    
  4.0451      4.0186      4.0480      4.1453      4.3282      4.6093      4.9759      5.3756      5.7281      5.9582    
  6.7918      6.5772      6.1986      5.7504      5.3147      4.9435      4.6568      4.4496      4.3013      4.1930    
  4.1211      4.0988      4.1453      4.2779      4.5145      4.8730      5.3548      5.9128      6.4271      6.7492    
  8.0100      7.6855      7.0693      6.3713      5.7282      5.1946      4.8061      4.5542      4.3996      4.3013    
  4.2438      4.2433      4.3282      4.5145      4.8057      5.2217      5.8041      6.5507      7.3268      7.8830    
  9.3381      9.0523      8.2869      7.3314      6.4271      5.6908      5.1337      4.7632      4.5542      4.4496    
  4.4135      4.4567      4.6093      4.8730      5.2217      5.6629      6.2708      7.1249      8.1355      8.9893    
  10.200      10.045      9.3307      8.3466      7.3268      6.4082      5.6715      5.1336      4.8060      4.6568    
  4.6318      4.7281      4.9759      5.3548      5.8041      6.2708      6.8196      7.6134      8.6635      9.6687    
  10.518      10.362      9.7325      8.9472      8.1358      7.2731      6.4083      5.6908      5.1946      4.9435    
  4.8948      5.0280      5.3756      5.9128      6.5507      7.1249      7.6134      8.2262      9.1057      10.022    
  10.838      10.496      9.7540      9.1057      8.6635      8.1355      7.3268      6.4271      5.7281      5.3147    
  5.1878      5.3147      5.7281      6.4271      7.3268      8.1355      8.6635      9.1057      9.7540      10.496    
  11.543      11.113      10.141      9.3622      9.1035      8.9455      8.3460      7.3312      6.3712      5.7504    
  5.4849      5.5474      5.9582      6.7492      7.8830      8.9893      9.6687      10.022      10.496      11.177    
  11.447      11.161      10.136      8.9653      8.3248      8.2268      8.0917      7.5014      6.6341      5.9042    
  5.4690      5.3481      5.5246      6.0417      6.9203      8.0888      9.1928      9.9616      10.518      11.076    
  11.161      11.525      11.102      10.139      9.3657      9.1072      8.9482      8.3489      7.3341      6.3718    
  5.7482      5.4827      5.5483      5.9612      6.7508      7.8822      8.9887      9.6701      10.022      10.488    
  10.136      11.102      11.529      11.166      10.492      10.024      9.6722      8.9918      7.8840      6.7495    
  5.9584      5.5475      5.4848      5.7504      6.3713      7.3314      8.3466      8.9472      9.1057      9.3622    
  8.9653      10.139      11.166      11.451      11.078      10.520      9.9651      9.1960      8.0892      6.9178    
  6.0395      5.5253      5.3505      5.4697      5.9022      6.6315      7.5005      8.0919      8.2262      8.3232    
  8.3248      9.3657      10.492      11.078      10.935      10.365      9.6744      8.8638      7.8549      6.7946    
  5.9490      5.4058      5.1633      5.1719      5.4326      5.9523      6.6536      7.2883      7.6134      7.8006    
  8.2268      9.1072      10.024      10.520      10.365      9.7373      8.9504      8.1355      7.2701      6.4059    
  5.6911      5.1963      4.9440      4.8934      5.0266      5.3762      5.9148      6.5521      7.1249      7.6131    
  8.0917      8.9482      9.6722      9.9651      9.6744      8.9504      8.0921      7.2852      6.5485      5.8783    
  5.3256      4.9290      4.7169      4.6558      4.7170      4.9292      5.3261      5.8797      6.5507      7.2869    
  7.5014      8.3489      8.9918      9.1960      8.8638      8.1355      7.2852      6.5164      5.8789      5.3546    
  4.9404      4.6532      4.5063      4.4675      4.5044      4.6297      4.8926      5.3246      5.9128      6.6527    
  6.6341      7.3341      7.8840      8.0892      7.8549      7.2701      6.5485      5.8789      5.3367      4.9185    
  4.6093      4.4158      4.3314      4.3256      4.3677      4.4572      4.6288      4.9278      5.3756      5.9535    
  5.9042      6.3718      6.7495      6.9178      6.7946      6.4059      5.8783      5.3546      4.9185      4.5898    
  4.3673      4.2432      4.2025      4.2220      4.2791      4.3674      4.5040      4.7171      5.0280      5.4349    
  5.4690      5.7482      5.9584      6.0395      5.9490      5.6911      5.3256      4.9404      4.6093      4.3673    
  4.2149      4.1377      4.1211      4.1526      4.2221      4.3258      4.4681      4.6569      4.8948      5.1726    
  5.3481      5.4827      5.5475      5.5253      5.4058      5.1963      4.9290      4.6532      4.4158      4.2432    
  4.1377      4.0882      4.0839      4.1212      4.2028      4.3319      4.5068      4.7171      4.9435      5.1616    
  5.5246      5.5483      5.4848      5.3505      5.1633      4.9440      4.7169      4.5063      4.3314      4.2025    
  4.1211      4.0839      4.0884      4.1379      4.2433      4.4156      4.6526      4.9278      5.1946      5.4041    
  6.0417      5.9612      5.7504      5.4697      5.1719      4.8934      4.6558      4.4675      4.3256      4.2220    
  4.1526      4.1212      4.1379      4.2148      4.3668      4.6083      4.9392      5.3246      5.6908      5.9499    
  6.9203      6.7508      6.3713      5.9022      5.4326      5.0266      4.7170      4.5044      4.3677      4.2791    
  4.2221      4.2028      4.2433      4.3668      4.5887      4.9176      5.3548      5.8797      6.4083      6.7974    
  8.0888      7.8822      7.3314      6.6315      5.9523      5.3762      4.9292      4.6297      4.4572      4.3674    
  4.3258      4.3319      4.4156      4.6083      4.9176      5.3374      5.8815      6.5521      7.2731      7.8564    
  9.1928      8.9887      8.3466      7.5005      6.6536      5.9148      5.3261      4.8926      4.6288      4.5040    
  4.4681      4.5068      4.6526      4.9392      5.3548      5.8815      6.5204      7.2883      8.1358      8.8617    
  9.9616      9.6701      8.9472      8.0919      7.2883      6.5521      5.8797      5.3246      4.9278      4.7171    
  4.6569      4.7171      4.9278      5.3246      5.8797      6.5521      7.2883      8.0919      8.9472      9.6701    
  10.518      10.022      9.1057      8.2262      7.6134      7.1249      6.5507      5.9128      5.3756      5.0280    
  4.8948      4.9435      5.1946      5.6908      6.4083      7.2731      8.1358      8.9472      9.7325      10.362    
  11.076      10.488      9.3622      8.3232      7.8006      7.6131      7.2869      6.6527      5.9535      5.4349    
  5.1726      5.1616      5.4041      5.9499      6.7974      7.8564      8.8617      9.6701      10.362      10.933    
  11.336      10.924      9.7479      8.3248      7.3204      6.9411      6.8207      6.5211      5.9936      5.4758    
  5.1269      5.0035      5.0892      5.4147      6.0294      6.9353      8.0579      9.1928      10.200      10.990    
  10.924      11.068      10.487      9.3657      8.3282      7.8048      7.6165      7.2899      6.6543      5.9525    
  5.4327      5.1719      5.1633      5.4059      5.9493      6.7949      7.8548      8.8617      9.6687      10.356    
  9.7479      10.487      10.830      10.492      9.7560      9.1111      8.6686      8.1383      7.3277      6.4273    
  5.7282      5.3147      5.1878      5.3147      5.7282      6.4271      7.3268      8.1358      8.6635      9.1035    
  8.3248      9.3657      10.492      11.078      10.935      10.365      9.6744      8.8638      7.8549      6.7946    
  5.9490      5.4058      5.1633      5.1719      5.4326      5.9523      6.6536      7.2883      7.6134      7.8006    
  7.3204      8.3282      9.7560      10.935      11.347      10.999      10.204      9.1926      8.0563      6.9339    
  6.0287      5.4144      5.0891      5.0035      5.1269      5.4757      5.9933      6.5204      6.8196      6.9398    
  6.9411      7.8048      9.1111      10.365      10.999      10.820      10.044      8.9853      7.8512      6.7874    
  5.9291      5.3208      4.9666      4.8273      4.8531      5.0551      5.4269      5.8815      6.2708      6.5417    
  6.8207      7.6165      8.6686      9.6744      10.204      10.044      9.3265      8.3410      7.3223      6.4058    
  5.6707      5.1335      4.8060      4.6568      4.6318      4.7281      4.9758      5.3548      5.8041      6.2710    
  6.5211      7.2899      8.1383      8.8638      9.1926      8.9853      8.3410      7.4949      6.6499      5.9134    
  5.3260      4.8929      4.6289      4.5040      4.4681      4.5069      4.6526      4.9392      5.3548      5.8817    
  5.9936      6.6543      7.3277      7.8549      8.0563      7.8512      7.3223      6.6499      5.9916      5.4269    
  4.9765      4.6531      4.4632      4.3780      4.3562      4.3780      4.4629      4.6526      4.9759      5.4270    
  5.4758      5.9525      6.4273      6.7946      6.9339      6.7874      6.4058      5.9134      5.4269      5.0080    
  4.6802      4.4564      4.3315      4.2836      4.2833      4.3124      4.3779      4.5068      4.7281      5.0551    
  5.1269      5.4327      5.7282      5.9490      6.0287      5.9291      5.6707      5.3260      4.9765      4.6802    
  4.4610      4.3188      4.2437      4.2220      4.2387      4.2832      4.3561      4.4681      4.6318      4.8531    
  5.0035      5.1719      5.3147      5.4058      5.4144      5.3208      5.1335      4.8929      4.6531      4.4564    
  4.3188      4.2360      4.1967      4.1930      4.2220      4.2836      4.3779      4.5040      4.6568      4.8273    
  5.0892      5.1633      5.1878      5.1633      5.0891      4.9666      4.8060      4.6289      4.4632      4.3315    
  4.2437      4.1967      4.1824      4.1967      4.2437      4.3313      4.4629      4.6288      4.8060      4.9668    
  5.4147      5.4059      5.3147      5.1719      5.0035      4.8273      4.6568      4.5040      4.3780      4.2836    
  4.2220      4.1930      4.1967      4.2359      4.3185      4.4558      4.6526      4.8926      5.1336      5.3211    
  6.0294      5.9493      5.7282      5.4326      5.1269      4.8531      4.6318      4.4681      4.3562      4.2833    
  4.2387      4.2220      4.2437      4.3185      4.4602      4.6792      4.9758      5.3261      5.6715      5.9301    
  6.9353      6.7949      6.4271      5.9523      5.4757      5.0551      4.7281      4.5069      4.3780      4.3124    
  4.2832      4.2836      4.3313      4.4558      4.6792      5.0071      5.4269      5.9148      6.4082      6.7897    
  8.0579      7.8548      7.3268      6.6536      5.9933      5.4269      4.9758      4.6526      4.4629      4.3779    
  4.3561      4.3779      4.4629      4.6526      4.9758      5.4269      5.9933      6.6536      7.3268      7.8548    
  9.1928      8.8617      8.1358      7.2883      6.5204      5.8815      5.3548      4.9392      4.6526      4.5068    
  4.4681      4.5040      4.6288      4.8926      5.3261      5.9148      6.6536      7.5005      8.3466      8.9887    
  10.200      9.6687      8.6635      7.6134      6.8196      6.2708      5.8041      5.3548      4.9759      4.7281    
  4.6318      4.6568      4.8060      5.1336      5.6715      6.4082      7.3268      8.3466      9.3307      10.045    
  10.990      10.356      9.1035      7.8006      6.9398      6.5417      6.2710      5.8817      5.4270      5.0551    
  4.8531      4.8273      4.9668      5.3211      5.9301      6.7897      7.8548      8.9887      10.045      10.816    
  11.041      10.812      9.7289      8.2268      6.9411      6.2158      5.9056      5.6646      5.3384      5.0064    
  4.7749      4.6946      4.7487      4.9483      5.3591      6.0177      6.9353      8.0888      9.3381      10.439    
  10.812      10.988      10.357      9.1072      7.8048      6.9435      6.5448      6.2729      5.8815      5.4253    
  5.0537      4.8535      4.8288      4.9670      5.3194      5.9282      6.7897      7.8564      8.9893      10.043    
  9.7289      10.357      10.516      10.024      9.1111      8.2326      7.6180      7.1268      6.5509      5.9127    
  5.3756      5.0280      4.8947      4.9435      5.1946      5.6908      6.4082      7.2731      8.1355      8.9455    
  8.2268      9.1072      10.024      10.520      10.365      9.7373      8.9504      8.1355      7.2701      6.4059    
  5.6911      5.1963      4.9440      4.8934      5.0266      5.3762      5.9148      6.5521      7.1249      7.6131    
  6.9411      7.8048      9.1111      10.365      10.999      10.820      10.044      8.9853      7.8512      6.7874    
  5.9291      5.3208      4.9666      4.8273      4.8531      5.0551      5.4269      5.8815      6.2708      6.5417    
  6.2158      6.9435      8.2326      9.7373      10.820      11.043      10.434      9.3298      8.0825      6.9337    
  6.0190      5.3598      4.9474      4.7477      4.6950      4.7763      5.0071      5.3374      5.6629      5.9043    
  5.9056      6.5448      7.6180      8.9504      10.044      10.434      10.016      9.0427      7.8773      6.7950    
  5.9299      5.2924      4.8769      4.6549      4.5598      4.5614      4.6792      4.9176      5.2217      5.5357    
  5.6646      6.2729      7.1268      8.1355      8.9853      9.3298      9.0427      8.2805      7.3302      6.4293    
  5.6928      5.1339      4.7627      4.5542      4.4502      4.4136      4.4558      4.6083      4.8730      5.2228    
  5.3384      5.8815      6.5509      7.2701      7.8512      8.0825      7.8773      7.3302      6.6338      5.9556    
  5.3781      4.9293      4.6294      4.4574      4.3678      4.3256      4.3313      4.4156      4.6093      4.9190    
  5.0064      5.4253      5.9127      6.4059      6.7874      6.9337      6.7950      6.4293      5.9556      5.4784    
  5.0561      4.7280      4.5066      4.3781      4.3126      4.2831      4.2836      4.3319      4.4567      4.6796    
  4.7749      5.0537      5.3756      5.6911      5.9291      6.0190      5.9299      5.6928      5.3781      5.0561    
  4.7764      4.5611      4.4134      4.3256      4.2832      4.2712      4.2832      4.3258      4.4135      4.5606    
  4.6946      4.8535      5.0280      5.1963      5.3208      5.3598      5.2924      5.1339      4.9293      4.7280    
  4.5611      4.4373      4.3527      4.3013      4.2790      4.2831      4.3124      4.3674      4.4496      4.5590    
  4.7487      4.8288      4.8947      4.9440      4.9666      4.9474      4.8769      4.7627      4.6294      4.5066    
  4.4134      4.3527      4.3173      4.3002      4.3013      4.3256      4.3780      4.4572      4.5542      4.6553    
  4.9483      4.9670      4.9435      4.8934      4.8273      4.7477      4.6549      4.5542      4.4574      4.3781    
  4.3256      4.3013      4.3002      4.3174      4.3529      4.4136      4.5069      4.6297      4.7632      4.8778    
  5.3591      5.3194      5.1946      5.0266      4.8531      4.6950      4.5598      4.4502      4.3678      4.3126    
  4.2832      4.2790      4.3013      4.3529      4.4377      4.5614      4.7281      4.9292      5.1337      5.2920    
  6.0177      5.9282      5.6908      5.3762      5.0551      4.7763      4.5614      4.4136      4.3256      4.2831    
  4.2712      4.2831      4.3256      4.4136      4.5614      4.7763      5.0551      5.3762      5.6908      5.9282    
  6.9353      6.7897      6.4082      5.9148      5.4269      5.0071      4.6792      4.4558      4.3313      4.2836    
  4.2832      4.3124      4.3780      4.5069      4.7281      5.0551      5.4757      5.9523      6.4271      6.7949    
  8.0888      7.8564      7.2731      6.5521      5.8815      5.3374      4.9176      4.6083      4.4156      4.3319    
  4.3258      4.3674      4.4572      4.6297      4.9292      5.3762      5.9523      6.6315      7.3314      7.8822    
  9.3381      8.9893      8.1355      7.1249      6.2708      5.6629      5.2217      4.8730      4.6093      4.4567    
  4.4135      4.4496      4.5542      4.7632      5.1337      5.6908      6.4271      7.3314      8.2869      9.0523    
  10.439      10.043      8.9455      7.6131      6.5417      5.9043      5.5357      5.2228      4.9190      4.6796    
  4.5606      4.5590      4.6553      4.8778      5.2920      5.9282      6.7949      7.8822      9.0523      10.026    
  9.9107      10.024      9.3294      8.0917      6.8207      5.9056      5.3852      5.0678      4.8057      4.5887    
  4.4602      4.4376      4.4989      4.6391      4.9038      5.3591      6.0294      6.9203      8.0100      9.1194    
  10.024      10.438      10.044      8.9482      7.6165      6.5448      5.9063      5.5360      5.2216      4.9175    
  4.6792      4.5614      4.5597      4.6548      4.8767      5.2920      5.9301      6.7974      7.8830      9.0508    
  9.3294      10.044      10.201      9.6722      8.6686      7.6180      6.8220      6.2711      5.8035      5.3543    