BCC W                                   
   3.20000000000000     
    -0.500000    0.500000    0.500000
     0.500000   -0.500000    0.500000
     0.500000    0.500000   -0.500000
   W 
     1
Direct
  0.000000  0.000000  0.000000
 
   20   20   20
 0.14085436584E+02 0.13455876829E+02 0.12211399487E+02 0.11446812251E+02 0.11335553820E+02
 0.11040832132E+02 0.99106667550E+01 0.82847236010E+01 0.69572641776E+01 0.62287145718E+01
 0.59999409616E+01 0.62287145718E+01 0.69572641776E+01 0.82847236010E+01 0.99106667550E+01
 0.11040832132E+02 0.11335553820E+02 0.11446812251E+02 0.12211399487E+02 0.13455876829E+02
 0.13455876829E+02 0.13206647282E+02 0.12095384164E+02 0.11160589700E+02 0.10923702039E+02
 0.10812276781E+02 0.10023685230E+02 0.85724054406E+01 0.71724284226E+01 0.63060110863E+01
 0.59361046781E+01 0.60076242124E+01 0.65372044262E+01 0.76016694937E+01 0.91193766727E+01
 0.10439037806E+02 0.10990140947E+02 0.11075792411E+02 0.11542940372E+02 0.12612402990E+02
 0.12211399487E+02 0.12095384164E+02 0.11140197948E+02 0.10135616571E+02 0.97478729974E+01
 0.97288581841E+01 0.93294093080E+01 0.82865304053E+01 0.70691516743E+01 0.61985201832E+01
 0.57516284365E+01 0.56969976951E+01 0.60287283911E+01 0.67917612872E+01 0.80100220591E+01
 0.93380887965E+01 0.10199943217E+02 0.10518193359E+02 0.10838145312E+02 0.11542940372E+02
 0.11446812251E+02 0.11160589700E+02 0.10135616571E+02 0.89652674961E+01 0.83247995247E+01
 0.82268408946E+01 0.80916927822E+01 0.75014177208E+01 0.66340941620E+01 0.59042142830E+01
 0.54689754369E+01 0.53480706556E+01 0.55245501927E+01 0.60416537865E+01 0.69203116805E+01
 0.80888420885E+01 0.91928199404E+01 0.99616343099E+01 0.10518193359E+02 0.11075792411E+02
 0.11335553820E+02 0.10923702039E+02 0.97478729974E+01 0.83247995247E+01 0.73204278186E+01
 0.69410970463E+01 0.68206937450E+01 0.65210687055E+01 0.59936033325E+01 0.54758253034E+01
 0.51268925581E+01 0.50035476360E+01 0.50892172454E+01 0.54147324901E+01 0.60293801563E+01
 0.69353284615E+01 0.80579321239E+01 0.91928199404E+01 0.10199943217E+02 0.10990140947E+02
 0.11040832132E+02 0.10812276781E+02 0.97288581841E+01 0.82268408946E+01 0.69410970463E+01
 0.62158014734E+01 0.59056197236E+01 0.56646307692E+01 0.53383637058E+01 0.50064443659E+01
 0.47748749814E+01 0.46945576416E+01 0.47487271835E+01 0.49483230821E+01 0.53590965210E+01
 0.60177279825E+01 0.69353284615E+01 0.80888420885E+01 0.93380887965E+01 0.10439037806E+02
 0.99106667550E+01 0.10023685230E+02 0.93294093080E+01 0.80916927822E+01 0.68206937450E+01
 0.59056197236E+01 0.53851678112E+01 0.50677751533E+01 0.48056642471E+01 0.45886678514E+01
 0.44602370473E+01 0.44376283593E+01 0.44989312927E+01 0.46391301166E+01 0.49038198228E+01
 0.53590965210E+01 0.60293801563E+01 0.69203116805E+01 0.80100220591E+01 0.91193766727E+01
 0.82847236010E+01 0.85724054406E+01 0.82865304053E+01 0.75014177208E+01 0.65210687055E+01
 0.56646307692E+01 0.50677751533E+01 0.46852295246E+01 0.44334359811E+01 0.42770156923E+01
 0.42144891650E+01 0.42362568945E+01 0.43175591003E+01 0.44448262157E+01 0.46391301166E+01
 0.49483230821E+01 0.54147324901E+01 0.60416537865E+01 0.67917612872E+01 0.76016694937E+01
 0.69572641776E+01 0.71724284226E+01 0.70691516743E+01 0.66340941620E+01 0.59936033325E+01
 0.53383637058E+01 0.48056642471E+01 0.44334359811E+01 0.42013544848E+01 0.40799041040E+01
 0.40478601700E+01 0.40883251233E+01 0.41824917050E+01 0.43175591003E+01 0.44989312927E+01
 0.47487271835E+01 0.50892172454E+01 0.55245501927E+01 0.60287283911E+01 0.65372044262E+01
 0.62287145718E+01 0.63060110863E+01 0.61985201832E+01 0.59042142830E+01 0.54758253034E+01
 0.50064443659E+01 0.45886678514E+01 0.42770156923E+01 0.40799041040E+01 0.39793321420E+01
 0.39547796716E+01 0.39933905195E+01 0.40883251233E+01 0.42362568945E+01 0.44376283593E+01
 0.46945576416E+01 0.50035476360E+01 0.53480706556E+01 0.56969976951E+01 0.60076242124E+01
 0.59999409616E+01 0.59361046781E+01 0.57516284365E+01 0.54689754369E+01 0.51268925581E+01
 0.47748749814E+01 0.44602370473E+01 0.42144891650E+01 0.40478601700E+01 0.39547796716E+01
 0.39252704807E+01 0.39547796716E+01 0.40478601700E+01 0.42144891650E+01 0.44602370473E+01
 0.47748749814E+01 0.51268925581E+01 0.54689754369E+01 0.57516284365E+01 0.59361046781E+01
 0.62287145718E+01 0.60076242124E+01 0.56969976951E+01 0.53480706556E+01 0.50035476360E+01
 0.46945576416E+01 0.44376283593E+01 0.42362568945E+01 0.40883251233E+01 0.39933905195E+01
 0.39547796716E+01 0.39793321420E+01 0.40799041040E+01 0.42770156923E+01 0.45886678514E+01
 0.50064443659E+01 0.54758253034E+01 0.59042142830E+01 0.61985201832E+01 0.63060110863E+01
 0.69572641776E+01 0.65372044262E+01 0.60287283911E+01 0.55245501927E+01 0.50892172454E+01
 0.47487271835E+01 0.44989312927E+01 0.43175591003E+01 0.41824917050E+01 0.40883251233E+01
 0.40478601700E+01 0.40799041040E+01 0.42013544848E+01 0.44334359811E+01 0.48056642471E+01
 0.53383637058E+01 0.59936033325E+01 0.66340941620E+01 0.70691516743E+01 0.71724284226E+01
 0.82847236010E+01 0.76016694937E+01 0.67917612872E+01 0.60416537865E+01 0.54147324901E+01
 0.49483230821E+01 0.46391301166E+01 0.44448262157E+01 0.43175591003E+01 0.42362568945E+01
 0.42144891650E+01 0.42770156923E+01 0.44334359811E+01 0.46852295246E+01 0.50677751533E+01
 0.56646307692E+01 0.65210687055E+01 0.75014177208E+01 0.82865304053E+01 0.85724054406E+01
 0.99106667550E+01 0.91193766727E+01 0.80100220591E+01 0.69203116805E+01 0.60293801563E+01
 0.53590965210E+01 0.49038198228E+01 0.46391301166E+01 0.44989312927E+01 0.44376283593E+01
 0.44602370473E+01 0.45886678514E+01 0.48056642471E+01 0.50677751533E+01 0.53851678112E+01
 0.59056197236E+01 0.68206937450E+01 0.80916927822E+01 0.93294093080E+01 0.10023685230E+02
 0.11040832132E+02 0.10439037806E+02 0.93380887965E+01 0.80888420885E+01 0.69353284615E+01
 0.60177279825E+01 0.53590965210E+01 0.49483230821E+01 0.47487271835E+01 0.46945576416E+01
 0.47748749814E+01 0.50064443659E+01 0.53383637058E+01 0.56646307692E+01 0.59056197236E+01
 0.62158014734E+01 0.69410970463E+01 0.82268408946E+01 0.97288581841E+01 0.10812276781E+02
 0.11335553820E+02 0.10990140947E+02 0.10199943217E+02 0.91928199404E+01 0.80579321239E+01
 0.69353284615E+01 0.60293801563E+01 0.54147324901E+01 0.50892172454E+01 0.50035476360E+01
 0.51268925581E+01 0.54758253034E+01 0.59936033325E+01 0.65210687055E+01 0.68206937450E+01
 0.69410970463E+01 0.73204278186E+01 0.83247995247E+01 0.97478729974E+01 0.10923702039E+02
 0.11446812251E+02 0.11075792411E+02 0.10518193359E+02 0.99616343099E+01 0.91928199404E+01
 0.80888420885E+01 0.69203116805E+01 0.60416537865E+01 0.55245501927E+01 0.53480706556E+01
 0.54689754369E+01 0.59042142830E+01 0.66340941620E+01 0.75014177208E+01 0.80916927822E+01
 0.82268408946E+01 0.83247995247E+01 0.89652674961E+01 0.10135616571E+02 0.11160589700E+02
 0.12211399487E+02 0.11542940372E+02 0.10838145312E+02 0.10518193359E+02 0.10199943217E+02
 0.93380887965E+01 0.80100220591E+01 0.67917612872E+01 0.60287283911E+01 0.56969976951E+01
 0.57516284365E+01 0.61985201832E+01 0.70691516743E+01 0.82865304053E+01 0.93294093080E+01
 0.97288581841E+01 0.97478729974E+01 0.10135616571E+02 0.11140197948E+02 0.12095384164E+02
 0.13455876829E+02 0.12612402990E+02 0.11542940372E+02 0.11075792411E+02 0.10990140947E+02
 0.10439037806E+02 0.91193766727E+01 0.76016694937E+01 0.65372044262E+01 0.60076242124E+01
 0.59361046781E+01 0.63060110863E+01 0.71724284226E+01 0.85724054406E+01 0.10023685230E+02
 0.10812276781E+02 0.10923702039E+02 0.11160589700E+02 0.12095384164E+02 0.13206647282E+02
 0.13455876829E+02 0.13206647282E+02 0.12095384164E+02 0.11160589700E+02 0.10923702039E+02
 0.10812276781E+02 0.10023685230E+02 0.85724054406E+01 0.71724284226E+01 0.63060110863E+01
 0.59361046781E+01 0.60076242124E+01 0.65372044262E+01 0.76016694937E+01 0.91193766727E+01
 0.10439037806E+02 0.10990140947E+02 0.11075792411E+02 0.11542940372E+02 0.12612402990E+02
 0.13206647282E+02 0.13438894350E+02 0.12588270907E+02 0.11524743809E+02 0.11068215934E+02
 0.10988471657E+02 0.10437808418E+02 0.91185480100E+01 0.76035951953E+01 0.65407605562E+01
 0.60086985190E+01 0.59333859731E+01 0.63030971279E+01 0.71729253723E+01 0.85753052759E+01
 0.10026110785E+02 0.10815586039E+02 0.10933045217E+02 0.11176721514E+02 0.12109447059E+02
 0.12095384164E+02 0.12588270907E+02 0.12087181008E+02 0.11101742407E+02 0.10486548211E+02
 0.10357324273E+02 0.10043676211E+02 0.90523306618E+01 0.76855608907E+01 0.65772336782E+01
 0.59476976874E+01 0.57483129130E+01 0.59475922263E+01 0.65771975570E+01 0.76855156435E+01
 0.90522527109E+01 0.10044693724E+02 0.10361764454E+02 0.10495708692E+02 0.11113254661E+02
 0.11160589700E+02 0.11524743809E+02 0.11101742407E+02 0.10139170618E+02 0.93657251556E+01
 0.91071941613E+01 0.89481516111E+01 0.83489459173E+01 0.73341426425E+01 0.63718316997E+01
 0.57482061922E+01 0.54827262648E+01 0.55482742388E+01 0.59611919178E+01 0.67507932847E+01
 0.78821555242E+01 0.89886813833E+01 0.96701254618E+01 0.10021971304E+02 0.10488255044E+02
 0.10923702039E+02 0.11068215934E+02 0.10486548211E+02 0.93657251556E+01 0.83282129116E+01
 0.78047649824E+01 0.76164628608E+01 0.72898732225E+01 0.66542519158E+01 0.59525133014E+01
 0.54326988516E+01 0.51719365438E+01 0.51633178753E+01 0.54059014323E+01 0.59492585548E+01
 0.67949193676E+01 0.78548046628E+01 0.88617372707E+01 0.96687278790E+01 0.10355806617E+02
 0.10812276781E+02 0.10988471657E+02 0.10357324273E+02 0.91071941613E+01 0.78047649824E+01
 0.69434616708E+01 0.65448083851E+01 0.62729263812E+01 0.58815441947E+01 0.54252701538E+01
 0.50536892477E+01 0.48535348141E+01 0.48287685313E+01 0.49670239418E+01 0.53194255390E+01
 0.59281721409E+01 0.67897324557E+01 0.78564003671E+01 0.89893316707E+01 0.10042706979E+02
 0.10023685230E+02 0.10437808418E+02 0.10043676211E+02 0.89481516111E+01 0.76164628608E+01
 0.65448083851E+01 0.59062573612E+01 0.55359691465E+01 0.52215992371E+01 0.49175051864E+01
 0.46792133520E+01 0.45614017331E+01 0.45597120245E+01 0.46548002692E+01 0.48766653264E+01
 0.52920425262E+01 0.59300802318E+01 0.67973985617E+01 0.78830225833E+01 0.90507617320E+01
 0.85724054406E+01 0.91185480100E+01 0.90523306618E+01 0.83489459173E+01 0.72898732225E+01
 0.62729263812E+01 0.55359691465E+01 0.50666754407E+01 0.47474009551E+01 0.45136292975E+01
 0.43669867864E+01 0.43191795415E+01 0.43530253556E+01 0.44449609076E+01 0.46038440268E+01
 0.48777934607E+01 0.53211220321E+01 0.59498815119E+01 0.67491912563E+01 0.76822852447E+01
 0.71724284226E+01 0.76035951953E+01 0.76855608907E+01 0.73341426425E+01 0.66542519158E+01
 0.58815441947E+01 0.52215992371E+01 0.47474009551E+01 0.44332608341E+01 0.42392316173E+01
 0.41452152245E+01 0.41378851968E+01 0.41968243725E+01 0.43003723367E+01 0.44453252717E+01
 0.46553168097E+01 0.49667624248E+01 0.54040869807E+01 0.59582234684E+01 0.65746586992E+01
 0.63060110863E+01 0.65407605562E+01 0.65772336782E+01 0.63718316997E+01 0.59525133014E+01
 0.54252701538E+01 0.49175051864E+01 0.45136292975E+01 0.42392316173E+01 0.40802673025E+01
 0.40128302945E+01 0.40186865468E+01 0.40839134517E+01 0.41967837309E+01 0.43528493174E+01
 0.45590283463E+01 0.48273412256E+01 0.51616024214E+01 0.55474153132E+01 0.59486276261E+01
 0.59361046781E+01 0.60086985190E+01 0.59476976874E+01 0.57482061922E+01 0.54326988516E+01
 0.50536892477E+01 0.46792133520E+01 0.43669867864E+01 0.41452152245E+01 0.40128302945E+01
 0.39548629270E+01 0.39582898700E+01 0.40185356486E+01 0.41375257906E+01 0.43185454123E+01
 0.45606261648E+01 0.48531315576E+01 0.51726309205E+01 0.54848817077E+01 0.57514032610E+01
 0.60076242124E+01 0.59333859731E+01 0.57483129130E+01 0.54827262648E+01 0.51719365438E+01
 0.48535348141E+01 0.45614017331E+01 0.43191795415E+01 0.41378851968E+01 0.40186865468E+01
 0.39582898700E+01 0.39547084229E+01 0.40125166994E+01 0.41448290278E+01 0.43667925910E+01
 0.46796430932E+01 0.50550959642E+01 0.54349334426E+01 0.57503990292E+01 0.59486276261E+01
 0.65372044262E+01 0.63030971279E+01 0.59475922263E+01 0.55482742388E+01 0.51633178753E+01
 0.48287685313E+01 0.45597120245E+01 0.43530253556E+01 0.41968243725E+01 0.40839134517E+01
 0.40185356486E+01 0.40125166994E+01 0.40800164127E+01 0.42393949670E+01 0.45144785743E+01
 0.49190273320E+01 0.54269896280E+01 0.59535051608E+01 0.63711535845E+01 0.65746586992E+01
 0.76016694937E+01 0.71729253723E+01 0.65771975570E+01 0.59611919178E+01 0.54059014323E+01
 0.49670239418E+01 0.46548002692E+01 0.44449609076E+01 0.43003723367E+01 0.41967837309E+01
 0.41375257906E+01 0.41448290278E+01 0.42393949670E+01 0.44342447961E+01 0.47488862992E+01
 0.52228263631E+01 0.58816614486E+01 0.66527194693E+01 0.73311637428E+01 0.76822852447E+01
 0.91193766727E+01 0.85753052759E+01 0.76855156435E+01 0.67507932847E+01 0.59492585548E+01
 0.53194255390E+01 0.48766653264E+01 0.46038440268E+01 0.44453252717E+01 0.43528493174E+01
 0.43185454123E+01 0.43667925910E+01 0.45144785743E+01 0.47488862992E+01 0.50677203022E+01
 0.55356655927E+01 0.62710424036E+01 0.72868959641E+01 0.83459682907E+01 0.90507617320E+01
 0.10439037806E+02 0.10026110785E+02 0.90522527109E+01 0.78821555242E+01 0.67949193676E+01
 0.59281721409E+01 0.52920425262E+01 0.48777934607E+01 0.46553168097E+01 0.45590283463E+01
 0.45606261648E+01 0.46796430932E+01 0.49190273320E+01 0.52228263631E+01 0.55356655927E+01
 0.59042659368E+01 0.65417496972E+01 0.76131321094E+01 0.89454698827E+01 0.10042706979E+02
 0.10990140947E+02 0.10815586039E+02 0.10044693724E+02 0.89886813833E+01 0.78548046628E+01
 0.67897324557E+01 0.59300802318E+01 0.53211220321E+01 0.49667624248E+01 0.48273412256E+01
 0.48531315576E+01 0.50550959642E+01 0.54269896280E+01 0.58816614486E+01 0.62710424036E+01
 0.65417496972E+01 0.69398066849E+01 0.78006423415E+01 0.91034631454E+01 0.10355806617E+02
 0.11075792411E+02 0.10933045217E+02 0.10361764454E+02 0.96701254618E+01 0.88617372707E+01
 0.78564003671E+01 0.67973985617E+01 0.59498815119E+01 0.54040869807E+01 0.51616024214E+01
 0.51726309205E+01 0.54349334426E+01 0.59535051608E+01 0.66527194693E+01 0.72868959641E+01
 0.76131321094E+01 0.78006423415E+01 0.83231532366E+01 0.93622022824E+01 0.10488255044E+02
 0.11542940372E+02 0.11176721514E+02 0.10495708692E+02 0.10021971304E+02 0.96687278790E+01
 0.89893316707E+01 0.78830225833E+01 0.67491912563E+01 0.59582234684E+01 0.55474153132E+01
 0.54848817077E+01 0.57503990292E+01 0.63711535845E+01 0.73311637428E+01 0.83459682907E+01
 0.89454698827E+01 0.91034631454E+01 0.93622022824E+01 0.10141093432E+02 0.11113254661E+02
 0.12612402990E+02 0.12109447059E+02 0.11113254661E+02 0.10488255044E+02 0.10355806617E+02
 0.10042706979E+02 0.90507617320E+01 0.76822852447E+01 0.65746586992E+01 0.59486276261E+01
 0.57514032610E+01 0.59486276261E+01 0.65746586992E+01 0.76822852447E+01 0.90507617320E+01
 0.10042706979E+02 0.10355806617E+02 0.10488255044E+02 0.11113254661E+02 0.12109447059E+02
 0.12211399487E+02 0.12095384164E+02 0.11140197948E+02 0.10135616571E+02 0.97478729974E+01
 0.97288581841E+01 0.93294093080E+01 0.82865304053E+01 0.70691516743E+01 0.61985201832E+01
 0.57516284365E+01 0.56969976951E+01 0.60287283911E+01 0.67917612872E+01 0.80100220591E+01
 0.93380887965E+01 0.10199943217E+02 0.10518193359E+02 0.10838145312E+02 0.11542940372E+02
 0.12095384164E+02 0.12588270907E+02 0.12087181008E+02 0.11101742407E+02 0.10486548211E+02
 0.10357324273E+02 0.10043676211E+02 0.90523306618E+01 0.76855608907E+01 0.65772336782E+01
 0.59476976874E+01 0.57483129130E+01 0.59475922263E+01 0.65771975570E+01 0.76855156435E+01
 0.90522527109E+01 0.10044693724E+02 0.10361764454E+02 0.10495708692E+02 0.11113254661E+02
 0.11140197948E+02 0.12087181008E+02 0.12197357095E+02 0.11529102223E+02 0.10829600520E+02
 0.10515720169E+02 0.10200802551E+02 0.93393290402E+01 0.80105905173E+01 0.67919869797E+01
 0.60289090039E+01 0.56970455438E+01 0.57515711753E+01 0.61985791005E+01 0.70693490396E+01
 0.82868847213E+01 0.93307240298E+01 0.97325310441E+01 0.97539591970E+01 0.10141093432E+02
 0.10135616571E+02 0.11101742407E+02 0.11529102223E+02 0.11166210716E+02 0.10491843792E+02
 0.10023639428E+02 0.96722327150E+01 0.89918208866E+01 0.78840230175E+01 0.67495257450E+01
 0.59584272663E+01 0.55474714893E+01 0.54848226462E+01 0.57504400830E+01 0.63713180604E+01
 0.73313739708E+01 0.83466135403E+01 0.89471833570E+01 0.91056730320E+01 0.93622022824E+01
 0.97478729974E+01 0.10486548211E+02 0.10829600520E+02 0.10491843792E+02 0.97559569047E+01
 0.91110823560E+01 0.86686417492E+01 0.81382974821E+01 0.73276705422E+01 0.64273084866E+01
 0.57281979810E+01 0.53147122555E+01 0.51877661756E+01 0.53146971694E+01 0.57281632993E+01
 0.64271269121E+01 0.73268350060E+01 0.81358073871E+01 0.86635153066E+01 0.91034631454E+01
 0.97288581841E+01 0.10357324273E+02 0.10515720169E+02 0.10023639428E+02 0.91110823560E+01
 0.82325549258E+01 0.76179896220E+01 0.71268072008E+01 0.65508578631E+01 0.59126661487E+01
 0.53755705732E+01 0.50279696605E+01 0.48946898782E+01 0.49434517624E+01 0.51946384965E+01
 0.56907774449E+01 0.64082167796E+01 0.72731054251E+01 0.81354687552E+01 0.89454698827E+01
 0.93294093080E+01 0.10043676211E+02 0.10200802551E+02 0.96722327150E+01 0.86686417492E+01
 0.76179896220E+01 0.68219677082E+01 0.62711327770E+01 0.58034951954E+01 0.53543342402E+01
 0.49756894377E+01 0.47280209923E+01 0.46317065661E+01 0.46568241156E+01 0.48061082669E+01
 0.51336522853E+01 0.56715474466E+01 0.64082802584E+01 0.73267800125E+01 0.83459682907E+01
 0.82865304053E+01 0.90523306618E+01 0.93393290402E+01 0.89918208866E+01 0.81382974821E+01
 0.71268072008E+01 0.62711327770E+01 0.56620432998E+01 0.52207171502E+01 0.48724209791E+01
 0.46091580835E+01 0.44566131154E+01 0.44134905332E+01 0.44495581839E+01 0.45542190238E+01
 0.47632439349E+01 0.51336226607E+01 0.56907892833E+01 0.64271201128E+01 0.73311637428E+01
 0.70691516743E+01 0.76855608907E+01 0.80105905173E+01 0.78840230175E+01 0.73276705422E+01
 0.65508578631E+01 0.58034951954E+01 0.52207171502E+01 0.48049492728E+01 0.45141529337E+01
 0.43281405386E+01 0.42433337874E+01 0.42437592083E+01 0.43013188763E+01 0.43996466224E+01
 0.45541841317E+01 0.48060367583E+01 0.51945714405E+01 0.57280831966E+01 0.63711535845E+01
 0.61985201832E+01 0.65772336782E+01 0.67919869797E+01 0.67495257450E+01 0.64273084866E+01
 0.59126661487E+01 0.53543342402E+01 0.48724209791E+01 0.45141529337E+01 0.42778317329E+01
 0.41453641715E+01 0.40988594204E+01 0.41210967250E+01 0.41929913724E+01 0.43013318110E+01
 0.44495657198E+01 0.46568235000E+01 0.49434573419E+01 0.53146964666E+01 0.57503990292E+01
 0.57516284365E+01 0.59476976874E+01 0.60289090039E+01 0.59584272663E+01 0.57281979810E+01
 0.53755705732E+01 0.49756894377E+01 0.46091580835E+01 0.43281405386E+01 0.41453641715E+01
 0.40480821681E+01 0.40186545220E+01 0.40451114613E+01 0.41210978659E+01 0.42437884957E+01
 0.44135499994E+01 0.46317871090E+01 0.48947794197E+01 0.51878466648E+01 0.54848817077E+01
 0.56969976951E+01 0.57483129130E+01 0.56970455438E+01 0.55474714893E+01 0.53147122555E+01
 0.50279696605E+01 0.47280209923E+01 0.44566131154E+01 0.42433337874E+01 0.40988594204E+01
 0.40186545220E+01 0.39933671259E+01 0.40186196881E+01 0.40988277433E+01 0.42433467355E+01
 0.44566775497E+01 0.47281008523E+01 0.50280142079E+01 0.53146964666E+01 0.55474153132E+01
 0.60287283911E+01 0.59475922263E+01 0.57515711753E+01 0.54848226462E+01 0.51877661756E+01
 0.48946898782E+01 0.46317065661E+01 0.44134905332E+01 0.42437592083E+01 0.41210967250E+01
 0.40451114613E+01 0.40186196881E+01 0.40480153963E+01 0.41453298519E+01 0.43282132834E+01
 0.46093353889E+01 0.49758667288E+01 0.53756211766E+01 0.57280831966E+01 0.59582234684E+01
 0.67917612872E+01 0.65771975570E+01 0.61985791005E+01 0.57504400830E+01 0.53146971694E+01
 0.49434517624E+01 0.46568241156E+01 0.44495581839E+01 0.43013188763E+01 0.41929913724E+01
 0.41210978659E+01 0.40988277433E+01 0.41453298519E+01 0.42779306875E+01 0.45145135932E+01
 0.48729865854E+01 0.53548394666E+01 0.59128418782E+01 0.64271201128E+01 0.67491912563E+01
 0.80100220591E+01 0.76855156435E+01 0.70693490396E+01 0.63713180604E+01 0.57281632993E+01
 0.51946384965E+01 0.48061082669E+01 0.45542190238E+01 0.43996466224E+01 0.43013318110E+01
 0.42437884957E+01 0.42433467355E+01 0.43282132834E+01 0.45145135932E+01 0.48057424518E+01
 0.52217060926E+01 0.58041115988E+01 0.65506632389E+01 0.73267800125E+01 0.78830225833E+01
 0.93380887965E+01 0.90522527109E+01 0.82868847213E+01 0.73313739708E+01 0.64271269121E+01
 0.56907774449E+01 0.51336522853E+01 0.47632439349E+01 0.45541841317E+01 0.44495657198E+01
 0.44135499994E+01 0.44566775497E+01 0.46093353889E+01 0.48729865854E+01 0.52217060926E+01
 0.56628614565E+01 0.62708273926E+01 0.71249274516E+01 0.81354687552E+01 0.89893316707E+01
 0.10199943217E+02 0.10044693724E+02 0.93307240298E+01 0.83466135403E+01 0.73268350060E+01
 0.64082167796E+01 0.56715474466E+01 0.51336226607E+01 0.48060367583E+01 0.46568235000E+01
 0.46317871090E+01 0.47281008523E+01 0.49758667288E+01 0.53548394666E+01 0.58041115988E+01
 0.62708273926E+01 0.68195515346E+01 0.76134162062E+01 0.86635153066E+01 0.96687278790E+01
 0.10518193359E+02 0.10361764454E+02 0.97325310441E+01 0.89471833570E+01 0.81358073871E+01
 0.72731054251E+01 0.64082802584E+01 0.56907892833E+01 0.51945714405E+01 0.49434573419E+01
 0.48947794197E+01 0.50280142079E+01 0.53756211766E+01 0.59128418782E+01 0.65506632389E+01
 0.71249274516E+01 0.76134162062E+01 0.82261553352E+01 0.91056730320E+01 0.10021971304E+02
 0.10838145312E+02 0.10495708692E+02 0.97539591970E+01 0.91056730320E+01 0.86635153066E+01
 0.81354687552E+01 0.73267800125E+01 0.64271201128E+01 0.57280831966E+01 0.53146964666E+01
 0.51878466648E+01 0.53146964666E+01 0.57280831966E+01 0.64271201128E+01 0.73267800125E+01
 0.81354687552E+01 0.86635153066E+01 0.91056730320E+01 0.97539591970E+01 0.10495708692E+02
 0.11542940372E+02 0.11113254661E+02 0.10141093432E+02 0.93622022824E+01 0.91034631454E+01
 0.89454698827E+01 0.83459682907E+01 0.73311637428E+01 0.63711535845E+01 0.57503990292E+01
 0.54848817077E+01 0.55474153132E+01 0.59582234684E+01 0.67491912563E+01 0.78830225833E+01
 0.89893316707E+01 0.96687278790E+01 0.10021971304E+02 0.10495708692E+02 0.11176721514E+02
 0.11446812251E+02 0.11160589700E+02 0.10135616571E+02 0.89652674961E+01 0.83247995247E+01
 0.82268408946E+01 0.80916927822E+01 0.75014177208E+01 0.66340941620E+01 0.59042142830E+01
 0.54689754369E+01 0.53480706556E+01 0.55245501927E+01 0.60416537865E+01 0.69203116805E+01
 0.80888420885E+01 0.91928199404E+01 0.99616343099E+01 0.10518193359E+02 0.11075792411E+02
 0.11160589700E+02 0.11524743809E+02 0.11101742407E+02 0.10139170618E+02 0.93657251556E+01
 0.91071941613E+01 0.89481516111E+01 0.83489459173E+01 0.73341426425E+01 0.63718316997E+01
 0.57482061922E+01 0.54827262648E+01 0.55482742388E+01 0.59611919178E+01 0.67507932847E+01
 0.78821555242E+01 0.89886813833E+01 0.96701254618E+01 0.10021971304E+02 0.10488255044E+02
 0.10135616571E+02 0.11101742407E+02 0.11529102223E+02 0.11166210716E+02 0.10491843792E+02
 0.10023639428E+02 0.96722327150E+01 0.89918208866E+01 0.78840230175E+01 0.67495257450E+01
 0.59584272663E+01 0.55474714893E+01 0.54848226462E+01 0.57504400830E+01 0.63713180604E+01
 0.73313739708E+01 0.83466135403E+01 0.89471833570E+01 0.91056730320E+01 0.93622022824E+01
 0.89652674961E+01 0.10139170618E+02 0.11166210716E+02 0.11451334801E+02 0.11078204857E+02
 0.10520370300E+02 0.99650661474E+01 0.91960179050E+01 0.80891763746E+01 0.69178318014E+01
 0.60395339765E+01 0.55253009730E+01 0.53504583271E+01 0.54697311254E+01 0.59022224333E+01
 0.66315247609E+01 0.75005388594E+01 0.80919415565E+01 0.82261553352E+01 0.83231532366E+01
 0.83247995247E+01 0.93657251556E+01 0.10491843792E+02 0.11078204857E+02 0.10935325805E+02
 0.10365450900E+02 0.96744141403E+01 0.88638244544E+01 0.78549494250E+01 0.67945787574E+01
 0.59490276475E+01 0.54057953959E+01 0.51632542303E+01 0.51718933900E+01 0.54326402201E+01
 0.59523115276E+01 0.66536061528E+01 0.72882584300E+01 0.76134162062E+01 0.78006423415E+01
 0.82268408946E+01 0.91071941613E+01 0.10023639428E+02 0.10520370300E+02 0.10365450900E+02
 0.97372599859E+01 0.89504397640E+01 0.81354618513E+01 0.72700861221E+01 0.64058739341E+01
 0.56910845939E+01 0.51963273472E+01 0.49439889681E+01 0.48933851869E+01 0.50266368264E+01
 0.53761604238E+01 0.59148000345E+01 0.65520562086E+01 0.71249274516E+01 0.76131321094E+01
 0.80916927822E+01 0.89481516111E+01 0.96722327150E+01 0.99650661474E+01 0.96744141403E+01
 0.89504397640E+01 0.80920647442E+01 0.72852365801E+01 0.65484541319E+01 0.58783118075E+01
 0.53255767557E+01 0.49289876106E+01 0.47168689259E+01 0.46557788413E+01 0.47170011302E+01
 0.49291730767E+01 0.53261086951E+01 0.58797450412E+01 0.65506632389E+01 0.72868959641E+01
 0.75014177208E+01 0.83489459173E+01 0.89918208866E+01 0.91960179050E+01 0.88638244544E+01
 0.81354618513E+01 0.72852365801E+01 0.65163822680E+01 0.58788648282E+01 0.53546362310E+01
 0.49403925724E+01 0.46531688317E+01 0.45062951410E+01 0.44675024934E+01 0.45044011371E+01
 0.46297342027E+01 0.48926458192E+01 0.53246169306E+01 0.59128418782E+01 0.66527194693E+01
 0.66340941620E+01 0.73341426425E+01 0.78840230175E+01 0.80891763746E+01 0.78549494250E+01
 0.72700861221E+01 0.65484541319E+01 0.58788648282E+01 0.53367071199E+01 0.49184624511E+01
 0.46093403356E+01 0.44157741840E+01 0.43314135296E+01 0.43255971388E+01 0.43677237554E+01
 0.44572030014E+01 0.46287975867E+01 0.49277771627E+01 0.53756211766E+01 0.59535051608E+01
 0.59042142830E+01 0.63718316997E+01 0.67495257450E+01 0.69178318014E+01 0.67945787574E+01
 0.64058739341E+01 0.58783118075E+01 0.53546362310E+01 0.49184624511E+01 0.45898137130E+01
 0.43673420857E+01 0.42431718640E+01 0.42024705259E+01 0.42220087113E+01 0.42790578539E+01
 0.43674441739E+01 0.45039544737E+01 0.47171446225E+01 0.50280142079E+01 0.54349334426E+01
 0.54689754369E+01 0.57482061922E+01 0.59584272663E+01 0.60395339765E+01 0.59490276475E+01
 0.56910845939E+01 0.53255767557E+01 0.49403925724E+01 0.46093403356E+01 0.43673420857E+01
 0.42148552156E+01 0.41376883162E+01 0.41210825761E+01 0.41525512708E+01 0.42221030916E+01
 0.43257917182E+01 0.44680580561E+01 0.46569164528E+01 0.48947794197E+01 0.51726309205E+01
 0.53480706556E+01 0.54827262648E+01 0.55474714893E+01 0.55253009730E+01 0.54057953959E+01
 0.51963273472E+01 0.49289876106E+01 0.46531688317E+01 0.44157741840E+01 0.42431718640E+01
 0.41376883162E+01 0.40882201099E+01 0.40839241643E+01 0.41212456712E+01 0.42027822878E+01
 0.43318774415E+01 0.45068341017E+01 0.47171446225E+01 0.49434573419E+01 0.51616024214E+01
 0.55245501927E+01 0.55482742388E+01 0.54848226462E+01 0.53504583271E+01 0.51632542303E+01
 0.49439889681E+01 0.47168689259E+01 0.45062951410E+01 0.43314135296E+01 0.42024705259E+01
 0.41210825761E+01 0.40839241643E+01 0.40883628960E+01 0.41378759922E+01 0.42432700258E+01
 0.44156337368E+01 0.46525887747E+01 0.49277771627E+01 0.51945714405E+01 0.54040869807E+01
 0.60416537865E+01 0.59611919178E+01 0.57504400830E+01 0.54697311254E+01 0.51718933900E+01
 0.48933851869E+01 0.46557788413E+01 0.44675024934E+01 0.43255971388E+01 0.42220087113E+01
 0.41525512708E+01 0.41212456712E+01 0.41378759922E+01 0.42147577934E+01 0.43667599151E+01
 0.46083420555E+01 0.49392359946E+01 0.53246169306E+01 0.56907892833E+01 0.59498815119E+01
 0.69203116805E+01 0.67507932847E+01 0.63713180604E+01 0.59022224333E+01 0.54326402201E+01
 0.50266368264E+01 0.47170011302E+01 0.45044011371E+01 0.43677237554E+01 0.42790578539E+01
 0.42221030916E+01 0.42027822878E+01 0.42432700258E+01 0.43667599151E+01 0.45887113457E+01
 0.49176172617E+01 0.53548130375E+01 0.58797450412E+01 0.64082802584E+01 0.67973985617E+01
 0.80888420885E+01 0.78821555242E+01 0.73313739708E+01 0.66315247609E+01 0.59523115276E+01
 0.53761604238E+01 0.49291730767E+01 0.46297342027E+01 0.44572030014E+01 0.43674441739E+01
 0.43257917182E+01 0.43318774415E+01 0.44156337368E+01 0.46083420555E+01 0.49176172617E+01
 0.53374210021E+01 0.58815291796E+01 0.65520562086E+01 0.72731054251E+01 0.78564003671E+01
 0.91928199404E+01 0.89886813833E+01 0.83466135403E+01 0.75005388594E+01 0.66536061528E+01
 0.59148000345E+01 0.53261086951E+01 0.48926458192E+01 0.46287975867E+01 0.45039544737E+01
 0.44680580561E+01 0.45068341017E+01 0.46525887747E+01 0.49392359946E+01 0.53548130375E+01
 0.58815291796E+01 0.65204474585E+01 0.72882584300E+01 0.81358073871E+01 0.88617372707E+01
 0.99616343099E+01 0.96701254618E+01 0.89471833570E+01 0.80919415565E+01 0.72882584300E+01
 0.65520562086E+01 0.58797450412E+01 0.53246169306E+01 0.49277771627E+01 0.47171446225E+01
 0.46569164528E+01 0.47171446225E+01 0.49277771627E+01 0.53246169306E+01 0.58797450412E+01
 0.65520562086E+01 0.72882584300E+01 0.80919415565E+01 0.89471833570E+01 0.96701254618E+01
 0.10518193359E+02 0.10021971304E+02 0.91056730320E+01 0.82261553352E+01 0.76134162062E+01
 0.71249274516E+01 0.65506632389E+01 0.59128418782E+01 0.53756211766E+01 0.50280142079E+01
 0.48947794197E+01 0.49434573419E+01 0.51945714405E+01 0.56907892833E+01 0.64082802584E+01
 0.72731054251E+01 0.81358073871E+01 0.89471833570E+01 0.97325310441E+01 0.10361764454E+02
 0.11075792411E+02 0.10488255044E+02 0.93622022824E+01 0.83231532366E+01 0.78006423415E+01
 0.76131321094E+01 0.72868959641E+01 0.66527194693E+01 0.59535051608E+01 0.54349334426E+01
 0.51726309205E+01 0.51616024214E+01 0.54040869807E+01 0.59498815119E+01 0.67973985617E+01
 0.78564003671E+01 0.88617372707E+01 0.96701254618E+01 0.10361764454E+02 0.10933045217E+02
 0.11335553820E+02 0.10923702039E+02 0.97478729974E+01 0.83247995247E+01 0.73204278186E+01
 0.69410970463E+01 0.68206937450E+01 0.65210687055E+01 0.59936033325E+01 0.54758253034E+01
 0.51268925581E+01 0.50035476360E+01 0.50892172454E+01 0.54147324901E+01 0.60293801563E+01
 0.69353284615E+01 0.80579321239E+01 0.91928199404E+01 0.10199943217E+02 0.10990140947E+02
 0.10923702039E+02 0.11068215934E+02 0.10486548211E+02 0.93657251556E+01 0.83282129116E+01
 0.78047649824E+01 0.76164628608E+01 0.72898732225E+01 0.66542519158E+01 0.59525133014E+01