   1   1   0   0
  0.1638400E+02  0.2771281E-09  0.2771281E-09  0.2771281E-09  0.5000000E-15
  1.000000000000000E-004
  CAR 
 BCC W                                   
     28.49118789     -3.68938121  301      7.28206391      1.00000000
     -3.689  0.0000E+00  0.0000E+00
     -3.582  0.0000E+00  0.0000E+00
     -3.475  0.0000E+00  0.0000E+00
     -3.368 -0.6997E-31 -0.7506E-32
     -3.260 -0.3984E-27 -0.4274E-28
     -3.153 -0.1270E-23 -0.1363E-24
     -3.046 -0.2264E-20 -0.2430E-21
     -2.939 -0.2257E-17 -0.2423E-18
     -2.831 -0.1218E-14 -0.1309E-15
     -2.724 -0.3749E-12 -0.4034E-13
     -2.617 -0.6400E-10 -0.6905E-11
     -2.509 -0.6027E-08 -0.6534E-09
     -2.402 -0.3106E-06 -0.3397E-07
     -2.295 -0.8633E-05 -0.9600E-06
     -2.188 -0.1258E-03 -0.1445E-04
     -2.080 -0.8972E-03 -0.1107E-03
     -1.973 -0.2445E-02 -0.3729E-03
     -1.866  0.2551E-02 -0.9932E-04
     -1.759  0.2603E-01  0.2693E-02
     -1.651  0.4726E-01  0.7762E-02
     -1.544  0.3157E-01  0.1115E-01
     -1.437  0.9812E-02  0.1220E-01
     -1.329  0.2972E-01  0.1539E-01
     -1.222  0.5871E-01  0.2169E-01
     -1.115  0.3840E-01  0.2581E-01
     -1.008  0.2404E-01  0.2839E-01
     -0.900  0.1068E+00  0.3985E-01
     -0.793  0.1924E+00  0.6048E-01
     -0.686  0.1339E+00  0.7484E-01
     -0.579  0.2573E-01  0.7760E-01
     -0.471 -0.1394E-01  0.7611E-01
     -0.364 -0.1669E-01  0.7432E-01
     -0.257  0.1191E-01  0.7560E-01
     -0.150  0.1236E+00  0.8885E-01
     -0.042  0.2263E+00  0.1131E+00
      0.065  0.1701E+00  0.1314E+00
      0.172  0.9601E-01  0.1417E+00
      0.280  0.1546E+00  0.1583E+00
      0.387  0.2212E+00  0.1820E+00
      0.494  0.2305E+00  0.2067E+00
      0.601  0.1805E+00  0.2261E+00
      0.709  0.6793E-01  0.2334E+00
      0.816 -0.1089E-01  0.2322E+00
      0.923 -0.3592E-01  0.2283E+00
      1.030  0.7223E-02  0.2291E+00
      1.138  0.2385E+00  0.2547E+00
      1.245  0.5274E+00  0.3113E+00
      1.352  0.5742E+00  0.3729E+00
      1.460  0.6087E+00  0.4382E+00
      1.567  0.8062E+00  0.5246E+00
      1.674  0.7244E+00  0.6023E+00
      1.781  0.3067E+00  0.6352E+00
      1.889  0.1469E+00  0.6510E+00
      1.996  0.4601E+00  0.7003E+00
      2.103  0.7863E+00  0.7847E+00
      2.210  0.9920E+00  0.8911E+00
      2.318  0.1236E+01  0.1024E+01
      2.425  0.1205E+01  0.1153E+01
      2.532  0.8183E+00  0.1241E+01
      2.639  0.4875E+00  0.1293E+01
      2.747  0.5310E+00  0.1350E+01
      2.854  0.1084E+01  0.1466E+01
      2.961  0.1592E+01  0.1637E+01
      3.069  0.1422E+01  0.1790E+01
      3.176  0.1072E+01  0.1905E+01
      3.283  0.8898E+00  0.2000E+01
      3.390  0.5599E+00  0.2060E+01
      3.498  0.1629E+00  0.2078E+01
      3.605  0.7108E-01  0.2085E+01
      3.712  0.4104E+00  0.2129E+01
      3.819  0.8131E+00  0.2216E+01
      3.927  0.8455E+00  0.2307E+01
      4.034  0.8313E+00  0.2396E+01
      4.141  0.1084E+01  0.2513E+01
      4.248  0.1522E+01  0.2676E+01
      4.356  0.2070E+01  0.2898E+01
      4.463  0.2251E+01  0.3139E+01
      4.570  0.1800E+01  0.3332E+01
      4.678  0.1146E+01  0.3455E+01
      4.785  0.8774E+00  0.3549E+01
      4.892  0.1010E+01  0.3658E+01
      4.999  0.1280E+01  0.3795E+01
      5.107  0.1523E+01  0.3958E+01
      5.214  0.1460E+01  0.4115E+01
      5.321  0.1434E+01  0.4269E+01
      5.428  0.1868E+01  0.4469E+01
      5.536  0.2128E+01  0.4697E+01
      5.643  0.1658E+01  0.4875E+01
      5.750  0.1079E+01  0.4991E+01
      5.858  0.9746E+00  0.5096E+01
      5.965  0.1107E+01  0.5214E+01
      6.072  0.1027E+01  0.5324E+01
      6.179  0.7014E+00  0.5400E+01
      6.287  0.4739E+00  0.5451E+01
      6.394  0.4964E+00  0.5504E+01
      6.501  0.5561E+00  0.5563E+01
      6.608  0.5557E+00  0.5623E+01
      6.716  0.5301E+00  0.5680E+01
      6.823  0.5137E+00  0.5735E+01
      6.930  0.5710E+00  0.5796E+01
      7.037  0.5999E+00  0.5861E+01
      7.145  0.5941E+00  0.5924E+01
      7.252  0.5665E+00  0.5985E+01
      7.359  0.4431E+00  0.6033E+01
      7.467  0.3707E+00  0.6072E+01
      7.574  0.4400E+00  0.6120E+01
      7.681  0.4639E+00  0.6169E+01
      7.788  0.2959E+00  0.6201E+01
      7.896  0.2194E+00  0.6225E+01
      8.003  0.5176E+00  0.6280E+01
      8.110  0.9221E+00  0.6379E+01
      8.217  0.1053E+01  0.6492E+01
      8.325  0.9173E+00  0.6590E+01
      8.432  0.8009E+00  0.6676E+01
      8.539  0.8600E+00  0.6769E+01
      8.647  0.8560E+00  0.6860E+01
      8.754  0.8198E+00  0.6948E+01
      8.861  0.1000E+01  0.7056E+01
      8.968  0.1182E+01  0.7182E+01
      9.076  0.1324E+01  0.7325E+01
      9.183  0.1420E+01  0.7477E+01
      9.290  0.1356E+01  0.7622E+01
      9.397  0.1260E+01  0.7758E+01
      9.505  0.1246E+01  0.7891E+01
      9.612  0.1169E+01  0.8017E+01
      9.719  0.9167E+00  0.8115E+01
      9.826  0.9419E+00  0.8216E+01
      9.934  0.1212E+01  0.8346E+01
     10.041  0.1229E+01  0.8478E+01
     10.148  0.1443E+01  0.8633E+01
     10.256  0.2089E+01  0.8857E+01
     10.363  0.2463E+01  0.9121E+01
     10.470  0.2360E+01  0.9374E+01
     10.577  0.2241E+01  0.9615E+01
     10.685  0.2122E+01  0.9842E+01
     10.792  0.1605E+01  0.1001E+02
     10.899  0.1044E+01  0.1013E+02
     11.006  0.8009E+00  0.1021E+02
     11.114  0.5967E+00  0.1028E+02
     11.221  0.4203E+00  0.1032E+02
     11.328  0.3478E+00  0.1036E+02
     11.435  0.2723E+00  0.1039E+02
     11.543  0.2185E+00  0.1041E+02
     11.650  0.2413E+00  0.1044E+02
     11.757  0.3323E+00  0.1047E+02
     11.865  0.3360E+00  0.1051E+02
     11.972  0.2234E+00  0.1053E+02
     12.079  0.1901E+00  0.1055E+02
     12.186  0.2195E+00  0.1058E+02
     12.294  0.2493E+00  0.1060E+02
     12.401  0.3306E+00  0.1064E+02
     12.508  0.3129E+00  0.1067E+02
     12.615  0.3872E+00  0.1071E+02
     12.723  0.8376E+00  0.1080E+02
     12.830  0.1182E+01  0.1093E+02
     12.937  0.9932E+00  0.1104E+02
     13.045  0.6125E+00  0.1110E+02
     13.152  0.4266E+00  0.1115E+02
     13.259  0.3231E+00  0.1118E+02
     13.366  0.2358E+00  0.1121E+02
     13.474  0.2318E+00  0.1123E+02
     13.581  0.2395E+00  0.1126E+02
     13.688  0.1966E+00  0.1128E+02
     13.795  0.1338E+00  0.1129E+02
     13.903  0.1541E+00  0.1131E+02
     14.010  0.3081E+00  0.1134E+02
     14.117  0.3736E+00  0.1138E+02
     14.224  0.1916E+00  0.1140E+02
     14.332  0.7230E-02  0.1141E+02
     14.439 -0.4155E-01  0.1140E+02
     14.546  0.1614E-01  0.1140E+02
     14.654  0.2444E+00  0.1143E+02
     14.761  0.5262E+00  0.1149E+02
     14.868  0.5187E+00  0.1154E+02
     14.975  0.2849E+00  0.1157E+02
     15.083  0.1643E+00  0.1159E+02
     15.190  0.3149E+00  0.1162E+02
     15.297  0.7521E+00  0.1170E+02
     15.404  0.9612E+00  0.1181E+02
     15.512  0.5899E+00  0.1187E+02
     15.619  0.1535E+00  0.1189E+02
     15.726  0.1688E-01  0.1189E+02
     15.833  0.7880E-01  0.1190E+02
     15.941  0.1892E+00  0.1192E+02
     16.048  0.2376E+00  0.1194E+02
     16.155  0.2219E+00  0.1197E+02
     16.263  0.1299E+00  0.1198E+02
     16.370  0.3284E-01  0.1198E+02
     16.477  0.7983E-01  0.1199E+02
     16.584  0.2554E+00  0.1202E+02
     16.692  0.4231E+00  0.1207E+02
     16.799  0.6342E+00  0.1213E+02
     16.906  0.1074E+01  0.1225E+02
     17.013  0.1347E+01  0.1239E+02
     17.121  0.9798E+00  0.1250E+02
     17.228  0.4414E+00  0.1255E+02
     17.335  0.2515E+00  0.1257E+02
     17.443  0.2839E+00  0.1260E+02
     17.550  0.3377E+00  0.1264E+02
     17.657  0.2791E+00  0.1267E+02
     17.764  0.9988E-01  0.1268E+02
     17.872  0.1297E-01  0.1268E+02
     17.979  0.1129E+00  0.1269E+02
     18.086  0.3143E+00  0.1273E+02
     18.193  0.5328E+00  0.1278E+02
     18.301  0.5975E+00  0.1285E+02
     18.408  0.3976E+00  0.1289E+02
     18.515  0.1251E+00  0.1290E+02
     18.622 -0.1677E-01  0.1290E+02
     18.730  0.3990E-01  0.1291E+02
     18.837  0.2581E+00  0.1293E+02
     18.944  0.4574E+00  0.1298E+02
     19.052  0.6578E+00  0.1305E+02
     19.159  0.8801E+00  0.1315E+02
     19.266  0.8070E+00  0.1324E+02
     19.373  0.5442E+00  0.1329E+02
     19.481  0.4084E+00  0.1334E+02
     19.588  0.4937E+00  0.1339E+02
     19.695  0.6890E+00  0.1346E+02
     19.802  0.6797E+00  0.1354E+02
     19.910  0.4956E+00  0.1359E+02
     20.017  0.3401E+00  0.1363E+02
     20.124  0.2664E+00  0.1366E+02
     20.232  0.3439E+00  0.1369E+02
     20.339  0.5305E+00  0.1375E+02
     20.446  0.6285E+00  0.1382E+02
     20.553  0.5576E+00  0.1388E+02
     20.661  0.4143E+00  0.1392E+02
     20.768  0.4292E+00  0.1397E+02
     20.875  0.6175E+00  0.1403E+02
     20.982  0.7767E+00  0.1412E+02
     21.090  0.9445E+00  0.1422E+02
     21.197  0.9691E+00  0.1432E+02
     21.304  0.7203E+00  0.1440E+02
     21.411  0.6943E+00  0.1447E+02
     21.519  0.8964E+00  0.1457E+02
     21.626  0.7370E+00  0.1465E+02
     21.733  0.3850E+00  0.1469E+02
     21.841  0.4208E+00  0.1474E+02
     21.948  0.5495E+00  0.1479E+02
     22.055  0.3968E+00  0.1484E+02
     22.162  0.3520E+00  0.1487E+02
     22.270  0.4698E+00  0.1492E+02
     22.377  0.4162E+00  0.1497E+02
     22.484  0.2962E+00  0.1500E+02
     22.591  0.3699E+00  0.1504E+02
     22.699  0.6052E+00  0.1511E+02
     22.806  0.6979E+00  0.1518E+02
     22.913  0.5028E+00  0.1523E+02
     23.020  0.2573E+00  0.1526E+02
     23.128  0.9490E-01  0.1527E+02
     23.235  0.2473E-02  0.1527E+02
     23.342  0.1046E+00  0.1528E+02
     23.450  0.4159E+00  0.1533E+02
     23.557  0.6397E+00  0.1540E+02
     23.664  0.7322E+00  0.1548E+02
     23.771  0.7977E+00  0.1556E+02
     23.879  0.7059E+00  0.1564E+02
     23.986  0.5117E+00  0.1569E+02
     24.093  0.2643E+00  0.1572E+02
     24.200  0.4121E-01  0.1572E+02
     24.308  0.3442E-01  0.1573E+02
     24.415  0.2434E+00  0.1575E+02
     24.522  0.4251E+00  0.1580E+02
     24.630  0.4068E+00  0.1584E+02
     24.737  0.2526E+00  0.1587E+02
     24.844  0.8713E-01  0.1588E+02
     24.951  0.5905E-01  0.1589E+02
     25.059  0.1750E+00  0.1591E+02
     25.166  0.2165E+00  0.1593E+02
     25.273  0.1003E+00  0.1594E+02
     25.380  0.3130E-01  0.1594E+02
     25.488  0.1186E+00  0.1596E+02
     25.595  0.1911E+00  0.1598E+02
     25.702  0.1141E+00  0.1599E+02
     25.809  0.1496E-01  0.1599E+02
     25.917 -0.9917E-02  0.1599E+02
     26.024 -0.4308E-02  0.1599E+02
     26.131 -0.1964E-02  0.1599E+02
     26.239 -0.2370E-02  0.1599E+02
     26.346  0.7420E-02  0.1599E+02
     26.453  0.3478E-01  0.1599E+02
     26.560  0.4835E-01  0.1600E+02
     26.668  0.2618E-01  0.1600E+02
     26.775  0.2561E-02  0.1600E+02
     26.882 -0.2444E-02  0.1600E+02
     26.989 -0.8972E-03  0.1600E+02
     27.097 -0.1258E-03  0.1600E+02
     27.204 -0.8633E-05  0.1600E+02
     27.311 -0.3106E-06  0.1600E+02
     27.419 -0.6027E-08  0.1600E+02
     27.526 -0.6400E-10  0.1600E+02
     27.633 -0.3749E-12  0.1600E+02
     27.740 -0.1217E-14  0.1600E+02
     27.848  0.0000E+00  0.1600E+02
     27.955  0.0000E+00  0.1600E+02
     28.062  0.0000E+00  0.1600E+02
     28.169  0.0000E+00  0.1600E+02
     28.277  0.0000E+00  0.1600E+02
     28.384  0.0000E+00  0.1600E+02
     28.491  0.0000E+00  0.1600E+02
