    1    1    1    1
  0.1638400E+02  0.2771281E-09  0.2771281E-09  0.2771281E-09  0.5000000E-15
  1.000000000000000E-004
  CAR 
 BCC W                                   
      6     44      8
 
  0.5000000E-01  0.5000000E-01  0.5000000E-01  0.8000000E-02
    1       -1.254173   1.000000
    2        5.901018   1.000000
    3        5.901018   1.000000
    4        7.018614   1.034299
    5        9.306319  -0.000000
    6        9.306319  -0.000000
    7       23.043247   0.000000
    8       23.848811   0.000000
 
  0.1500000E+00  0.5000000E-01  0.5000000E-01  0.2400000E-01
    1       -0.088961   1.000000
    2        5.251782   1.000000
    3        5.507678   1.000000
    4        8.434785  -0.000000
    5        8.985613  -0.000000
    6        9.564995  -0.000000
    7       23.440139   0.000000
    8       24.636923   0.000000
 
  0.2500000E+00  0.5000000E-01  0.5000000E-01  0.2400000E-01
    1        1.200459   1.000000
    2        4.603404   1.000000
    3        5.428691   1.000000
    4        9.176900  -0.000000
    5        9.871083  -0.000000
    6       10.484091  -0.000000
    7       21.898040   0.000000
    8       22.209872   0.000000
 
  0.3500000E+00  0.5000000E-01  0.5000000E-01  0.2400000E-01
    1        1.651580   1.000000
    2        4.154393   1.000000
    3        6.636136   1.000024
    4        9.512342  -0.000000
    5       10.189991  -0.000000
    6       12.661565  -0.000000
    7       19.038198   0.000000
    8       20.218097   0.000000
 
  0.4500000E+00  0.5000000E-01  0.5000000E-01  0.1200000E-01
    1        1.641746   1.000000
    2        3.994584   1.000000
    3        7.757207  -0.001981
    4        9.500503  -0.000000
    5       10.341634  -0.000000
    6       13.771436   0.000000
    7       17.557910   0.000000
    8       19.555025   0.000000
 
 -0.5000000E-01  0.5000000E-01  0.5000000E-01  0.6000000E-02
    1       -1.689381   1.000000
    2        6.201834   1.000000
    3        6.202109   1.000000
    4        6.330252   1.000000
    5        9.183523  -0.000000
    6        9.639095  -0.000000
    7       22.957998   0.000000
    8       23.001858   0.000000
 
  0.1500000E+00  0.1500000E+00  0.5000000E-01  0.2400000E-01
    1        1.209952   1.000000
    2        4.801513   1.000000
    3        4.840267   1.000000
    4        9.051431  -0.000000
    5        9.895125  -0.000000
    6       10.442365  -0.000000
    7       22.675968   0.000000
    8       23.786777   0.000000
 
  0.2500000E+00  0.1500000E+00  0.5000000E-01  0.4800000E-01
    1        2.257410   1.000000
    2        4.313426   1.000000
    3        5.136772   1.000000
    4        9.337924  -0.000000
    5       10.213545  -0.000000
    6       12.814742   0.000000
    7       19.679015   0.000000
    8       21.864288   0.000000
 
  0.3500000E+00  0.1500000E+00  0.5000000E-01  0.4800000E-01
    1        2.373849   1.000000
    2        4.083646   1.000000
    3        6.392989   1.000000
    4        9.599383  -0.000000
    5       10.418238  -0.000000
    6       14.779431   0.000000
    7       16.967942   0.000000
    8       20.497418   0.000000
 
 -0.1500000E+00  0.1500000E+00  0.5000000E-01  0.2400000E-01
    1       -0.835731   1.000000
    2        5.767674   1.000000
    3        6.046569   1.000000
    4        7.177068   0.883508
    5        8.534937  -0.000000
    6        9.819765  -0.000000
    7       23.478633   0.000000
    8       24.491768   0.000000
 
  0.2500000E+00  0.2500000E+00  0.5000000E-01  0.2400000E-01
    1        3.017567   1.000000
    2        4.343832   1.000000
    3        5.224979   1.000000
    4        9.641801  -0.000000
    5       10.328780  -0.000000
    6       15.293002   0.000000
    7       16.887260   0.000000
    8       20.949227   0.000000
 
  0.3500000E+00  0.2500000E+00  0.5000000E-01  0.2400000E-01
    1        3.123035   1.000000
    2        4.440299   1.000000
    3        5.532447   1.000000
    4        9.886756  -0.000000
    5       10.374072  -0.000000
    6       15.323583   0.000000
    7       17.007795   0.000000
    8       19.629482   0.000000
 
 -0.2500000E+00  0.2500000E+00  0.5000000E-01  0.2400000E-01
    1        0.507520   1.000000
    2        5.095430   1.000000
    3        5.644852   1.000000
    4        8.534758  -0.000000
    5        8.844778  -0.000000
    6       10.009540  -0.000000
    7       22.543954   0.000000
    8       23.985967   0.000000
 
 -0.1500000E+00  0.2500000E+00  0.5000000E-01  0.2400000E-01
    1        0.284707   1.000000
    2        5.548769   1.000000
    3        5.563553   1.000000
    4        7.980420  -0.000005
    5        8.356156  -0.000000
    6       10.198402  -0.000000
    7       23.498729   0.000000
    8       24.422933   0.000000
 
 -0.3500000E+00  0.3500000E+00  0.5000000E-01  0.2400000E-01
    1        1.413771   1.000000
    2        4.507237   1.000000
    3        6.046564   1.000000
    4        9.089897  -0.000000
    5       10.234938  -0.000000
    6       11.007718  -0.000000
    7       20.326197   0.000000
    8       21.485642   0.000000
 
 -0.2500000E+00  0.3500000E+00  0.5000000E-01  0.4800000E-01
    1        1.554250   1.000000
    2        4.862713   1.000000
    3        5.366309   1.000000
    4        8.276232  -0.000000
    5       10.179509  -0.000000
    6       10.594232  -0.000000
    7       21.136009   0.000000
    8       23.707242   0.000000
 
 -0.4500000E+00  0.4500000E+00  0.5000000E-01  0.2400000E-01
    1        1.520924   1.000000
    2        4.174080   1.000000
    3        7.337168   0.276357
    4        9.249316  -0.000000
    5       10.711824  -0.000000
    6       12.899951   0.000000
    7       18.281227   0.000000
    8       19.891837   0.000000
 
 -0.3500000E+00  0.4500000E+00  0.5000000E-01  0.4800000E-01
    1        2.027026   1.000000
    2        4.506806   1.000000
    3        5.925329   1.000000
    4        8.846362  -0.000000
    5       10.629389  -0.000000
    6       12.747620   0.000000
    7       18.865381   0.000000
    8       21.568755   0.000000
 
 -0.2500000E+00  0.4500000E+00  0.5000000E-01  0.2400000E-01
    1        2.582265   1.000000
    2        4.342218   1.000000
    3        5.435279   1.000000
    4        8.579194  -0.000000
    5       10.301853  -0.000000
    6       12.927420   0.000000
    7       19.184067   0.000000
    8       22.845470   0.000000
 
 -0.4500000E+00 -0.4500000E+00  0.5000000E-01  0.2400000E-01
    1        2.010205   1.000000
    2        4.388511   1.000000
    3        6.527480   1.000001
    4        8.797929  -0.000000
    5       11.269509  -0.000000
    6       14.024781   0.000000
    7       17.382986   0.000000
    8       20.778033   0.000000
 
 -0.3500000E+00 -0.4500000E+00  0.5000000E-01  0.4800000E-01
    1        2.903355   1.000000
    2        4.390531   1.000000
    3        5.439802   1.000000
    4        9.069050  -0.000000
    5       10.599034  -0.000000
    6       15.395422   0.000000
    7       16.886121   0.000000
    8       20.868782   0.000000
 
 -0.3500000E+00 -0.3500000E+00  0.5000000E-01  0.8000000E-02
    1        3.474383   1.000000
    2        4.624982   1.000000
    3        4.625058   1.000000
    4       10.028540  -0.000000
    5       10.028734  -0.000000
    6       15.603462   0.000000
    7       18.384237   0.000000
    8       18.384584   0.000000
 
  0.1500000E+00  0.1500000E+00  0.1500000E+00  0.8000000E-02
    1        2.630334   1.000000
    2        4.322062   1.000000
    3        4.322062   1.000000
    4        9.847703  -0.000000
    5        9.847703  -0.000000
    6       12.933914   0.000000
    7       20.654073   0.000000
    8       22.433362   0.000000
 
  0.2500000E+00  0.1500000E+00  0.1500000E+00  0.2400000E-01
    1        3.317772   1.000000
    2        4.079283   1.000000
    3        5.015702   1.000000
    4       10.003557  -0.000000
    5       10.286261  -0.000000
    6       15.276865   0.000000
    7       17.044191   0.000000
    8       21.124868   0.000000
 
  0.3500000E+00  0.1500000E+00  0.1500000E+00  0.1200000E-01
    1        3.239769   1.000000
    2        4.009097   1.000000
    3        5.964061   1.000000
    4       10.074185  -0.000000
    5       10.423453  -0.000000
    6       15.316714   0.000000
    7       16.503581   0.000000
    8       20.625168   0.000000
 
 -0.1500000E+00  0.1500000E+00  0.1500000E+00  0.6000000E-02
    1       -0.021811   1.000000
    2        6.239558   1.000000
    3        6.239795   1.000000
    4        7.149893   0.945458
    5        7.175802   0.886808
    6       10.383514  -0.000000
    7       24.713696   0.000000
    8       25.009750   0.000000
 
  0.2500000E+00  0.2500000E+00  0.1500000E+00  0.2400000E-01
    1        3.766719   1.000000
    2        4.487500   1.000000
    3        5.059283   1.000000
    4       10.292270  -0.000000
    5       10.409643  -0.000000
    6       14.677893   0.000000
    7       17.574087   0.000000
    8       19.798882   0.000000
 
 -0.2500000E+00  0.2500000E+00  0.1500000E+00  0.2400000E-01
    1        1.264488   1.000000
    2        5.514306   1.000000
    3        5.888607   1.000000
    4        7.180028   0.875637
    5        8.594911  -0.000000
    6       10.611890  -0.000000
    7       22.182290   0.000000
    8       25.534597   0.000000
 
 -0.3500000E+00  0.3500000E+00  0.1500000E+00  0.2400000E-01
    1        2.178993   1.000000
    2        5.033129   1.000000
    3        5.380550   1.000000
    4        8.045316  -0.000000
    5       10.757199  -0.000000
    6       10.911787  -0.000000
    7       20.352360   0.000000
    8       23.674347   0.000000
 
 -0.2500000E+00  0.3500000E+00  0.1500000E+00  0.2400000E-01
    1        2.399158   1.000000
    2        4.565526   1.000000
    3        6.108596   1.000000
    4        7.470816  -0.018264
    5        9.879768  -0.000000
    6       10.983946  -0.000000
    7       21.052476   0.000000
    8       25.097006   0.000000
 
 -0.4500000E+00  0.4500000E+00  0.1500000E+00  0.2400000E-01
    1        2.237848   1.000000
    2        5.079320   1.000000
    3        5.533302   1.000000
    4        8.025322  -0.000001
    5       12.390590  -0.000000
    6       12.701047  -0.000000
    7       18.176422   0.000000
    8       22.322781   0.000000
 
 -0.3500000E+00  0.4500000E+00  0.1500000E+00  0.4800000E-01
    1        2.920235   1.000000
    2        4.269690   1.000000
    3        5.731930   1.000000
    4        8.148772  -0.000000
    5       10.787241  -0.000000
    6       13.131932   0.000000
    7       19.124074   0.000000
    8       22.737779   0.000000
 
 -0.4500000E+00 -0.4500000E+00  0.1500000E+00  0.2400000E-01
    1        2.835299   1.000000
    2        4.733849   1.000000
    3        5.251035   1.000000
    4        8.172938  -0.000000
    5       11.842900  -0.000000
    6       15.034313   0.000000
    7       17.026816   0.000000
    8       21.293324   0.000000
 
 -0.3500000E+00 -0.4500000E+00  0.1500000E+00  0.2400000E-01
    1        3.747324   1.000000
    2        3.762338   1.000000
    3        4.995904   1.000000
    4        9.428905  -0.000000
    5       10.653584  -0.000000
    6       15.911900   0.000000
    7       17.225181   0.000000
    8       20.027902   0.000000
 
  0.2500000E+00  0.2500000E+00  0.2500000E+00  0.2000000E-02
    1        4.572042   1.000000
    2        4.572042   1.000000
    3        4.572279   1.000000
    4       10.471243  -0.000000
    5       10.471243  -0.000000
    6       13.815303   0.000000
    7       19.433684   0.000000
    8       19.434156   0.000000
 
 -0.2500000E+00  0.2500000E+00  0.2500000E+00  0.6000000E-02
    1        2.347120   1.000000
    2        4.771825   1.000000
    3        6.929501   1.015901
    4        6.929727   1.015947
    5        8.736608  -0.000000
    6       10.691629  -0.000000
    7       21.987996   0.000000
    8       26.491188   0.000000
 
 -0.3500000E+00  0.3500000E+00  0.2500000E+00  0.2400000E-01
    1        3.033324   1.000000
    2        3.857023   1.000000
    3        6.984992   1.028299
    4        7.640692  -0.014697
    5       10.442577  -0.000000
    6       11.192044  -0.000000
    7       21.406611   0.000000
    8       23.928182   0.000000
 
 -0.4500000E+00  0.4500000E+00  0.2500000E+00  0.2400000E-01
    1        2.859688   1.000000
    2        3.858054   1.000000
    3        6.805145   1.001909
    4        7.611311  -0.020944
    5       12.399028  -0.000000
    6       13.568813   0.000000
    7       18.208415   0.000000
    8       21.468858   0.000000
 
 -0.3500000E+00  0.4500000E+00  0.2500000E+00  0.2400000E-01
    1        3.153720   1.000000
    2        3.229197   1.000000
    3        6.906652   1.011650
    4        8.901230  -0.000000
    5       10.970052  -0.000000
    6       13.374382   0.000000
    7       19.398392   0.000000
    8       21.147177   0.000000
 
 -0.4500000E+00 -0.4500000E+00  0.2500000E+00  0.2400000E-01
    1        2.899746   1.000000
    2        3.258995   1.000000
    3        6.663076   1.000054
    4        9.453293  -0.000000
    5       11.727691  -0.000000
    6       16.128202   0.000000
    7       16.676986   0.000000
    8       19.340504   0.000000
 
 -0.3500000E+00  0.3500000E+00  0.3500000E+00  0.6000000E-02
    1        2.946151   1.000000
    2        2.997084   1.000000
    3        8.696423  -0.000000
    4        8.696678  -0.000000
    5       10.633822  -0.000000
    6       11.673764  -0.000000
    7       21.478155   0.000000
    8       21.478375   0.000000
 
 -0.4500000E+00  0.4500000E+00  0.3500000E+00  0.2400000E-01
    1        2.465929   1.000000
    2        2.670404   1.000000
    3        9.148683  -0.000000
    4        9.285556  -0.000000
    5       12.121639  -0.000000
    6       14.060126   0.000000
    7       18.012665   0.000000
    8       19.159919   0.000000
 
 -0.4500000E+00 -0.4500000E+00  0.3500000E+00  0.8000000E-02
    1        2.310420   1.000000
    2        2.310422   1.000000
    3        9.169561  -0.000000
    4       11.511894  -0.000000
    5       11.512373  -0.000000
    6       16.582791   0.000000
    7       16.655535   0.000000
    8       16.655687   0.000000
 
 -0.4500000E+00  0.4500000E+00  0.4500000E+00  0.6000000E-02
    1        1.984389   1.000000
    2        2.042772   1.000000
    3       11.420409  -0.000000
    4       11.420777  -0.000000
    5       12.090360  -0.000000
    6       14.812668   0.000000
    7       16.777568   0.000000
    8       16.777669   0.000000
