 vasp.5.4.4.18Apr17-6-g9f103f2a35 (build Jul 01 2019 03:25:34) complex          
  
 executed on             LinuxIFC date 2020.07.08  19:51:34
 running on    4 total cores
 distrk:  each k-point on    4 cores,    1 groups
 distr:  one band on NCORES_PER_BAND=   1 cores,    4 groups


--------------------------------------------------------------------------------------------------------


 INCAR:
 POTCAR:   PAW W 19Jan2001                        
 POTCAR:   PAW W 19Jan2001                        
   VRHFIN =W: 5p6s5d                                                            
   LEXCH  = CA                                                                  
   EATOM  =   206.5370 eV,   15.1800 Ry                                         
                                                                                
   TITEL  = PAW W 19Jan2001                                                     
   LULTRA =        F    use ultrasoft PP ?                                      
   IUNSCR =        1    unscreen: 0-lin 1-nonlin 2-no                           
   RPACOR =    2.330    partial core radius                                     
   POMASS =  183.850; ZVAL   =    6.000    mass and valenz                      
   RCORE  =    2.750    outmost cutoff radius                                   
   RWIGS  =    2.750; RWIGS  =    1.455    wigner-seitz radius (au A)           
   ENMAX  =  223.126; ENMIN  =  167.344 eV                                      
   RCLOC  =    2.147    cutoff for local pot                                    
   LCOR   =        T    correct aug charges                                     
   LPAW   =        T    paw PP                                                  
   EAUG   =  373.438                                                            
   DEXC   =    -.048                                                            
   RMAX   =    3.087    core radius for proj-oper                               
   RAUG   =    1.300    factor for augmentation sphere                          
   RDEP   =    2.886    radius for radial grids                                 
   QCUT   =   -4.050; QGAM   =    8.099    optimization parameters              
                                                                                
   Description                                                                  
     l     E      TYP  RCUT    TYP  RCUT                                        
     2   .000     23  2.500                                                     
     2   .000     23  2.500                                                     
     0   .000     23  2.500                                                     
     0   .000     23  2.500                                                     
     1   .200     23  2.750                                                     
     1  2.000     23  2.750                                                     
     3   .000      7   .000                                                     
  local pseudopotential read in
  partial core-charges read in
  atomic valenz-charges read in
  non local Contribution for L=           2  read in
    real space projection operators read in
  non local Contribution for L=           2  read in
    real space projection operators read in
  non local Contribution for L=           0  read in
    real space projection operators read in
  non local Contribution for L=           0  read in
    real space projection operators read in
  non local Contribution for L=           1  read in
    real space projection operators read in
  non local Contribution for L=           1  read in
    real space projection operators read in
    PAW grid and wavefunctions read in
 
   number of l-projection  operators is LMAX  =           6
   number of lm-projection operators is LMMAX =          18
 
 PAW W 19Jan2001                        :
 energy of atom  1       EATOM= -206.5370
 kinetic energy error for atom=    0.0291 (will be added to EATOM!!)
 
 
 POSCAR: BCC W Bulk                              
  positions in direct lattice
  No initial velocities read in
 exchange correlation table for  LEXCH =        2
   RHO(1)=    0.500       N(1)  =     2000
   RHO(2)=  100.500       N(2)  =     4000
 


--------------------------------------------------------------------------------------------------------


 ion  position               nearest neighbor table
   1  0.000  0.000  0.000-
 
  LATTYP: Found a body centered cubic cell.
 ALAT       =     3.2000000000
  
  Lattice vectors:
  
 A1 = (  -1.6000000000,   1.6000000000,   1.6000000000)
 A2 = (   1.6000000000,  -1.6000000000,   1.6000000000)
 A3 = (   1.6000000000,   1.6000000000,  -1.6000000000)


Analysis of symmetry for initial positions (statically):
=====================================================================
 Subroutine PRICEL returns:
 Original cell was already a primitive cell.
 

 Routine SETGRP: Setting up the symmetry group for a 
 body centered cubic supercell.


 Subroutine GETGRP returns: Found 48 space group operations
 (whereof 48 operations were pure point group operations)
 out of a pool of 48 trial point group operations.


The static configuration has the point symmetry O_h .


Analysis of symmetry for dynamics (positions and initial velocities):
=====================================================================
 Subroutine PRICEL returns:
 Original cell was already a primitive cell.
 

 Routine SETGRP: Setting up the symmetry group for a 
 body centered cubic supercell.


 Subroutine GETGRP returns: Found 48 space group operations
 (whereof 48 operations were pure point group operations)
 out of a pool of 48 trial point group operations.


The dynamic configuration has the point symmetry O_h .


 Subroutine INISYM returns: Found 48 space group operations
 (whereof 48 operations are pure point group operations),
 and found     1 'primitive' translations

 
 
 KPOINTS: 10x10x10                                

Automatic generation of k-mesh.
Space group operators:
 irot       det(A)        alpha          n_x          n_y          n_z        tau_x        tau_y        tau_z
    1     1.000000     0.000000     1.000000     0.000000     0.000000     0.000000     0.000000     0.000000
    2    -1.000000     0.000000     1.000000     0.000000     0.000000     0.000000     0.000000     0.000000
    3     1.000000   120.000000    -0.577350    -0.577350    -0.577350     0.000000     0.000000     0.000000
    4    -1.000000   120.000000    -0.577350    -0.577350    -0.577350     0.000000     0.000000     0.000000
    5     1.000000   120.000000     0.577350     0.577350     0.577350     0.000000     0.000000     0.000000
    6    -1.000000   120.000000     0.577350     0.577350     0.577350     0.000000     0.000000     0.000000
    7     1.000000    90.000000     0.000000     0.000000    -1.000000     0.000000     0.000000     0.000000
    8    -1.000000    90.000000     0.000000     0.000000    -1.000000     0.000000     0.000000     0.000000
    9     1.000000   180.000000     0.000000     0.707107     0.707107     0.000000     0.000000     0.000000
   10    -1.000000   180.000000     0.000000     0.707107     0.707107     0.000000     0.000000     0.000000
   11     1.000000    90.000000     0.000000     1.000000     0.000000     0.000000     0.000000     0.000000
   12    -1.000000    90.000000     0.000000     1.000000     0.000000     0.000000     0.000000     0.000000
   13     1.000000   180.000000     0.000000     0.000000     1.000000     0.000000     0.000000     0.000000
   14    -1.000000   180.000000     0.000000     0.000000     1.000000     0.000000     0.000000     0.000000
   15     1.000000   120.000000    -0.577350     0.577350     0.577350     0.000000     0.000000     0.000000
   16    -1.000000   120.000000    -0.577350     0.577350     0.577350     0.000000     0.000000     0.000000
   17     1.000000   120.000000    -0.577350     0.577350    -0.577350     0.000000     0.000000     0.000000
   18    -1.000000   120.000000    -0.577350     0.577350    -0.577350     0.000000     0.000000     0.000000
   19     1.000000    90.000000     0.000000     0.000000     1.000000     0.000000     0.000000     0.000000
   20    -1.000000    90.000000     0.000000     0.000000     1.000000     0.000000     0.000000     0.000000
   21     1.000000    90.000000    -1.000000     0.000000     0.000000     0.000000     0.000000     0.000000
   22    -1.000000    90.000000    -1.000000     0.000000     0.000000     0.000000     0.000000     0.000000
   23     1.000000   180.000000     0.707107     0.000000     0.707107     0.000000     0.000000     0.000000
   24    -1.000000   180.000000     0.707107     0.000000     0.707107     0.000000     0.000000     0.000000
   25     1.000000   120.000000     0.577350    -0.577350     0.577350     0.000000     0.000000     0.000000
   26    -1.000000   120.000000     0.577350    -0.577350     0.577350     0.000000     0.000000     0.000000
   27     1.000000   120.000000    -0.577350    -0.577350     0.577350     0.000000     0.000000     0.000000
   28    -1.000000   120.000000    -0.577350    -0.577350     0.577350     0.000000     0.000000     0.000000
   29     1.000000   180.000000     1.000000     0.000000     0.000000     0.000000     0.000000     0.000000
   30    -1.000000   180.000000     1.000000     0.000000     0.000000     0.000000     0.000000     0.000000
   31     1.000000    90.000000     0.000000    -1.000000     0.000000     0.000000     0.000000     0.000000
   32    -1.000000    90.000000     0.000000    -1.000000     0.000000     0.000000     0.000000     0.000000
   33     1.000000   180.000000     0.707107     0.707107     0.000000     0.000000     0.000000     0.000000
   34    -1.000000   180.000000     0.707107     0.707107     0.000000     0.000000     0.000000     0.000000
   35     1.000000    90.000000     1.000000     0.000000     0.000000     0.000000     0.000000     0.000000
   36    -1.000000    90.000000     1.000000     0.000000     0.000000     0.000000     0.000000     0.000000
   37     1.000000   120.000000     0.577350    -0.577350    -0.577350     0.000000     0.000000     0.000000
   38    -1.000000   120.000000     0.577350    -0.577350    -0.577350     0.000000     0.000000     0.000000
   39     1.000000   180.000000     0.000000     1.000000     0.000000     0.000000     0.000000     0.000000
   40    -1.000000   180.000000     0.000000     1.000000     0.000000     0.000000     0.000000     0.000000
   41     1.000000   120.000000     0.577350     0.577350    -0.577350     0.000000     0.000000     0.000000
   42    -1.000000   120.000000     0.577350     0.577350    -0.577350     0.000000     0.000000     0.000000
   43     1.000000   180.000000     0.000000    -0.707107     0.707107     0.000000     0.000000     0.000000
   44    -1.000000   180.000000     0.000000    -0.707107     0.707107     0.000000     0.000000     0.000000
   45     1.000000   180.000000     0.707107    -0.707107     0.000000     0.000000     0.000000     0.000000
   46    -1.000000   180.000000     0.707107    -0.707107     0.000000     0.000000     0.000000     0.000000
   47     1.000000   180.000000     0.707107     0.000000    -0.707107     0.000000     0.000000     0.000000
   48    -1.000000   180.000000     0.707107     0.000000    -0.707107     0.000000     0.000000     0.000000
 
 Subroutine IBZKPT returns following result:
 ===========================================
 
 Found     44 irreducible k-points:
 
 Following reciprocal coordinates:
            Coordinates               Weight
  0.050000  0.050000  0.050000      8.000000
  0.150000  0.050000  0.050000     24.000000
  0.250000  0.050000  0.050000     24.000000
  0.350000  0.050000  0.050000     24.000000
  0.450000  0.050000  0.050000     12.000000
 -0.050000  0.050000  0.050000      6.000000
  0.150000  0.150000  0.050000     24.000000
  0.250000  0.150000  0.050000     48.000000
  0.350000  0.150000  0.050000     48.000000
 -0.150000  0.150000  0.050000     24.000000
  0.250000  0.250000  0.050000     24.000000
  0.350000  0.250000  0.050000     24.000000
 -0.250000  0.250000  0.050000     24.000000
 -0.150000  0.250000  0.050000     24.000000
 -0.350000  0.350000  0.050000     24.000000
 -0.250000  0.350000  0.050000     48.000000
 -0.450000  0.450000  0.050000     24.000000
 -0.350000  0.450000  0.050000     48.000000
 -0.250000  0.450000  0.050000     24.000000
 -0.450000 -0.450000  0.050000     24.000000
 -0.350000 -0.450000  0.050000     48.000000
 -0.350000 -0.350000  0.050000      8.000000
  0.150000  0.150000  0.150000      8.000000
  0.250000  0.150000  0.150000     24.000000
  0.350000  0.150000  0.150000     12.000000
 -0.150000  0.150000  0.150000      6.000000
  0.250000  0.250000  0.150000     24.000000
 -0.250000  0.250000  0.150000     24.000000
 -0.350000  0.350000  0.150000     24.000000
 -0.250000  0.350000  0.150000     24.000000
 -0.450000  0.450000  0.150000     24.000000
 -0.350000  0.450000  0.150000     48.000000
 -0.450000 -0.450000  0.150000     24.000000
 -0.350000 -0.450000  0.150000     24.000000
  0.250000  0.250000  0.250000      2.000000
 -0.250000  0.250000  0.250000      6.000000
 -0.350000  0.350000  0.250000     24.000000
 -0.450000  0.450000  0.250000     24.000000
 -0.350000  0.450000  0.250000     24.000000
 -0.450000 -0.450000  0.250000     24.000000
 -0.350000  0.350000  0.350000      6.000000
 -0.450000  0.450000  0.350000     24.000000
 -0.450000 -0.450000  0.350000      8.000000
 -0.450000  0.450000  0.450000      6.000000
 
 Following cartesian coordinates:
            Coordinates               Weight
  0.100000  0.100000  0.100000      8.000000
  0.100000  0.200000  0.200000     24.000000
  0.100000  0.300000  0.300000     24.000000
  0.100000  0.400000  0.400000     24.000000
  0.100000  0.500000  0.500000     12.000000
  0.100000  0.000000  0.000000      6.000000
  0.200000  0.200000  0.300000     24.000000
  0.200000  0.300000  0.400000     48.000000
  0.200000  0.400000  0.500000     48.000000
  0.200000 -0.100000  0.000000     24.000000
  0.300000  0.300000  0.500000     24.000000
  0.300000  0.400000  0.600000     24.000000
  0.300000 -0.200000  0.000000     24.000000
  0.300000 -0.100000  0.100000     24.000000
  0.400000 -0.300000  0.000000     24.000000
  0.400000 -0.200000  0.100000     48.000000
  0.500000 -0.400000  0.000000     24.000000
  0.500000 -0.300000  0.100000     48.000000
  0.500000 -0.200000  0.200000     24.000000
 -0.400000 -0.400000 -0.900000     24.000000
 -0.400000 -0.300000 -0.800000     48.000000
 -0.300000 -0.300000 -0.700000      8.000000
  0.300000  0.300000  0.300000      8.000000
  0.300000  0.400000  0.400000     24.000000
  0.300000  0.500000  0.500000     12.000000
  0.300000  0.000000  0.000000      6.000000
  0.400000  0.400000  0.500000     24.000000
  0.400000 -0.100000  0.000000     24.000000
  0.500000 -0.200000  0.000000     24.000000
  0.500000 -0.100000  0.100000     24.000000
  0.600000 -0.300000  0.000000     24.000000
  0.600000 -0.200000  0.100000     48.000000
 -0.300000 -0.300000 -0.900000     24.000000
 -0.300000 -0.200000 -0.800000     24.000000
  0.500000  0.500000  0.500000      2.000000
  0.500000  0.000000  0.000000      6.000000
  0.600000 -0.100000  0.000000     24.000000
  0.700000 -0.200000  0.000000     24.000000
  0.700000 -0.100000  0.100000     24.000000
 -0.200000 -0.200000 -0.900000     24.000000
  0.700000  0.000000  0.000000      6.000000
  0.800000 -0.100000  0.000000     24.000000
 -0.100000 -0.100000 -0.900000      8.000000
  0.900000  0.000000  0.000000      6.000000
 


--------------------------------------------------------------------------------------------------------




 Dimension of arrays:
   k-points           NKPTS =     44   k-points in BZ     NKDIM =     44   number of bands    NBANDS=      8
   number of dos      NEDOS =    301   number of ions     NIONS =      1
   non local maximal  LDIM  =      6   non local SUM 2l+1 LMDIM =     18
   total plane-waves  NPLWV =   1000
   max r-space proj   IRMAX =      1   max aug-charges    IRDMAX=   3683
   dimension x,y,z NGX =    10 NGY =   10 NGZ =   10
   dimension x,y,z NGXF=    20 NGYF=   20 NGZF=   20
   support grid    NGXF=    20 NGYF=   20 NGZF=   20
   ions per type =               1
   NGX,Y,Z   is equivalent  to a cutoff of   6.00,  6.00,  6.00 a.u.
   NGXF,Y,Z  is equivalent  to a cutoff of  12.00, 12.00, 12.00 a.u.

 SYSTEM =  BCC W                                   
 POSCAR =  BCC W Bulk                              

 Startparameter for this run:
   NWRITE =      2    write-flag & timer
   PREC   = normal    normal or accurate (medium, high low for compatibility)
   ISTART =      0    job   : 0-new  1-cont  2-samecut
   ICHARG =      2    charge: 1-file 2-atom 10-const
   ISPIN  =      1    spin polarized calculation?
   LNONCOLLINEAR =      F non collinear calculations
   LSORBIT =      F    spin-orbit coupling
   INIWAV =      1    electr: 0-lowe 1-rand  2-diag
   LASPH  =      F    aspherical Exc in radial PAW
   METAGGA=      F    non-selfconsistent MetaGGA calc.

 Electronic Relaxation 1
   ENCUT  =  224.0 eV  16.46 Ry    4.06 a.u.   3.38  3.38  3.38*2*pi/ulx,y,z
   ENINI  =  224.0     initial cutoff
   ENAUG  =  373.4 eV  augmentation charge cutoff
   NELM   =     60;   NELMIN=  2; NELMDL= -5     # of ELM steps 
   EDIFF  = 0.1E-03   stopping-criterion for ELM
   LREAL  =      F    real-space projection
   NLSPLINE    = F    spline interpolate recip. space projectors
   LCOMPAT=      F    compatible to vasp.4.4
   GGA_COMPAT  = T    GGA compatible to vasp.4.4-vasp.4.6
   LMAXPAW     = -100 max onsite density
   LMAXMIX     =    2 max onsite mixed and CHGCAR
   VOSKOWN=      0    Vosko Wilk Nusair interpolation
   ROPT   =    0.00000
 Ionic relaxation
   EDIFFG = 0.1E-02   stopping-criterion for IOM
   NSW    =      0    number of steps for IOM
   NBLOCK =      1;   KBLOCK =      1    inner block; outer block 
   IBRION =     -1    ionic relax: 0-MD 1-quasi-New 2-CG
   NFREE  =      0    steps in history (QN), initial steepest desc. (CG)
   ISIF   =      2    stress and relaxation
   IWAVPR =     10    prediction:  0-non 1-charg 2-wave 3-comb
   ISYM   =      2    0-nonsym 1-usesym 2-fastsym
   LCORR  =      T    Harris-Foulkes like correction to forces

   POTIM  = 0.5000    time-step for ionic-motion
   TEIN   =    0.0    initial temperature
   TEBEG  =    0.0;   TEEND  =   0.0 temperature during run
   SMASS  =  -3.00    Nose mass-parameter (am)
   estimated Nose-frequenzy (Omega)   =  0.10E-29 period in steps =****** mass=  -0.176E-27a.u.
   SCALEE = 1.0000    scale energy and forces
   NPACO  =    256;   APACO  = 16.0  distance and # of slots for P.C.
   PSTRESS=    0.0 pullay stress

  Mass of Ions in am
   POMASS = 183.85
  Ionic Valenz
   ZVAL   =   6.00
  Atomic Wigner-Seitz radii
   RWIGS  =  -1.00
  virtual crystal weights 
   VCA    =   1.00
   NELECT =       6.0000    total number of electrons
   NUPDOWN=      -1.0000    fix difference up-down

 DOS related values:
   EMIN   =  10.00;   EMAX   =-10.00  energy-range for DOS
   EFERMI =   0.00
   ISMEAR =     1;   SIGMA  =   0.20  broadening in eV -4-tet -1-fermi 0-gaus

 Electronic relaxation 2 (details)
   IALGO  =     38    algorithm
   LDIAG  =      T    sub-space diagonalisation (order eigenvalues)
   LSUBROT=      F    optimize rotation matrix (better conditioning)
   TURBO    =      0    0=normal 1=particle mesh
   IRESTART =      0    0=no restart 2=restart with 2 vectors
   NREBOOT  =      0    no. of reboots
   NMIN     =      0    reboot dimension
   EREF     =   0.00    reference energy to select bands
   IMIX   =      4    mixing-type and parameters
     AMIX     =   0.40;   BMIX     =  1.00
     AMIX_MAG =   1.60;   BMIX_MAG =  1.00
     AMIN     =   0.10
     WC   =   100.;   INIMIX=   1;  MIXPRE=   1;  MAXMIX= -45

 Intra band minimization:
   WEIMIN = 0.0000     energy-eigenvalue tresh-hold
   EBREAK =  0.31E-05  absolut break condition
   DEPER  =   0.30     relativ break condition  

   TIME   =   0.40     timestep for ELM

  volume/ion in A,a.u.               =      16.38       110.56
  Fermi-wavevector in a.u.,A,eV,Ry     =   1.171256  2.213353 18.665034  1.371841
  Thomas-Fermi vector in A             =   2.307703
 
 Write flags
   LWAVE        =      T    write WAVECAR
   LDOWNSAMPLE  =      F    k-point downsampling of WAVECAR
   LCHARG       =      T    write CHGCAR
   LVTOT        =      F    write LOCPOT, total local potential
   LVHAR        =      F    write LOCPOT, Hartree potential only
   LELF         =      F    write electronic localiz. function (ELF)
   LORBIT       =      0    0 simple, 1 ext, 2 COOP (PROOUT), +10 PAW based schemes


 Dipole corrections
   LMONO  =      F    monopole corrections only (constant potential shift)
   LDIPOL =      F    correct potential (dipole corrections)
   IDIPOL =      0    1-x, 2-y, 3-z, 4-all directions 
   EPSILON=  1.0000000 bulk dielectric constant

 Exchange correlation treatment:
   GGA     =    --    GGA type
   LEXCH   =     2    internal setting for exchange type
   VOSKOWN=      0    Vosko Wilk Nusair interpolation
   LHFCALC =     F    Hartree Fock is set to
   LHFONE  =     F    Hartree Fock one center treatment
   AEXX    =    0.0000 exact exchange contribution

 Linear response parameters
   LEPSILON=     F    determine dielectric tensor
   LRPA    =     F    only Hartree local field effects (RPA)
   LNABLA  =     F    use nabla operator in PAW spheres
   LVEL    =     F    velocity operator in full k-point grid
   LINTERFAST=   F  fast interpolation
   KINTER  =     0    interpolate to denser k-point grid
   CSHIFT  =0.1000    complex shift for real part using Kramers Kronig
   OMEGAMAX=  -1.0    maximum frequency
   DEG_THRESHOLD= 0.2000000E-02 threshold for treating states as degnerate
   RTIME   =   -0.100 relaxation time in fs
  (WPLASMAI=    0.000 imaginary part of plasma frequency in eV, 0.658/RTIME)
   DFIELD  = 0.0000000 0.0000000 0.0000000 field for delta impulse in time
 
 Orbital magnetization related:
   ORBITALMAG=     F  switch on orbital magnetization
   LCHIMAG   =     F  perturbation theory with respect to B field
   DQ        =  0.001000  dq finite difference perturbation B field
   LLRAUG    =     F  two centre corrections for induced B field



--------------------------------------------------------------------------------------------------------


 Static calculation
 charge density and potential will be updated during run
 non-spin polarized calculation
 Variant of blocked Davidson
 Davidson routine will perform the subspace rotation
 perform sub-space diagonalisation
    after iterative eigenvector-optimisation
 modified Broyden-mixing scheme, WC =      100.0
 initial mixing is a Kerker type mixing with AMIX =  0.4000 and BMIX =      1.0000
 Hartree-type preconditioning will be used
 using additional bands            5
 reciprocal scheme for non local part
 use partial core corrections
 calculate Harris-corrections to forces 
   (improved forces if not selfconsistent)
 use of overlap-Matrix (Vanderbilt PP)
 Methfessel and Paxton  Order N= 1 SIGMA  =   0.20


--------------------------------------------------------------------------------------------------------


  energy-cutoff  :      224.00
  volume of cell :       16.38
      direct lattice vectors                 reciprocal lattice vectors
    -1.600000000  1.600000000  1.600000000     0.000000000  0.312500000  0.312500000
     1.600000000 -1.600000000  1.600000000     0.312500000  0.000000000  0.312500000
     1.600000000  1.600000000 -1.600000000     0.312500000  0.312500000  0.000000000

  length of vectors
     2.771281292  2.771281292  2.771281292     0.441941738  0.441941738  0.441941738


 
 k-points in units of 2pi/SCALE and weight: 10x10x10                                
   0.10000000  0.10000000  0.10000000       0.008
   0.10000000  0.20000000  0.20000000       0.024
   0.10000000  0.30000000  0.30000000       0.024
   0.10000000  0.40000000  0.40000000       0.024
   0.10000000  0.50000000  0.50000000       0.012
   0.10000000  0.00000000  0.00000000       0.006
   0.20000000  0.20000000  0.30000000       0.024
   0.20000000  0.30000000  0.40000000       0.048
   0.20000000  0.40000000  0.50000000       0.048
   0.20000000 -0.10000000  0.00000000       0.024
   0.30000000  0.30000000  0.50000000       0.024
   0.30000000  0.40000000  0.60000000       0.024
   0.30000000 -0.20000000  0.00000000       0.024
   0.30000000 -0.10000000  0.10000000       0.024
   0.40000000 -0.30000000  0.00000000       0.024
   0.40000000 -0.20000000  0.10000000       0.048
   0.50000000 -0.40000000  0.00000000       0.024
   0.50000000 -0.30000000  0.10000000       0.048
   0.50000000 -0.20000000  0.20000000       0.024
  -0.40000000 -0.40000000 -0.90000000       0.024
  -0.40000000 -0.30000000 -0.80000000       0.048
  -0.30000000 -0.30000000 -0.70000000       0.008
   0.30000000  0.30000000  0.30000000       0.008
   0.30000000  0.40000000  0.40000000       0.024
   0.30000000  0.50000000  0.50000000       0.012
   0.30000000  0.00000000  0.00000000       0.006
   0.40000000  0.40000000  0.50000000       0.024
   0.40000000 -0.10000000  0.00000000       0.024
   0.50000000 -0.20000000  0.00000000       0.024
   0.50000000 -0.10000000  0.10000000       0.024
   0.60000000 -0.30000000  0.00000000       0.024
   0.60000000 -0.20000000  0.10000000       0.048
  -0.30000000 -0.30000000 -0.90000000       0.024
  -0.30000000 -0.20000000 -0.80000000       0.024
   0.50000000  0.50000000  0.50000000       0.002
   0.50000000  0.00000000  0.00000000       0.006
   0.60000000 -0.10000000  0.00000000       0.024
   0.70000000 -0.20000000  0.00000000       0.024
   0.70000000 -0.10000000  0.10000000       0.024
  -0.20000000 -0.20000000 -0.90000000       0.024
   0.70000000  0.00000000  0.00000000       0.006
   0.80000000 -0.10000000  0.00000000       0.024
  -0.10000000 -0.10000000 -0.90000000       0.008
   0.90000000  0.00000000  0.00000000       0.006
 
 k-points in reciprocal lattice and weights: 10x10x10                                
   0.05000000  0.05000000  0.05000000       0.008
   0.15000000  0.05000000  0.05000000       0.024
   0.25000000  0.05000000  0.05000000       0.024
   0.35000000  0.05000000  0.05000000       0.024
   0.45000000  0.05000000  0.05000000       0.012
  -0.05000000  0.05000000  0.05000000       0.006
   0.15000000  0.15000000  0.05000000       0.024
   0.25000000  0.15000000  0.05000000       0.048
   0.35000000  0.15000000  0.05000000       0.048
  -0.15000000  0.15000000  0.05000000       0.024
   0.25000000  0.25000000  0.05000000       0.024
   0.35000000  0.25000000  0.05000000       0.024
  -0.25000000  0.25000000  0.05000000       0.024
  -0.15000000  0.25000000  0.05000000       0.024
  -0.35000000  0.35000000  0.05000000       0.024
  -0.25000000  0.35000000  0.05000000       0.048
  -0.45000000  0.45000000  0.05000000       0.024
  -0.35000000  0.45000000  0.05000000       0.048
  -0.25000000  0.45000000  0.05000000       0.024
  -0.45000000 -0.45000000  0.05000000       0.024
  -0.35000000 -0.45000000  0.05000000       0.048
  -0.35000000 -0.35000000  0.05000000       0.008
   0.15000000  0.15000000  0.15000000       0.008
   0.25000000  0.15000000  0.15000000       0.024
   0.35000000  0.15000000  0.15000000       0.012
  -0.15000000  0.15000000  0.15000000       0.006
   0.25000000  0.25000000  0.15000000       0.024
  -0.25000000  0.25000000  0.15000000       0.024
  -0.35000000  0.35000000  0.15000000       0.024
  -0.25000000  0.35000000  0.15000000       0.024
  -0.45000000  0.45000000  0.15000000       0.024
  -0.35000000  0.45000000  0.15000000       0.048
  -0.45000000 -0.45000000  0.15000000       0.024
  -0.35000000 -0.45000000  0.15000000       0.024
   0.25000000  0.25000000  0.25000000       0.002
  -0.25000000  0.25000000  0.25000000       0.006
  -0.35000000  0.35000000  0.25000000       0.024
  -0.45000000  0.45000000  0.25000000       0.024
  -0.35000000  0.45000000  0.25000000       0.024
  -0.45000000 -0.45000000  0.25000000       0.024
  -0.35000000  0.35000000  0.35000000       0.006
  -0.45000000  0.45000000  0.35000000       0.024
  -0.45000000 -0.45000000  0.35000000       0.008
  -0.45000000  0.45000000  0.45000000       0.006
 
 position of ions in fractional coordinates (direct lattice) 
   0.00000000  0.00000000  0.00000000
 
 position of ions in cartesian coordinates  (Angst):
   0.00000000  0.00000000  0.00000000
 


--------------------------------------------------------------------------------------------------------


 k-point  1 :   0.0500 0.0500 0.0500  plane waves:     138
 k-point  2 :   0.1500 0.0500 0.0500  plane waves:     125
 k-point  3 :   0.2500 0.0500 0.0500  plane waves:     124
 k-point  4 :   0.3500 0.0500 0.0500  plane waves:     121
 k-point  5 :   0.4500 0.0500 0.0500  plane waves:     122
 k-point  6 :  -0.0500 0.0500 0.0500  plane waves:     136
 k-point  7 :   0.1500 0.1500 0.0500  plane waves:     127
 k-point  8 :   0.2500 0.1500 0.0500  plane waves:     125
 k-point  9 :   0.3500 0.1500 0.0500  plane waves:     126
 k-point 10 :  -0.1500 0.1500 0.0500  plane waves:     130
 k-point 11 :   0.2500 0.2500 0.0500  plane waves:     129
 k-point 12 :   0.3500 0.2500 0.0500  plane waves:     129
 k-point 13 :  -0.2500 0.2500 0.0500  plane waves:     124
 k-point 14 :  -0.1500 0.2500 0.0500  plane waves:     122
 k-point 15 :  -0.3500 0.3500 0.0500  plane waves:     122
 k-point 16 :  -0.2500 0.3500 0.0500  plane waves:     126
 k-point 17 :  -0.4500 0.4500 0.0500  plane waves:     124
 k-point 18 :  -0.3500 0.4500 0.0500  plane waves:     127
 k-point 19 :  -0.2500 0.4500 0.0500  plane waves:     123
 k-point 20 :  -0.4500-0.4500 0.0500  plane waves:     124
 k-point 21 :  -0.3500-0.4500 0.0500  plane waves:     125
 k-point 22 :  -0.3500-0.3500 0.0500  plane waves:     122
 k-point 23 :   0.1500 0.1500 0.1500  plane waves:     125
 k-point 24 :   0.2500 0.1500 0.1500  plane waves:     127
 k-point 25 :   0.3500 0.1500 0.1500  plane waves:     126
 k-point 26 :  -0.1500 0.1500 0.1500  plane waves:     120
 k-point 27 :   0.2500 0.2500 0.1500  plane waves:     131
 k-point 28 :  -0.2500 0.2500 0.1500  plane waves:     123
 k-point 29 :  -0.3500 0.3500 0.1500  plane waves:     124
 k-point 30 :  -0.2500 0.3500 0.1500  plane waves:     122
 k-point 31 :  -0.4500 0.4500 0.1500  plane waves:     127
 k-point 32 :  -0.3500 0.4500 0.1500  plane waves:     123
 k-point 33 :  -0.4500-0.4500 0.1500  plane waves:     123
 k-point 34 :  -0.3500-0.4500 0.1500  plane waves:     123
 k-point 35 :   0.2500 0.2500 0.2500  plane waves:     140
 k-point 36 :  -0.2500 0.2500 0.2500  plane waves:     116
 k-point 37 :  -0.3500 0.3500 0.2500  plane waves:     124
 k-point 38 :  -0.4500 0.4500 0.2500  plane waves:     125
 k-point 39 :  -0.3500 0.4500 0.2500  plane waves:     121
 k-point 40 :  -0.4500-0.4500 0.2500  plane waves:     121
 k-point 41 :  -0.3500 0.3500 0.3500  plane waves:     120
 k-point 42 :  -0.4500 0.4500 0.3500  plane waves:     116
 k-point 43 :  -0.4500-0.4500 0.3500  plane waves:     116
 k-point 44 :  -0.4500 0.4500 0.4500  plane waves:     116

 maximum and minimum number of plane-waves per node :       140      116

 maximum number of plane-waves:       140
 maximum index in each direction: 
   IXMAX=    3   IYMAX=    3   IZMAX=    3
   IXMIN=   -3   IYMIN=   -3   IZMIN=   -3


 serial   3D FFT for wavefunctions
 parallel 3D FFT for charge:
    minimum data exchange during FFTs selected (reduces bandwidth)


 total amount of memory used by VASP MPI-rank0    31463. kBytes
=======================================================================

   base      :      30000. kBytes
   nonl-proj :        889. kBytes
   fftplans  :        142. kBytes
   grid      :        192. kBytes
   one-center:         15. kBytes
   wavefun   :        225. kBytes
 
     INWAV:  cpu time    0.0000: real time    0.0000
 Broyden mixing: mesh for mixing (old mesh)
   NGX =  7   NGY =  7   NGZ =  7
  (NGX  = 20   NGY  = 20   NGZ  = 20)
  gives a total of    343 points

 initial charge density was supplied:
 charge density of overlapping atoms calculated
 number of electron       6.0000000 magnetization 
 keeping initial charge density in first step


--------------------------------------------------------------------------------------------------------


 Maximum index for augmentation-charges          849 (set IRDMAX)


--------------------------------------------------------------------------------------------------------


 First call to EWALD:  gamma=   0.698
 Maximum number of real-space cells 3x 3x 3
 Maximum number of reciprocal cells 3x 3x 3

    FEWALD:  cpu time    0.0011: real time    0.0012


--------------------------------------- Iteration      1(   1)  ---------------------------------------


    POTLOK:  cpu time    0.0011: real time    0.0018
    SETDIJ:  cpu time    0.0012: real time    0.0012
     EDDAV:  cpu time    0.0419: real time    0.0419
       DOS:  cpu time    0.0007: real time    0.0006
    --------------------------------------------
      LOOP:  cpu time    0.0449: real time    0.0456

 eigenvalue-minimisations  :   960
 total energy-change (2. order) :-0.1059909E+02  (-0.1891843E+03)
 number of electron       6.0000000 magnetization 
 augmentation part        6.0000000 magnetization 

 Free energy of the ion-electron system (eV)
  ---------------------------------------------------
  alpha Z        PSCENC =        42.60445679
  Ewald energy   TEWEN  =      -294.77355253
  -Hartree energ DENC   =        -6.26222999
  -exchange      EXHF   =         0.00000000
  -V(xc)+E(xc)   XCENC  =       -47.39741485
  PAW double counting   =       183.53490256     -125.80866524
  entropy T*S    EENTRO =        -0.00156443
  eigenvalues    EBANDS =        30.99711532
  atomic energy  EATOM  =       206.50785835
  Solvation  Ediel_sol  =         0.00000000
  ---------------------------------------------------
  free energy    TOTEN  =       -10.59909402 eV

  energy without entropy =      -10.59752959  energy(sigma->0) =      -10.59857255


--------------------------------------------------------------------------------------------------------




--------------------------------------- Iteration      1(   2)  ---------------------------------------


     EDDAV:  cpu time    0.0449: real time    0.0453
       DOS:  cpu time    0.0005: real time    0.0004
    --------------------------------------------
      LOOP:  cpu time    0.0454: real time    0.0457

 eigenvalue-minimisations  :   800
 total energy-change (2. order) :-0.4276214E+01  (-0.4192991E+01)
 number of electron       6.0000000 magnetization 
 augmentation part        6.0000000 magnetization 

 Free energy of the ion-electron system (eV)
  ---------------------------------------------------
  alpha Z        PSCENC =        42.60445679
  Ewald energy   TEWEN  =      -294.77355253
  -Hartree energ DENC   =        -6.26222999
  -exchange      EXHF   =         0.00000000
  -V(xc)+E(xc)   XCENC  =       -47.39741485
  PAW double counting   =       183.53490256     -125.80866524
  entropy T*S    EENTRO =         0.00058670
  eigenvalues    EBANDS =        26.71875054
  atomic energy  EATOM  =       206.50785835
  Solvation  Ediel_sol  =         0.00000000
  ---------------------------------------------------
  free energy    TOTEN  =       -14.87530767 eV

  energy without entropy =      -14.87589437  energy(sigma->0) =      -14.87550324


--------------------------------------------------------------------------------------------------------




--------------------------------------- Iteration      1(   3)  ---------------------------------------


     EDDAV:  cpu time    0.0451: real time    0.0455
       DOS:  cpu time    0.0004: real time    0.0005
    --------------------------------------------
      LOOP:  cpu time    0.0464: real time    0.0459

 eigenvalue-minimisations  :   952
 total energy-change (2. order) :-0.2350787E-01  (-0.2350617E-01)
 number of electron       6.0000000 magnetization 
 augmentation part        6.0000000 magnetization 

 Free energy of the ion-electron system (eV)
  ---------------------------------------------------
  alpha Z        PSCENC =        42.60445679
  Ewald energy   TEWEN  =      -294.77355253
  -Hartree energ DENC   =        -6.26222999
  -exchange      EXHF   =         0.00000000
  -V(xc)+E(xc)   XCENC  =       -47.39741485
  PAW double counting   =       183.53490256     -125.80866524
  entropy T*S    EENTRO =         0.00063819
  eigenvalues    EBANDS =        26.69519118
  atomic energy  EATOM  =       206.50785835
  Solvation  Ediel_sol  =         0.00000000
  ---------------------------------------------------
  free energy    TOTEN  =       -14.89881554 eV

  energy without entropy =      -14.89945374  energy(sigma->0) =      -14.89902827


--------------------------------------------------------------------------------------------------------




--------------------------------------- Iteration      1(   4)  ---------------------------------------


     EDDAV:  cpu time    0.0366: real time    0.0367
       DOS:  cpu time    0.0006: real time    0.0005
    --------------------------------------------
      LOOP:  cpu time    0.0363: real time    0.0372

 eigenvalue-minimisations  :   856
 total energy-change (2. order) :-0.8345034E-05  (-0.8345819E-05)
 number of electron       6.0000000 magnetization 
 augmentation part        6.0000000 magnetization 

 Free energy of the ion-electron system (eV)
  ---------------------------------------------------
  alpha Z        PSCENC =        42.60445679
  Ewald energy   TEWEN  =      -294.77355253
  -Hartree energ DENC   =        -6.26222999
  -exchange      EXHF   =         0.00000000
  -V(xc)+E(xc)   XCENC  =       -47.39741485
  PAW double counting   =       183.53490256     -125.80866524
  entropy T*S    EENTRO =         0.00063821
  eigenvalues    EBANDS =        26.69518282
  atomic energy  EATOM  =       206.50785835
  Solvation  Ediel_sol  =         0.00000000
  ---------------------------------------------------
  free energy    TOTEN  =       -14.89882389 eV

  energy without entropy =      -14.89946209  energy(sigma->0) =      -14.89903662


--------------------------------------------------------------------------------------------------------




--------------------------------------- Iteration      1(   5)  ---------------------------------------


     EDDAV:  cpu time    0.0351: real time    0.0353
       DOS:  cpu time    0.0006: real time    0.0006
    CHARGE:  cpu time    0.0018: real time    0.0019
    MIXING:  cpu time    0.0003: real time    0.0002
    --------------------------------------------
      LOOP:  cpu time    0.0378: real time    0.0379

 eigenvalue-minimisations  :   896
 total energy-change (2. order) :-0.1513132E-07  (-0.1482419E-07)
 number of electron       6.0000009 magnetization 
 augmentation part        0.5935874 magnetization 

 Broyden mixing:
  rms(total) = 0.42634E+00    rms(broyden)= 0.42616E+00
  rms(prec ) = 0.18098E+01
  weight for this iteration     100.00

 Free energy of the ion-electron system (eV)
  ---------------------------------------------------
  alpha Z        PSCENC =        42.60445679
  Ewald energy   TEWEN  =      -294.77355253
  -Hartree energ DENC   =        -6.26222999
  -exchange      EXHF   =         0.00000000
  -V(xc)+E(xc)   XCENC  =       -47.39741485
  PAW double counting   =       183.53490256     -125.80866524
  entropy T*S    EENTRO =         0.00063821
  eigenvalues    EBANDS =        26.69518281
  atomic energy  EATOM  =       206.50785835
  Solvation  Ediel_sol  =         0.00000000
  ---------------------------------------------------
  free energy    TOTEN  =       -14.89882390 eV

  energy without entropy =      -14.89946211  energy(sigma->0) =      -14.89903664


--------------------------------------------------------------------------------------------------------




--------------------------------------- Iteration      1(   6)  ---------------------------------------


    POTLOK:  cpu time    0.0011: real time    0.0011
    SETDIJ:  cpu time    0.0010: real time    0.0010
     EDDAV:  cpu time    0.0264: real time    0.0266
       DOS:  cpu time    0.0005: real time    0.0004
    CHARGE:  cpu time    0.0011: real time    0.0012
    MIXING:  cpu time    0.0002: real time    0.0002
    --------------------------------------------
      LOOP:  cpu time    0.0303: real time    0.0304

 eigenvalue-minimisations  :   776
 total energy-change (2. order) : 0.5694658E+00  (-0.5310160E-01)
 number of electron       6.0000009 magnetization 
 augmentation part        0.6335931 magnetization 

 Broyden mixing:
  rms(total) = 0.21447E+00    rms(broyden)= 0.21444E+00
  rms(prec ) = 0.89192E+00
  weight for this iteration     100.00

 eigenvalues of (default mixing * dielectric matrix)
  average eigenvalue GAMMA=   1.9938
  1.9938

 Free energy of the ion-electron system (eV)
  ---------------------------------------------------
  alpha Z        PSCENC =        42.60445679
  Ewald energy   TEWEN  =      -294.77355253
  -Hartree energ DENC   =        -4.08767573
  -exchange      EXHF   =         0.00000000
  -V(xc)+E(xc)   XCENC  =       -47.20854960
  PAW double counting   =       198.23827550     -141.23176245
  entropy T*S    EENTRO =         0.00019492
  eigenvalues    EBANDS =        25.62139665
  atomic energy  EATOM  =       206.50785835
  Solvation  Ediel_sol  =         0.00000000
  ---------------------------------------------------
  free energy    TOTEN  =       -14.32935811 eV

  energy without entropy =      -14.32955303  energy(sigma->0) =      -14.32942308


--------------------------------------------------------------------------------------------------------




--------------------------------------- Iteration      1(   7)  ---------------------------------------


    POTLOK:  cpu time    0.0009: real time    0.0010
    SETDIJ:  cpu time    0.0010: real time    0.0010
     EDDAV:  cpu time    0.0279: real time    0.0279
       DOS:  cpu time    0.0003: real time    0.0004
    CHARGE:  cpu time    0.0014: real time    0.0014
    MIXING:  cpu time    0.0001: real time    0.0002
    --------------------------------------------
      LOOP:  cpu time    0.0316: real time    0.0318

 eigenvalue-minimisations  :   816
 total energy-change (2. order) : 0.1912936E+00  (-0.5231190E-01)
 number of electron       6.0000010 magnetization 
 augmentation part        0.6767616 magnetization 

 Broyden mixing:
  rms(total) = 0.26912E-01    rms(broyden)= 0.26715E-01
  rms(prec ) = 0.73002E-01
  weight for this iteration     100.00

 eigenvalues of (default mixing * dielectric matrix)
  average eigenvalue GAMMA=   2.6664
  2.1054  3.2273

 Free energy of the ion-electron system (eV)
  ---------------------------------------------------
  alpha Z        PSCENC =        42.60445679
  Ewald energy   TEWEN  =      -294.77355253
  -Hartree energ DENC   =        -2.46952776
  -exchange      EXHF   =         0.00000000
  -V(xc)+E(xc)   XCENC  =       -46.95790613
  PAW double counting   =       221.32314016     -164.98583302
  entropy T*S    EENTRO =         0.00016878
  eigenvalues    EBANDS =        24.61313081
  atomic energy  EATOM  =       206.50785835
  Solvation  Ediel_sol  =         0.00000000
  ---------------------------------------------------
  free energy    TOTEN  =       -14.13806456 eV

  energy without entropy =      -14.13823334  energy(sigma->0) =      -14.13812082


--------------------------------------------------------------------------------------------------------




--------------------------------------- Iteration      1(   8)  ---------------------------------------


    POTLOK:  cpu time    0.0010: real time    0.0010
    SETDIJ:  cpu time    0.0010: real time    0.0010
     EDDAV:  cpu time    0.0260: real time    0.0261
       DOS:  cpu time    0.0003: real time    0.0004
    CHARGE:  cpu time    0.0011: real time    0.0011
    MIXING:  cpu time    0.0002: real time    0.0002
    --------------------------------------------
      LOOP:  cpu time    0.0296: real time    0.0297

 eigenvalue-minimisations  :   776
 total energy-change (2. order) : 0.1772143E-02  (-0.1067456E-02)
 number of electron       6.0000010 magnetization 
 augmentation part        0.6732587 magnetization 

 Broyden mixing:
  rms(total) = 0.13528E-01    rms(broyden)= 0.13526E-01
  rms(prec ) = 0.58688E-01
  weight for this iteration     100.00

 eigenvalues of (default mixing * dielectric matrix)
  average eigenvalue GAMMA=   1.7793
  1.2166  2.4001  1.7213

 Free energy of the ion-electron system (eV)
  ---------------------------------------------------
  alpha Z        PSCENC =        42.60445679
  Ewald energy   TEWEN  =      -294.77355253
  -Hartree energ DENC   =        -2.63469149
  -exchange      EXHF   =         0.00000000
  -V(xc)+E(xc)   XCENC  =       -46.96895950
  PAW double counting   =       234.62287759     -178.38188884
  entropy T*S    EENTRO =        -0.00016441
  eigenvalues    EBANDS =        24.88777162
  atomic energy  EATOM  =       206.50785835
  Solvation  Ediel_sol  =         0.00000000
  ---------------------------------------------------
  free energy    TOTEN  =       -14.13629242 eV

  energy without entropy =      -14.13612801  energy(sigma->0) =      -14.13623761


--------------------------------------------------------------------------------------------------------




--------------------------------------- Iteration      1(   9)  ---------------------------------------


    POTLOK:  cpu time    0.0010: real time    0.0010
    SETDIJ:  cpu time    0.0010: real time    0.0010
     EDDAV:  cpu time    0.0261: real time    0.0262
       DOS:  cpu time    0.0003: real time    0.0004
    CHARGE:  cpu time    0.0011: real time    0.0011
    MIXING:  cpu time    0.0001: real time    0.0002
    --------------------------------------------
      LOOP:  cpu time    0.0297: real time    0.0298

 eigenvalue-minimisations  :   776
 total energy-change (2. order) : 0.8165025E-03  (-0.2706604E-03)
 number of electron       6.0000010 magnetization 
 augmentation part        0.6760228 magnetization 

 Broyden mixing:
  rms(total) = 0.87546E-03    rms(broyden)= 0.83627E-03
  rms(prec ) = 0.29667E-02
  weight for this iteration     100.00

 eigenvalues of (default mixing * dielectric matrix)
  average eigenvalue GAMMA=   1.9055
  0.9944  2.4450  2.3101  1.8724

 Free energy of the ion-electron system (eV)
  ---------------------------------------------------
  alpha Z        PSCENC =        42.60445679
  Ewald energy   TEWEN  =      -294.77355253
  -Hartree energ DENC   =        -2.53510623
  -exchange      EXHF   =         0.00000000
  -V(xc)+E(xc)   XCENC  =       -46.95376065
  PAW double counting   =       233.12696300     -176.89161565
  entropy T*S    EENTRO =         0.00014910
  eigenvalues    EBANDS =        24.77913190
  atomic energy  EATOM  =       206.50785835
  Solvation  Ediel_sol  =         0.00000000
  ---------------------------------------------------
  free energy    TOTEN  =       -14.13547591 eV

  energy without entropy =      -14.13562502  energy(sigma->0) =      -14.13552561


--------------------------------------------------------------------------------------------------------




--------------------------------------- Iteration      1(  10)  ---------------------------------------


    POTLOK:  cpu time    0.0010: real time    0.0011
    SETDIJ:  cpu time    0.0010: real time    0.0010
     EDDAV:  cpu time    0.0134: real time    0.0135
       DOS:  cpu time    0.0004: real time    0.0004
    --------------------------------------------
      LOOP:  cpu time    0.0158: real time    0.0160

 eigenvalue-minimisations  :   368
 total energy-change (2. order) :-0.3174483E-05  (-0.1469469E-05)
 number of electron       6.0000010 magnetization 
 augmentation part        0.6760228 magnetization 

 Free energy of the ion-electron system (eV)
  ---------------------------------------------------
  alpha Z        PSCENC =        42.60445679
  Ewald energy   TEWEN  =      -294.77355253
  -Hartree energ DENC   =        -2.53975332
  -exchange      EXHF   =         0.00000000
  -V(xc)+E(xc)   XCENC  =       -46.95438370
  PAW double counting   =       233.41119285     -177.17232654
  entropy T*S    EENTRO =         0.00014256
  eigenvalues    EBANDS =        24.78088645
  atomic energy  EATOM  =       206.50785835
  Solvation  Ediel_sol  =         0.00000000
  ---------------------------------------------------
  free energy    TOTEN  =       -14.13547909 eV

  energy without entropy =      -14.13562165  energy(sigma->0) =      -14.13552661


--------------------------------------------------------------------------------------------------------




 average (electrostatic) potential at core
  the test charge radii are     1.1823
  (the norm of the test charge is              1.0000)
       1 -38.6773
 
 
 
 E-fermi :   7.2821     XC(G=0): -13.0771     alpha+bet :-14.2381


 k-point     1 :       0.0500    0.0500    0.0500
  band No.  band energies     occupation 
      1      -1.2542      2.00000
      2       5.9010      2.00000
      3       5.9010      2.00000
      4       7.0186      2.06860
      5       9.3063     -0.00000
      6       9.3063     -0.00000
      7      23.0432      0.00000
      8      23.8488      0.00000

 k-point     2 :       0.1500    0.0500    0.0500
  band No.  band energies     occupation 
      1      -0.0890      2.00000
      2       5.2518      2.00000
      3       5.5077      2.00000
      4       8.4348     -0.00000
      5       8.9856     -0.00000
      6       9.5650     -0.00000
      7      23.4401      0.00000
      8      24.6369      0.00000

 k-point     3 :       0.2500    0.0500    0.0500
  band No.  band energies     occupation 
      1       1.2005      2.00000
      2       4.6034      2.00000
      3       5.4287      2.00000
      4       9.1769     -0.00000
      5       9.8711     -0.00000
      6      10.4841     -0.00000
      7      21.8980      0.00000
      8      22.2099      0.00000

 k-point     4 :       0.3500    0.0500    0.0500
  band No.  band energies     occupation 
      1       1.6516      2.00000
      2       4.1544      2.00000
      3       6.6361      2.00005
      4       9.5123     -0.00000
      5      10.1900     -0.00000
      6      12.6616     -0.00000
      7      19.0382      0.00000
      8      20.2181      0.00000

 k-point     5 :       0.4500    0.0500    0.0500
  band No.  band energies     occupation 
      1       1.6417      2.00000
      2       3.9946      2.00000
      3       7.7572     -0.00396
      4       9.5005     -0.00000
      5      10.3416     -0.00000
      6      13.7714      0.00000
      7      17.5579      0.00000
      8      19.5550      0.00000

 k-point     6 :      -0.0500    0.0500    0.0500
  band No.  band energies     occupation 
      1      -1.6894      2.00000
      2       6.2018      2.00000
      3       6.2021      2.00000
      4       6.3303      2.00000
      5       9.1835     -0.00000
      6       9.6391     -0.00000
      7      22.9580      0.00000
      8      23.0019      0.00000

 k-point     7 :       0.1500    0.1500    0.0500
  band No.  band energies     occupation 
      1       1.2100      2.00000
      2       4.8015      2.00000
      3       4.8403      2.00000
      4       9.0514     -0.00000
      5       9.8951     -0.00000
      6      10.4424     -0.00000
      7      22.6760      0.00000
      8      23.7868      0.00000

 k-point     8 :       0.2500    0.1500    0.0500
  band No.  band energies     occupation 
      1       2.2574      2.00000
      2       4.3134      2.00000
      3       5.1368      2.00000
      4       9.3379     -0.00000
      5      10.2135     -0.00000
      6      12.8147      0.00000
      7      19.6790      0.00000
      8      21.8643      0.00000

 k-point     9 :       0.3500    0.1500    0.0500
  band No.  band energies     occupation 
      1       2.3738      2.00000
      2       4.0836      2.00000
      3       6.3930      2.00000
      4       9.5994     -0.00000
      5      10.4182     -0.00000
      6      14.7794      0.00000
      7      16.9679      0.00000
      8      20.4974      0.00000

 k-point    10 :      -0.1500    0.1500    0.0500
  band No.  band energies     occupation 
      1      -0.8357      2.00000
      2       5.7677      2.00000
      3       6.0466      2.00000
      4       7.1771      1.76702
      5       8.5349     -0.00000
      6       9.8198     -0.00000
      7      23.4786      0.00000
      8      24.4918      0.00000

 k-point    11 :       0.2500    0.2500    0.0500
  band No.  band energies     occupation 
      1       3.0176      2.00000
      2       4.3438      2.00000
      3       5.2250      2.00000
      4       9.6418     -0.00000
      5      10.3288     -0.00000
      6      15.2930      0.00000
      7      16.8873      0.00000
      8      20.9492      0.00000

 k-point    12 :       0.3500    0.2500    0.0500
  band No.  band energies     occupation 
      1       3.1230      2.00000
      2       4.4403      2.00000
      3       5.5324      2.00000
      4       9.8868     -0.00000
      5      10.3741     -0.00000
      6      15.3236      0.00000
      7      17.0078      0.00000
      8      19.6295      0.00000

 k-point    13 :      -0.2500    0.2500    0.0500
  band No.  band energies     occupation 
      1       0.5075      2.00000
      2       5.0954      2.00000
      3       5.6449      2.00000
      4       8.5348     -0.00000
      5       8.8448     -0.00000
      6      10.0095     -0.00000
      7      22.5440      0.00000
      8      23.9860      0.00000

 k-point    14 :      -0.1500    0.2500    0.0500
  band No.  band energies     occupation 
      1       0.2847      2.00000
      2       5.5488      2.00000
      3       5.5636      2.00000
      4       7.9804     -0.00001
      5       8.3562     -0.00000
      6      10.1984     -0.00000
      7      23.4987      0.00000
      8      24.4229      0.00000

 k-point    15 :      -0.3500    0.3500    0.0500
  band No.  band energies     occupation 
      1       1.4138      2.00000
      2       4.5072      2.00000
      3       6.0466      2.00000
      4       9.0899     -0.00000
      5      10.2349     -0.00000
      6      11.0077     -0.00000
      7      20.3262      0.00000
      8      21.4856      0.00000

 k-point    16 :      -0.2500    0.3500    0.0500
  band No.  band energies     occupation 
      1       1.5543      2.00000
      2       4.8627      2.00000
      3       5.3663      2.00000
      4       8.2762     -0.00000
      5      10.1795     -0.00000
      6      10.5942     -0.00000
      7      21.1360      0.00000
      8      23.7072      0.00000

 k-point    17 :      -0.4500    0.4500    0.0500
  band No.  band energies     occupation 
      1       1.5209      2.00000
      2       4.1741      2.00000
      3       7.3372      0.55271
      4       9.2493     -0.00000
      5      10.7118     -0.00000
      6      12.9000      0.00000
      7      18.2812      0.00000
      8      19.8918      0.00000

 k-point    18 :      -0.3500    0.4500    0.0500
  band No.  band energies     occupation 
      1       2.0270      2.00000
      2       4.5068      2.00000
      3       5.9253      2.00000
      4       8.8464     -0.00000
      5      10.6294     -0.00000
      6      12.7476      0.00000
      7      18.8654      0.00000
      8      21.5688      0.00000

 k-point    19 :      -0.2500    0.4500    0.0500
  band No.  band energies     occupation 
      1       2.5823      2.00000
      2       4.3422      2.00000
      3       5.4353      2.00000
      4       8.5792     -0.00000
      5      10.3019     -0.00000
      6      12.9274      0.00000
      7      19.1841      0.00000
      8      22.8455      0.00000

 k-point    20 :      -0.4500   -0.4500    0.0500
  band No.  band energies     occupation 
      1       2.0102      2.00000
      2       4.3885      2.00000
      3       6.5275      2.00000
      4       8.7979     -0.00000
      5      11.2695     -0.00000
      6      14.0248      0.00000
      7      17.3830      0.00000
      8      20.7780      0.00000

 k-point    21 :      -0.3500   -0.4500    0.0500
  band No.  band energies     occupation 
      1       2.9034      2.00000
      2       4.3905      2.00000
      3       5.4398      2.00000
      4       9.0690     -0.00000
      5      10.5990     -0.00000
      6      15.3954      0.00000
      7      16.8861      0.00000
      8      20.8688      0.00000

 k-point    22 :      -0.3500   -0.3500    0.0500
  band No.  band energies     occupation 
      1       3.4744      2.00000
      2       4.6250      2.00000
      3       4.6251      2.00000
      4      10.0285     -0.00000
      5      10.0287     -0.00000
      6      15.6035      0.00000
      7      18.3842      0.00000
      8      18.3846      0.00000

 k-point    23 :       0.1500    0.1500    0.1500
  band No.  band energies     occupation 
      1       2.6303      2.00000
      2       4.3221      2.00000
      3       4.3221      2.00000
      4       9.8477     -0.00000
      5       9.8477     -0.00000
      6      12.9339      0.00000
      7      20.6541      0.00000
      8      22.4334      0.00000

 k-point    24 :       0.2500    0.1500    0.1500
  band No.  band energies     occupation 
      1       3.3178      2.00000
      2       4.0793      2.00000
      3       5.0157      2.00000
      4      10.0036     -0.00000
      5      10.2863     -0.00000
      6      15.2769      0.00000
      7      17.0442      0.00000
      8      21.1249      0.00000

 k-point    25 :       0.3500    0.1500    0.1500
  band No.  band energies     occupation 
      1       3.2398      2.00000
      2       4.0091      2.00000
      3       5.9641      2.00000
      4      10.0742     -0.00000
      5      10.4235     -0.00000
      6      15.3167      0.00000
      7      16.5036      0.00000
      8      20.6252      0.00000

 k-point    26 :      -0.1500    0.1500    0.1500
  band No.  band energies     occupation 
      1      -0.0218      2.00000
      2       6.2396      2.00000
      3       6.2398      2.00000
      4       7.1499      1.89092
      5       7.1758      1.77362
      6      10.3835     -0.00000
      7      24.7137      0.00000
      8      25.0097      0.00000

 k-point    27 :       0.2500    0.2500    0.1500
  band No.  band energies     occupation 
      1       3.7667      2.00000
      2       4.4875      2.00000
      3       5.0593      2.00000
      4      10.2923     -0.00000
      5      10.4096     -0.00000
      6      14.6779      0.00000
      7      17.5741      0.00000
      8      19.7989      0.00000

 k-point    28 :      -0.2500    0.2500    0.1500
  band No.  band energies     occupation 
      1       1.2645      2.00000
      2       5.5143      2.00000
      3       5.8886      2.00000
      4       7.1800      1.75127
      5       8.5949     -0.00000
      6      10.6119     -0.00000
      7      22.1823      0.00000
      8      25.5346      0.00000

 k-point    29 :      -0.3500    0.3500    0.1500
  band No.  band energies     occupation 
      1       2.1790      2.00000
      2       5.0331      2.00000
      3       5.3805      2.00000
      4       8.0453     -0.00000
      5      10.7572     -0.00000
      6      10.9118     -0.00000
      7      20.3524      0.00000
      8      23.6743      0.00000

 k-point    30 :      -0.2500    0.3500    0.1500
  band No.  band energies     occupation 
      1       2.3992      2.00000
      2       4.5655      2.00000
      3       6.1086      2.00000
      4       7.4708     -0.03653
      5       9.8798     -0.00000
      6      10.9839     -0.00000
      7      21.0525      0.00000
      8      25.0970      0.00000

 k-point    31 :      -0.4500    0.4500    0.1500
  band No.  band energies     occupation 
      1       2.2378      2.00000
      2       5.0793      2.00000
      3       5.5333      2.00000
      4       8.0253     -0.00000
      5      12.3906     -0.00000
      6      12.7010     -0.00000
      7      18.1764      0.00000
      8      22.3228      0.00000

 k-point    32 :      -0.3500    0.4500    0.1500
  band No.  band energies     occupation 
      1       2.9202      2.00000
      2       4.2697      2.00000
      3       5.7319      2.00000
      4       8.1488     -0.00000
      5      10.7872     -0.00000
      6      13.1319      0.00000
      7      19.1241      0.00000
      8      22.7378      0.00000

 k-point    33 :      -0.4500   -0.4500    0.1500
  band No.  band energies     occupation 
      1       2.8353      2.00000
      2       4.7338      2.00000
      3       5.2510      2.00000
      4       8.1729     -0.00000
      5      11.8429     -0.00000
      6      15.0343      0.00000
      7      17.0268      0.00000
      8      21.2933      0.00000

 k-point    34 :      -0.3500   -0.4500    0.1500
  band No.  band energies     occupation 
      1       3.7473      2.00000
      2       3.7623      2.00000
      3       4.9959      2.00000
      4       9.4289     -0.00000
      5      10.6536     -0.00000
      6      15.9119      0.00000
      7      17.2252      0.00000
      8      20.0279      0.00000

 k-point    35 :       0.2500    0.2500    0.2500
  band No.  band energies     occupation 
      1       4.5720      2.00000
      2       4.5720      2.00000
      3       4.5723      2.00000
      4      10.4712     -0.00000
      5      10.4712     -0.00000
      6      13.8153      0.00000
      7      19.4337      0.00000
      8      19.4342      0.00000

 k-point    36 :      -0.2500    0.2500    0.2500
  band No.  band energies     occupation 
      1       2.3471      2.00000
      2       4.7718      2.00000
      3       6.9295      2.03180
      4       6.9297      2.03189
      5       8.7366     -0.00000
      6      10.6916     -0.00000
      7      21.9880      0.00000
      8      26.4912      0.00000

 k-point    37 :      -0.3500    0.3500    0.2500
  band No.  band energies     occupation 
      1       3.0333      2.00000
      2       3.8570      2.00000
      3       6.9850      2.05660
      4       7.6407     -0.02939
      5      10.4426     -0.00000
      6      11.1920     -0.00000
      7      21.4066      0.00000
      8      23.9282      0.00000

 k-point    38 :      -0.4500    0.4500    0.2500
  band No.  band energies     occupation 
      1       2.8597      2.00000
      2       3.8581      2.00000
      3       6.8051      2.00382
      4       7.6113     -0.04189
      5      12.3990     -0.00000
      6      13.5688      0.00000
      7      18.2084      0.00000
      8      21.4689      0.00000

 k-point    39 :      -0.3500    0.4500    0.2500
  band No.  band energies     occupation 
      1       3.1537      2.00000
      2       3.2292      2.00000
      3       6.9067      2.02330
      4       8.9012     -0.00000
      5      10.9701     -0.00000
      6      13.3744      0.00000
      7      19.3984      0.00000
      8      21.1472      0.00000

 k-point    40 :      -0.4500   -0.4500    0.2500
  band No.  band energies     occupation 
      1       2.8997      2.00000
      2       3.2590      2.00000
      3       6.6631      2.00011
      4       9.4533     -0.00000
      5      11.7277     -0.00000
      6      16.1282      0.00000
      7      16.6770      0.00000
      8      19.3405      0.00000

 k-point    41 :      -0.3500    0.3500    0.3500
  band No.  band energies     occupation 
      1       2.9462      2.00000
      2       2.9971      2.00000
      3       8.6964     -0.00000
      4       8.6967     -0.00000
      5      10.6338     -0.00000
      6      11.6738     -0.00000
      7      21.4782      0.00000
      8      21.4784      0.00000

 k-point    42 :      -0.4500    0.4500    0.3500
  band No.  band energies     occupation 
      1       2.4659      2.00000
      2       2.6704      2.00000
      3       9.1487     -0.00000
      4       9.2856     -0.00000
      5      12.1216     -0.00000
      6      14.0601      0.00000
      7      18.0127      0.00000
      8      19.1599      0.00000

 k-point    43 :      -0.4500   -0.4500    0.3500
  band No.  band energies     occupation 
      1       2.3104      2.00000
      2       2.3104      2.00000
      3       9.1696     -0.00000
      4      11.5119     -0.00000
      5      11.5124     -0.00000
      6      16.5828      0.00000
      7      16.6555      0.00000
      8      16.6557      0.00000

 k-point    44 :      -0.4500    0.4500    0.4500
  band No.  band energies     occupation 
      1       1.9844      2.00000
      2       2.0428      2.00000
      3      11.4204     -0.00000
      4      11.4208     -0.00000
      5      12.0904     -0.00000
      6      14.8127      0.00000
      7      16.7776      0.00000
      8      16.7777      0.00000


--------------------------------------------------------------------------------------------------------


 soft charge-density along one line, spin component           1
         0         1         2         3         4         5         6         7         8         9
 total charge-density along one line
 
 pseudopotential strength for first ion, spin component:           1
 -6.922   0.000   0.000   0.000   0.000   0.000   0.000   0.000   0.000   0.000   0.117   0.000   0.000   0.000   0.000   0.000
  0.000   0.000  -6.922   0.000  -0.000   0.000   0.000   0.000   0.000   0.000   0.000   0.000   0.117   0.000  -0.000   0.000
  0.000   0.000  -0.000   0.000  -6.951   0.000  -0.000   0.000   0.000   0.000   0.000   0.000  -0.000   0.000   0.116   0.000
  0.000   0.000   0.000   0.000  -0.000   0.000  -6.922   0.000  -0.000   0.000   0.000   0.000   0.000   0.000  -0.000   0.000
  0.000   0.000   0.000   0.000   0.000   0.000  -0.000   0.000  -6.951   0.000   0.000   0.000   0.000   0.000   0.000   0.000
  0.117   0.000   0.000   0.000   0.000   0.000   0.000   0.000   0.000   0.000   0.083   0.000  -0.000   0.000  -0.000   0.000
  0.000   0.000   0.117   0.000  -0.000   0.000   0.000   0.000   0.000   0.000  -0.000   0.000   0.083   0.000   0.000   0.000
  0.000   0.000  -0.000   0.000   0.116   0.000  -0.000   0.000   0.000   0.000  -0.000   0.000   0.000   0.000   0.083   0.000
  0.000   0.000   0.000   0.000  -0.000   0.000   0.117   0.000  -0.000   0.000  -0.000   0.000  -0.000   0.000   0.000   0.000
  0.000   0.000   0.000   0.000   0.000   0.000  -0.000   0.000   0.116   0.000  -0.000   0.000  -0.000   0.000   0.000   0.000
  0.000   0.000   0.000   0.000  -0.000   0.000   0.000   0.000   0.000   0.000   0.000   0.000   0.000   0.000   0.000   0.000
 -0.000   0.000  -0.000   0.000   0.000   0.000  -0.000   0.000  -0.000   0.000  -0.000   0.000  -0.000   0.000   0.000   0.000
 -0.000   0.000  -0.000   0.000   0.000   0.000  -0.000   0.000   0.000   0.000  -0.000   0.000  -0.000   0.000   0.000   0.000
 -0.000   0.000  -0.000   0.000  -0.000   0.000  -0.000   0.000  -0.000   0.000   0.000   0.000  -0.000   0.000  -0.000   0.000
 -0.000   0.000  -0.000   0.000   0.000   0.000  -0.000   0.000  -0.000   0.000  -0.000   0.000   0.000   0.000   0.000   0.000
  0.000   0.000   0.000   0.000  -0.000   0.000   0.000   0.000  -0.000   0.000   0.000   0.000   0.000   0.000  -0.000   0.000
  0.000   0.000   0.000   0.000   0.000   0.000   0.000   0.000   0.000   0.000  -0.000   0.000   0.000   0.000   0.000   0.000
  0.000   0.000   0.000   0.000  -0.000   0.000   0.000   0.000   0.000   0.000   0.000   0.000  -0.000   0.000  -0.000   0.000
 total augmentation occupancy for first ion, spin component:           1
  1.060   0.000   0.000  -0.000  -0.000  -0.725   0.000  -0.000   0.000   0.000   0.000  -0.000   0.000   0.000   0.000   0.000
  0.000   1.060  -0.000   0.000  -0.000  -0.000  -0.725   0.000   0.000   0.000  -0.000  -0.000   0.000   0.000   0.000   0.000
  0.000  -0.000   0.667  -0.000   0.000   0.000   0.000  -0.597  -0.000   0.000  -0.000   0.000   0.000   0.000   0.000   0.000
 -0.000   0.000  -0.000   1.060  -0.000   0.000   0.000   0.000  -0.725   0.000   0.000   0.000   0.000   0.000   0.000   0.000
 -0.000  -0.000   0.000   0.000   0.667   0.000  -0.000   0.000  -0.000  -0.597   0.000   0.000   0.000   0.000   0.000   0.000
 -0.725  -0.000  -0.000   0.000   0.000   0.612   0.000   0.000   0.000  -0.000  -0.000   0.000   0.000   0.000   0.000   0.000
  0.000  -0.725   0.000   0.000   0.000  -0.000   0.612  -0.000   0.000   0.000  -0.000   0.000   0.000   0.000   0.000   0.000
 -0.000   0.000  -0.597   0.000   0.000  -0.000   0.000   0.615   0.000   0.000   0.000   0.000   0.000   0.000   0.000   0.000
  0.000   0.000  -0.000  -0.725  -0.000   0.000  -0.000   0.000   0.612   0.000   0.000  -0.000   0.000   0.000   0.000   0.000
 -0.000   0.000   0.000  -0.000  -0.597  -0.000   0.000  -0.000   0.000   0.615   0.000   0.000   0.000   0.000   0.000   0.000
 -0.000  -0.000   0.000  -0.000   0.000  -0.000   0.000   0.000  -0.000   0.000   1.406  -0.246   0.000   0.000   0.000   0.000
 -0.000  -0.000   0.000   0.000   0.000   0.000  -0.000   0.000  -0.000  -0.000  -0.246   0.058   0.000   0.000   0.000   0.000
  0.000   0.000   0.000   0.000   0.000   0.000   0.000   0.000   0.000   0.000   0.000   0.000   0.263   0.000   0.000  -0.018
  0.000   0.000   0.000   0.000   0.000   0.000   0.000   0.000   0.000   0.000   0.000   0.000   0.000   0.263  -0.000   0.000
  0.000   0.000   0.000   0.000   0.000   0.000   0.000   0.000   0.000   0.000   0.000   0.000   0.000   0.000   0.263  -0.000
  0.000   0.000   0.000   0.000   0.000   0.000   0.000   0.000   0.000   0.000   0.000   0.000  -0.018   0.000  -0.000   0.001
  0.000   0.000   0.000   0.000   0.000   0.000   0.000   0.000   0.000   0.000   0.000   0.000   0.000  -0.018  -0.000   0.000
  0.000   0.000   0.000   0.000   0.000   0.000   0.000   0.000   0.000   0.000   0.000   0.000   0.000   0.000  -0.018  -0.000


------------------------ aborting loop because EDIFF is reached ----------------------------------------


    CHARGE:  cpu time    0.0006: real time    0.0013
    FORLOC:  cpu time    0.0001: real time    0.0001
    FORNL :  cpu time    0.0020: real time    0.0020
    STRESS:  cpu time    0.0146: real time    0.0146
    FORCOR:  cpu time    0.0004: real time    0.0004
    FORHAR:  cpu time    0.0003: real time    0.0003
    MIXING:  cpu time    0.0002: real time    0.0002
    OFIELD:  cpu time    0.0000: real time    0.0000

  FORCE on cell =-STRESS in cart. coord.  units (eV):
  Direction    XX          YY          ZZ          XY          YZ          ZX
  --------------------------------------------------------------------------------------
  Alpha Z    42.60446    42.60446    42.60446
  Ewald     -98.25785   -98.25785   -98.25785    -0.00000    -0.00000     0.00000
  Hartree     0.84695     0.84695     0.84695    -0.00000    -0.00000    -0.00000
  E(xc)     -27.01147   -27.01147   -27.01147     0.00000     0.00000     0.00000
  Local       9.24185     9.24185     9.24185    -0.00021    -0.00021    -0.00021
  n-local   -13.59943   -11.79771   -11.38263     1.46776    -1.85585    -3.19997
  augment     5.14394     5.14394     5.14394     0.00001     0.00001     0.00001
  Kinetic    75.67850    76.65517    80.05407    -1.40586     3.31673     2.00787
  Fock        0.00000     0.00000     0.00000     0.00000     0.00000     0.00000
  -------------------------------------------------------------------------------------
  Total      -2.22947    -2.22947    -2.22947    -0.00000    -0.00000    -0.00000
  in kB    -218.01794  -218.01794  -218.01794    -0.00000    -0.00000    -0.00000
  external pressure =     -218.02 kB  Pullay stress =        0.00 kB


 VOLUME and BASIS-vectors are now :
 -----------------------------------------------------------------------------
  energy-cutoff  :      224.00
  volume of cell :       16.38
      direct lattice vectors                 reciprocal lattice vectors
    -1.600000000  1.600000000  1.600000000     0.000000000  0.312500000  0.312500000
     1.600000000 -1.600000000  1.600000000     0.312500000  0.000000000  0.312500000
     1.600000000  1.600000000 -1.600000000     0.312500000  0.312500000  0.000000000

  length of vectors
     2.771281292  2.771281292  2.771281292     0.441941738  0.441941738  0.441941738


 FORCES acting on ions
    electron-ion (+dipol)            ewald-force                    non-local-force                 convergence-correction
 -----------------------------------------------------------------------------------------------
   0.561E-14 0.739E-14 0.800E-14   0.118E-15 0.488E-15 -.508E-15   -.165E-22 -.298E-22 0.000E+00   0.179E-14 0.154E-14 0.189E-14
 -----------------------------------------------------------------------------------------------
   0.561E-14 0.739E-14 0.800E-14   0.118E-15 0.488E-15 -.508E-15   -.165E-22 -.298E-22 0.000E+00   0.179E-14 0.154E-14 0.189E-14
 
 
 POSITION                                       TOTAL-FORCE (eV/Angst)
 -----------------------------------------------------------------------------------
      0.00000      0.00000      0.00000         0.000000      0.000000      0.000000
 -----------------------------------------------------------------------------------
    total drift:                                0.000000      0.000000      0.000000


--------------------------------------------------------------------------------------------------------



  FREE ENERGIE OF THE ION-ELECTRON SYSTEM (eV)
  ---------------------------------------------------
  free  energy   TOTEN  =       -14.13547909 eV

  energy  without entropy=      -14.13562165  energy(sigma->0) =      -14.13552661
 


--------------------------------------------------------------------------------------------------------


    POTLOK:  cpu time    0.0020: real time    0.0020


--------------------------------------------------------------------------------------------------------


 writing wavefunctions
     LOOP+:  cpu time    0.3936: real time    0.3992
    4ORBIT:  cpu time    0.0000: real time    0.0000

 total amount of memory used by VASP MPI-rank0    31463. kBytes
=======================================================================

   base      :      30000. kBytes
   nonl-proj :        889. kBytes
   fftplans  :        142. kBytes
   grid      :        192. kBytes
   one-center:         15. kBytes
   wavefun   :        225. kBytes
 
  
  
 General timing and accounting informations for this job:
 ========================================================
  
                  Total CPU time used (sec):        0.569
                            User time (sec):        0.477
                          System time (sec):        0.092
                         Elapsed time (sec):        0.731
  
                   Maximum memory used (kb):       56636.
                   Average memory used (kb):           0.
  
                          Minor page faults:         7309
                          Major page faults:            0
                 Voluntary context switches:          641
