<?xml version="1.0" encoding="ISO-8859-1"?>
<modeling>
 <generator>
  <i name="program" type="string">vasp </i>
  <i name="version" type="string">5.4.4.18Apr17-6-g9f103f2a35  </i>
  <i name="subversion" type="string">(build Jul 01 2019 03:25:34) complex            parallel </i>
  <i name="platform" type="string">LinuxIFC </i>
  <i name="date" type="string">2020 07 08 </i>
  <i name="time" type="string">19:51:34 </i>
 </generator>
 <incar>
  <i type="string" name="SYSTEM"> BCC W</i>
  <i type="string" name="PREC">normal</i>
  <i name="EDIFF">      0.00010000</i>
  <i name="ENCUT">    224.00000000</i>
  <v type="int" name="KPOINT_BSE">    -1     0     0     0</v>
 </incar>
 <structure name="primitive_cell" >
  <crystal>
   <varray name="basis" >
    <v>      -1.60000000       1.60000000       1.60000000 </v>
    <v>       1.60000000      -1.60000000       1.60000000 </v>
    <v>       1.60000000       1.60000000      -1.60000000 </v>
   </varray>
   <i name="volume">     16.38400000 </i>
   <varray name="rec_basis" >
    <v>       0.00000000       0.31250000       0.31250000 </v>
    <v>       0.31250000       0.00000000       0.31250000 </v>
    <v>       0.31250000       0.31250000       0.00000000 </v>
   </varray>
  </crystal>
  <varray name="positions" >
   <v>       0.00000000       0.00000000       0.00000000 </v>
  </varray>
 </structure>
 <varray name="primitive_index" >
  <v type="int" >        1 </v>
 </varray>
 <kpoints>
  <generation param="Monkhorst-Pack">
   <v type="int" name="divisions">      10       10       10 </v>
   <v name="usershift">      0.00000000       0.00000000       0.00000000 </v>
   <v name="genvec1">      0.10000000       0.00000000       0.00000000 </v>
   <v name="genvec2">      0.00000000       0.10000000       0.00000000 </v>
   <v name="genvec3">      0.00000000       0.00000000       0.10000000 </v>
   <v name="shift">      0.50000000       0.50000000       0.50000000 </v>
  </generation>
  <varray name="kpointlist" >
   <v>       0.05000000       0.05000000       0.05000000 </v>
   <v>       0.15000000       0.05000000       0.05000000 </v>
   <v>       0.25000000       0.05000000       0.05000000 </v>
   <v>       0.35000000       0.05000000       0.05000000 </v>
   <v>       0.45000000       0.05000000       0.05000000 </v>
   <v>      -0.05000000       0.05000000       0.05000000 </v>
   <v>       0.15000000       0.15000000       0.05000000 </v>
   <v>       0.25000000       0.15000000       0.05000000 </v>
   <v>       0.35000000       0.15000000       0.05000000 </v>
   <v>      -0.15000000       0.15000000       0.05000000 </v>
   <v>       0.25000000       0.25000000       0.05000000 </v>
   <v>       0.35000000       0.25000000       0.05000000 </v>
   <v>      -0.25000000       0.25000000       0.05000000 </v>
   <v>      -0.15000000       0.25000000       0.05000000 </v>
   <v>      -0.35000000       0.35000000       0.05000000 </v>
   <v>      -0.25000000       0.35000000       0.05000000 </v>
   <v>      -0.45000000       0.45000000       0.05000000 </v>
   <v>      -0.35000000       0.45000000       0.05000000 </v>
   <v>      -0.25000000       0.45000000       0.05000000 </v>
   <v>      -0.45000000      -0.45000000       0.05000000 </v>
   <v>      -0.35000000      -0.45000000       0.05000000 </v>
   <v>      -0.35000000      -0.35000000       0.05000000 </v>
   <v>       0.15000000       0.15000000       0.15000000 </v>
   <v>       0.25000000       0.15000000       0.15000000 </v>
   <v>       0.35000000       0.15000000       0.15000000 </v>
   <v>      -0.15000000       0.15000000       0.15000000 </v>
   <v>       0.25000000       0.25000000       0.15000000 </v>
   <v>      -0.25000000       0.25000000       0.15000000 </v>
   <v>      -0.35000000       0.35000000       0.15000000 </v>
   <v>      -0.25000000       0.35000000       0.15000000 </v>
   <v>      -0.45000000       0.45000000       0.15000000 </v>
   <v>      -0.35000000       0.45000000       0.15000000 </v>
   <v>      -0.45000000      -0.45000000       0.15000000 </v>
   <v>      -0.35000000      -0.45000000       0.15000000 </v>
   <v>       0.25000000       0.25000000       0.25000000 </v>
   <v>      -0.25000000       0.25000000       0.25000000 </v>
   <v>      -0.35000000       0.35000000       0.25000000 </v>
   <v>      -0.45000000       0.45000000       0.25000000 </v>
   <v>      -0.35000000       0.45000000       0.25000000 </v>
   <v>      -0.45000000      -0.45000000       0.25000000 </v>
   <v>      -0.35000000       0.35000000       0.35000000 </v>
   <v>      -0.45000000       0.45000000       0.35000000 </v>
   <v>      -0.45000000      -0.45000000       0.35000000 </v>
   <v>      -0.45000000       0.45000000       0.45000000 </v>
  </varray>
  <varray name="weights" >
   <v>       0.00800000 </v>
   <v>       0.02400000 </v>
   <v>       0.02400000 </v>
   <v>       0.02400000 </v>
   <v>       0.01200000 </v>
   <v>       0.00600000 </v>
   <v>       0.02400000 </v>
   <v>       0.04800000 </v>
   <v>       0.04800000 </v>
   <v>       0.02400000 </v>
   <v>       0.02400000 </v>
   <v>       0.02400000 </v>
   <v>       0.02400000 </v>
   <v>       0.02400000 </v>
   <v>       0.02400000 </v>
   <v>       0.04800000 </v>
   <v>       0.02400000 </v>
   <v>       0.04800000 </v>
   <v>       0.02400000 </v>
   <v>       0.02400000 </v>
   <v>       0.04800000 </v>
   <v>       0.00800000 </v>
   <v>       0.00800000 </v>
   <v>       0.02400000 </v>
   <v>       0.01200000 </v>
   <v>       0.00600000 </v>
   <v>       0.02400000 </v>
   <v>       0.02400000 </v>
   <v>       0.02400000 </v>
   <v>       0.02400000 </v>
   <v>       0.02400000 </v>
   <v>       0.04800000 </v>
   <v>       0.02400000 </v>
   <v>       0.02400000 </v>
   <v>       0.00200000 </v>
   <v>       0.00600000 </v>
   <v>       0.02400000 </v>
   <v>       0.02400000 </v>
   <v>       0.02400000 </v>
   <v>       0.02400000 </v>
   <v>       0.00600000 </v>
   <v>       0.02400000 </v>
   <v>       0.00800000 </v>
   <v>       0.00600000 </v>
  </varray>
 </kpoints>
 <parameters>
  <separator name="general" >
   <i type="string" name="SYSTEM">BCC W</i>
   <i type="logical" name="LCOMPAT"> F  </i>
  </separator>
  <separator name="electronic" >
   <i type="string" name="PREC">normal</i>
   <i name="ENMAX">    224.00000000</i>
   <i name="ENAUG">    373.43800000</i>
   <i name="EDIFF">      0.00010000</i>
   <i type="int" name="IALGO">    38</i>
   <i type="int" name="IWAVPR">    10</i>
   <i type="int" name="NBANDS">     8</i>
   <i name="NELECT">      6.00000000</i>
   <i type="int" name="TURBO">     0</i>
   <i type="int" name="IRESTART">     0</i>
   <i type="int" name="NREBOOT">     0</i>
   <i type="int" name="NMIN">     0</i>
   <i name="EREF">      0.00000000</i>
   <separator name="electronic smearing" >
    <i type="int" name="ISMEAR">     1</i>
    <i name="SIGMA">      0.20000000</i>
    <i name="KSPACING">      0.50000000</i>
    <i type="logical" name="KGAMMA"> T  </i>
   </separator>
   <separator name="electronic projectors" >
    <i type="logical" name="LREAL"> F  </i>
    <v name="ROPT">      0.00000000</v>
    <i type="int" name="LMAXPAW">  -100</i>
    <i type="int" name="LMAXMIX">     2</i>
    <i type="logical" name="NLSPLINE"> F  </i>
   </separator>
   <separator name="electronic startup" >
    <i type="int" name="ISTART">     0</i>
    <i type="int" name="ICHARG">     2</i>
    <i type="int" name="INIWAV">     1</i>
   </separator>
   <separator name="electronic spin" >
    <i type="int" name="ISPIN">     1</i>
    <i type="logical" name="LNONCOLLINEAR"> F  </i>
    <v name="MAGMOM">      1.00000000</v>
    <i name="NUPDOWN">     -1.00000000</i>
    <i type="logical" name="LSORBIT"> F  </i>
    <v name="SAXIS">      0.00000000      0.00000000      1.00000000</v>
    <i type="logical" name="LSPIRAL"> F  </i>
    <v name="QSPIRAL">      0.00000000      0.00000000      0.00000000</v>
    <i type="logical" name="LZEROZ"> F  </i>
   </separator>
   <separator name="electronic exchange-correlation" >
    <i type="logical" name="LASPH"> F  </i>
    <i type="logical" name="LMETAGGA"> F  </i>
   </separator>
   <separator name="electronic convergence" >
    <i type="int" name="NELM">    60</i>
    <i type="int" name="NELMDL">    -5</i>
    <i type="int" name="NELMIN">     2</i>
    <i name="ENINI">    224.00000000</i>
    <separator name="electronic convergence detail" >
     <i type="logical" name="LDIAG"> T  </i>
     <i type="logical" name="LSUBROT"> F  </i>
     <i name="WEIMIN">      0.00000000</i>
     <i name="EBREAK">      0.00000313</i>
     <i name="DEPER">      0.30000000</i>
     <i type="int" name="NRMM">     4</i>
     <i name="TIME">      0.40000000</i>
    </separator>
   </separator>
   <separator name="electronic mixer" >
    <i name="AMIX">      0.40000000</i>
    <i name="BMIX">      1.00000000</i>
    <i name="AMIN">      0.10000000</i>
    <i name="AMIX_MAG">      1.60000000</i>
    <i name="BMIX_MAG">      1.00000000</i>
    <separator name="electronic mixer details" >
     <i type="int" name="IMIX">     4</i>
     <i type="logical" name="MIXFIRST"> F  </i>
     <i type="int" name="MAXMIX">   -45</i>
     <i name="WC">    100.00000000</i>
     <i type="int" name="INIMIX">     1</i>
     <i type="int" name="MIXPRE">     1</i>
     <i type="int" name="MREMOVE">     5</i>
    </separator>
   </separator>
   <separator name="electronic dipolcorrection" >
    <i type="logical" name="LDIPOL"> F  </i>
    <i type="logical" name="LMONO"> F  </i>
    <i type="int" name="IDIPOL">     0</i>
    <i name="EPSILON">      1.00000000</i>
    <v name="DIPOL">   -100.00000000   -100.00000000   -100.00000000</v>
    <i name="EFIELD">      0.00000000</i>
   </separator>
  </separator>
  <separator name="grids" >
   <i type="int" name="NGX">    10</i>
   <i type="int" name="NGY">    10</i>
   <i type="int" name="NGZ">    10</i>
   <i type="int" name="NGXF">    20</i>
   <i type="int" name="NGYF">    20</i>
   <i type="int" name="NGZF">    20</i>
   <i type="logical" name="ADDGRID"> F  </i>
  </separator>
  <separator name="ionic" >
   <i type="int" name="NSW">     0</i>
   <i type="int" name="IBRION">    -1</i>
   <i type="int" name="MDALGO">     0</i>
   <i type="int" name="ISIF">     2</i>
   <i name="PSTRESS">      0.00000000</i>
   <i name="EDIFFG">      0.00100000</i>
   <i type="int" name="NFREE">     0</i>
   <i name="POTIM">      0.50000000</i>
   <i name="SMASS">     -3.00000000</i>
   <i name="SCALEE">      1.00000000</i>
  </separator>
  <separator name="ionic md" >
   <i name="TEBEG">      0.00010000</i>
   <i name="TEEND">      0.00010000</i>
   <i type="int" name="NBLOCK">     1</i>
   <i type="int" name="KBLOCK">     1</i>
   <i type="int" name="NPACO">   256</i>
   <i name="APACO">     16.00000000</i>
  </separator>
  <separator name="symmetry" >
   <i type="int" name="ISYM">     2</i>
   <i name="SYMPREC">      0.00001000</i>
  </separator>
  <separator name="dos" >
   <i type="int" name="LORBIT">     0</i>
   <v name="RWIGS">     -1.00000000</v>
   <i type="int" name="NEDOS">   301</i>
   <i name="EMIN">     10.00000000</i>
   <i name="EMAX">    -10.00000000</i>
   <i name="EFERMI">      0.00000000</i>
  </separator>
  <separator name="writing" >
   <i type="int" name="NWRITE">     2</i>
   <i type="logical" name="LWAVE"> T  </i>
   <i type="logical" name="LDOWNSAMPLE"> F  </i>
   <i type="logical" name="LCHARG"> T  </i>
   <i type="logical" name="LPARD"> F  </i>
   <i type="logical" name="LVTOT"> F  </i>
   <i type="logical" name="LVHAR"> F  </i>
   <i type="logical" name="LELF"> F  </i>
   <i type="logical" name="LOPTICS"> F  </i>
   <v name="STM">      0.00000000      0.00000000      0.00000000      0.00000000      0.00000000      0.00000000      0.00000000</v>
  </separator>
  <separator name="performance" >
   <i type="int" name="NPAR">     4</i>
   <i type="int" name="NSIM">     4</i>
   <i type="int" name="NBLK">    -1</i>
   <i type="logical" name="LPLANE"> T  </i>
   <i type="logical" name="LSCALAPACK"> T  </i>
   <i type="logical" name="LSCAAWARE"> F  </i>
   <i type="logical" name="LSCALU"> F  </i>
   <i type="logical" name="LASYNC"> F  </i>
   <i type="logical" name="LORBITALREAL"> F  </i>
  </separator>
  <separator name="miscellaneous" >
   <i type="int" name="IDIOT">     3</i>
   <i type="int" name="ISPECIAL">     0</i>
   <i type="logical" name="LMUSIC"> F  </i>
   <v name="POMASS">    183.85000000</v>
   <v name="DARWINR">      0.00000000</v>
   <v name="DARWINV">      1.00000000</v>
   <i type="logical" name="LCORR"> T  </i>
  </separator>
  <i type="logical" name="GGA_COMPAT"> T  </i>
  <i type="logical" name="LBERRY"> F  </i>
  <i type="int" name="ICORELEVEL">     0</i>
  <i type="logical" name="LDAU"> F  </i>
  <i type="int" name="I_CONSTRAINED_M">     0</i>
  <separator name="electronic exchange-correlation" >
   <i type="string" name="GGA">--</i>
   <i type="int" name="VOSKOWN">     0</i>
   <i type="logical" name="LHFCALC"> F  </i>
   <i type="string" name="PRECFOCK"></i>
   <i type="logical" name="LSYMGRAD"> F  </i>
   <i type="logical" name="LHFONE"> F  </i>
   <i type="logical" name="LRHFCALC"> F  </i>
   <i type="logical" name="LTHOMAS"> F  </i>
   <i type="logical" name="LMODELHF"> F  </i>
   <i name="ENCUT4O">     -1.00000000</i>
   <i type="int" name="EXXOEP">     0</i>
   <i type="int" name="FOURORBIT">     0</i>
   <i name="AEXX">      0.00000000</i>
   <i name="HFALPHA">      0.00000000</i>
   <i name="MCALPHA">      0.00000000</i>
   <i name="ALDAX">      1.00000000</i>
   <i name="AGGAX">      1.00000000</i>
   <i name="ALDAC">      1.00000000</i>
   <i name="AGGAC">      1.00000000</i>
   <i type="int" name="NKREDX">     1</i>
   <i type="int" name="NKREDY">     1</i>
   <i type="int" name="NKREDZ">     1</i>
   <i type="logical" name="SHIFTRED"> F  </i>
   <i type="logical" name="ODDONLY"> F  </i>
   <i type="logical" name="EVENONLY"> F  </i>
   <i type="int" name="LMAXFOCK">     0</i>
   <i type="int" name="NMAXFOCKAE">     0</i>
   <i type="logical" name="LFOCKAEDFT"> F  </i>
   <i name="HFSCREEN">      0.00000000</i>
   <i name="HFSCREENC">      0.00000000</i>
   <i type="int" name="NBANDSGWLOW">     0</i>
  </separator>
  <separator name="vdW DFT" >
   <i type="logical" name="LUSE_VDW"> F  </i>
   <i name="Zab_VDW">     -0.84910000</i>
   <i name="PARAM1">      0.12340000</i>
   <i name="PARAM2">      1.00000000</i>
   <i name="PARAM3">      0.00000000</i>
  </separator>
  <separator name="model GW" >
   <i type="int" name="MODEL_GW">     0</i>
   <i name="MODEL_EPS0">      9.83040000</i>
   <i name="MODEL_ALPHA">      1.00000000</i>
  </separator>
  <separator name="linear response parameters" >
   <i type="logical" name="LEPSILON"> F  </i>
   <i type="logical" name="LRPA"> F  </i>
   <i type="logical" name="LNABLA"> F  </i>
   <i type="logical" name="LVEL"> F  </i>
   <i type="int" name="KINTER">     0</i>
   <i name="CSHIFT">      0.10000000</i>
   <i name="OMEGAMAX">     -1.00000000</i>
   <i name="DEG_THRESHOLD">      0.00200000</i>
   <i name="RTIME">     -0.10000000</i>
   <i name="WPLASMAI">      0.00000000</i>
   <v name="DFIELD">      0.00000000      0.00000000      0.00000000</v>
   <v name="WPLASMA">      0.00000000      0.00000000      0.00000000      0.00000000      0.00000000      0.00000000      0.00000000      0.00000000      0.00000000</v>
  </separator>
  <separator name="orbital magnetization" >
   <i type="logical" name="NUCIND"> F  </i>
   <v name="MAGPOS">      0.00000000      0.00000000      0.00000000</v>
   <i type="logical" name="LNICSALL"> T  </i>
   <i type="logical" name="ORBITALMAG"> F  </i>
   <i type="logical" name="LMAGBLOCH"> F  </i>
   <i type="logical" name="LCHIMAG"> F  </i>
   <i type="logical" name="LGAUGE"> T  </i>
   <i type="int" name="MAGATOM">     0</i>
   <v name="MAGDIPOL">      0.00000000      0.00000000      0.00000000</v>
   <v name="AVECCONST">      0.00000000      0.00000000      0.00000000</v>
  </separator>
  <separator name="response functions" >
   <i type="logical" name="LADDER"> F  </i>
   <i type="logical" name="LRPAFORCE"> F  </i>
   <i type="logical" name="LFXC"> F  </i>
   <i type="logical" name="LHARTREE"> T  </i>
   <i type="int" name="IBSE">     0</i>
   <v type="int" name="KPOINT">    -1     0     0     0</v>
   <i type="logical" name="LTCTE"> F  </i>
   <i type="logical" name="LTETE"> F  </i>
   <i type="logical" name="LTRIPLET"> F  </i>
   <i type="logical" name="LFXCEPS"> F  </i>
   <i type="logical" name="LFXHEG"> F  </i>
   <i type="int" name="NATURALO">     2</i>
   <i type="logical" name="L2ORDER"> F  </i>
   <i type="logical" name="LMP2LT"> F  </i>
   <i type="logical" name="LUSEW"> F  </i>
   <i name="ENCUTGW">     -2.00000000</i>
   <i name="ENCUTGWSOFT">     -2.00000000</i>
   <i name="ENCUTLF">     -1.00000000</i>
   <i type="int" name="LMAXMP2">    -1</i>
   <i name="SCISSOR">      0.00000000</i>
   <i type="int" name="NOMEGA">     0</i>
   <i type="int" name="NOMEGAR">     0</i>
   <i type="int" name="NBANDSGW">    -1</i>
   <i type="int" name="NBANDSO">    -1</i>
   <i type="int" name="NBANDSV">    -1</i>
   <i type="int" name="NELM">     1</i>
   <i type="int" name="NELMHF">     1</i>
   <i type="int" name="DIM">     3</i>
   <i type="int" name="ANTIRES">     0</i>
   <i name="OMEGAMAX">    -30.00000000</i>
   <i name="OMEGAMIN">    -30.00000000</i>
   <i name="OMEGATL">   -200.00000000</i>
   <i type="int" name="OMEGAGRID">   140</i>
   <i name="CSHIFT">     -0.10000000</i>
   <i type="logical" name="SELFENERGY"> F  </i>
   <i type="logical" name="LSPECTRAL"> F  </i>
   <i type="logical" name="LSPECTRALGW"> F  </i>
   <i type="logical" name="LSINGLES"> F  </i>
   <i type="logical" name="LFERMIGW"> F  </i>
   <i type="logical" name="ODDONLYGW"> F  </i>
   <i type="logical" name="EVENONLYGW"> F  </i>
   <i type="int" name="NKREDLFX">     1</i>
   <i type="int" name="NKREDLFY">     1</i>
   <i type="int" name="NKREDLFZ">     1</i>
   <i type="int" name="MAXMEM">  2800</i>
   <i type="int" name="TELESCOPE">     0</i>
   <i type="int" name="TAUPAR">     1</i>
   <i type="int" name="OMEGAPAR">    -1</i>
   <i name="LAMBDA">      1.00000000</i>
  </separator>
  <separator name="External order field" >
   <i name="OFIELD_KAPPA">      0.00000000</i>
   <v name="OFIELD_K">      0.00000000      0.00000000      0.00000000</v>
   <i name="OFIELD_Q6_NEAR">      0.00000000</i>
   <i name="OFIELD_Q6_FAR">      0.00000000</i>
   <i name="OFIELD_A">      0.00000000</i>
  </separator>
 </parameters>
 <atominfo>
  <atoms>       1 </atoms>
  <types>       1 </types>
  <array name="atoms" >
   <dimension dim="1">ion</dimension>
   <field type="string">element</field>
   <field type="int">atomtype</field>
   <set>
    <rc><c>W </c><c>   1</c></rc>
   </set>
  </array>
  <array name="atomtypes" >
   <dimension dim="1">type</dimension>
   <field type="int">atomspertype</field>
   <field type="string">element</field>
   <field>mass</field>
   <field>valence</field>
   <field type="string">pseudopotential</field>
   <set>
    <rc><c>   1</c><c>W </c><c>    183.85000000</c><c>      6.00000000</c><c> PAW W 19Jan2001                        </c></rc>
   </set>
  </array>
 </atominfo>
 <structure name="initialpos" >
  <crystal>
   <varray name="basis" >
    <v>      -1.60000000       1.60000000       1.60000000 </v>
    <v>       1.60000000      -1.60000000       1.60000000 </v>
    <v>       1.60000000       1.60000000      -1.60000000 </v>
   </varray>
   <i name="volume">     16.38400000 </i>
   <varray name="rec_basis" >
    <v>       0.00000000       0.31250000       0.31250000 </v>
    <v>       0.31250000       0.00000000       0.31250000 </v>
    <v>       0.31250000       0.31250000       0.00000000 </v>
   </varray>
  </crystal>
  <varray name="positions" >
   <v>       0.00000000       0.00000000       0.00000000 </v>
  </varray>
 </structure>
 <calculation>
  <scstep>
   <time name="dav">    0.04    0.04</time>
   <time name="total">    0.04    0.05</time>
   <energy>
    <i name="alphaZ">     42.60445679 </i>
    <i name="ewald">   -294.77355253 </i>
    <i name="hartreedc">     -6.26222999 </i>
    <i name="XCdc">    -47.39741485 </i>
    <i name="pawpsdc">    183.53490256 </i>
    <i name="pawaedc">   -125.80866524 </i>
    <i name="eentropy">     -0.00156443 </i>
    <i name="bandstr">     30.99711532 </i>
    <i name="atom">    206.50785835 </i>
    <i name="e_fr_energy">    -10.59909402 </i>
    <i name="e_wo_entrp">    -10.59752959 </i>
    <i name="e_0_energy">    -10.59857255 </i>
   </energy>
  </scstep>
  <scstep>
   <time name="dav">    0.04    0.05</time>
   <time name="total">    0.05    0.05</time>
   <energy>
    <i name="e_fr_energy">    -14.87530767 </i>
    <i name="e_wo_entrp">    -14.87589437 </i>
    <i name="e_0_energy">    -14.87550324 </i>
   </energy>
  </scstep>
  <scstep>
   <time name="dav">    0.05    0.05</time>
   <time name="total">    0.05    0.05</time>
   <energy>
    <i name="e_fr_energy">    -14.89881554 </i>
    <i name="e_wo_entrp">    -14.89945374 </i>
    <i name="e_0_energy">    -14.89902827 </i>
   </energy>
  </scstep>
  <scstep>
   <time name="dav">    0.04    0.04</time>
   <time name="total">    0.04    0.04</time>
   <energy>
    <i name="e_fr_energy">    -14.89882389 </i>
    <i name="e_wo_entrp">    -14.89946209 </i>
    <i name="e_0_energy">    -14.89903662 </i>
   </energy>
  </scstep>
  <scstep>
   <time name="dav">    0.04    0.04</time>
   <time name="total">    0.04    0.04</time>
   <energy>
    <i name="e_fr_energy">    -14.89882390 </i>
    <i name="e_wo_entrp">    -14.89946211 </i>
    <i name="e_0_energy">    -14.89903664 </i>
   </energy>
  </scstep>
  <scstep>
   <time name="dav">    0.03    0.03</time>
   <time name="total">    0.03    0.03</time>
   <energy>
    <i name="e_fr_energy">    -14.32935811 </i>
    <i name="e_wo_entrp">    -14.32955303 </i>
    <i name="e_0_energy">    -14.32942308 </i>
   </energy>
  </scstep>
  <scstep>
   <time name="dav">    0.03    0.03</time>
   <time name="total">    0.03    0.03</time>
   <energy>
    <i name="e_fr_energy">    -14.13806456 </i>
    <i name="e_wo_entrp">    -14.13823334 </i>
    <i name="e_0_energy">    -14.13812082 </i>
   </energy>
  </scstep>
  <scstep>
   <time name="dav">    0.03    0.03</time>
   <time name="total">    0.03    0.03</time>
   <energy>
    <i name="e_fr_energy">    -14.13629242 </i>
    <i name="e_wo_entrp">    -14.13612801 </i>
    <i name="e_0_energy">    -14.13623761 </i>
   </energy>
  </scstep>
  <scstep>
   <time name="dav">    0.03    0.03</time>
   <time name="total">    0.03    0.03</time>
   <energy>
    <i name="e_fr_energy">    -14.13547591 </i>
    <i name="e_wo_entrp">    -14.13562502 </i>
    <i name="e_0_energy">    -14.13552561 </i>
   </energy>
  </scstep>
  <scstep>
   <time name="dav">    0.01    0.01</time>
   <time name="total">    0.02    0.02</time>
   <energy>
    <i name="alphaZ">     42.60445679 </i>
    <i name="ewald">   -294.77355253 </i>
    <i name="hartreedc">     -2.53975332 </i>
    <i name="XCdc">    -46.95438370 </i>
    <i name="pawpsdc">    233.41119285 </i>
    <i name="pawaedc">   -177.17232654 </i>
    <i name="eentropy">      0.00014256 </i>
    <i name="bandstr">     24.78088645 </i>
    <i name="atom">    206.50785835 </i>
    <i name="e_fr_energy">    -14.13547909 </i>
    <i name="e_wo_entrp">    -14.13562165 </i>
    <i name="e_0_energy">    -14.13552661 </i>
   </energy>
  </scstep>
  <structure>
   <crystal>
    <varray name="basis" >
     <v>      -1.60000000       1.60000000       1.60000000 </v>
     <v>       1.60000000      -1.60000000       1.60000000 </v>
     <v>       1.60000000       1.60000000      -1.60000000 </v>
    </varray>
    <i name="volume">     16.38400000 </i>
    <varray name="rec_basis" >
     <v>       0.00000000       0.31250000       0.31250000 </v>
     <v>       0.31250000       0.00000000       0.31250000 </v>
     <v>       0.31250000       0.31250000       0.00000000 </v>
    </varray>
   </crystal>
   <varray name="positions" >
    <v>       0.00000000       0.00000000       0.00000000 </v>
   </varray>
  </structure>
  <varray name="forces" >
   <v>       0.00000000       0.00000000       0.00000000 </v>
  </varray>
  <varray name="stress" >
   <v>    -218.01793899       0.00000000      -0.00000000 </v>
   <v>      -0.00000000    -218.01793899       0.00000000 </v>
   <v>      -0.00000000      -0.00000000    -218.01793899 </v>
  </varray>
  <energy>
   <i name="e_fr_energy">    -14.13547909 </i>
   <i name="e_wo_entrp">    -14.13552661 </i>
   <i name="e_0_energy">      0.00014256 </i>
  </energy>
  <time name="totalsc">    0.39    0.40</time>
  <eigenvalues>
   <array>
    <dimension dim="1">band</dimension>
    <dimension dim="2">kpoint</dimension>
    <dimension dim="3">spin</dimension>
    <field>eigene</field>
    <field>occ</field>
    <set>
     <set comment="spin 1">
      <set comment="kpoint 1">
       <r>   -1.2542    1.0000 </r>
       <r>    5.9010    1.0000 </r>
       <r>    5.9010    1.0000 </r>
       <r>    7.0186    1.0343 </r>
       <r>    9.3063   -0.0000 </r>
       <r>    9.3063   -0.0000 </r>
       <r>   23.0432    0.0000 </r>
       <r>   23.8488    0.0000 </r>
      </set>
      <set comment="kpoint 2">
       <r>   -0.0890    1.0000 </r>
       <r>    5.2518    1.0000 </r>
       <r>    5.5077    1.0000 </r>
       <r>    8.4348   -0.0000 </r>
       <r>    8.9856   -0.0000 </r>
       <r>    9.5650   -0.0000 </r>
       <r>   23.4401    0.0000 </r>
       <r>   24.6369    0.0000 </r>
      </set>
      <set comment="kpoint 3">
       <r>    1.2005    1.0000 </r>
       <r>    4.6034    1.0000 </r>
       <r>    5.4287    1.0000 </r>
       <r>    9.1769   -0.0000 </r>
       <r>    9.8711   -0.0000 </r>
       <r>   10.4841   -0.0000 </r>
       <r>   21.8980    0.0000 </r>
       <r>   22.2099    0.0000 </r>
      </set>
      <set comment="kpoint 4">
       <r>    1.6516    1.0000 </r>
       <r>    4.1544    1.0000 </r>
       <r>    6.6361    1.0000 </r>
       <r>    9.5123   -0.0000 </r>
       <r>   10.1900   -0.0000 </r>
       <r>   12.6616   -0.0000 </r>
       <r>   19.0382    0.0000 </r>
       <r>   20.2181    0.0000 </r>
      </set>
      <set comment="kpoint 5">
       <r>    1.6417    1.0000 </r>
       <r>    3.9946    1.0000 </r>
       <r>    7.7572   -0.0020 </r>
       <r>    9.5005   -0.0000 </r>
       <r>   10.3416   -0.0000 </r>
       <r>   13.7714    0.0000 </r>
       <r>   17.5579    0.0000 </r>
       <r>   19.5550    0.0000 </r>
      </set>
      <set comment="kpoint 6">
       <r>   -1.6894    1.0000 </r>
       <r>    6.2018    1.0000 </r>
       <r>    6.2021    1.0000 </r>
       <r>    6.3303    1.0000 </r>
       <r>    9.1835   -0.0000 </r>
       <r>    9.6391   -0.0000 </r>
       <r>   22.9580    0.0000 </r>
       <r>   23.0019    0.0000 </r>
      </set>
      <set comment="kpoint 7">
       <r>    1.2100    1.0000 </r>
       <r>    4.8015    1.0000 </r>
       <r>    4.8403    1.0000 </r>
       <r>    9.0514   -0.0000 </r>
       <r>    9.8951   -0.0000 </r>
       <r>   10.4424   -0.0000 </r>
       <r>   22.6760    0.0000 </r>
       <r>   23.7868    0.0000 </r>
      </set>
      <set comment="kpoint 8">
       <r>    2.2574    1.0000 </r>
       <r>    4.3134    1.0000 </r>
       <r>    5.1368    1.0000 </r>
       <r>    9.3379   -0.0000 </r>
       <r>   10.2135   -0.0000 </r>
       <r>   12.8147    0.0000 </r>
       <r>   19.6790    0.0000 </r>
       <r>   21.8643    0.0000 </r>
      </set>
      <set comment="kpoint 9">
       <r>    2.3738    1.0000 </r>
       <r>    4.0836    1.0000 </r>
       <r>    6.3930    1.0000 </r>
       <r>    9.5994   -0.0000 </r>
       <r>   10.4182   -0.0000 </r>
       <r>   14.7794    0.0000 </r>
       <r>   16.9679    0.0000 </r>
       <r>   20.4974    0.0000 </r>
      </set>
      <set comment="kpoint 10">
       <r>   -0.8357    1.0000 </r>
       <r>    5.7677    1.0000 </r>
       <r>    6.0466    1.0000 </r>
       <r>    7.1771    0.8835 </r>
       <r>    8.5349   -0.0000 </r>
       <r>    9.8198   -0.0000 </r>
       <r>   23.4786    0.0000 </r>
       <r>   24.4918    0.0000 </r>
      </set>
      <set comment="kpoint 11">
       <r>    3.0176    1.0000 </r>
       <r>    4.3438    1.0000 </r>
       <r>    5.2250    1.0000 </r>
       <r>    9.6418   -0.0000 </r>
       <r>   10.3288   -0.0000 </r>
       <r>   15.2930    0.0000 </r>
       <r>   16.8873    0.0000 </r>
       <r>   20.9492    0.0000 </r>
      </set>
      <set comment="kpoint 12">
       <r>    3.1230    1.0000 </r>
       <r>    4.4403    1.0000 </r>
       <r>    5.5324    1.0000 </r>
       <r>    9.8868   -0.0000 </r>
       <r>   10.3741   -0.0000 </r>
       <r>   15.3236    0.0000 </r>
       <r>   17.0078    0.0000 </r>
       <r>   19.6295    0.0000 </r>
      </set>
      <set comment="kpoint 13">
       <r>    0.5075    1.0000 </r>
       <r>    5.0954    1.0000 </r>
       <r>    5.6449    1.0000 </r>
       <r>    8.5348   -0.0000 </r>
       <r>    8.8448   -0.0000 </r>
       <r>   10.0095   -0.0000 </r>
       <r>   22.5440    0.0000 </r>
       <r>   23.9860    0.0000 </r>
      </set>
      <set comment="kpoint 14">
       <r>    0.2847    1.0000 </r>
       <r>    5.5488    1.0000 </r>
       <r>    5.5636    1.0000 </r>
       <r>    7.9804   -0.0000 </r>
       <r>    8.3562   -0.0000 </r>
       <r>   10.1984   -0.0000 </r>
       <r>   23.4987    0.0000 </r>
       <r>   24.4229    0.0000 </r>
      </set>
      <set comment="kpoint 15">
       <r>    1.4138    1.0000 </r>
       <r>    4.5072    1.0000 </r>
       <r>    6.0466    1.0000 </r>
       <r>    9.0899   -0.0000 </r>
       <r>   10.2349   -0.0000 </r>
       <r>   11.0077   -0.0000 </r>
       <r>   20.3262    0.0000 </r>
       <r>   21.4856    0.0000 </r>
      </set>
      <set comment="kpoint 16">
       <r>    1.5543    1.0000 </r>
       <r>    4.8627    1.0000 </r>
       <r>    5.3663    1.0000 </r>
       <r>    8.2762   -0.0000 </r>
       <r>   10.1795   -0.0000 </r>
       <r>   10.5942   -0.0000 </r>
       <r>   21.1360    0.0000 </r>
       <r>   23.7072    0.0000 </r>
      </set>
      <set comment="kpoint 17">
       <r>    1.5209    1.0000 </r>
       <r>    4.1741    1.0000 </r>
       <r>    7.3372    0.2764 </r>
       <r>    9.2493   -0.0000 </r>
       <r>   10.7118   -0.0000 </r>
       <r>   12.9000    0.0000 </r>
       <r>   18.2812    0.0000 </r>
       <r>   19.8918    0.0000 </r>
      </set>
      <set comment="kpoint 18">
       <r>    2.0270    1.0000 </r>
       <r>    4.5068    1.0000 </r>
       <r>    5.9253    1.0000 </r>
       <r>    8.8464   -0.0000 </r>
       <r>   10.6294   -0.0000 </r>
       <r>   12.7476    0.0000 </r>
       <r>   18.8654    0.0000 </r>
       <r>   21.5688    0.0000 </r>
      </set>
      <set comment="kpoint 19">
       <r>    2.5823    1.0000 </r>
       <r>    4.3422    1.0000 </r>
       <r>    5.4353    1.0000 </r>
       <r>    8.5792   -0.0000 </r>
       <r>   10.3019   -0.0000 </r>
       <r>   12.9274    0.0000 </r>
       <r>   19.1841    0.0000 </r>
       <r>   22.8455    0.0000 </r>
      </set>
      <set comment="kpoint 20">
       <r>    2.0102    1.0000 </r>
       <r>    4.3885    1.0000 </r>
       <r>    6.5275    1.0000 </r>
       <r>    8.7979   -0.0000 </r>
       <r>   11.2695   -0.0000 </r>
       <r>   14.0248    0.0000 </r>
       <r>   17.3830    0.0000 </r>
       <r>   20.7780    0.0000 </r>
      </set>
      <set comment="kpoint 21">
       <r>    2.9034    1.0000 </r>
       <r>    4.3905    1.0000 </r>
       <r>    5.4398    1.0000 </r>
       <r>    9.0690   -0.0000 </r>
       <r>   10.5990   -0.0000 </r>
       <r>   15.3954    0.0000 </r>
       <r>   16.8861    0.0000 </r>
       <r>   20.8688    0.0000 </r>
      </set>
      <set comment="kpoint 22">
       <r>    3.4744    1.0000 </r>
       <r>    4.6250    1.0000 </r>
       <r>    4.6251    1.0000 </r>
       <r>   10.0285   -0.0000 </r>
       <r>   10.0287   -0.0000 </r>
       <r>   15.6035    0.0000 </r>
       <r>   18.3842    0.0000 </r>
       <r>   18.3846    0.0000 </r>
      </set>
      <set comment="kpoint 23">
       <r>    2.6303    1.0000 </r>
       <r>    4.3221    1.0000 </r>
       <r>    4.3221    1.0000 </r>
       <r>    9.8477   -0.0000 </r>
       <r>    9.8477   -0.0000 </r>
       <r>   12.9339    0.0000 </r>
       <r>   20.6541    0.0000 </r>
       <r>   22.4334    0.0000 </r>
      </set>
      <set comment="kpoint 24">
       <r>    3.3178    1.0000 </r>
       <r>    4.0793    1.0000 </r>
       <r>    5.0157    1.0000 </r>
       <r>   10.0036   -0.0000 </r>
       <r>   10.2863   -0.0000 </r>
       <r>   15.2769    0.0000 </r>
       <r>   17.0442    0.0000 </r>
       <r>   21.1249    0.0000 </r>
      </set>
      <set comment="kpoint 25">
       <r>    3.2398    1.0000 </r>
       <r>    4.0091    1.0000 </r>
       <r>    5.9641    1.0000 </r>
       <r>   10.0742   -0.0000 </r>
       <r>   10.4235   -0.0000 </r>
       <r>   15.3167    0.0000 </r>
       <r>   16.5036    0.0000 </r>
       <r>   20.6252    0.0000 </r>
      </set>
      <set comment="kpoint 26">
       <r>   -0.0218    1.0000 </r>
       <r>    6.2396    1.0000 </r>
       <r>    6.2398    1.0000 </r>
       <r>    7.1499    0.9455 </r>
       <r>    7.1758    0.8868 </r>
       <r>   10.3835   -0.0000 </r>
       <r>   24.7137    0.0000 </r>
       <r>   25.0097    0.0000 </r>
      </set>
      <set comment="kpoint 27">
       <r>    3.7667    1.0000 </r>
       <r>    4.4875    1.0000 </r>
       <r>    5.0593    1.0000 </r>
       <r>   10.2923   -0.0000 </r>
       <r>   10.4096   -0.0000 </r>
       <r>   14.6779    0.0000 </r>
       <r>   17.5741    0.0000 </r>
       <r>   19.7989    0.0000 </r>
      </set>
      <set comment="kpoint 28">
       <r>    1.2645    1.0000 </r>
       <r>    5.5143    1.0000 </r>
       <r>    5.8886    1.0000 </r>
       <r>    7.1800    0.8756 </r>
       <r>    8.5949   -0.0000 </r>
       <r>   10.6119   -0.0000 </r>
       <r>   22.1823    0.0000 </r>
       <r>   25.5346    0.0000 </r>
      </set>
      <set comment="kpoint 29">
       <r>    2.1790    1.0000 </r>
       <r>    5.0331    1.0000 </r>
       <r>    5.3805    1.0000 </r>
       <r>    8.0453   -0.0000 </r>
       <r>   10.7572   -0.0000 </r>
       <r>   10.9118   -0.0000 </r>
       <r>   20.3524    0.0000 </r>
       <r>   23.6743    0.0000 </r>
      </set>
      <set comment="kpoint 30">
       <r>    2.3992    1.0000 </r>
       <r>    4.5655    1.0000 </r>
       <r>    6.1086    1.0000 </r>
       <r>    7.4708   -0.0183 </r>
       <r>    9.8798   -0.0000 </r>
       <r>   10.9839   -0.0000 </r>
       <r>   21.0525    0.0000 </r>
       <r>   25.0970    0.0000 </r>
      </set>
      <set comment="kpoint 31">
       <r>    2.2378    1.0000 </r>
       <r>    5.0793    1.0000 </r>
       <r>    5.5333    1.0000 </r>
       <r>    8.0253   -0.0000 </r>
       <r>   12.3906   -0.0000 </r>
       <r>   12.7010   -0.0000 </r>
       <r>   18.1764    0.0000 </r>
       <r>   22.3228    0.0000 </r>
      </set>
      <set comment="kpoint 32">
       <r>    2.9202    1.0000 </r>
       <r>    4.2697    1.0000 </r>
       <r>    5.7319    1.0000 </r>
       <r>    8.1488   -0.0000 </r>
       <r>   10.7872   -0.0000 </r>
       <r>   13.1319    0.0000 </r>
       <r>   19.1241    0.0000 </r>
       <r>   22.7378    0.0000 </r>
      </set>
      <set comment="kpoint 33">
       <r>    2.8353    1.0000 </r>
       <r>    4.7338    1.0000 </r>
       <r>    5.2510    1.0000 </r>
       <r>    8.1729   -0.0000 </r>
       <r>   11.8429   -0.0000 </r>
       <r>   15.0343    0.0000 </r>
       <r>   17.0268    0.0000 </r>
       <r>   21.2933    0.0000 </r>
      </set>
      <set comment="kpoint 34">
       <r>    3.7473    1.0000 </r>
       <r>    3.7623    1.0000 </r>
       <r>    4.9959    1.0000 </r>
       <r>    9.4289   -0.0000 </r>
       <r>   10.6536   -0.0000 </r>
       <r>   15.9119    0.0000 </r>
       <r>   17.2252    0.0000 </r>
       <r>   20.0279    0.0000 </r>
      </set>
      <set comment="kpoint 35">
       <r>    4.5720    1.0000 </r>
       <r>    4.5720    1.0000 </r>
       <r>    4.5723    1.0000 </r>
       <r>   10.4712   -0.0000 </r>
       <r>   10.4712   -0.0000 </r>
       <r>   13.8153    0.0000 </r>
       <r>   19.4337    0.0000 </r>
       <r>   19.4342    0.0000 </r>
      </set>
      <set comment="kpoint 36">
       <r>    2.3471    1.0000 </r>
       <r>    4.7718    1.0000 </r>
       <r>    6.9295    1.0159 </r>
       <r>    6.9297    1.0159 </r>
       <r>    8.7366   -0.0000 </r>
       <r>   10.6916   -0.0000 </r>
       <r>   21.9880    0.0000 </r>
       <r>   26.4912    0.0000 </r>
      </set>
      <set comment="kpoint 37">
       <r>    3.0333    1.0000 </r>
       <r>    3.8570    1.0000 </r>
       <r>    6.9850    1.0283 </r>
       <r>    7.6407   -0.0147 </r>
       <r>   10.4426   -0.0000 </r>
       <r>   11.1920   -0.0000 </r>
       <r>   21.4066    0.0000 </r>
       <r>   23.9282    0.0000 </r>
      </set>
      <set comment="kpoint 38">
       <r>    2.8597    1.0000 </r>
       <r>    3.8581    1.0000 </r>
       <r>    6.8051    1.0019 </r>
       <r>    7.6113   -0.0209 </r>
       <r>   12.3990   -0.0000 </r>
       <r>   13.5688    0.0000 </r>
       <r>   18.2084    0.0000 </r>
       <r>   21.4689    0.0000 </r>
      </set>
      <set comment="kpoint 39">
       <r>    3.1537    1.0000 </r>
       <r>    3.2292    1.0000 </r>
       <r>    6.9067    1.0117 </r>
       <r>    8.9012   -0.0000 </r>
       <r>   10.9701   -0.0000 </r>
       <r>   13.3744    0.0000 </r>
       <r>   19.3984    0.0000 </r>
       <r>   21.1472    0.0000 </r>
      </set>
      <set comment="kpoint 40">
       <r>    2.8997    1.0000 </r>
       <r>    3.2590    1.0000 </r>
       <r>    6.6631    1.0001 </r>
       <r>    9.4533   -0.0000 </r>
       <r>   11.7277   -0.0000 </r>
       <r>   16.1282    0.0000 </r>
       <r>   16.6770    0.0000 </r>
       <r>   19.3405    0.0000 </r>
      </set>
      <set comment="kpoint 41">
       <r>    2.9462    1.0000 </r>
       <r>    2.9971    1.0000 </r>
       <r>    8.6964   -0.0000 </r>
       <r>    8.6967   -0.0000 </r>
       <r>   10.6338   -0.0000 </r>
       <r>   11.6738   -0.0000 </r>
       <r>   21.4782    0.0000 </r>
       <r>   21.4784    0.0000 </r>
      </set>
      <set comment="kpoint 42">
       <r>    2.4659    1.0000 </r>
       <r>    2.6704    1.0000 </r>
       <r>    9.1487   -0.0000 </r>
       <r>    9.2856   -0.0000 </r>
       <r>   12.1216   -0.0000 </r>
       <r>   14.0601    0.0000 </r>
       <r>   18.0127    0.0000 </r>
       <r>   19.1599    0.0000 </r>
      </set>
      <set comment="kpoint 43">
       <r>    2.3104    1.0000 </r>
       <r>    2.3104    1.0000 </r>
       <r>    9.1696   -0.0000 </r>
       <r>   11.5119   -0.0000 </r>
       <r>   11.5124   -0.0000 </r>
       <r>   16.5828    0.0000 </r>
       <r>   16.6555    0.0000 </r>
       <r>   16.6557    0.0000 </r>
      </set>
      <set comment="kpoint 44">
       <r>    1.9844    1.0000 </r>
       <r>    2.0428    1.0000 </r>
       <r>   11.4204   -0.0000 </r>
       <r>   11.4208   -0.0000 </r>
       <r>   12.0904   -0.0000 </r>
       <r>   14.8127    0.0000 </r>
       <r>   16.7776    0.0000 </r>
       <r>   16.7777    0.0000 </r>
      </set>
     </set>
    </set>
   </array>
  </eigenvalues>
  <separator name="orbital magnetization" >
   <v name="MAGDIPOLOUT">      0.00000000      0.00000000      0.00000000</v>
  </separator>
  <dos>
   <i name="efermi">      7.28206391 </i>
   <total>
    <array>
     <dimension dim="1">gridpoints</dimension>
     <dimension dim="2">spin</dimension>
     <field>energy</field>
     <field>total</field>
     <field>integrated</field>
     <set>
      <set comment="spin 1">
       <r>    -3.6894     0.0000     0.0000 </r>
       <r>    -3.5821     0.0000     0.0000 </r>
       <r>    -3.4748     0.0000     0.0000 </r>
       <r>    -3.3676    -0.0000    -0.0000 </r>
       <r>    -3.2603    -0.0000    -0.0000 </r>
       <r>    -3.1530    -0.0000    -0.0000 </r>
       <r>    -3.0458    -0.0000    -0.0000 </r>
       <r>    -2.9385    -0.0000    -0.0000 </r>
       <r>    -2.8312    -0.0000    -0.0000 </r>
       <r>    -2.7240    -0.0000    -0.0000 </r>
       <r>    -2.6167    -0.0000    -0.0000 </r>
       <r>    -2.5094    -0.0000    -0.0000 </r>
       <r>    -2.4022    -0.0000    -0.0000 </r>
       <r>    -2.2949    -0.0000    -0.0000 </r>
       <r>    -2.1876    -0.0001    -0.0000 </r>
       <r>    -2.0804    -0.0009    -0.0001 </r>
       <r>    -1.9731    -0.0024    -0.0004 </r>
       <r>    -1.8658     0.0026    -0.0001 </r>
       <r>    -1.7585     0.0260     0.0027 </r>
       <r>    -1.6513     0.0473     0.0078 </r>
       <r>    -1.5440     0.0316     0.0111 </r>
       <r>    -1.4367     0.0098     0.0122 </r>
       <r>    -1.3295     0.0297     0.0154 </r>
       <r>    -1.2222     0.0587     0.0217 </r>
       <r>    -1.1149     0.0384     0.0258 </r>
       <r>    -1.0077     0.0240     0.0284 </r>
       <r>    -0.9004     0.1068     0.0398 </r>
       <r>    -0.7931     0.1924     0.0605 </r>
       <r>    -0.6859     0.1339     0.0748 </r>
       <r>    -0.5786     0.0257     0.0776 </r>
       <r>    -0.4713    -0.0139     0.0761 </r>
       <r>    -0.3641    -0.0167     0.0743 </r>
       <r>    -0.2568     0.0119     0.0756 </r>
       <r>    -0.1495     0.1236     0.0889 </r>
       <r>    -0.0423     0.2263     0.1131 </r>
       <r>     0.0650     0.1701     0.1314 </r>
       <r>     0.1723     0.0960     0.1417 </r>
       <r>     0.2796     0.1546     0.1583 </r>
       <r>     0.3868     0.2212     0.1820 </r>
       <r>     0.4941     0.2305     0.2067 </r>
       <r>     0.6014     0.1805     0.2261 </r>
       <r>     0.7086     0.0679     0.2334 </r>
       <r>     0.8159    -0.0109     0.2322 </r>
       <r>     0.9232    -0.0359     0.2283 </r>
       <r>     1.0304     0.0072     0.2291 </r>
       <r>     1.1377     0.2385     0.2547 </r>
       <r>     1.2450     0.5274     0.3113 </r>
       <r>     1.3522     0.5742     0.3729 </r>
       <r>     1.4595     0.6087     0.4382 </r>
       <r>     1.5668     0.8062     0.5246 </r>
       <r>     1.6740     0.7244     0.6023 </r>
       <r>     1.7813     0.3067     0.6352 </r>
       <r>     1.8886     0.1469     0.6510 </r>
       <r>     1.9959     0.4601     0.7003 </r>
       <r>     2.1031     0.7863     0.7847 </r>
       <r>     2.2104     0.9920     0.8911 </r>
       <r>     2.3177     1.2365     1.0237 </r>
       <r>     2.4249     1.2048     1.1530 </r>
       <r>     2.5322     0.8183     1.2408 </r>
       <r>     2.6395     0.4875     1.2931 </r>
       <r>     2.7467     0.5310     1.3500 </r>
       <r>     2.8540     1.0838     1.4663 </r>
       <r>     2.9613     1.5918     1.6370 </r>
       <r>     3.0685     1.4219     1.7896 </r>
       <r>     3.1758     1.0718     1.9045 </r>
       <r>     3.2831     0.8898     2.0000 </r>
       <r>     3.3903     0.5599     2.0600 </r>
       <r>     3.4976     0.1629     2.0775 </r>
       <r>     3.6049     0.0711     2.0851 </r>
       <r>     3.7121     0.4104     2.1292 </r>
       <r>     3.8194     0.8131     2.2164 </r>
       <r>     3.9267     0.8455     2.3071 </r>
       <r>     4.0340     0.8313     2.3962 </r>
       <r>     4.1412     1.0840     2.5125 </r>
       <r>     4.2485     1.5221     2.6758 </r>
       <r>     4.3558     2.0697     2.8978 </r>
       <r>     4.4630     2.2514     3.1393 </r>
       <r>     4.5703     1.7997     3.3324 </r>
       <r>     4.6776     1.1461     3.4553 </r>
       <r>     4.7848     0.8774     3.5494 </r>
       <r>     4.8921     1.0101     3.6578 </r>
       <r>     4.9994     1.2796     3.7950 </r>
       <r>     5.1066     1.5229     3.9584 </r>
       <r>     5.2139     1.4605     4.1151 </r>
       <r>     5.3212     1.4336     4.2688 </r>
       <r>     5.4284     1.8680     4.4692 </r>
       <r>     5.5357     2.1280     4.6975 </r>
       <r>     5.6430     1.6580     4.8753 </r>
       <r>     5.7503     1.0791     4.9911 </r>
       <r>     5.8575     0.9746     5.0956 </r>
       <r>     5.9648     1.1066     5.2143 </r>
       <r>     6.0721     1.0267     5.3245 </r>
       <r>     6.1793     0.7014     5.3997 </r>
       <r>     6.2866     0.4739     5.4506 </r>
       <r>     6.3939     0.4964     5.5038 </r>
       <r>     6.5011     0.5561     5.5635 </r>
       <r>     6.6084     0.5557     5.6231 </r>
       <r>     6.7157     0.5301     5.6799 </r>
       <r>     6.8229     0.5137     5.7350 </r>
       <r>     6.9302     0.5710     5.7963 </r>
       <r>     7.0375     0.5999     5.8606 </r>
       <r>     7.1447     0.5941     5.9244 </r>
       <r>     7.2520     0.5665     5.9851 </r>
       <r>     7.3593     0.4431     6.0327 </r>
       <r>     7.4665     0.3707     6.0724 </r>
       <r>     7.5738     0.4400     6.1196 </r>
       <r>     7.6811     0.4639     6.1694 </r>
       <r>     7.7884     0.2959     6.2011 </r>
       <r>     7.8956     0.2194     6.2247 </r>
       <r>     8.0029     0.5176     6.2802 </r>
       <r>     8.1102     0.9221     6.3791 </r>
       <r>     8.2174     1.0528     6.4920 </r>
       <r>     8.3247     0.9173     6.5904 </r>
       <r>     8.4320     0.8009     6.6764 </r>
       <r>     8.5392     0.8600     6.7686 </r>
       <r>     8.6465     0.8560     6.8604 </r>
       <r>     8.7538     0.8198     6.9483 </r>
       <r>     8.8610     1.0004     7.0557 </r>
       <r>     8.9683     1.1824     7.1825 </r>
       <r>     9.0756     1.3241     7.3245 </r>
       <r>     9.1828     1.4204     7.4769 </r>
       <r>     9.2901     1.3562     7.6224 </r>
       <r>     9.3974     1.2603     7.7576 </r>
       <r>     9.5047     1.2461     7.8912 </r>
       <r>     9.6119     1.1691     8.0166 </r>
       <r>     9.7192     0.9167     8.1150 </r>
       <r>     9.8265     0.9419     8.2160 </r>
       <r>     9.9337     1.2120     8.3460 </r>
       <r>    10.0410     1.2294     8.4779 </r>
       <r>    10.1483     1.4430     8.6327 </r>
       <r>    10.2555     2.0888     8.8567 </r>
       <r>    10.3628     2.4634     9.1210 </r>
       <r>    10.4701     2.3600     9.3741 </r>
       <r>    10.5773     2.2410     9.6145 </r>
       <r>    10.6846     2.1221     9.8421 </r>
       <r>    10.7919     1.6050    10.0143 </r>
       <r>    10.8991     1.0444    10.1263 </r>
       <r>    11.0064     0.8009    10.2123 </r>
       <r>    11.1137     0.5967    10.2763 </r>
       <r>    11.2209     0.4203    10.3213 </r>
       <r>    11.3282     0.3478    10.3587 </r>
       <r>    11.4355     0.2723    10.3879 </r>
       <r>    11.5428     0.2185    10.4113 </r>
       <r>    11.6500     0.2413    10.4372 </r>
       <r>    11.7573     0.3323    10.4728 </r>
       <r>    11.8646     0.3360    10.5089 </r>
       <r>    11.9718     0.2234    10.5328 </r>
       <r>    12.0791     0.1901    10.5532 </r>
       <r>    12.1864     0.2195    10.5768 </r>
       <r>    12.2936     0.2493    10.6035 </r>
       <r>    12.4009     0.3306    10.6390 </r>
       <r>    12.5082     0.3129    10.6726 </r>
       <r>    12.6154     0.3872    10.7141 </r>
       <r>    12.7227     0.8376    10.8039 </r>
       <r>    12.8300     1.1820    10.9307 </r>
       <r>    12.9372     0.9932    11.0373 </r>
       <r>    13.0445     0.6125    11.1030 </r>
       <r>    13.1518     0.4266    11.1487 </r>
       <r>    13.2591     0.3231    11.1834 </r>
       <r>    13.3663     0.2358    11.2087 </r>
       <r>    13.4736     0.2318    11.2336 </r>
       <r>    13.5809     0.2395    11.2592 </r>
       <r>    13.6881     0.1966    11.2803 </r>
       <r>    13.7954     0.1338    11.2947 </r>
       <r>    13.9027     0.1541    11.3112 </r>
       <r>    14.0099     0.3081    11.3443 </r>
       <r>    14.1172     0.3736    11.3843 </r>
       <r>    14.2245     0.1916    11.4049 </r>
       <r>    14.3317     0.0072    11.4057 </r>
       <r>    14.4390    -0.0415    11.4012 </r>
       <r>    14.5463     0.0161    11.4030 </r>
       <r>    14.6535     0.2444    11.4292 </r>
       <r>    14.7608     0.5262    11.4856 </r>
       <r>    14.8681     0.5187    11.5413 </r>
       <r>    14.9753     0.2849    11.5718 </r>
       <r>    15.0826     0.1643    11.5894 </r>
       <r>    15.1899     0.3149    11.6232 </r>
       <r>    15.2972     0.7521    11.7039 </r>
       <r>    15.4044     0.9612    11.8070 </r>
       <r>    15.5117     0.5899    11.8703 </r>
       <r>    15.6190     0.1535    11.8868 </r>
       <r>    15.7262     0.0169    11.8886 </r>
       <r>    15.8335     0.0788    11.8970 </r>
       <r>    15.9408     0.1892    11.9173 </r>
       <r>    16.0480     0.2376    11.9428 </r>
       <r>    16.1553     0.2219    11.9666 </r>
       <r>    16.2626     0.1299    11.9805 </r>
       <r>    16.3698     0.0328    11.9841 </r>
       <r>    16.4771     0.0798    11.9926 </r>
       <r>    16.5844     0.2554    12.0200 </r>
       <r>    16.6916     0.4231    12.0654 </r>
       <r>    16.7989     0.6342    12.1334 </r>
       <r>    16.9062     1.0740    12.2486 </r>
       <r>    17.0135     1.3472    12.3931 </r>
       <r>    17.1207     0.9798    12.4983 </r>
       <r>    17.2280     0.4414    12.5456 </r>
       <r>    17.3353     0.2515    12.5726 </r>
       <r>    17.4425     0.2839    12.6030 </r>
       <r>    17.5498     0.3377    12.6392 </r>
       <r>    17.6571     0.2791    12.6692 </r>
       <r>    17.7643     0.0999    12.6799 </r>
       <r>    17.8716     0.0130    12.6813 </r>
       <r>    17.9789     0.1129    12.6934 </r>
       <r>    18.0861     0.3143    12.7271 </r>
       <r>    18.1934     0.5328    12.7843 </r>
       <r>    18.3007     0.5975    12.8484 </r>
       <r>    18.4079     0.3976    12.8910 </r>
       <r>    18.5152     0.1251    12.9044 </r>
       <r>    18.6225    -0.0168    12.9026 </r>
       <r>    18.7297     0.0399    12.9069 </r>
       <r>    18.8370     0.2581    12.9346 </r>
       <r>    18.9443     0.4574    12.9837 </r>
       <r>    19.0516     0.6578    13.0542 </r>
       <r>    19.1588     0.8801    13.1486 </r>
       <r>    19.2661     0.8070    13.2352 </r>
       <r>    19.3734     0.5442    13.2936 </r>
       <r>    19.4806     0.4084    13.3374 </r>
       <r>    19.5879     0.4937    13.3903 </r>
       <r>    19.6952     0.6890    13.4643 </r>
       <r>    19.8024     0.6797    13.5372 </r>
       <r>    19.9097     0.4956    13.5903 </r>
       <r>    20.0170     0.3401    13.6268 </r>
       <r>    20.1242     0.2664    13.6554 </r>
       <r>    20.2315     0.3439    13.6923 </r>
       <r>    20.3388     0.5305    13.7492 </r>
       <r>    20.4460     0.6285    13.8166 </r>
       <r>    20.5533     0.5576    13.8764 </r>
       <r>    20.6606     0.4143    13.9208 </r>
       <r>    20.7679     0.4292    13.9669 </r>
       <r>    20.8751     0.6175    14.0331 </r>
       <r>    20.9824     0.7767    14.1164 </r>
       <r>    21.0897     0.9445    14.2178 </r>
       <r>    21.1969     0.9691    14.3217 </r>
       <r>    21.3042     0.7203    14.3990 </r>
       <r>    21.4115     0.6943    14.4735 </r>
       <r>    21.5187     0.8964    14.5696 </r>
       <r>    21.6260     0.7370    14.6487 </r>
       <r>    21.7333     0.3850    14.6900 </r>
       <r>    21.8405     0.4208    14.7351 </r>
       <r>    21.9478     0.5495    14.7941 </r>
       <r>    22.0551     0.3968    14.8366 </r>
       <r>    22.1623     0.3520    14.8744 </r>
       <r>    22.2696     0.4698    14.9248 </r>
       <r>    22.3769     0.4162    14.9694 </r>
       <r>    22.4841     0.2962    15.0012 </r>
       <r>    22.5914     0.3699    15.0409 </r>
       <r>    22.6987     0.6052    15.1058 </r>
       <r>    22.8060     0.6979    15.1807 </r>
       <r>    22.9132     0.5028    15.2346 </r>
       <r>    23.0205     0.2573    15.2622 </r>
       <r>    23.1278     0.0949    15.2724 </r>
       <r>    23.2350     0.0025    15.2726 </r>
       <r>    23.3423     0.1046    15.2839 </r>
       <r>    23.4496     0.4159    15.3285 </r>
       <r>    23.5568     0.6397    15.3971 </r>
       <r>    23.6641     0.7322    15.4756 </r>
       <r>    23.7714     0.7977    15.5612 </r>
       <r>    23.8786     0.7059    15.6369 </r>
       <r>    23.9859     0.5117    15.6918 </r>
       <r>    24.0932     0.2643    15.7202 </r>
       <r>    24.2004     0.0412    15.7246 </r>
       <r>    24.3077     0.0344    15.7283 </r>
       <r>    24.4150     0.2434    15.7544 </r>
       <r>    24.5223     0.4251    15.8000 </r>
       <r>    24.6295     0.4068    15.8436 </r>
       <r>    24.7368     0.2526    15.8707 </r>
       <r>    24.8441     0.0871    15.8800 </r>
       <r>    24.9513     0.0591    15.8864 </r>
       <r>    25.0586     0.1750    15.9052 </r>
       <r>    25.1659     0.2165    15.9284 </r>
       <r>    25.2731     0.1003    15.9391 </r>
       <r>    25.3804     0.0313    15.9425 </r>
       <r>    25.4877     0.1186    15.9552 </r>
       <r>    25.5949     0.1911    15.9757 </r>
       <r>    25.7022     0.1141    15.9880 </r>
       <r>    25.8095     0.0150    15.9896 </r>
       <r>    25.9167    -0.0099    15.9885 </r>
       <r>    26.0240    -0.0043    15.9880 </r>
       <r>    26.1313    -0.0020    15.9878 </r>
       <r>    26.2385    -0.0024    15.9876 </r>
       <r>    26.3458     0.0074    15.9884 </r>
       <r>    26.4531     0.0348    15.9921 </r>
       <r>    26.5604     0.0483    15.9973 </r>
       <r>    26.6676     0.0262    16.0001 </r>
       <r>    26.7749     0.0026    16.0004 </r>
       <r>    26.8822    -0.0024    16.0001 </r>
       <r>    26.9894    -0.0009    16.0000 </r>
       <r>    27.0967    -0.0001    16.0000 </r>
       <r>    27.2040    -0.0000    16.0000 </r>
       <r>    27.3112    -0.0000    16.0000 </r>
       <r>    27.4185    -0.0000    16.0000 </r>
       <r>    27.5258    -0.0000    16.0000 </r>
       <r>    27.6330    -0.0000    16.0000 </r>
       <r>    27.7403    -0.0000    16.0000 </r>
       <r>    27.8476     0.0000    16.0000 </r>
       <r>    27.9548     0.0000    16.0000 </r>
       <r>    28.0621     0.0000    16.0000 </r>
       <r>    28.1694     0.0000    16.0000 </r>
       <r>    28.2767     0.0000    16.0000 </r>
       <r>    28.3839     0.0000    16.0000 </r>
       <r>    28.4912     0.0000    16.0000 </r>
      </set>
     </set>
    </array>
   </total>
  </dos>
 </calculation>
 <structure name="finalpos" >
  <crystal>
   <varray name="basis" >
    <v>      -1.60000000       1.60000000       1.60000000 </v>
    <v>       1.60000000      -1.60000000       1.60000000 </v>
    <v>       1.60000000       1.60000000      -1.60000000 </v>
   </varray>
   <i name="volume">     16.38400000 </i>
   <varray name="rec_basis" >
    <v>       0.00000000       0.31250000       0.31250000 </v>
    <v>       0.31250000       0.00000000       0.31250000 </v>
    <v>       0.31250000       0.31250000       0.00000000 </v>
   </varray>
  </crystal>
  <varray name="positions" >
   <v>       0.00000000       0.00000000       0.00000000 </v>
  </varray>
 </structure>
</modeling>
