BCC W                                   
           1
    -1.600000    1.600000    1.600000
     1.600000   -1.600000    1.600000
     1.600000    1.600000   -1.600000
   W 
   1
Direct configuration=     1
   0.00000000  0.00000000  0.00000000
