bcc Fe                                  
   2.60000000000000     
    -0.500000    0.500000    0.500000
     0.500000   -0.500000    0.500000
     0.500000    0.500000   -0.500000
   Fe
     1
Direct
  0.000000  0.000000  0.000000
 
   20   20   20
  74.050      70.412      60.597      47.298      33.524      21.583      12.771      7.4409      5.0717      4.4209    
  4.2651      4.4209      5.0717      7.4409      12.771      21.583      33.524      47.298      60.597      70.412    
  70.412      69.227      61.558      49.600      36.272      24.087      14.619      8.4924      5.4568      4.4832    
  4.2331      4.2854      4.6670      6.1783      10.168      17.431      27.929      40.728      53.918      64.753    
  60.597      61.558      56.516      46.957      35.371      24.188      15.108      8.9396      5.6578      4.4723    
  4.1428      4.0968      4.3337      5.1040      7.5869      12.792      21.014      31.704      43.426      53.918    
  47.298      49.600      46.957      40.174      31.120      21.885      14.087      8.6051      5.5604      4.3770    
  4.0094      3.8883      4.0266      4.4145      5.6349      8.7618      14.386      22.353      31.704      40.728    
  33.524      36.272      35.371      31.120      24.764      17.906      11.918      7.6160      5.1821      4.2029    
  3.8503      3.6887      3.7417      4.0048      4.5207      5.9986      9.2159      14.386      21.014      27.929    
  21.583      24.087      24.188      21.885      17.906      13.359      9.2794      6.3237      4.6615      3.9852    
  3.6810      3.5147      3.5120      3.6789      4.0035      4.5709      5.9986      8.7618      12.792      17.431    
  12.771      14.619      15.108      14.087      11.918      9.2794      6.8614      5.1219      4.1707      3.7633    
  3.5139      3.3711      3.3463      3.4419      3.6633      4.0035      4.5207      5.6349      7.5869      10.168    
  7.4409      8.4924      8.9396      8.6051      7.6160      6.3237      5.1219      4.2737      3.8139      3.5507    
  3.3614      3.2581      3.2387      3.2984      3.4419      3.6789      4.0048      4.4145      5.1040      6.1783    
  5.0717      5.4568      5.6578      5.5604      5.1821      4.6615      4.1707      3.8139      3.5634      3.3663    
  3.2370      3.1784      3.1822      3.2387      3.3463      3.5120      3.7417      4.0266      4.3337      4.6670    
  4.4209      4.4832      4.4723      4.3770      4.2029      3.9852      3.7633      3.5507      3.3663      3.2304    
  3.1548      3.1403      3.1784      3.2581      3.3711      3.5147      3.6887      3.8883      4.0968      4.2854    
  4.2651      4.2331      4.1428      4.0094      3.8503      3.6810      3.5139      3.3614      3.2370      3.1548    
  3.1260      3.1548      3.2370      3.3614      3.5139      3.6810      3.8503      4.0094      4.1428      4.2331    
  4.4209      4.2854      4.0968      3.8883      3.6887      3.5147      3.3711      3.2581      3.1784      3.1403    
  3.1548      3.2304      3.3663      3.5507      3.7633      3.9852      4.2029      4.3770      4.4723      4.4832    
  5.0717      4.6670      4.3337      4.0266      3.7417      3.5120      3.3463      3.2387      3.1822      3.1784    
  3.2370      3.3663      3.5634      3.8139      4.1707      4.6615      5.1821      5.5604      5.6578      5.4568    
  7.4409      6.1783      5.1040      4.4145      4.0048      3.6789      3.4419      3.2984      3.2387      3.2581    
  3.3614      3.5507      3.8139      4.2737      5.1219      6.3237      7.6160      8.6051      8.9396      8.4924    
  12.771      10.168      7.5869      5.6349      4.5207      4.0035      3.6633      3.4419      3.3463      3.3711    
  3.5139      3.7633      4.1707      5.1219      6.8614      9.2794      11.918      14.087      15.108      14.619    
  21.583      17.431      12.792      8.7618      5.9986      4.5709      4.0035      3.6789      3.5120      3.5147    
  3.6810      3.9852      4.6615      6.3237      9.2794      13.359      17.906      21.885      24.188      24.087    
  33.524      27.929      21.014      14.386      9.2159      5.9986      4.5207      4.0048      3.7417      3.6887    
  3.8503      4.2029      5.1821      7.6160      11.918      17.906      24.764      31.120      35.371      36.272    
  47.298      40.728      31.704      22.353      14.386      8.7618      5.6349      4.4145      4.0266      3.8883    
  4.0094      4.3770      5.5604      8.6051      14.087      21.885      31.120      40.174      46.957      49.600    
  60.597      53.918      43.426      31.704      21.014      12.792      7.5869      5.1040      4.3337      4.0968    
  4.1428      4.4723      5.6578      8.9396      15.108      24.188      35.371      46.957      56.516      61.558    
  70.412      64.753      53.918      40.728      27.929      17.431      10.168      6.1783      4.6670      4.2854    
  4.2331      4.4832      5.4568      8.4924      14.619      24.087      36.272      49.600      61.558      69.227    
  70.412      69.227      61.558      49.600      36.272      24.087      14.619      8.4924      5.4568      4.4832    
  4.2331      4.2854      4.6670      6.1783      10.168      17.431      27.929      40.728      53.918      64.753    
  69.227      70.412      64.751      53.916      40.727      27.929      17.431      10.169      6.1784      4.6670    
  4.2854      4.2331      4.4832      5.4568      8.4924      14.619      24.087      36.273      49.601      61.559    
  61.558      64.751      61.557      52.934      41.248      29.162      18.746      11.165      6.6964      4.7947    
  4.2702      4.1228      4.2702      4.7946      6.6963      11.165      18.746      29.162      41.249      52.936    
  49.600      53.916      52.934      46.957      37.692      27.426      18.153      11.126      6.7854      4.7975    
  4.1909      3.9741      4.0232      4.3281      5.2720      7.9903      13.278      21.213      31.056      41.249    
  36.272      40.727      41.248      37.692      31.121      23.278      15.869      10.074      6.3927      4.6414    
  4.0603      3.8092      3.7794      3.9824      4.4203      5.7227      8.8085      14.077      21.212      29.162    
  24.087      27.929      29.162      27.426      23.278      17.906      12.614      8.3823      5.6665      4.3651    
  3.8951      3.6451      3.5689      3.6823      3.9750      4.5011      5.9067      8.8084      13.278      18.746    
  14.619      17.431      18.746      18.153      15.869      12.614      9.2794      6.5807      4.8652      4.0561    
  3.7121      3.4923      3.4038      3.4545      3.6481      3.9759      4.5011      5.7226      7.9901      11.165    
  8.4924      10.169      11.165      11.126      10.074      8.3823      6.5807      5.1218      4.2185      3.7863    
  3.5287      3.3566      3.2825      3.3041      3.4231      3.6481      3.9750      4.4203      5.2720      6.6963    
  5.4568      6.1784      6.6964      6.7854      6.3927      5.6665      4.8652      4.2185      3.8138      3.5570    
  3.3631      3.2446      3.2005      3.2216      3.3041      3.4545      3.6823      3.9824      4.3281      4.7946    
  4.4832      4.6670      4.7947      4.7975      4.6414      4.3651      4.0561      3.7863      3.5570      3.3663    
  3.2337      3.1663      3.1589      3.2005      3.2825      3.4038      3.5689      3.7794      4.0232      4.2702    
  4.2331      4.2854      4.2702      4.1909      4.0603      3.8951      3.7121      3.5287      3.3631      3.2337    
  3.1548      3.1332      3.1663      3.2446      3.3566      3.4923      3.6452      3.8092      3.9741      4.1228    
  4.2854      4.2331      4.1228      3.9741      3.8092      3.6451      3.4923      3.3566      3.2446      3.1663    
  3.1332      3.1548      3.2337      3.3631      3.5288      3.7122      3.8951      4.0603      4.1909      4.2702    
  4.6670      4.4832      4.2702      4.0232      3.7794      3.5689      3.4038      3.2825      3.2005      3.1589    
  3.1663      3.2337      3.3663      3.5570      3.7864      4.0563      4.3652      4.6414      4.7975      4.7946    
  6.1783      5.4568      4.7946      4.3281      3.9824      3.6823      3.4545      3.3041      3.2216      3.2005    
  3.2446      3.3631      3.5570      3.8139      4.2186      4.8654      5.6665      6.3926      6.7852      6.6963    
  10.168      8.4924      6.6963      5.2720      4.4203      3.9750      3.6481      3.4231      3.3041      3.2825    
  3.3566      3.5288      3.7864      4.2186      5.1219      6.5807      8.3821      10.074      11.126      11.165    
  17.431      14.619      11.165      7.9903      5.7227      4.5011      3.9759      3.6481      3.4545      3.4038    
  3.4923      3.7122      4.0563      4.8654      6.5807      9.2792      12.614      15.868      18.153      18.746    
  27.929      24.087      18.746      13.278      8.8085      5.9067      4.5011      3.9750      3.6823      3.5689    
  3.6452      3.8951      4.3652      5.6665      8.3821      12.614      17.906      23.277      27.426      29.162    
  40.728      36.273      29.162      21.213      14.077      8.8084      5.7226      4.4203      3.9824      3.7794    
  3.8092      4.0603      4.6414      6.3926      10.074      15.868      23.277      31.120      37.692      41.249    
  53.918      49.601      41.249      31.056      21.212      13.278      7.9901      5.2720      4.3281      4.0232    
  3.9741      4.1909      4.7975      6.7852      11.126      18.153      27.426      37.692      46.957      52.936    
  64.753      61.559      52.936      41.249      29.162      18.746      11.165      6.6963      4.7946      4.2702    
  4.1228      4.2702      4.7946      6.6963      11.165      18.746      29.162      41.249      52.936      61.559    
  60.597      61.558      56.516      46.957      35.371      24.188      15.108      8.9396      5.6578      4.4723    
  4.1428      4.0968      4.3337      5.1040      7.5869      12.792      21.014      31.704      43.426      53.918    
  61.558      64.751      61.557      52.934      41.248      29.162      18.746      11.165      6.6964      4.7947    
  4.2702      4.1228      4.2702      4.7946      6.6963      11.165      18.746      29.162      41.249      52.936    
  56.516      61.557      60.595      53.916      43.425      31.704      21.014      12.793      7.5871      5.1041    
  4.3337      4.0968      4.1429      4.4723      5.6577      8.9396      15.108      24.189      35.372      46.957    
  46.957      52.934      53.916      49.599      41.249      31.056      21.213      13.279      7.9904      5.2721    
  4.3281      4.0232      3.9741      4.1909      4.7975      6.7852      11.126      18.153      27.426      37.692    
  35.371      41.248      43.425      41.249      35.372      27.427      19.293      12.462      7.7403      5.2016    
  4.2513      3.9129      3.7923      3.9129      4.2513      5.2016      7.7402      12.462      19.292      27.426    
  24.188      29.162      31.704      31.056      27.427      21.886      15.869      10.634      6.9313      4.9016    
  4.1090      3.7790      3.6208      3.6610      3.8956      4.3243      5.4835      8.1116      12.462      18.153    
  15.108      18.746      21.014      21.213      19.293      15.869      11.918      8.3820      5.8596      4.4832    
  3.9266      3.6336      3.4721      3.4616      3.6053      3.8958      4.3593      5.4835      7.7401      11.126    
  8.9396      11.165      12.793      13.279      12.462      10.634      8.3820      6.3233      4.8650      4.0859    
  3.7291      3.4874      3.3494      3.3201      3.3990      3.5916      3.8958      4.3243      5.2016      6.7852    
  5.6578      6.6964      7.5871      7.9904      7.7403      6.9313      5.8596      4.8650      4.1705      3.7863    
  3.5337      3.3519      3.2523      3.2295      3.2772      3.3990      3.6053      3.8956      4.2513      4.7975    
  4.4723      4.7947      5.1041      5.2721      5.2016      4.9016      4.4832      4.0859      3.7863      3.5507    
  3.3632      3.2403      3.1836      3.1833      3.2295      3.3201      3.4616      3.6610      3.9129      4.1909    
  4.1428      4.2702      4.3337      4.3281      4.2513      4.1090      3.9266      3.7291      3.5337      3.3632    
  3.2370      3.1663      3.1512      3.1836      3.2523      3.3494      3.4721      3.6208      3.7923      3.9741    
  4.0968      4.1228      4.0968      4.0232      3.9129      3.7790      3.6336      3.4874      3.3519      3.2403    
  3.1663      3.1403      3.1663      3.2403      3.3519      3.4875      3.6337      3.7791      3.9129      4.0232    
  4.3337      4.2702      4.1429      3.9741      3.7923      3.6208      3.4721      3.3494      3.2523      3.1836    
  3.1512      3.1663      3.2370      3.3631      3.5337      3.7292      3.9267      4.1091      4.2513      4.3281    
  5.1040      4.7946      4.4723      4.1909      3.9129      3.6610      3.4616      3.3201      3.2295      3.1833    
  3.1836      3.2403      3.3631      3.5507      3.7864      4.0861      4.4834      4.9018      5.2016      5.2720    
  7.5869      6.6963      5.6577      4.7975      4.2513      3.8956      3.6053      3.3990      3.2772      3.2295    
  3.2523      3.3519      3.5337      3.7864      4.1708      4.8653      5.8598      6.9313      7.7401      7.9901    
  12.792      11.165      8.9396      6.7852      5.2016      4.3243      3.8958      3.5916      3.3990      3.3201    
  3.3494      3.4875      3.7292      4.0861      4.8653      6.3235      8.3820      10.633      12.462      13.278    
  21.014      18.746      15.108      11.126      7.7402      5.4835      4.3593      3.8958      3.6053      3.4616    
  3.4721      3.6337      3.9267      4.4834      5.8598      8.3820      11.918      15.868      19.292      21.212    
  31.704      29.162      24.189      18.153      12.462      8.1116      5.4835      4.3243      3.8956      3.6610    
  3.6208      3.7791      4.1091      4.9018      6.9313      10.633      15.868      21.885      27.426      31.056    
  43.426      41.249      35.372      27.426      19.292      12.462      7.7401      5.2016      4.2513      3.9129    
  3.7923      3.9129      4.2513      5.2016      7.7401      12.462      19.292      27.426      35.372      41.249    
  53.918      52.936      46.957      37.692      27.426      18.153      11.126      6.7852      4.7975      4.1909    
  3.9741      4.0232      4.3281      5.2720      7.9901      13.278      21.212      31.056      41.249      49.601    
  47.298      49.600      46.957      40.174      31.120      21.885      14.087      8.6051      5.5604      4.3770    
  4.0094      3.8883      4.0266      4.4145      5.6349      8.7618      14.386      22.353      31.704      40.728    
  49.600      53.916      52.934      46.957      37.692      27.426      18.153      11.126      6.7854      4.7975    
  4.1909      3.9741      4.0232      4.3281      5.2720      7.9903      13.278      21.213      31.056      41.249    
  46.957      52.934      53.916      49.599      41.249      31.056      21.213      13.279      7.9904      5.2721    
  4.3281      4.0232      3.9741      4.1909      4.7975      6.7852      11.126      18.153      27.426      37.692    
  40.174      46.957      49.599      47.298      40.729      31.705      22.354      14.386      8.7620      5.6349    
  4.4145      4.0265      3.8883      4.0094      4.3770      5.5603      8.6050      14.087      21.885      31.120    
  31.120      37.692      41.249      40.729      36.274      29.163      21.213      14.077      8.8083      5.7225    
  4.4201      3.9823      3.7794      3.8092      4.0603      4.6414      6.3926      10.074      15.868      23.277    
  21.885      27.426      31.056      31.705      29.163      24.190      18.153      12.462      8.1113      5.4832    
  4.3241      3.8955      3.6610      3.6208      3.7791      4.1091      4.9018      6.9313      10.633      15.868    
  14.087      18.153      21.213      22.354      21.213      18.153      14.087      10.074      6.9309      5.0104    
  4.1472      3.7754      3.5430      3.4638      3.5430      3.7755      4.1474      5.0107      6.9313      10.074    
  8.6051      11.126      13.279      14.386      14.077      12.462      10.074      7.6153      5.6660      4.4832    
  3.9386      3.6344      3.4311      3.3438      3.3714      3.5159      3.7771      4.1474      4.9018      6.3926    
  5.5604      6.7854      7.9904      8.7620      8.8083      8.1113      6.9309      5.6660      4.6612      4.0561    
  3.7292      3.4875      3.3294      3.2572      3.2630      3.3463      3.5159      3.7755      4.1091      4.6414    
  4.3770      4.7975      5.2721      5.6349      5.7225      5.4832      5.0104      4.4832      4.0561      3.7633    
  3.5289      3.3520      3.2439      3.1994      3.2075      3.2630      3.3714      3.5430      3.7791      4.0603    
  4.0094      4.1909      4.3281      4.4145      4.4201      4.3241      4.1472      3.9386      3.7292      3.5289    
  3.3615      3.2447      3.1836      3.1721      3.1994      3.2572      3.3438      3.4638      3.6208      3.8092    
  3.8883      3.9741      4.0232      4.0265      3.9823      3.8955      3.7754      3.6344      3.4875      3.3520    
  3.2447      3.1785      3.1589      3.1836      3.2439      3.3294      3.4311      3.5430      3.6610      3.7794    
  4.0266      4.0232      3.9741      3.8883      3.7794      3.6610      3.5430      3.4311      3.3294      3.2439    
  3.1836      3.1589      3.1785      3.2446      3.3519      3.4875      3.6344      3.7755      3.8956      3.9824    
  4.4145      4.3281      4.1909      4.0094      3.8092      3.6208      3.4638      3.3438      3.2572      3.1994    
  3.1721      3.1836      3.2446      3.3614      3.5288      3.7291      3.9386      4.1474      4.3243      4.4203    
  5.6349      5.2720      4.7975      4.3770      4.0603      3.7791      3.5430      3.3714      3.2630      3.2075    
  3.1994      3.2439      3.3519      3.5288      3.7633      4.0562      4.4834      5.0107      5.4835      5.7226    
  8.7618      7.9903      6.7852      5.5603      4.6414      4.1091      3.7755      3.5159      3.3463      3.2630    
  3.2572      3.3294      3.4875      3.7291      4.0562      4.6614      5.6664      6.9313      8.1116      8.8084    
  14.386      13.278      11.126      8.6050      6.3926      4.9018      4.1474      3.7771      3.5159      3.3714    
  3.3438      3.4311      3.6344      3.9386      4.4834      5.6664      7.6158      10.074      12.462      14.077    
  22.353      21.213      18.153      14.087      10.074      6.9313      5.0107      4.1474      3.7755      3.5430    
  3.4638      3.5430      3.7755      4.1474      5.0107      6.9313      10.074      14.087      18.153      21.213    
  31.704      31.056      27.426      21.885      15.868      10.633      6.9313      4.9018      4.1091      3.7791    
  3.6208      3.6610      3.8956      4.3243      5.4835      8.1116      12.462      18.153      24.189      29.162    
  40.728      41.249      37.692      31.120      23.277      15.868      10.074      6.3926      4.6414      4.0603    
  3.8092      3.7794      3.9824      4.4203      5.7226      8.8084      14.077      21.213      29.162      36.273    
  33.524      36.272      35.371      31.120      24.764      17.906      11.918      7.6160      5.1821      4.2029    
  3.8503      3.6887      3.7417      4.0048      4.5207      5.9986      9.2159      14.386      21.014      27.929    
  36.272      40.727      41.248      37.692      31.121      23.278      15.869      10.074      6.3927      4.6414    
  4.0603      3.8092      3.7794      3.9824      4.4203      5.7227      8.8085      14.077      21.212      29.162    
  35.371      41.248      43.425      41.249      35.372      27.427      19.293      12.462      7.7403      5.2016    
  4.2513      3.9129      3.7923      3.9129      4.2513      5.2016      7.7402      12.462      19.292      27.426    
  31.120      37.692      41.249      40.729      36.274      29.163      21.213      14.077      8.8083      5.7225    
  4.4201      3.9823      3.7794      3.8092      4.0603      4.6414      6.3926      10.074      15.868      23.277    
  24.764      31.121      35.372      36.274      33.525      27.930      21.014      14.385      9.2155      5.9982    
  4.5204      4.0047      3.7417      3.6887      3.8503      4.2028      5.1820      7.6158      11.918      17.906    
  17.906      23.278      27.427      29.163      27.930      24.088      18.746      13.278      8.8078      5.9062    
  4.5009      3.9749      3.6823      3.5689      3.6451      3.8951      4.3651      5.6664      8.3820      12.614    
  11.918      15.869      19.293      21.213      21.014      18.746      15.107      11.125      7.7395      5.4831    
  4.3592      3.8958      3.6053      3.4616      3.4721      3.6336      3.9267      4.4834      5.8598      8.3821    
  7.6160      10.074      12.462      14.077      14.385      13.278      11.125      8.6043      6.3921      4.9016    
  4.1474      3.7772      3.5160      3.3715      3.3438      3.4310      3.6344      3.9386      4.4834      5.6665    
  5.1821      6.3927      7.7403      8.8083      9.2155      8.8078      7.7395      6.3921      5.1818      4.3652    
  3.9269      3.6346      3.4210      3.2980      3.2587      3.2979      3.4209      3.6344      3.9267      4.3652    
  4.2029      4.6414      5.2016      5.7225      5.9982      5.9062      5.4831      4.9016      4.3652      3.9855    
  3.7125      3.4876      3.3295      3.2399      3.2086      3.2273      3.2979      3.4311      3.6337      3.8951    
  3.8503      4.0603      4.2513      4.4201      4.5204      4.5009      4.3592      4.1474      3.9269      3.7125    
  3.5142      3.3567      3.2523      3.1994      3.1880      3.2086      3.2587      3.3438      3.4721      3.6452    
  3.6887      3.8092      3.9129      3.9823      4.0047      3.9749      3.8958      3.7772      3.6346      3.4876    
  3.3567      3.2581      3.2005      3.1833      3.1994      3.2399      3.2979      3.3714      3.4616      3.5689    
  3.7417      3.7794      3.7923      3.7794      3.7417      3.6823      3.6053      3.5160      3.4210      3.3295    
  3.2523      3.2005      3.1822      3.2005      3.2523      3.3294      3.4209      3.5159      3.6053      3.6823    
  4.0048      3.9824      3.9129      3.8092      3.6887      3.5689      3.4616      3.3715      3.2980      3.2399    
  3.1994      3.1833      3.2005      3.2581      3.3566      3.4874      3.6344      3.7771      3.8958      3.9750    
  4.5207      4.4203      4.2513      4.0603      3.8503      3.6451      3.4721      3.3438      3.2587      3.2086    
  3.1880      3.1994      3.2523      3.3566      3.5140      3.7122      3.9267      4.1474      4.3593      4.5011    
  5.9986      5.7227      5.2016      4.6414      4.2028      3.8951      3.6336      3.4310      3.2979      3.2273    
  3.2086      3.2399      3.3294      3.4874      3.7122      3.9852      4.3651      4.9018      5.4835      5.9067    
  9.2159      8.8085      7.7402      6.3926      5.1820      4.3651      3.9267      3.6344      3.4209      3.2979    
  3.2587      3.2979      3.4209      3.6344      3.9267      4.3651      5.1820      6.3926      7.7402      8.8085    
  14.386      14.077      12.462      10.074      7.6158      5.6664      4.4834      3.9386      3.6344      3.4311    
  3.3438      3.3714      3.5159      3.7771      4.1474      4.9018      6.3926      8.6050      11.126      13.278    
  21.014      21.212      19.292      15.868      11.918      8.3820      5.8598      4.4834      3.9267      3.6337    
  3.4721      3.4616      3.6053      3.8958      4.3593      5.4835      7.7402      11.126      15.108      18.746    
  27.929      29.162      27.426      23.277      17.906      12.614      8.3821      5.6665      4.3652      3.8951    
  3.6452      3.5689      3.6823      3.9750      4.5011      5.9067      8.8085      13.278      18.746      24.087    
  21.583      24.087      24.188      21.885      17.906      13.359      9.2794      6.3237      4.6615      3.9852    
  3.6810      3.5147      3.5120      3.6789      4.0035      4.5709      5.9986      8.7618      12.792      17.431    
  24.087      27.929      29.162      27.426      23.278      17.906      12.614      8.3823      5.6665      4.3651    
  3.8951      3.6451      3.5689      3.6823      3.9750      4.5011      5.9067      8.8084      13.278      18.746    
  24.188      29.162      31.704      31.056      27.427      21.886      15.869      10.634      6.9313      4.9016    
  4.1090      3.7790      3.6208      3.6610      3.8956      4.3243      5.4835      8.1116      12.462      18.153    
  21.885      27.426      31.056      31.705      29.163      24.190      18.153      12.462      8.1113      5.4832    
  4.3241      3.8955      3.6610      3.6208      3.7791      4.1091      4.9018      6.9313      10.633      15.868    
  17.906      23.278      27.427      29.163      27.930      24.088      18.746      13.278      8.8078      5.9062    
  4.5009      3.9749      3.6823      3.5689      3.6451      3.8951      4.3651      5.6664      8.3820      12.614    
  13.359      17.906      21.886      24.190      24.088      21.583      17.430      12.792      8.7610      5.9981    
  4.5707      4.0036      3.6789      3.5120      3.5147      3.6810      3.9852      4.6614      6.3235      9.2792    
  9.2794      12.614      15.869      18.153      18.746      17.430      14.618      11.164      7.9895      5.7224    
  4.5012      3.9761      3.6482      3.4546      3.4038      3.4923      3.7122      4.0562      4.8653      6.5807    
  6.3237      8.3823      10.634      12.462      13.278      12.792      11.164      8.9387      6.7848      5.2017    
  4.3246      3.8961      3.5918      3.3991      3.3201      3.3494      3.4874      3.7291      4.0861      4.8654    
  4.6615      5.6665      6.9313      8.1113      8.8078      8.7610      7.9895      6.7848      5.5603      4.6418    
  4.1096      3.7758      3.5161      3.3463      3.2630      3.2571      3.3294      3.4875      3.7292      4.0563    
  3.9852      4.3651      4.9016      5.4832      5.9062      5.9981      5.7224      5.2017      4.6418      4.2034    
  3.8956      3.6339      3.4311      3.2979      3.2272      3.2086      3.2399      3.3294      3.4875      3.7122    
  3.6810      3.8951      4.1090      4.3241      4.5009      4.5707      4.5012      4.3246      4.1096      3.8956    
  3.6813      3.4924      3.3494      3.2571      3.2086      3.1939      3.2086      3.2572      3.3494      3.4923    
  3.5147      3.6451      3.7790      3.8955      3.9749      4.0036      3.9761      3.8961      3.7758      3.6339    
  3.4924      3.3710      3.2824      3.2294      3.2075      3.2086      3.2273      3.2630      3.3201      3.4038    
  3.5120      3.5689      3.6208      3.6610      3.6823      3.6789      3.6482      3.5918      3.5161      3.4311    
  3.3494      3.2824      3.2386      3.2216      3.2295      3.2571      3.2979      3.3463      3.3990      3.4545    
  3.6789      3.6823      3.6610      3.6208      3.5689      3.5120      3.4546      3.3991      3.3463      3.2979    
  3.2571      3.2294      3.2216      3.2387      3.2825      3.3494      3.4310      3.5159      3.5916      3.6481    
  4.0035      3.9750      3.8956      3.7791      3.6451      3.5147      3.4038      3.3201      3.2630      3.2272    
  3.2086      3.2075      3.2295      3.2825      3.3711      3.4923      3.6336      3.7755      3.8958      3.9759    
  4.5709      4.5011      4.3243      4.1091      3.8951      3.6810      3.4923      3.3494      3.2571      3.2086    
  3.1939      3.2086      3.2571      3.3494      3.4923      3.6810      3.8951      4.1091      4.3243      4.5011    
  5.9986      5.9067      5.4835      4.9018      4.3651      3.9852      3.7122      3.4874      3.3294      3.2399    
  3.2086      3.2273      3.2979      3.4310      3.6336      3.8951      4.2028      4.6414      5.2016      5.7227    
  8.7618      8.8084      8.1116      6.9313      5.6664      4.6614      4.0562      3.7291      3.4875      3.3294    
  3.2572      3.2630      3.3463      3.5159      3.7755      4.1091      4.6414      5.5603      6.7852      7.9903    
  12.792      13.278      12.462      10.633      8.3820      6.3235      4.8653      4.0861      3.7292      3.4875    
  3.3494      3.3201      3.3990      3.5916      3.8958      4.3243      5.2016      6.7852      8.9396      11.165    
  17.431      18.746      18.153      15.868      12.614      9.2792      6.5807      4.8654      4.0563      3.7122    
  3.4923      3.4038      3.4545      3.6481      3.9759      4.5011      5.7227      7.9903      11.165      14.619    
  12.771      14.619      15.108      14.087      11.918      9.2794      6.8614      5.1219      4.1707      3.7633    
  3.5139      3.3711      3.3463      3.4419      3.6633      4.0035      4.5207      5.6349      7.5869      10.168    
  14.619      17.431      18.746      18.153      15.869      12.614      9.2794      6.5807      4.8652      4.0561    
  3.7121      3.4923      3.4038      3.4545      3.6481      3.9759      4.5011      5.7226      7.9901      11.165    
  15.108      18.746      21.014      21.213      19.293      15.869      11.918      8.3820      5.8596      4.4832    