bcc Fe                                  
   2.60000000000000     
    -0.500000    0.500000    0.500000
     0.500000   -0.500000    0.500000
     0.500000    0.500000   -0.500000
   Fe
     1
Direct
  0.000000  0.000000  0.000000
 
   20   20   20
 0.74050226048E+02 0.70412414191E+02 0.60596672032E+02 0.47297965143E+02 0.33523885795E+02
 0.21583003780E+02 0.12771134895E+02 0.74408924791E+01 0.50716818419E+01 0.44209101902E+01
 0.42650977379E+01 0.44209101902E+01 0.50716818419E+01 0.74408924791E+01 0.12771134895E+02
 0.21583003780E+02 0.33523885795E+02 0.47297965143E+02 0.60596672032E+02 0.70412414191E+02
 0.70412414191E+02 0.69227026113E+02 0.61558139605E+02 0.49599536014E+02 0.36272141661E+02
 0.24086703779E+02 0.14618733717E+02 0.84924044197E+01 0.54568420505E+01 0.44831869347E+01
 0.42330513709E+01 0.42853596782E+01 0.46669698823E+01 0.61782604032E+01 0.10168460467E+02
 0.17430880270E+02 0.27929183287E+02 0.40728368963E+02 0.53917755528E+02 0.64752914088E+02
 0.60596672032E+02 0.61558139605E+02 0.56516210469E+02 0.46956663993E+02 0.35370700491E+02
 0.24188497742E+02 0.15107526144E+02 0.89395562674E+01 0.56577876145E+01 0.44722695742E+01
 0.41428432416E+01 0.40968071269E+01 0.43336887976E+01 0.51040430285E+01 0.75868544222E+01
 0.12792426901E+02 0.21013929165E+02 0.31704405921E+02 0.43426188473E+02 0.53917755528E+02
 0.47297965143E+02 0.49599536014E+02 0.46956663993E+02 0.40173770085E+02 0.31120148762E+02
 0.21884844794E+02 0.14087205512E+02 0.86051327826E+01 0.55603525466E+01 0.43769940505E+01
 0.40093887512E+01 0.38883123263E+01 0.40265578309E+01 0.44145427122E+01 0.56349195636E+01
 0.87618448206E+01 0.14385639127E+02 0.22353070698E+02 0.31704405921E+02 0.40728368963E+02
 0.33523885795E+02 0.36272141661E+02 0.35370700491E+02 0.31120148762E+02 0.24763722360E+02
 0.17906038262E+02 0.11918327914E+02 0.76160090099E+01 0.51821376060E+01 0.42028567269E+01
 0.38502963603E+01 0.36887287341E+01 0.37417041337E+01 0.40048244321E+01 0.45206514486E+01
 0.59985823513E+01 0.92159279665E+01 0.14385639127E+02 0.21013929165E+02 0.27929183287E+02
 0.21583003780E+02 0.24086703779E+02 0.24188497742E+02 0.21884844794E+02 0.17906038262E+02
 0.13359383266E+02 0.92794006401E+01 0.63236610058E+01 0.46614860903E+01 0.39852369673E+01
 0.36809635668E+01 0.35146628038E+01 0.35119588563E+01 0.36788618490E+01 0.40035487263E+01
 0.45708545935E+01 0.59985823513E+01 0.87618448206E+01 0.12792426901E+02 0.17430880270E+02
 0.12771134895E+02 0.14618733717E+02 0.15107526144E+02 0.14087205512E+02 0.11918327914E+02
 0.92794006401E+01 0.68613539881E+01 0.51219233921E+01 0.41707416235E+01 0.37632660341E+01
 0.35139459263E+01 0.33710650793E+01 0.33463401857E+01 0.34418726243E+01 0.36633172504E+01
 0.40035487263E+01 0.45206514486E+01 0.56349195636E+01 0.75868544222E+01 0.10168460467E+02
 0.74408924791E+01 0.84924044197E+01 0.89395562674E+01 0.86051327826E+01 0.76160090099E+01
 0.63236610058E+01 0.51219233921E+01 0.42736734492E+01 0.38138596234E+01 0.35507033870E+01
 0.33613870045E+01 0.32581052302E+01 0.32387443374E+01 0.32984257807E+01 0.34418726243E+01
 0.36788618490E+01 0.40048244321E+01 0.44145427122E+01 0.51040430285E+01 0.61782604032E+01
 0.50716818419E+01 0.54568420505E+01 0.56577876145E+01 0.55603525466E+01 0.51821376060E+01
 0.46614860903E+01 0.41707416235E+01 0.38138596234E+01 0.35633650116E+01 0.33663251274E+01
 0.32369529986E+01 0.31784460725E+01 0.31822401007E+01 0.32387443374E+01 0.33463401857E+01
 0.35119588563E+01 0.37417041337E+01 0.40265578309E+01 0.43336887976E+01 0.46669698823E+01
 0.44209101902E+01 0.44831869347E+01 0.44722695742E+01 0.43769940505E+01 0.42028567269E+01
 0.39852369673E+01 0.37632660341E+01 0.35507033870E+01 0.33663251274E+01 0.32303866837E+01
 0.31548069054E+01 0.31402610569E+01 0.31784460725E+01 0.32581052302E+01 0.33710650793E+01
 0.35146628038E+01 0.36887287341E+01 0.38883123263E+01 0.40968071269E+01 0.42853596782E+01
 0.42650977379E+01 0.42330513709E+01 0.41428432416E+01 0.40093887512E+01 0.38502963603E+01
 0.36809635668E+01 0.35139459263E+01 0.33613870045E+01 0.32369529986E+01 0.31548069054E+01
 0.31260204063E+01 0.31548069054E+01 0.32369529986E+01 0.33613870045E+01 0.35139459263E+01
 0.36809635668E+01 0.38502963603E+01 0.40093887512E+01 0.41428432416E+01 0.42330513709E+01
 0.44209101902E+01 0.42853596782E+01 0.40968071269E+01 0.38883123263E+01 0.36887287341E+01
 0.35146628038E+01 0.33710650793E+01 0.32581052302E+01 0.31784460725E+01 0.31402610569E+01
 0.31548069054E+01 0.32303866837E+01 0.33663251274E+01 0.35507033870E+01 0.37632660341E+01
 0.39852369673E+01 0.42028567269E+01 0.43769940505E+01 0.44722695742E+01 0.44831869347E+01
 0.50716818419E+01 0.46669698823E+01 0.43336887976E+01 0.40265578309E+01 0.37417041337E+01
 0.35119588563E+01 0.33463401857E+01 0.32387443374E+01 0.31822401007E+01 0.31784460725E+01
 0.32369529986E+01 0.33663251274E+01 0.35633650116E+01 0.38138596234E+01 0.41707416235E+01
 0.46614860903E+01 0.51821376060E+01 0.55603525466E+01 0.56577876145E+01 0.54568420505E+01
 0.74408924791E+01 0.61782604032E+01 0.51040430285E+01 0.44145427122E+01 0.40048244321E+01
 0.36788618490E+01 0.34418726243E+01 0.32984257807E+01 0.32387443374E+01 0.32581052302E+01
 0.33613870045E+01 0.35507033870E+01 0.38138596234E+01 0.42736734492E+01 0.51219233921E+01
 0.63236610058E+01 0.76160090099E+01 0.86051327826E+01 0.89395562674E+01 0.84924044197E+01
 0.12771134895E+02 0.10168460467E+02 0.75868544222E+01 0.56349195636E+01 0.45206514486E+01
 0.40035487263E+01 0.36633172504E+01 0.34418726243E+01 0.33463401857E+01 0.33710650793E+01
 0.35139459263E+01 0.37632660341E+01 0.41707416235E+01 0.51219233921E+01 0.68613539881E+01
 0.92794006401E+01 0.11918327914E+02 0.14087205512E+02 0.15107526144E+02 0.14618733717E+02
 0.21583003780E+02 0.17430880270E+02 0.12792426901E+02 0.87618448206E+01 0.59985823513E+01
 0.45708545935E+01 0.40035487263E+01 0.36788618490E+01 0.35119588563E+01 0.35146628038E+01
 0.36809635668E+01 0.39852369673E+01 0.46614860903E+01 0.63236610058E+01 0.92794006401E+01
 0.13359383266E+02 0.17906038262E+02 0.21884844794E+02 0.24188497742E+02 0.24086703779E+02
 0.33523885795E+02 0.27929183287E+02 0.21013929165E+02 0.14385639127E+02 0.92159279665E+01
 0.59985823513E+01 0.45206514486E+01 0.40048244321E+01 0.37417041337E+01 0.36887287341E+01
 0.38502963603E+01 0.42028567269E+01 0.51821376060E+01 0.76160090099E+01 0.11918327914E+02
 0.17906038262E+02 0.24763722360E+02 0.31120148762E+02 0.35370700491E+02 0.36272141661E+02
 0.47297965143E+02 0.40728368963E+02 0.31704405921E+02 0.22353070698E+02 0.14385639127E+02
 0.87618448206E+01 0.56349195636E+01 0.44145427122E+01 0.40265578309E+01 0.38883123263E+01
 0.40093887512E+01 0.43769940505E+01 0.55603525466E+01 0.86051327826E+01 0.14087205512E+02
 0.21884844794E+02 0.31120148762E+02 0.40173770085E+02 0.46956663993E+02 0.49599536014E+02
 0.60596672032E+02 0.53917755528E+02 0.43426188473E+02 0.31704405921E+02 0.21013929165E+02
 0.12792426901E+02 0.75868544222E+01 0.51040430285E+01 0.43336887976E+01 0.40968071269E+01
 0.41428432416E+01 0.44722695742E+01 0.56577876145E+01 0.89395562674E+01 0.15107526144E+02
 0.24188497742E+02 0.35370700491E+02 0.46956663993E+02 0.56516210469E+02 0.61558139605E+02
 0.70412414191E+02 0.64752914088E+02 0.53917755528E+02 0.40728368963E+02 0.27929183287E+02
 0.17430880270E+02 0.10168460467E+02 0.61782604032E+01 0.46669698823E+01 0.42853596782E+01
 0.42330513709E+01 0.44831869347E+01 0.54568420505E+01 0.84924044197E+01 0.14618733717E+02
 0.24086703779E+02 0.36272141661E+02 0.49599536014E+02 0.61558139605E+02 0.69227026113E+02
 0.70412414191E+02 0.69227026113E+02 0.61558139605E+02 0.49599536014E+02 0.36272141661E+02
 0.24086703779E+02 0.14618733717E+02 0.84924044197E+01 0.54568420505E+01 0.44831869347E+01
 0.42330513709E+01 0.42853596782E+01 0.46669698823E+01 0.61782604032E+01 0.10168460467E+02
 0.17430880270E+02 0.27929183287E+02 0.40728368963E+02 0.53917755528E+02 0.64752914088E+02
 0.69227026113E+02 0.70411518686E+02 0.64751457783E+02 0.53916314236E+02 0.40727401582E+02
 0.27928805076E+02 0.17430905517E+02 0.10168616877E+02 0.61783744697E+01 0.46670098412E+01
 0.42853668177E+01 0.42330559526E+01 0.44831773755E+01 0.54568012678E+01 0.84923818078E+01
 0.14618883209E+02 0.24087214559E+02 0.36273064178E+02 0.49600630492E+02 0.61558918290E+02
 0.61558139605E+02 0.64751457783E+02 0.61557254116E+02 0.52934479717E+02 0.41247884224E+02
 0.29161662126E+02 0.18746341632E+02 0.11165188758E+02 0.66964486554E+01 0.47946700469E+01
 0.42702283622E+01 0.41227930196E+01 0.42702252122E+01 0.47946109108E+01 0.66963033845E+01
 0.11165050326E+02 0.18746450835E+02 0.29162273012E+02 0.41249021005E+02 0.52935788750E+02
 0.49599536014E+02 0.53916314236E+02 0.52934479717E+02 0.46956583988E+02 0.37691640086E+02
 0.27426109933E+02 0.18153299927E+02 0.11126490539E+02 0.67853646092E+01 0.47975156139E+01
 0.41909357094E+01 0.39741351345E+01 0.40232126751E+01 0.43280901620E+01 0.52720446779E+01
 0.79902592063E+01 0.13278484222E+02 0.21212506633E+02 0.31055904357E+02 0.41248515978E+02
 0.36272141661E+02 0.40727401582E+02 0.41247884224E+02 0.37691640086E+02 0.31120668800E+02
 0.23277954153E+02 0.15868567156E+02 0.10074343727E+02 0.63927233231E+01 0.46413958778E+01
 0.40603248042E+01 0.38091517725E+01 0.37793797835E+01 0.39824205819E+01 0.44203051238E+01
 0.57226930126E+01 0.88084514594E+01 0.14076531571E+02 0.21212273848E+02 0.29161673033E+02
 0.24086703779E+02 0.27928805076E+02 0.29161662126E+02 0.27426109933E+02 0.23277954153E+02
 0.17906451422E+02 0.12614270221E+02 0.83823214621E+01 0.56664692775E+01 0.43650875213E+01
 0.38950720306E+01 0.36451397243E+01 0.35689028296E+01 0.36822772440E+01 0.39750216808E+01
 0.45011234896E+01 0.59066588877E+01 0.88083830666E+01 0.13278261647E+02 0.18746036294E+02
 0.14618733717E+02 0.17430905517E+02 0.18746341632E+02 0.18153299927E+02 0.15868567156E+02
 0.12614270221E+02 0.92794248932E+01 0.65807200907E+01 0.48652434163E+01 0.40561477503E+01
 0.37121392971E+01 0.34922723366E+01 0.34037712116E+01 0.34545386340E+01 0.36480655687E+01
 0.39759039803E+01 0.45011135019E+01 0.57226452742E+01 0.79901420510E+01 0.11164872451E+02
 0.84924044197E+01 0.10168616877E+02 0.11165188758E+02 0.11126490539E+02 0.10074343727E+02
 0.83823214621E+01 0.65807200907E+01 0.51217849278E+01 0.42184755810E+01 0.37862659299E+01
 0.35287074534E+01 0.33565597197E+01 0.32824784603E+01 0.33040948367E+01 0.34231396452E+01
 0.36480657109E+01 0.39750168055E+01 0.44202863646E+01 0.52720069110E+01 0.66962662595E+01
 0.54568420505E+01 0.61783744697E+01 0.66964486554E+01 0.67853646092E+01 0.63927233231E+01
 0.56664692775E+01 0.48652434163E+01 0.42184755810E+01 0.38137851581E+01 0.35569767590E+01
 0.33631154504E+01 0.32446215249E+01 0.32005128800E+01 0.32216413951E+01 0.33040973424E+01
 0.34545397001E+01 0.36822731207E+01 0.39824098206E+01 0.43280759498E+01 0.47946085926E+01
 0.44831869347E+01 0.46670098412E+01 0.47946700469E+01 0.47975156139E+01 0.46413958778E+01
 0.43650875213E+01 0.40561477503E+01 0.37862659299E+01 0.35569767590E+01 0.33663236944E+01
 0.32336660199E+01 0.31662681210E+01 0.31589242812E+01 0.32005160637E+01 0.32824849012E+01
 0.34037758339E+01 0.35689006542E+01 0.37793696112E+01 0.40231979002E+01 0.42702151934E+01
 0.42330513709E+01 0.42853668177E+01 0.42702283622E+01 0.41909357094E+01 0.40603248042E+01
 0.38950720306E+01 0.37121392971E+01 0.35287074534E+01 0.33631154504E+01 0.32336660199E+01
 0.31548194120E+01 0.31331986958E+01 0.31662676825E+01 0.32446285246E+01 0.33565767544E+01
 0.34922931906E+01 0.36451545031E+01 0.38091543475E+01 0.39741268606E+01 0.41227817081E+01
 0.42853596782E+01 0.42330559526E+01 0.41227930196E+01 0.39741351345E+01 0.38091517725E+01
 0.36451397243E+01 0.34922723366E+01 0.33565597197E+01 0.32446215249E+01 0.31662681210E+01
 0.31331986958E+01 0.31548162382E+01 0.32336685972E+01 0.33631380661E+01 0.35287549959E+01
 0.37121988956E+01 0.38951206706E+01 0.40603464526E+01 0.41909322068E+01 0.42702151934E+01
 0.46669698823E+01 0.44831773755E+01 0.42702252122E+01 0.40232126751E+01 0.37793797835E+01
 0.35689028296E+01 0.34037712116E+01 0.32824784603E+01 0.32005128800E+01 0.31589242812E+01
 0.31662676825E+01 0.32336685972E+01 0.33663466869E+01 0.35570402148E+01 0.37863688200E+01
 0.40562568563E+01 0.43651560589E+01 0.46413983557E+01 0.47974663191E+01 0.47946085926E+01
 0.61782604032E+01 0.54568012678E+01 0.47946109108E+01 0.43280901620E+01 0.39824205819E+01
 0.36822772440E+01 0.34545386340E+01 0.33040948367E+01 0.32216413951E+01 0.32005160637E+01
 0.32446285246E+01 0.33631380661E+01 0.35570402148E+01 0.38139060197E+01 0.42186296482E+01
 0.48653615380E+01 0.56664791785E+01 0.63926060003E+01 0.67851723500E+01 0.66962662595E+01
 0.10168460467E+02 0.84923818078E+01 0.66963033845E+01 0.52720446779E+01 0.44203051238E+01
 0.39750216808E+01 0.36480655687E+01 0.34231396452E+01 0.33040973424E+01 0.32824849012E+01
 0.33565767544E+01 0.35287549959E+01 0.37863688200E+01 0.42186296482E+01 0.51219254711E+01
 0.65807394445E+01 0.83821420890E+01 0.10073989318E+02 0.11126084325E+02 0.11164872451E+02
 0.17430880270E+02 0.14618883209E+02 0.11165050326E+02 0.79902592063E+01 0.57226930126E+01
 0.45011234896E+01 0.39759039803E+01 0.36480657109E+01 0.34545397001E+01 0.34037758339E+01
 0.34922931906E+01 0.37121988956E+01 0.40562568563E+01 0.48653615380E+01 0.65807394445E+01
 0.92792216085E+01 0.12613805797E+02 0.15867953173E+02 0.18152750119E+02 0.18746036294E+02
 0.27929183287E+02 0.24087214559E+02 0.18746450835E+02 0.13278484222E+02 0.88084514594E+01
 0.59066588877E+01 0.45011135019E+01 0.39750168055E+01 0.36822731207E+01 0.35689006542E+01
 0.36451545031E+01 0.38951206706E+01 0.43651560589E+01 0.56664791785E+01 0.83821420890E+01
 0.12613805797E+02 0.17905753223E+02 0.23277248523E+02 0.27425682852E+02 0.29161673033E+02
 0.40728368963E+02 0.36273064178E+02 0.29162273012E+02 0.21212506633E+02 0.14076531571E+02
 0.88083830666E+01 0.57226452742E+01 0.44202863646E+01 0.39824098206E+01 0.37793696112E+01
 0.38091543475E+01 0.40603464526E+01 0.46413983557E+01 0.63926060003E+01 0.10073989318E+02
 0.15867953173E+02 0.23277248523E+02 0.31120195634E+02 0.37691693120E+02 0.41248515978E+02
 0.53917755528E+02 0.49600630492E+02 0.41249021005E+02 0.31055904357E+02 0.21212273848E+02
 0.13278261647E+02 0.79901420510E+01 0.52720069110E+01 0.43280759498E+01 0.40231979002E+01
 0.39741268606E+01 0.41909322068E+01 0.47974663191E+01 0.67851723500E+01 0.11126084325E+02
 0.18152750119E+02 0.27425682852E+02 0.37691693120E+02 0.46957328544E+02 0.52935788750E+02
 0.64752914088E+02 0.61558918290E+02 0.52935788750E+02 0.41248515978E+02 0.29161673033E+02
 0.18746036294E+02 0.11164872451E+02 0.66962662595E+01 0.47946085926E+01 0.42702151934E+01
 0.41227817081E+01 0.42702151934E+01 0.47946085926E+01 0.66962662595E+01 0.11164872451E+02
 0.18746036294E+02 0.29161673033E+02 0.41248515978E+02 0.52935788750E+02 0.61558918290E+02
 0.60596672032E+02 0.61558139605E+02 0.56516210469E+02 0.46956663993E+02 0.35370700491E+02
 0.24188497742E+02 0.15107526144E+02 0.89395562674E+01 0.56577876145E+01 0.44722695742E+01
 0.41428432416E+01 0.40968071269E+01 0.43336887976E+01 0.51040430285E+01 0.75868544222E+01
 0.12792426901E+02 0.21013929165E+02 0.31704405921E+02 0.43426188473E+02 0.53917755528E+02
 0.61558139605E+02 0.64751457783E+02 0.61557254116E+02 0.52934479717E+02 0.41247884224E+02
 0.29161662126E+02 0.18746341632E+02 0.11165188758E+02 0.66964486554E+01 0.47946700469E+01
 0.42702283622E+01 0.41227930196E+01 0.42702252122E+01 0.47946109108E+01 0.66963033845E+01
 0.11165050326E+02 0.18746450835E+02 0.29162273012E+02 0.41249021005E+02 0.52935788750E+02
 0.56516210469E+02 0.61557254116E+02 0.60595160401E+02 0.53916219488E+02 0.43425182795E+02
 0.31704113934E+02 0.21014141941E+02 0.12792783469E+02 0.75871030575E+01 0.51041337192E+01
 0.43336966558E+01 0.40968091275E+01 0.41428523244E+01 0.44722523985E+01 0.56577382622E+01
 0.89395662780E+01 0.15107771214E+02 0.24189098772E+02 0.35371537889E+02 0.46957328544E+02
 0.46956663993E+02 0.52934479717E+02 0.53916219488E+02 0.49599451304E+02 0.41248576069E+02
 0.31056151595E+02 0.21212852945E+02 0.13278785611E+02 0.79904236540E+01 0.52720786180E+01
 0.43280629700E+01 0.40231910015E+01 0.39741405265E+01 0.41909402460E+01 0.47974666301E+01
 0.67852280732E+01 0.11126292139E+02 0.18153125725E+02 0.27426046026E+02 0.37691693120E+02
 0.35370700491E+02 0.41247884224E+02 0.43425182795E+02 0.41248576069E+02 0.35371792079E+02
 0.27426766391E+02 0.19293242299E+02 0.12462039357E+02 0.77402793708E+01 0.52015729189E+01
 0.42512624372E+01 0.39128920323E+01 0.37923046011E+01 0.39129316403E+01 0.42513335484E+01
 0.52016263616E+01 0.77401968950E+01 0.12461661461E+02 0.19292469951E+02 0.27425682852E+02
 0.24188497742E+02 0.29161662126E+02 0.31704113934E+02 0.31056151595E+02 0.27426766391E+02
 0.21885732699E+02 0.15868639356E+02 0.10633541360E+02 0.69312534672E+01 0.49016477777E+01
 0.41090094801E+01 0.37790330024E+01 0.36207662654E+01 0.36609666489E+01 0.38956083442E+01
 0.43243179540E+01 0.54834963102E+01 0.81115841217E+01 0.12461527409E+02 0.18152750119E+02
 0.15107526144E+02 0.18746341632E+02 0.21014141941E+02 0.21212852945E+02 0.19293242299E+02
 0.15868639356E+02 0.11918345744E+02 0.83820323636E+01 0.58595570186E+01 0.44832187962E+01
 0.39265878050E+01 0.36336198394E+01 0.34721199414E+01 0.34615916448E+01 0.36052628019E+01
 0.38958206245E+01 0.43593487674E+01 0.54834683073E+01 0.77400919487E+01 0.11126084325E+02
 0.89395562674E+01 0.11165188758E+02 0.12792783469E+02 0.13278785611E+02 0.12462039357E+02
 0.10633541360E+02 0.83820323636E+01 0.63232780967E+01 0.48650377205E+01 0.40859032692E+01
 0.37290619756E+01 0.34874294733E+01 0.33493875785E+01 0.33201284932E+01 0.33989705920E+01
 0.35916098768E+01 0.38958196220E+01 0.43243041089E+01 0.52015866253E+01 0.67851723500E+01
 0.56577876145E+01 0.66964486554E+01 0.75871030575E+01 0.79904236540E+01 0.77402793708E+01
 0.69312534672E+01 0.58595570186E+01 0.48650377205E+01 0.41705329415E+01 0.37862552040E+01
 0.35337199715E+01 0.33519180624E+01 0.32523003237E+01 0.32295409357E+01 0.32771669630E+01
 0.33989736230E+01 0.36052638669E+01 0.38956028004E+01 0.42513225632E+01 0.47974663191E+01
 0.44722695742E+01 0.47946700469E+01 0.51041337192E+01 0.52720786180E+01 0.52015729189E+01
 0.49016477777E+01 0.44832187962E+01 0.40859032692E+01 0.37862552040E+01 0.35507165963E+01
 0.33631682366E+01 0.32403394629E+01 0.31835627232E+01 0.31833066184E+01 0.32295429035E+01
 0.33201320871E+01 0.34615909982E+01 0.36609583023E+01 0.39129180361E+01 0.41909322068E+01
 0.41428432416E+01 0.42702283622E+01 0.43336966558E+01 0.43280629700E+01 0.42512624372E+01
 0.41090094801E+01 0.39265878050E+01 0.37290619756E+01 0.35337199715E+01 0.33631682366E+01
 0.32370080030E+01 0.31662986061E+01 0.31512301290E+01 0.31835552601E+01 0.32522970098E+01
 0.33493909954E+01 0.34721251446E+01 0.36207664450E+01 0.37922961891E+01 0.39741268606E+01
 0.40968071269E+01 0.41227930196E+01 0.40968091275E+01 0.40231910015E+01 0.39128920323E+01
 0.37790330024E+01 0.36336198394E+01 0.34874294733E+01 0.33519180624E+01 0.32403394629E+01
 0.31662986061E+01 0.31402890781E+01 0.31662796969E+01 0.32403174800E+01 0.33519133101E+01
 0.34874519739E+01 0.36336619977E+01 0.37790754435E+01 0.39129180361E+01 0.40231979002E+01
 0.43336887976E+01 0.42702252122E+01 0.41428523244E+01 0.39741405265E+01 0.37923046011E+01
 0.36207662654E+01 0.34721199414E+01 0.33493875785E+01 0.32523003237E+01 0.31835627232E+01
 0.31512301290E+01 0.31662796969E+01 0.32369751305E+01 0.33631492446E+01 0.35337492227E+01
 0.37291509081E+01 0.39267100647E+01 0.41091175983E+01 0.42513225632E+01 0.43280759498E+01
 0.51040430285E+01 0.47946109108E+01 0.44722523985E+01 0.41909402460E+01 0.39129316403E+01
 0.36609666489E+01 0.34615916448E+01 0.33201284932E+01 0.32295409357E+01 0.31833066184E+01
 0.31835552601E+01 0.32403174800E+01 0.33631492446E+01 0.35507460869E+01 0.37863736354E+01
 0.40861006703E+01 0.44834249888E+01 0.49017772117E+01 0.52015866253E+01 0.52720069110E+01
 0.75868544222E+01 0.66963033845E+01 0.56577382622E+01 0.47974666301E+01 0.42513335484E+01
 0.38956083442E+01 0.36052628019E+01 0.33989705920E+01 0.32771669630E+01 0.32295429035E+01
 0.32522970098E+01 0.33519133101E+01 0.35337492227E+01 0.37863736354E+01 0.41707616756E+01
 0.48653143674E+01 0.58597529775E+01 0.69312603642E+01 0.77400919487E+01 0.79901420510E+01
 0.12792426901E+02 0.11165050326E+02 0.89395662780E+01 0.67852280732E+01 0.52016263616E+01
 0.43243179540E+01 0.38958206245E+01 0.35916098768E+01 0.33989736230E+01 0.33201320871E+01
 0.33493909954E+01 0.34874519739E+01 0.37291509081E+01 0.40861006703E+01 0.48653143674E+01
 0.63235029808E+01 0.83820364080E+01 0.10633244114E+02 0.12461527409E+02 0.13278261647E+02
 0.21013929165E+02 0.18746450835E+02 0.15107771214E+02 0.11126292139E+02 0.77401968950E+01
 0.54834963102E+01 0.43593487674E+01 0.38958196220E+01 0.36052638669E+01 0.34615909982E+01
 0.34721251446E+01 0.36336619977E+01 0.39267100647E+01 0.44834249888E+01 0.58597529775E+01
 0.83820364080E+01 0.11918004163E+02 0.15867970485E+02 0.19292469951E+02 0.21212273848E+02
 0.31704405921E+02 0.29162273012E+02 0.24189098772E+02 0.18153125725E+02 0.12461661461E+02
 0.81115841217E+01 0.54834683073E+01 0.43243041089E+01 0.38956028004E+01 0.36609583023E+01
 0.36207664450E+01 0.37790754435E+01 0.41091175983E+01 0.49017772117E+01 0.69312603642E+01
 0.10633244114E+02 0.15867970485E+02 0.21884860488E+02 0.27426046026E+02 0.31055904357E+02
 0.43426188473E+02 0.41249021005E+02 0.35371537889E+02 0.27426046026E+02 0.19292469951E+02
 0.12461527409E+02 0.77400919487E+01 0.52015866253E+01 0.42513225632E+01 0.39129180361E+01
 0.37922961891E+01 0.39129180361E+01 0.42513225632E+01 0.52015866253E+01 0.77400919487E+01
 0.12461527409E+02 0.19292469951E+02 0.27426046026E+02 0.35371537889E+02 0.41249021005E+02
 0.53917755528E+02 0.52935788750E+02 0.46957328544E+02 0.37691693120E+02 0.27425682852E+02
 0.18152750119E+02 0.11126084325E+02 0.67851723500E+01 0.47974663191E+01 0.41909322068E+01
 0.39741268606E+01 0.40231979002E+01 0.43280759498E+01 0.52720069110E+01 0.79901420510E+01
 0.13278261647E+02 0.21212273848E+02 0.31055904357E+02 0.41249021005E+02 0.49600630492E+02
 0.47297965143E+02 0.49599536014E+02 0.46956663993E+02 0.40173770085E+02 0.31120148762E+02
 0.21884844794E+02 0.14087205512E+02 0.86051327826E+01 0.55603525466E+01 0.43769940505E+01
 0.40093887512E+01 0.38883123263E+01 0.40265578309E+01 0.44145427122E+01 0.56349195636E+01
 0.87618448206E+01 0.14385639127E+02 0.22353070698E+02 0.31704405921E+02 0.40728368963E+02
 0.49599536014E+02 0.53916314236E+02 0.52934479717E+02 0.46956583988E+02 0.37691640086E+02
 0.27426109933E+02 0.18153299927E+02 0.11126490539E+02 0.67853646092E+01 0.47975156139E+01
 0.41909357094E+01 0.39741351345E+01 0.40232126751E+01 0.43280901620E+01 0.52720446779E+01
 0.79902592063E+01 0.13278484222E+02 0.21212506633E+02 0.31055904357E+02 0.41248515978E+02
 0.46956663993E+02 0.52934479717E+02 0.53916219488E+02 0.49599451304E+02 0.41248576069E+02
 0.31056151595E+02 0.21212852945E+02 0.13278785611E+02 0.79904236540E+01 0.52720786180E+01
 0.43280629700E+01 0.40231910015E+01 0.39741405265E+01 0.41909402460E+01 0.47974666301E+01
 0.67852280732E+01 0.11126292139E+02 0.18153125725E+02 0.27426046026E+02 0.37691693120E+02
 0.40173770085E+02 0.46956583988E+02 0.49599451304E+02 0.47298020901E+02 0.40728658209E+02
 0.31704875626E+02 0.22353548942E+02 0.14385958868E+02 0.87619516746E+01 0.56348788988E+01
 0.44144630118E+01 0.40265112590E+01 0.38883074406E+01 0.40093908831E+01 0.43769626746E+01
 0.55602749443E+01 0.86050397589E+01 0.14087152491E+02 0.21884860488E+02 0.31120195634E+02
 0.31120148762E+02 0.37691640086E+02 0.41248576069E+02 0.40728658209E+02 0.36273582101E+02
 0.29162867630E+02 0.21212964855E+02 0.14076722073E+02 0.88083297666E+01 0.57224798916E+01
 0.44201398066E+01 0.39823391361E+01 0.37793591585E+01 0.38091599211E+01 0.40603354695E+01
 0.46413673705E+01 0.63925767235E+01 0.10073985571E+02 0.15867970485E+02 0.23277248523E+02
 0.21884844794E+02 0.27426109933E+02 0.31056151595E+02 0.31704875626E+02 0.29162867630E+02
 0.24189613079E+02 0.18153373673E+02 0.12461599223E+02 0.81113253767E+01 0.54831871443E+01
 0.43241185998E+01 0.38955304798E+01 0.36609522387E+01 0.36207749519E+01 0.37790740927E+01
 0.41091080491E+01 0.49017713595E+01 0.69312631081E+01 0.10633244114E+02 0.15867953173E+02
 0.14087205512E+02 0.18153299927E+02 0.21212852945E+02 0.22353548942E+02 0.21212964855E+02
 0.18153373673E+02 0.14087087269E+02 0.10073665193E+02 0.69308621117E+01 0.50104289544E+01
 0.41472217566E+01 0.37754278030E+01 0.35429720186E+01 0.34638281577E+01 0.35429596041E+01
 0.37754597983E+01 0.41473774270E+01 0.50107419967E+01 0.69312603642E+01 0.10073989318E+02
 0.86051327826E+01 0.11126490539E+02 0.13278785611E+02 0.14385958868E+02 0.14076722073E+02
 0.12461599223E+02 0.10073665193E+02 0.76153335409E+01 0.56659852892E+01 0.44831707667E+01
 0.39385834453E+01 0.36344024124E+01 0.34310903611E+01 0.33438439510E+01 0.33714303127E+01
 0.35158635316E+01 0.37770543521E+01 0.41473792575E+01 0.49017772117E+01 0.63926060003E+01
 0.55603525466E+01 0.67853646092E+01 0.79904236540E+01 0.87619516746E+01 0.88083297666E+01
 0.81113253767E+01 0.69308621117E+01 0.56659852892E+01 0.46611539881E+01 0.40561467051E+01
 0.37291881374E+01 0.34875364463E+01 0.33294422460E+01 0.32571626054E+01 0.32630104444E+01
 0.33462845761E+01 0.35158678424E+01 0.37754648658E+01 0.41091175983E+01 0.46413983557E+01
 0.43769940505E+01 0.47975156139E+01 0.52720786180E+01 0.56348788988E+01 0.57224798916E+01
 0.54831871443E+01 0.50104289544E+01 0.44831707667E+01 0.40561467051E+01 0.37633459967E+01
 0.35288714552E+01 0.33520038919E+01 0.32439326005E+01 0.31994422812E+01 0.32075056016E+01
 0.32630131391E+01 0.33714341418E+01 0.35429609466E+01 0.37790754435E+01 0.40603464526E+01
 0.40093887512E+01 0.41909357094E+01 0.43280629700E+01 0.44144630118E+01 0.44201398066E+01
 0.43241185998E+01 0.41472217566E+01 0.39385834453E+01 0.37291881374E+01 0.35288714552E+01
 0.33615227177E+01 0.32447057592E+01 0.31835801401E+01 0.31721233226E+01 0.31994331028E+01
 0.32571516215E+01 0.33438327302E+01 0.34638177577E+01 0.36207664450E+01 0.38091543475E+01
 0.38883123263E+01 0.39741351345E+01 0.40231910015E+01 0.40265112590E+01 0.39823391361E+01
 0.38955304798E+01 0.37754278030E+01 0.36344024124E+01 0.34875364463E+01 0.33520038919E+01
 0.32447057592E+01 0.31784937437E+01 0.31589394749E+01 0.31835531798E+01 0.32438891076E+01
 0.33293961069E+01 0.34310574086E+01 0.35429609466E+01 0.36609583023E+01 0.37793696112E+01
 0.40265578309E+01 0.40232126751E+01 0.39741405265E+01 0.38883074406E+01 0.37793591585E+01
 0.36609522387E+01 0.35429720186E+01 0.34310903611E+01 0.33294422460E+01 0.32439326005E+01
 0.31835801401E+01 0.31589394749E+01 0.31784580067E+01 0.32446329363E+01 0.33519114863E+01
 0.34874610506E+01 0.36343792501E+01 0.37754648658E+01 0.38956028004E+01 0.39824098206E+01
 0.44145427122E+01 0.43280901620E+01 0.41909402460E+01 0.40093908831E+01 0.38091599211E+01
 0.36207749519E+01 0.34638281577E+01 0.33438439510E+01 0.32571626054E+01 0.31994422812E+01
 0.31721233226E+01 0.31835531798E+01 0.32446329363E+01 0.33614082412E+01 0.35287589089E+01
 0.37291430692E+01 0.39386478950E+01 0.41473792575E+01 0.43243041089E+01 0.44202863646E+01
 0.56349195636E+01 0.52720446779E+01 0.47974666301E+01 0.43769626746E+01 0.40603354695E+01
 0.37790740927E+01 0.35429596041E+01 0.33714303127E+01 0.32630104444E+01 0.32075056016E+01
 0.31994331028E+01 0.32438891076E+01 0.33519114863E+01 0.35287589089E+01 0.37632895238E+01
 0.40562252124E+01 0.44834013973E+01 0.50107419967E+01 0.54834683073E+01 0.57226452742E+01
 0.87618448206E+01 0.79902592063E+01 0.67852280732E+01 0.55602749443E+01 0.46413673705E+01
 0.41091080491E+01 0.37754597983E+01 0.35158635316E+01 0.33462845761E+01 0.32630131391E+01
 0.32571516215E+01 0.33293961069E+01 0.34874610506E+01 0.37291430692E+01 0.40562252124E+01
 0.46614133965E+01 0.56663831415E+01 0.69312631081E+01 0.81115841217E+01 0.88083830666E+01
 0.14385639127E+02 0.13278484222E+02 0.11126292139E+02 0.86050397589E+01 0.63925767235E+01
 0.49017713595E+01 0.41473774270E+01 0.37770543521E+01 0.35158678424E+01 0.33714341418E+01
 0.33438327302E+01 0.34310574086E+01 0.36343792501E+01 0.39386478950E+01 0.44834013973E+01
 0.56663831415E+01 0.76157827828E+01 0.10073985571E+02 0.12461661461E+02 0.14076531571E+02
 0.22353070698E+02 0.21212506633E+02 0.18153125725E+02 0.14087152491E+02 0.10073985571E+02
 0.69312631081E+01 0.50107419967E+01 0.41473792575E+01 0.37754648658E+01 0.35429609466E+01
 0.34638177577E+01 0.35429609466E+01 0.37754648658E+01 0.41473792575E+01 0.50107419967E+01
 0.69312631081E+01 0.10073985571E+02 0.14087152491E+02 0.18153125725E+02 0.21212506633E+02
 0.31704405921E+02 0.31055904357E+02 0.27426046026E+02 0.21884860488E+02 0.15867970485E+02
 0.10633244114E+02 0.69312603642E+01 0.49017772117E+01 0.41091175983E+01 0.37790754435E+01
 0.36207664450E+01 0.36609583023E+01 0.38956028004E+01 0.43243041089E+01 0.54834683073E+01
 0.81115841217E+01 0.12461661461E+02 0.18153125725E+02 0.24189098772E+02 0.29162273012E+02
 0.40728368963E+02 0.41248515978E+02 0.37691693120E+02 0.31120195634E+02 0.23277248523E+02
 0.15867953173E+02 0.10073989318E+02 0.63926060003E+01 0.46413983557E+01 0.40603464526E+01
 0.38091543475E+01 0.37793696112E+01 0.39824098206E+01 0.44202863646E+01 0.57226452742E+01
 0.88083830666E+01 0.14076531571E+02 0.21212506633E+02 0.29162273012E+02 0.36273064178E+02
 0.33523885795E+02 0.36272141661E+02 0.35370700491E+02 0.31120148762E+02 0.24763722360E+02
 0.17906038262E+02 0.11918327914E+02 0.76160090099E+01 0.51821376060E+01 0.42028567269E+01
 0.38502963603E+01 0.36887287341E+01 0.37417041337E+01 0.40048244321E+01 0.45206514486E+01
 0.59985823513E+01 0.92159279665E+01 0.14385639127E+02 0.21013929165E+02 0.27929183287E+02
 0.36272141661E+02 0.40727401582E+02 0.41247884224E+02 0.37691640086E+02 0.31120668800E+02
 0.23277954153E+02 0.15868567156E+02 0.10074343727E+02 0.63927233231E+01 0.46413958778E+01