   1   1   0   0
  0.8788000E+01  0.2251666E-09  0.2251666E-09  0.2251666E-09  0.5000000E-15
  1.000000000000000E-004
  CAR 
 bcc Fe                                  
     56.52753327     -3.62435817  301      8.97506127      1.00000000
     -3.624  0.0000E+00  0.0000E+00  0.0000E+00  0.0000E+00
     -3.424  0.0000E+00  0.0000E+00  0.0000E+00  0.0000E+00
     -3.223  0.0000E+00  0.0000E+00  0.0000E+00  0.0000E+00
     -3.023  0.0000E+00  0.0000E+00  0.0000E+00  0.0000E+00
     -2.822  0.0000E+00  0.0000E+00  0.0000E+00  0.0000E+00
     -2.622 -0.2028E-33  0.0000E+00 -0.4066E-34  0.0000E+00
     -2.421 -0.2273E-26 -0.1374E-34 -0.4557E-27 -0.2756E-35
     -2.221 -0.3354E-20 -0.2107E-27 -0.6725E-21 -0.4225E-28
     -2.020 -0.6282E-15 -0.4256E-21 -0.1260E-15 -0.8534E-22
     -1.820 -0.1551E-10 -0.1094E-15 -0.3111E-11 -0.2193E-16
     -1.619 -0.4824E-07 -0.3713E-11 -0.9676E-08 -0.7445E-12
     -1.419 -0.1781E-04 -0.1595E-07 -0.3581E-05 -0.3199E-08
     -1.218 -0.6167E-03 -0.8247E-05 -0.1272E-03 -0.1657E-05
     -1.018  0.2538E-02 -0.4287E-03  0.3816E-03 -0.8761E-04
     -0.817  0.2142E-01  0.7880E-03  0.4676E-02  0.7038E-04
     -0.617  0.6295E-02  0.1967E-01  0.5938E-02  0.4015E-02
     -0.416  0.1700E-01  0.9562E-02  0.9347E-02  0.5932E-02
     -0.216  0.2004E-01  0.1146E-01  0.1337E-01  0.8230E-02
     -0.015  0.2449E-01  0.2510E-01  0.1828E-01  0.1326E-01
      0.185  0.8764E-01  0.1129E-01  0.3585E-01  0.1553E-01
      0.386  0.1353E-01  0.8542E-01  0.3856E-01  0.3265E-01
      0.586 -0.5414E-02  0.3064E-01  0.3748E-01  0.3880E-01
      0.787  0.8209E-02 -0.4646E-02  0.3912E-01  0.3787E-01
      0.987  0.1020E+00 -0.3988E-02  0.5957E-01  0.3707E-01
      1.188  0.5448E-01  0.6932E-01  0.7050E-01  0.5097E-01
      1.388  0.8105E-01  0.8316E-01  0.8675E-01  0.6764E-01
      1.589  0.9500E-01  0.4930E-01  0.1058E+00  0.7753E-01
      1.789  0.5439E-01  0.7674E-01  0.1167E+00  0.9291E-01
      1.990 -0.1240E-01  0.8289E-01  0.1142E+00  0.1095E+00
      2.190  0.2635E-01  0.3629E-01  0.1195E+00  0.1168E+00
      2.391  0.3693E+00 -0.9553E-02  0.1935E+00  0.1149E+00
      2.591  0.4882E+00  0.2057E-01  0.2914E+00  0.1190E+00
      2.792  0.4332E+00  0.2122E+00  0.3783E+00  0.1616E+00
      2.992  0.5082E+00  0.1280E+00  0.4802E+00  0.1872E+00
      3.193  0.6024E+00  0.1707E+00  0.6010E+00  0.2215E+00
      3.393  0.7718E+00  0.2058E+00  0.7557E+00  0.2627E+00
      3.594  0.7477E+00  0.1694E+00  0.9056E+00  0.2967E+00
      3.794  0.4380E+00  0.1663E+00  0.9935E+00  0.3301E+00
      3.995  0.4251E+00  0.5457E+00  0.1079E+01  0.4395E+00
      4.195  0.3593E+00  0.5715E+00  0.1151E+01  0.5541E+00
      4.396  0.5939E+00  0.4307E+00  0.1270E+01  0.6404E+00
      4.596  0.1287E+01  0.3873E+00  0.1528E+01  0.7181E+00
      4.797  0.9580E+00  0.7270E+00  0.1720E+01  0.8639E+00
      4.997  0.4413E+00  0.6492E+00  0.1808E+01  0.9940E+00
      5.198  0.5024E+00  0.2136E+00  0.1909E+01  0.1037E+01
      5.398  0.9547E+00  0.2423E+00  0.2101E+01  0.1085E+01
      5.599  0.1412E+01  0.3823E+00  0.2384E+01  0.1162E+01
      5.799  0.8092E+00  0.7453E+00  0.2546E+01  0.1312E+01
      6.000  0.4990E+00  0.1168E+01  0.2646E+01  0.1546E+01
      6.200  0.2771E+00  0.7845E+00  0.2702E+01  0.1703E+01
      6.401  0.1863E+00  0.5877E+00  0.2739E+01  0.1821E+01
      6.601  0.6300E+00  0.8131E+00  0.2865E+01  0.1984E+01
      6.802  0.5243E+00  0.9621E+00  0.2970E+01  0.2177E+01
      7.002  0.1498E+00  0.8824E+00  0.3000E+01  0.2354E+01
      7.203  0.2940E+00  0.7489E+00  0.3059E+01  0.2504E+01
      7.403  0.8606E+00  0.7270E+00  0.3232E+01  0.2650E+01
      7.604  0.1054E+01  0.5582E+00  0.3443E+01  0.2762E+01
      7.805  0.1145E+01  0.1746E+00  0.3673E+01  0.2797E+01
      8.005  0.1359E+01  0.1535E+00  0.3945E+01  0.2827E+01
      8.206  0.1587E+01  0.4416E+00  0.4264E+01  0.2916E+01
      8.406  0.1513E+01  0.2831E+00  0.4567E+01  0.2973E+01
      8.607  0.5145E+00  0.1736E+00  0.4670E+01  0.3007E+01
      8.807  0.4965E+00  0.2657E+00  0.4770E+01  0.3061E+01
      9.008  0.8531E+00  0.1651E+00  0.4941E+01  0.3094E+01
      9.208  0.5994E+00  0.6145E+00  0.5061E+01  0.3217E+01
      9.409  0.3983E+00  0.8192E+00  0.5141E+01  0.3381E+01
      9.609  0.3268E+00  0.5372E+00  0.5206E+01  0.3489E+01
      9.810  0.2885E+00  0.7210E+00  0.5264E+01  0.3634E+01
     10.010  0.2757E+00  0.1028E+01  0.5319E+01  0.3840E+01
     10.211  0.1021E+00  0.9452E+00  0.5340E+01  0.4029E+01
     10.411  0.6734E-01  0.1028E+01  0.5353E+01  0.4235E+01
     10.612  0.3187E-01  0.1534E+01  0.5360E+01  0.4543E+01
     10.812  0.1332E+00  0.1510E+01  0.5386E+01  0.4845E+01
     11.013  0.3490E+00  0.7947E+00  0.5456E+01  0.5005E+01
     11.213  0.7409E-01  0.6439E+00  0.5471E+01  0.5134E+01
     11.414  0.1137E+00  0.4414E+00  0.5494E+01  0.5222E+01
     11.614  0.7479E-01  0.2030E+00  0.5509E+01  0.5263E+01
     11.815  0.7775E-01  0.2304E+00  0.5525E+01  0.5309E+01
     12.015  0.6046E-02  0.2344E+00  0.5526E+01  0.5356E+01
     12.216  0.7858E-01  0.2952E-01  0.5542E+01  0.5362E+01
     12.416  0.2006E+00  0.2676E+00  0.5582E+01  0.5416E+01
     12.617  0.1876E+00  0.2659E+00  0.5620E+01  0.5469E+01
     12.817  0.4416E-01  0.8537E-01  0.5628E+01  0.5486E+01
     13.018  0.1688E+00  0.8755E-01  0.5662E+01  0.5504E+01
     13.218  0.6954E-01  0.8155E-01  0.5676E+01  0.5520E+01
     13.419  0.1024E+00  0.8962E-01  0.5697E+01  0.5538E+01
     13.619  0.9551E-01  0.1422E+00  0.5716E+01  0.5567E+01
     13.820  0.1165E-01  0.1304E+00  0.5718E+01  0.5593E+01
     14.020  0.7810E-01  0.1555E+00  0.5734E+01  0.5624E+01
     14.221  0.1702E+00  0.1668E+00  0.5768E+01  0.5657E+01
     14.421  0.5947E-01  0.6897E-01  0.5780E+01  0.5671E+01
     14.622  0.1941E+00  0.6717E-01  0.5819E+01  0.5685E+01
     14.822  0.1316E+00  0.1232E+00  0.5845E+01  0.5709E+01
     15.023 -0.5183E-02  0.6152E-01  0.5844E+01  0.5722E+01
     15.223  0.3037E-01  0.4892E-01  0.5850E+01  0.5732E+01
     15.424  0.2950E-01  0.1784E+00  0.5856E+01  0.5767E+01
     15.624 -0.8769E-02  0.1725E+00  0.5854E+01  0.5802E+01
     15.825  0.8302E-01  0.1933E+00  0.5871E+01  0.5841E+01
     16.025  0.1567E+00  0.1966E-01  0.5902E+01  0.5845E+01
     16.226  0.2939E-01  0.1741E-01  0.5908E+01  0.5848E+01
     16.426  0.8497E-01  0.3840E-01  0.5925E+01  0.5856E+01
     16.627  0.1461E-01 -0.3995E-02  0.5928E+01  0.5855E+01
     16.827 -0.1907E-02  0.2534E-01  0.5928E+01  0.5860E+01
     17.028  0.7203E-01  0.1662E+00  0.5942E+01  0.5893E+01
     17.228  0.6237E-01  0.6365E-01  0.5955E+01  0.5906E+01
     17.429  0.8788E-01  0.7491E-01  0.5973E+01  0.5921E+01
     17.629  0.7728E-01  0.3882E-01  0.5988E+01  0.5929E+01
     17.830  0.2294E-01  0.7377E-01  0.5993E+01  0.5944E+01
     18.030 -0.2741E-02  0.4160E-01  0.5992E+01  0.5952E+01
     18.231 -0.2778E-03  0.5636E-01  0.5992E+01  0.5963E+01
     18.431 -0.1486E-02  0.6333E-01  0.5992E+01  0.5976E+01
     18.632 -0.3367E-02  0.4159E-01  0.5991E+01  0.5985E+01
     18.832  0.8254E-01  0.3951E-01  0.6008E+01  0.5992E+01
     19.033  0.2254E+00 -0.1636E-02  0.6053E+01  0.5992E+01
     19.233  0.1640E+00 -0.5850E-03  0.6086E+01  0.5992E+01
     19.434  0.4189E-01 -0.9454E-03  0.6094E+01  0.5992E+01
     19.634  0.2677E+00 -0.3293E-02  0.6148E+01  0.5991E+01
     19.835  0.4191E+00  0.5971E-01  0.6232E+01  0.6003E+01
     20.035  0.3666E+00  0.1163E+00  0.6305E+01  0.6026E+01
     20.236  0.1603E+00  0.2560E+00  0.6337E+01  0.6078E+01
     20.436  0.8125E-01  0.1661E+00  0.6354E+01  0.6111E+01
     20.637  0.1441E-01  0.1528E+00  0.6357E+01  0.6142E+01
     20.837 -0.8984E-02  0.4332E+00  0.6355E+01  0.6229E+01
     21.038  0.2371E-01  0.4693E+00  0.6360E+01  0.6323E+01
     21.238  0.2289E+00  0.1084E+00  0.6405E+01  0.6344E+01
     21.439  0.3961E+00  0.5843E-01  0.6485E+01  0.6356E+01
     21.639  0.9759E-01  0.2823E-01  0.6504E+01  0.6362E+01
     21.840  0.1607E+00  0.8396E-01  0.6537E+01  0.6379E+01
     22.040  0.3682E+00  0.1173E+00  0.6610E+01  0.6402E+01
     22.241  0.1451E+00  0.2185E+00  0.6640E+01  0.6446E+01
     22.441  0.4395E-01  0.2643E+00  0.6648E+01  0.6499E+01
     22.642  0.7792E-01  0.1850E+00  0.6664E+01  0.6536E+01
     22.842  0.1250E+00  0.2810E+00  0.6689E+01  0.6592E+01
     23.043  0.7142E-01  0.2395E+00  0.6703E+01  0.6640E+01
     23.243  0.2343E+00  0.9462E-01  0.6750E+01  0.6659E+01
     23.444  0.2921E+00  0.6604E-01  0.6809E+01  0.6673E+01
     23.644  0.5001E+00  0.1354E+00  0.6909E+01  0.6700E+01
     23.845  0.1476E+00  0.1544E+00  0.6939E+01  0.6731E+01
     24.046 -0.7319E-03  0.1409E+00  0.6939E+01  0.6759E+01
     24.246  0.3329E-01  0.3840E+00  0.6945E+01  0.6836E+01
     24.447  0.1867E-01  0.3386E+00  0.6949E+01  0.6904E+01
     24.647  0.7457E-01  0.1493E+00  0.6964E+01  0.6934E+01
     24.848  0.2440E+00  0.5287E-01  0.7013E+01  0.6944E+01
     25.048  0.2093E+00  0.2336E-01  0.7055E+01  0.6949E+01
     25.249  0.1690E-01  0.4797E-01  0.7058E+01  0.6959E+01
     25.449  0.1694E+00  0.1613E+00  0.7092E+01  0.6991E+01
     25.650  0.2975E+00  0.2645E+00  0.7152E+01  0.7044E+01
     25.850  0.3596E+00  0.7573E-01  0.7224E+01  0.7059E+01
     26.051  0.3056E+00  0.7248E-01  0.7285E+01  0.7074E+01
     26.251  0.8405E-01  0.2670E+00  0.7302E+01  0.7127E+01
     26.452  0.1080E+00  0.3991E+00  0.7324E+01  0.7207E+01
     26.652  0.8138E-02  0.3920E+00  0.7325E+01  0.7286E+01
     26.853  0.1411E+00  0.2909E-01  0.7354E+01  0.7292E+01
     27.053  0.1972E+00  0.8859E-01  0.7393E+01  0.7310E+01
     27.254  0.1145E+00  0.9376E-01  0.7416E+01  0.7328E+01
     27.454  0.1803E+00  0.1581E+00  0.7452E+01  0.7360E+01
     27.655  0.2009E+00  0.1782E+00  0.7493E+01  0.7396E+01
     27.855  0.3063E+00  0.1319E+00  0.7554E+01  0.7422E+01
     28.056  0.1107E+00  0.1528E+00  0.7576E+01  0.7453E+01
     28.256  0.2531E-02  0.2811E+00  0.7577E+01  0.7509E+01
     28.457  0.1234E+00  0.1959E+00  0.7601E+01  0.7548E+01
     28.657  0.1901E+00  0.9884E-01  0.7640E+01  0.7568E+01
     28.858  0.5331E-01  0.7235E-01  0.7650E+01  0.7583E+01
     29.058  0.1914E+00  0.7121E-01  0.7689E+01  0.7597E+01
     29.259  0.3809E+00  0.1339E+00  0.7765E+01  0.7624E+01
     29.459  0.3736E+00  0.2401E+00  0.7840E+01  0.7672E+01
     29.660  0.3428E+00  0.2263E+00  0.7909E+01  0.7717E+01
     29.860  0.1159E+00  0.4263E+00  0.7932E+01  0.7803E+01
     30.061  0.1525E+00  0.2899E+00  0.7962E+01  0.7861E+01
     30.261  0.2778E+00  0.2285E+00  0.8018E+01  0.7907E+01
     30.462  0.3720E+00  0.1717E+00  0.8093E+01  0.7941E+01
     30.662  0.2913E+00  0.2446E+00  0.8151E+01  0.7990E+01
     30.863  0.2343E+00  0.4243E+00  0.8198E+01  0.8075E+01
     31.063  0.1085E+00  0.2748E+00  0.8220E+01  0.8131E+01
     31.264 -0.6526E-02  0.1723E+00  0.8219E+01  0.8165E+01
     31.464  0.9849E-01  0.1540E+00  0.8238E+01  0.8196E+01
     31.665  0.1726E+00  0.1119E+00  0.8273E+01  0.8218E+01
     31.865  0.1900E+00  0.1458E-01  0.8311E+01  0.8221E+01
     32.066  0.1955E+00  0.1027E+00  0.8350E+01  0.8242E+01
     32.266  0.7976E-01  0.3091E+00  0.8366E+01  0.8304E+01
     32.467  0.4289E+00  0.1896E+00  0.8452E+01  0.8342E+01
     32.667  0.4258E+00  0.1456E+00  0.8538E+01  0.8371E+01
     32.868  0.2702E+00  0.4324E+00  0.8592E+01  0.8458E+01
     33.068  0.2256E+00  0.3595E+00  0.8637E+01  0.8530E+01
     33.269  0.3090E+00  0.1403E+00  0.8699E+01  0.8558E+01
     33.469  0.1377E+00  0.2562E+00  0.8727E+01  0.8609E+01
     33.670 -0.1816E-01  0.3989E+00  0.8723E+01  0.8689E+01
     33.870  0.4536E-01  0.1832E+00  0.8732E+01  0.8726E+01
     34.071  0.2440E+00 -0.9662E-02  0.8781E+01  0.8724E+01
     34.271  0.2343E+00 -0.1154E-01  0.8828E+01  0.8722E+01
     34.472  0.1281E+00  0.1536E+00  0.8854E+01  0.8753E+01
     34.672  0.1083E+00  0.3110E+00  0.8875E+01  0.8815E+01
     34.873  0.1188E+00  0.1733E+00  0.8899E+01  0.8850E+01
     35.073  0.4347E+00  0.1336E+00  0.8986E+01  0.8877E+01
     35.274  0.3288E+00  0.1357E+00  0.9052E+01  0.8904E+01
     35.474  0.2167E-01  0.3594E+00  0.9057E+01  0.8976E+01
     35.675  0.9795E-01  0.3764E+00  0.9076E+01  0.9051E+01
     35.875  0.1130E+00  0.2402E-01  0.9099E+01  0.9056E+01
     36.076  0.1287E-01  0.1024E+00  0.9102E+01  0.9077E+01
     36.276  0.8649E-01  0.1548E+00  0.9119E+01  0.9108E+01
     36.477  0.3724E+00  0.1435E+00  0.9194E+01  0.9136E+01
     36.677  0.2475E+00  0.1102E+00  0.9243E+01  0.9159E+01
     36.878  0.2989E-01  0.2362E+00  0.9249E+01  0.9206E+01
     37.078  0.1078E+00  0.2060E+00  0.9271E+01  0.9247E+01
     37.279  0.4046E-01  0.7917E-01  0.9279E+01  0.9263E+01
     37.479 -0.1081E-01  0.4426E-01  0.9277E+01  0.9272E+01
     37.680 -0.9780E-02  0.2372E-01  0.9275E+01  0.9277E+01
     37.880  0.3790E+00  0.1045E+00  0.9351E+01  0.9298E+01
     38.081  0.8205E+00  0.5549E-02  0.9515E+01  0.9299E+01
     38.281  0.4685E+00  0.3434E+00  0.9609E+01  0.9368E+01
     38.482  0.2172E+00  0.6753E+00  0.9653E+01  0.9503E+01
     38.682  0.3102E-01  0.3079E+00  0.9659E+01  0.9565E+01
     38.883  0.6350E-01  0.3501E+00  0.9672E+01  0.9635E+01
     39.083  0.4610E-01  0.1145E+00  0.9681E+01  0.9658E+01
     39.284  0.6560E-01  0.3248E-01  0.9694E+01  0.9664E+01
     39.484  0.2188E+00  0.1767E+00  0.9738E+01  0.9700E+01
     39.685  0.7026E-01  0.1122E+00  0.9752E+01  0.9722E+01
     39.886  0.1106E+00 -0.5605E-02  0.9774E+01  0.9721E+01
     40.086  0.2504E+00  0.7345E-02  0.9824E+01  0.9723E+01
     40.287  0.3576E+00  0.2484E+00  0.9896E+01  0.9773E+01
     40.487  0.9679E-01  0.5158E+00  0.9916E+01  0.9876E+01
     40.688  0.9297E-02  0.2094E+00  0.9917E+01  0.9918E+01
     40.888  0.1366E+00 -0.1690E-01  0.9945E+01  0.9915E+01
     41.089  0.1087E+00 -0.4983E-02  0.9967E+01  0.9914E+01
     41.289  0.1451E+00 -0.8706E-02  0.9996E+01  0.9912E+01
     41.490  0.2636E+00  0.1433E+00  0.1005E+02  0.9941E+01
     41.690  0.2019E+00  0.4069E+00  0.1009E+02  0.1002E+02
     41.891  0.3837E+00  0.2816E+00  0.1017E+02  0.1008E+02
     42.091  0.4385E+00  0.5743E-01  0.1025E+02  0.1009E+02
     42.292  0.3071E+00  0.3023E+00  0.1032E+02  0.1015E+02
     42.492  0.1158E+00  0.4014E+00  0.1034E+02  0.1023E+02
     42.693  0.1762E+00  0.3722E+00  0.1037E+02  0.1031E+02
     42.893  0.3501E+00  0.1638E+00  0.1044E+02  0.1034E+02
     43.094  0.1341E+00  0.1017E+00  0.1047E+02  0.1036E+02
     43.294  0.1771E-01  0.2568E+00  0.1047E+02  0.1041E+02
     43.495  0.2621E+00  0.1240E+00  0.1053E+02  0.1044E+02
     43.695  0.3368E+00  0.1364E+00  0.1059E+02  0.1046E+02
     43.896  0.2767E+00  0.2665E+00  0.1065E+02  0.1052E+02
     44.096  0.1949E+00  0.2212E+00  0.1069E+02  0.1056E+02
     44.297  0.2047E+00  0.3312E+00  0.1073E+02  0.1063E+02
     44.497  0.2658E+00  0.3385E+00  0.1078E+02  0.1069E+02
     44.698  0.1570E-01  0.2155E+00  0.1079E+02  0.1074E+02
     44.898 -0.3821E-02  0.1303E+00  0.1079E+02  0.1076E+02
     45.099  0.1181E+00  0.1401E+00  0.1081E+02  0.1079E+02
     45.299  0.3806E+00  0.8046E-01  0.1089E+02  0.1081E+02
     45.500  0.4930E+00  0.3421E-01  0.1098E+02  0.1082E+02
     45.700  0.1176E+00  0.2705E+00  0.1101E+02  0.1087E+02
     45.901  0.1015E+00  0.4616E+00  0.1103E+02  0.1096E+02
     46.101  0.5019E+00  0.2168E+00  0.1113E+02  0.1101E+02
     46.302  0.1845E+00  0.8751E-01  0.1117E+02  0.1102E+02
     46.502  0.1072E+00  0.4299E+00  0.1119E+02  0.1111E+02
     46.703  0.1663E+00  0.3611E+00  0.1122E+02  0.1118E+02
     46.903  0.2972E+00  0.8529E-01  0.1128E+02  0.1120E+02
     47.104  0.2762E+00  0.2406E+00  0.1134E+02  0.1125E+02
     47.304  0.1573E+00  0.2750E+00  0.1137E+02  0.1130E+02
     47.505  0.2284E+00  0.1497E-01  0.1141E+02  0.1131E+02
     47.705  0.1084E+00  0.1841E+00  0.1144E+02  0.1134E+02
     47.906  0.1244E+00  0.2101E+00  0.1146E+02  0.1138E+02
     48.106  0.4143E+00  0.9507E-01  0.1154E+02  0.1140E+02
     48.307  0.4201E+00  0.1809E+00  0.1163E+02  0.1144E+02
     48.507  0.1245E+00  0.3458E+00  0.1165E+02  0.1151E+02
     48.708  0.3278E-01  0.4090E+00  0.1166E+02  0.1159E+02
     48.908  0.1065E+00  0.2749E+00  0.1168E+02  0.1165E+02
     49.109  0.9241E-01  0.1547E+00  0.1170E+02  0.1168E+02
     49.309  0.5450E-01  0.6082E-02  0.1171E+02  0.1168E+02
     49.510  0.1713E+00  0.1299E+00  0.1174E+02  0.1170E+02
     49.710  0.3553E-01  0.1913E+00  0.1175E+02  0.1174E+02
     49.911 -0.9140E-02  0.4313E-01  0.1175E+02  0.1175E+02
     50.111 -0.2715E-02 -0.6235E-02  0.1175E+02  0.1175E+02
     50.312  0.1737E+00 -0.3562E-02  0.1178E+02  0.1175E+02
     50.512  0.2520E+00  0.4827E-01  0.1183E+02  0.1176E+02
     50.713  0.1802E+00  0.1058E+00  0.1187E+02  0.1178E+02
     50.913  0.5319E-01  0.1316E+00  0.1188E+02  0.1181E+02
     51.114  0.1018E+00  0.2484E+00  0.1190E+02  0.1186E+02
     51.314  0.3639E-01  0.8492E-01  0.1191E+02  0.1187E+02
     51.515  0.3151E-02  0.1186E+00  0.1191E+02  0.1190E+02
     51.715  0.2912E-01  0.5667E-01  0.1192E+02  0.1191E+02
     51.916  0.4847E-02  0.7118E-02  0.1192E+02  0.1191E+02
     52.116 -0.2359E-02  0.2791E-01  0.1192E+02  0.1192E+02
     52.317 -0.1804E-02  0.3195E-02  0.1192E+02  0.1192E+02
     52.517  0.8067E-01 -0.3485E-02  0.1193E+02  0.1192E+02
     52.718  0.1355E+00  0.8925E-02  0.1196E+02  0.1192E+02
     52.918  0.3447E-01  0.9788E-01  0.1197E+02  0.1194E+02
     53.119  0.1666E-01  0.9048E-01  0.1197E+02  0.1196E+02
     53.319  0.1112E-01  0.7351E-01  0.1197E+02  0.1197E+02
     53.520  0.3739E-01 -0.3764E-03  0.1198E+02  0.1197E+02
     53.720  0.9014E-01  0.4807E-01  0.1200E+02  0.1198E+02
     53.921  0.1956E-01  0.9660E-01  0.1200E+02  0.1200E+02
     54.121 -0.3251E-02  0.9199E-02  0.1200E+02  0.1200E+02
     54.322 -0.1456E-03 -0.2565E-02  0.1200E+02  0.1200E+02
     54.522 -0.5540E-06 -0.7190E-04  0.1200E+02  0.1200E+02
     54.723 -0.2463E-09 -0.1934E-06  0.1200E+02  0.1200E+02
     54.923 -0.1371E-13 -0.6209E-10  0.1200E+02  0.1200E+02
     55.124  0.0000E+00 -0.2525E-14  0.1200E+02  0.1200E+02
     55.324  0.0000E+00  0.0000E+00  0.1200E+02  0.1200E+02
     55.525  0.0000E+00  0.0000E+00  0.1200E+02  0.1200E+02
     55.726  0.0000E+00  0.0000E+00  0.1200E+02  0.1200E+02
     55.926  0.0000E+00  0.0000E+00  0.1200E+02  0.1200E+02
     56.127  0.0000E+00  0.0000E+00  0.1200E+02  0.1200E+02
     56.327  0.0000E+00  0.0000E+00  0.1200E+02  0.1200E+02
     56.528  0.0000E+00  0.0000E+00  0.1200E+02  0.1200E+02
