    1    1    1    2
  0.8788000E+01  0.2251666E-09  0.2251666E-09  0.2251666E-09  0.5000000E-15
  1.000000000000000E-004
  CAR 
 bcc Fe                                  
      8     44     12
 
  0.5000000E-01  0.5000000E-01  0.5000000E-01  0.8000000E-02
    1       -0.397653     -0.160970   1.000000   1.000000
    2        5.753355      7.301833   1.000000   1.000000
    3        5.753355      7.301833   1.000000   1.000000
    4        6.522113      8.127190   1.000000   1.000000
    5        7.766899     10.105248   1.000000  -0.000000
    6        7.766899     10.105248   1.000000  -0.000000
    7       34.269497     34.428779   0.000000   0.000000
    8       34.269497     34.428779   0.000000   0.000000
    9       37.075056     36.956587   0.000000   0.000000
   10       41.999736     42.838822   0.000000   0.000000
   11       44.298034     44.600686   0.000000   0.000000
   12       44.298034     44.600686   0.000000   0.000000
 
  0.1500000E+00  0.5000000E-01  0.5000000E-01  0.2400000E-01
    1        0.924547      1.198840   1.000000   1.000000
    2        5.301143      6.794749   1.000000   1.000000
    3        5.519628      7.019745   1.000000   1.000000
    4        7.510342      9.158135   1.000000  -0.013969
    5        7.610597      9.858453   1.000000  -0.000000
    6        7.893097     10.247794   1.000000  -0.000000
    7       30.215774     30.693751   0.000000   0.000000
    8       32.432807     32.728945   0.000000   0.000000
    9       37.794528     37.776202   0.000000   0.000000
   10       37.924639     38.695883   0.000000   0.000000
   11       44.347563     44.657266   0.000000   0.000000
   12       45.154927     45.829524   0.000000   0.000000
 
  0.2500000E+00  0.5000000E-01  0.5000000E-01  0.2400000E-01
    1        2.311332      2.838850   1.000000   1.000000
    2        4.809151      6.241557   1.000000   1.000000
    3        5.697187      6.928552   1.000000   1.000000
    4        7.716142      9.897608   1.000000  -0.000000
    5        8.030956     10.415285   1.000000  -0.000000
    6        8.871468     10.541481   0.879807  -0.000000
    7       25.499808     26.252216   0.000000   0.000000
    8       30.479835     30.793601   0.000000   0.000000
    9       34.874210     35.568274   0.000000   0.000000
   10       38.012222     38.201257   0.000000   0.000000
   11       43.966271     44.569550   0.000000   0.000000
   12       46.552205     46.837647   0.000000   0.000000
 
  0.3500000E+00  0.5000000E-01  0.5000000E-01  0.2400000E-01
    1        2.593811      3.573821   1.000000   1.000000
    2        4.446124      5.834977   1.000000   1.000000
    3        7.174941      7.987499   1.000000   1.000000
    4        7.935991     10.083333   1.000000  -0.000000
    5        8.143481     10.560364   1.000000  -0.000000
    6       10.377089     11.940248  -0.000000  -0.000000
    7       21.122760     22.130513   0.000000   0.000000
    8       29.019789     29.301860   0.000000   0.000000
    9       32.819612     33.441847   0.000000   0.000000
   10       37.999124     38.331408   0.000000   0.000000
   11       43.671483     44.266910   0.000000   0.000000
   12       48.782498     49.000452   0.000000   0.000000
 
  0.4500000E+00  0.5000000E-01  0.5000000E-01  0.1200000E-01
    1        2.516049      3.615926   1.000000   1.000000
    2        4.316240      5.689256   1.000000   1.000000
    3        7.988879      8.920475   1.000000   0.721712
    4        8.166471     10.165270   1.000000  -0.000000
    5        8.194027     10.625324   1.000000  -0.000000
    6       11.372800     12.700886  -0.000000  -0.000000
    7       18.951019     20.159342   0.000000   0.000000
    8       28.492137     28.754128   0.000000   0.000000
    9       32.061372     32.648693   0.000000   0.000000
   10       38.041253     38.410377   0.000000   0.000000
   11       43.773877     44.379928   0.000000   0.000000
   12       48.339371     48.491588   0.000000   0.000000
 
 -0.5000000E-01  0.5000000E-01  0.5000000E-01  0.6000000E-02
    1       -0.890181     -0.658661   1.000000   1.000000
    2        5.947942      7.517458   1.000000   1.000000
    3        5.947950      7.517468   1.000000   1.000000
    4        6.032812      7.614942   1.000000   1.000000
    5        7.706238     10.041191   1.000000  -0.000000
    6        7.913627     10.287326   1.000000  -0.000000
    7       35.258870     35.257548   0.000000   0.000000
    8       36.407700     36.341216   0.000000   0.000000
    9       36.407713     36.341221   0.000000   0.000000
   10       42.046770     42.416456   0.000000   0.000000
   11       45.283174     45.457365   0.000000   0.000000
   12       45.839422     46.662920   0.000000   0.000000
 
  0.1500000E+00  0.1500000E+00  0.5000000E-01  0.2400000E-01
    1        2.350808      2.726508   1.000000   1.000000
    2        4.948223      6.402654   1.000000   1.000000
    3        5.020600      6.423140   1.000000   1.000000
    4        7.643694      9.868546   1.000000  -0.000000
    5        8.044818     10.384136   1.000000  -0.000000
    6        8.952573     10.611344   0.594491  -0.000000
    7       27.687737     28.291243   0.000000   0.000000
    8       28.906401     29.420226   0.000000   0.000000
    9       33.892782     34.585894   0.000000   0.000000
   10       39.359343     39.339956   0.000000   0.000000
   11       45.256147     45.615403   0.000000   0.000000
   12       47.297900     47.784919   0.000000   0.000000
 
  0.2500000E+00  0.1500000E+00  0.5000000E-01  0.4800000E-01
    1        3.232812      4.042882   1.000000   1.000000
    2        4.543097      5.922085   1.000000   1.000000
    3        5.451488      6.552822   1.000000   1.000000
    4        7.805536     10.002574   1.000000  -0.000000
    5        8.220605     10.583417   1.000001  -0.000000
    6       10.839436     12.371568  -0.000000  -0.000000
    7       23.509937     24.326601   0.000000   0.000000
    8       26.837444     27.397062   0.000000   0.000000
    9       31.496767     32.101506   0.000000   0.000000
   10       40.093390     40.208702   0.000000   0.000000
   11       46.025961     46.340768   0.000000   0.000000
   12       48.135415     48.592756   0.000000   0.000000
 
  0.3500000E+00  0.1500000E+00  0.5000000E-01  0.4800000E-01
    1        3.138753      4.244462   1.000000   1.000000
    2        4.353139      5.692642   1.000000   1.000000
    3        6.455574      7.481025   1.000000   1.000000
    4        7.990140     10.188060   1.000000  -0.000000
    5        8.351054     10.673597   1.000047  -0.000000
    6       12.923017     14.162811  -0.000000  -0.000000
    7       19.704327     20.768848   0.000000   0.000000
    8       25.863270     26.414049   0.000000   0.000000
    9       30.300452     30.858062   0.000000   0.000000
   10       40.261593     40.476262   0.000000   0.000000
   11       46.899907     47.120975   0.000000   0.000000
   12       48.033335     48.500777   0.000000   0.000000
 
 -0.1500000E+00  0.1500000E+00  0.5000000E-01  0.2400000E-01
    1        0.069495      0.315739   1.000000   1.000000
    2        5.665190      7.197698   1.000000   1.000000
    3        5.885963      7.429450   1.000000   1.000000
    4        6.633087      8.248642   1.000000   1.000002
    5        7.390125      9.639896   1.000000  -0.000014
    6        8.017015     10.398000   1.000000  -0.000000
    7       32.367451     32.671094   0.000000   0.000000
    8       35.094411     35.216212   0.000000   0.000000
    9       36.235998     36.365918   0.000000   0.000000
   10       41.152845     41.488044   0.000000   0.000000
   11       42.694763     43.443211   0.000000   0.000000
   12       43.576588     44.278273   0.000000   0.000000
 
  0.2500000E+00  0.2500000E+00  0.5000000E-01  0.2400000E-01
    1        3.752785      4.864921   1.000000   1.000000
    2        4.455915      5.763029   1.000000   1.000000
    3        5.400969      6.479192   1.000000   1.000000
    4        7.962138     10.167986   1.000000  -0.000000
    5        8.339449     10.648318   1.000033  -0.000000
    6       13.506777     14.797014  -0.000000   0.000000
    7       21.428921     22.309078   0.000000   0.000000
    8       23.117339     23.845562   0.000000   0.000000
    9       30.020901     30.589689   0.000000   0.000000
   10       41.655331     41.774639   0.000000   0.000000
   11       45.412683     45.630583   0.000000   0.000000
   12       52.492868     52.845970   0.000000   0.000000
 
  0.3500000E+00  0.2500000E+00  0.5000000E-01  0.2400000E-01
    1        3.769556      4.963471   1.000000   1.000000
    2        4.533965      5.798886   1.000000   1.000000
    3        5.460088      6.615139   1.000000   1.000000
    4        8.110736     10.332691   1.000000  -0.000000
    5        8.330832     10.593791   1.000026  -0.000000
    6       15.860577     16.916986   0.000000   0.000000
    7       18.806402     19.836888   0.000000   0.000000
    8       22.228126     22.987094   0.000000   0.000000
    9       29.604144     30.172241   0.000000   0.000000
   10       42.397958     42.548711   0.000000   0.000000
   11       45.021716     45.158183   0.000000   0.000000
   12       52.654940     53.158278   0.000000   0.000000
 
 -0.2500000E+00  0.2500000E+00  0.5000000E-01  0.2400000E-01
    1        1.578783      1.935873   1.000000   1.000000
    2        5.188333      6.663617   1.000000   1.000000
    3        5.737746      7.171891   1.000000   1.000000
    4        7.400719      9.412560   1.000000  -0.004166
    5        7.725588      9.527846   1.000000  -0.000329
    6        8.144656     10.520916   1.000000  -0.000000
    7       27.888217     28.527753   0.000000   0.000000
    8       32.699309     32.898546   0.000000   0.000000
    9       35.594755     36.010577   0.000000   0.000000
   10       39.749528     40.344195   0.000000   0.000000
   11       41.706379     42.229799   0.000000   0.000000
   12       43.486147     43.868134   0.000000   0.000000
 
 -0.1500000E+00  0.2500000E+00  0.5000000E-01  0.2400000E-01
    1        1.312357      1.612269   1.000000   1.000000
    2        5.536973      7.038659   1.000000   1.000000
    3        5.559469      7.080962   1.000000   1.000000
    4        7.096700      9.104549   1.000000   0.059833
    5        7.458140      9.217005   1.000000  -0.035422
    6        8.263591     10.640654   1.000003  -0.000000
    7       29.934818     30.428448   0.000000   0.000000
    8       31.830091     32.266351   0.000000   0.000000
    9       36.409924     36.598598   0.000000   0.000000
   10       38.865825     39.455258   0.000000   0.000000
   11       41.373578     41.777081   0.000000   0.000000
   12       45.274826     45.814866   0.000000   0.000000
 
 -0.3500000E+00  0.3500000E+00  0.5000000E-01  0.2400000E-01
    1        2.444216      3.234096   1.000000   1.000000
    2        4.736576      6.161613   1.000000   1.000000
    3        6.457431      7.542246   1.000000   1.000000
    4        7.779601      9.806573   1.000000  -0.000000
    5        8.483147     10.726034   1.001385  -0.000000
    6        8.950128     10.730505   0.604599  -0.000000
    7       23.178313     24.071292   0.000000   0.000000
    8       30.690867     30.883883   0.000000   0.000000
    9       34.132111     34.713333   0.000000   0.000000
   10       38.301275     38.786841   0.000000   0.000000
   11       41.823605     42.402201   0.000000   0.000000
   12       45.484216     45.785843   0.000000   0.000000
 
 -0.2500000E+00  0.3500000E+00  0.5000000E-01  0.4800000E-01
    1        2.622677      3.182874   1.000000   1.000000
    2        5.002764      6.481639   1.000000   1.000000
    3        5.522942      6.879412   1.000000   1.000000
    4        7.302330      9.310674   1.000000  -0.019513
    5        8.341006     10.342274   1.000035  -0.000000
    6        9.068590     11.031570   0.148188  -0.000000
    7       25.774135     26.523681   0.000000   0.000000
    8       29.179088     29.678390   0.000000   0.000000
    9       35.114727     35.522492   0.000000   0.000000
   10       37.873504     38.311919   0.000000   0.000000
   11       41.916344     42.299306   0.000000   0.000000
   12       46.061863     46.548738   0.000000   0.000000
 
 -0.4500000E+00  0.4500000E+00  0.5000000E-01  0.2400000E-01
    1        2.425842      3.505263   1.000000   1.000000
    2        4.468008      5.865230   1.000000   1.000000
    3        7.367652      8.690866   1.000000   1.030980
    4        7.894258      9.998350   1.000000  -0.000000
    5        9.784794     11.238818  -0.000000  -0.000000
    6        9.810826     11.642996  -0.000000  -0.000000
    7       19.552163     20.709249   0.000000   0.000000
    8       29.557791     29.728632   0.000000   0.000000
    9       32.819517     33.386417   0.000000   0.000000
   10       37.895373     38.397567   0.000000   0.000000
   11       42.164940     42.793905   0.000000   0.000000
   12       46.370508     46.550336   0.000000   0.000000
 
 -0.3500000E+00  0.4500000E+00  0.5000000E-01  0.4800000E-01
    1        2.896457      3.921125   1.000000   1.000000
    2        4.727162      6.136344   1.000000   1.000000
    3        6.046217      7.294168   1.000000   1.000000
    4        7.676601      9.692922   1.000000  -0.000002
    5        8.867827     10.896410   0.889313  -0.000000
    6       10.927790     12.446120  -0.000000  -0.000000
    7       21.322928     22.306677   0.000000   0.000000
    8       27.723747     28.226801   0.000000   0.000000
    9       33.235185     33.647943   0.000000   0.000000
   10       38.242440     38.709123   0.000000   0.000000
   11       42.882635     43.182585   0.000000   0.000000
   12       45.961267     46.462283   0.000000   0.000000
 
 -0.2500000E+00  0.4500000E+00  0.5000000E-01  0.2400000E-01
    1        3.497575      4.392567   1.000000   1.000000
    2        4.492316      5.955883   1.000000   1.000000
    3        5.524295      6.802624   1.000000   1.000000
    4        7.492620      9.474131   1.000000  -0.001182
    5        8.570841     10.692125   1.007463  -0.000000
    6       11.314327     12.846262  -0.000000  -0.000000
    7       23.572054     24.426225   0.000000   0.000000
    8       24.906305     25.574125   0.000000   0.000000
    9       34.949134     35.441164   0.000000   0.000000
   10       36.983582     37.257286   0.000000   0.000000
   11       41.768106     42.129771   0.000000   0.000000
   12       50.574233     51.036194   0.000000   0.000000
 
 -0.4500000E+00 -0.4500000E+00  0.5000000E-01  0.2400000E-01
    1        2.803262      3.955936   1.000000   1.000000
    2        4.634326      6.026285   1.000000   1.000000
    3        6.375747      7.722575   1.000000   1.000000
    4        7.734161      9.802314   1.000000  -0.000000
    5        9.277054     11.195365  -0.027205  -0.000000
    6       12.340189     13.557959  -0.000000  -0.000000
    7       18.967658     20.148189   0.000000   0.000000
    8       27.205511     27.700063   0.000000   0.000000
    9       32.519821     32.911499   0.000000   0.000000
   10       38.438447     38.935357   0.000000   0.000000
   11       43.689919     43.862338   0.000000   0.000000
   12       45.423314     45.986224   0.000000   0.000000
 
 -0.3500000E+00 -0.4500000E+00  0.5000000E-01  0.4800000E-01
    1        3.597752      4.792890   1.000000   1.000000
    2        4.576981      5.956563   1.000000   1.000000
    3        5.382882      6.700041   1.000000   1.000000
    4        7.837040      9.839778   1.000000  -0.000000
    5        8.758891     10.769796   1.031611  -0.000000
    6       14.092188     15.311186  -0.000000   0.000000
    7       19.861794     20.882459   0.000000   0.000000
    8       23.457437     24.168374   0.000000   0.000000
    9       34.054291     34.508957   0.000000   0.000000
   10       38.010256     38.350383   0.000000   0.000000
   11       41.384517     41.623894   0.000000   0.000000
   12       50.286614     50.941202   0.000000   0.000000
 
 -0.3500000E+00 -0.3500000E+00  0.5000000E-01  0.8000000E-02
    1        4.208410      5.473936   1.000000   1.000000
    2        4.623869      5.976488   1.000000   1.000000
    3        4.623878      5.976509   1.000000   1.000000
    4        8.345340     10.340520   1.000040  -0.000000
    5        8.345378     10.340571   1.000040  -0.000000
    6       17.579202     18.627100   0.000000   0.000000
    7       17.579226     18.627157   0.000000   0.000000
    8       21.293848     22.116309   0.000000   0.000000
    9       34.438636     34.980981   0.000000   0.000000
   10       39.317686     39.552272   0.000000   0.000000
   11       39.317694     39.552280   0.000000   0.000000
   12       50.663205     51.564711   0.000000   0.000000
 
  0.1500000E+00  0.1500000E+00  0.1500000E+00  0.8000000E-02
    1        3.763470      4.270768   1.000000   1.000000
    2        4.537038      5.899223   1.000000   1.000000
    3        4.537038      5.899223   1.000000   1.000000
    4        8.000769     10.333562   1.000000  -0.000000
    5        8.000769     10.333562   1.000000  -0.000000
    6       10.888685     12.430137  -0.000000  -0.000000
    7       25.846495     26.488956   0.000000   0.000000
    8       25.846495     26.488956   0.000000   0.000000
    9       29.239322     29.939536   0.000000   0.000000
   10       42.394984     42.281739   0.000000   0.000000
   11       48.333589     48.644874   0.000000   0.000000
   12       48.333589     48.644874   0.000000   0.000000
 
  0.2500000E+00  0.1500000E+00  0.1500000E+00  0.2400000E-01
    1        3.915855      4.982024   1.000000   1.000000
    2        4.316904      5.614448   1.000000   1.000000
    3        5.325772      6.305335   1.000000   1.000000
    4        8.088535     10.403609   1.000000  -0.000000
    5        8.177372     10.586969   1.000000  -0.000000
    6       13.286274     14.592442  -0.000000   0.000000
    7       21.807005     22.653182   0.000000   0.000000
    8       24.638257     25.283879   0.000000   0.000000
    9       26.991465     27.642498   0.000000   0.000000
   10       44.038726     44.037729   0.000000   0.000000
   11       49.381222     49.673984   0.000000   0.000000
   12       50.468883     50.625858   0.000000   0.000000
 
  0.3500000E+00  0.1500000E+00  0.1500000E+00  0.1200000E-01
    1        3.751496      4.886437   1.000000   1.000000
    2        4.250677      5.524799   1.000000   1.000000
    3        5.901967      6.920593   1.000000   1.000000
    4        8.147133     10.457521   1.000000  -0.000000
    5        8.225046     10.663441   1.000001  -0.000000
    6       15.218503     16.262860   0.000000   0.000000
    7       19.099393     20.149541   0.000000   0.000000
    8       24.215516     24.857638   0.000000   0.000000
    9       26.363126     26.997896   0.000000   0.000000
   10       44.260823     44.337608   0.000000   0.000000
   11       50.324040     50.494651   0.000000   0.000000
   12       50.689410     51.164143   0.000000   0.000000
 
 -0.1500000E+00  0.1500000E+00  0.1500000E+00  0.6000000E-02
    1        0.944312      1.219198   1.000000   1.000000
    2        6.030031      7.558992   1.000000   1.000000
    3        6.030042      7.559007   1.000000   1.000000
    4        6.614450      8.266531   1.000000   1.000003
    5        6.644740      8.743557   1.000000   1.034696
    6        8.366936     10.756882   1.000074  -0.000000
    7       31.524012     31.868237   0.000000   0.000000
    8       34.605852     34.999481   0.000000   0.000000
    9       34.605855     34.999508   0.000000   0.000000
   10       36.550089     36.958734   0.000000   0.000000
   11       44.414936     44.925359   0.000000   0.000000
   12       44.414949     44.925384   0.000000   0.000000
 
  0.2500000E+00  0.2500000E+00  0.1500000E+00  0.2400000E-01
    1        4.119312      5.315055   1.000000   1.000000
    2        4.564323      5.757063   1.000000   1.000000
    3        5.142105      6.199117   1.000000   1.000000
    4        8.193982     10.568853   1.000000  -0.000000
    5        8.239102     10.653413   1.000001  -0.000000
    6       16.318394     17.372172   0.000000   0.000000
    7       20.066913     20.943042   0.000000   0.000000
    8       21.848376     22.632681   0.000000   0.000000
    9       25.375096     26.016261   0.000000   0.000000
   10       47.130938     47.139652   0.000000   0.000000
   11       49.428069     49.538361   0.000000   0.000000
   12       53.623820     53.793356   0.000000   0.000000
 
 -0.2500000E+00  0.2500000E+00  0.1500000E+00  0.2400000E-01
    1        2.280695      2.697797   1.000000   1.000000
    2        5.520715      7.194180   1.000000   1.000000
    3        5.794062      7.292424   1.000000   1.000000
    4        6.693690      8.501507   1.000000   1.002048
    5        7.587048      9.262957   1.000000  -0.030244
    6        8.809423     11.090735   0.996912  -0.000000
    7       28.446142     29.086138   0.000000   0.000000
    8       31.831131     32.229268   0.000000   0.000000
    9       32.521606     33.082957   0.000000   0.000000
   10       36.521223     36.943559   0.000000   0.000000
   11       43.843100     44.315554   0.000000   0.000000
   12       45.284167     45.733943   0.000000   0.000000
 
 -0.3500000E+00  0.3500000E+00  0.1500000E+00  0.2400000E-01
    1        3.039679      3.904910   1.000000   1.000000
    2        5.191138      6.685604   1.000000   1.000000
    3        5.422328      6.880981   1.000000   1.000000
    4        7.278610      9.096921   1.000000   0.075857
    5        8.831332     10.600604   0.966215  -0.000000
    6        9.979977     11.813156  -0.000000  -0.000000
    7       23.724820     24.583745   0.000000   0.000000
    8       30.257184     30.661197   0.000000   0.000000
    9       30.571812     31.170175   0.000000   0.000000
   10       38.125227     38.507319   0.000000   0.000000
   11       42.669437     43.148537   0.000000   0.000000
   12       45.445319     45.939326   0.000000   0.000000
 
 -0.2500000E+00  0.3500000E+00  0.1500000E+00  0.2400000E-01
    1        3.251964      3.966431   1.000000   1.000000
    2        4.719589      6.389890   1.000000   1.000000
    3        5.985118      7.449745   1.000000   1.000000
    4        6.902709      8.623314   1.000000   1.016067
    5        8.366407     10.164095   1.000073  -0.000000
    6       10.006718     11.874308  -0.000000  -0.000000
    7       26.276406     27.056837   0.000000   0.000000
    8       27.422188     28.034569   0.000000   0.000000
    9       32.985208     33.445398   0.000000   0.000000
   10       35.078849     35.505113   0.000000   0.000000
   11       43.387731     43.863026   0.000000   0.000000
   12       48.995780     49.459414   0.000000   0.000000
 
 -0.4500000E+00  0.4500000E+00  0.1500000E+00  0.2400000E-01
    1        2.943968      4.137621   1.000000   1.000000
    2        5.192041      6.626726   1.000000   1.000000
    3        5.488914      6.919501   1.000000   1.000000
    4        7.406046      9.323213   1.000000  -0.016808
    5        9.707769     11.558221  -0.000001  -0.000000
    6       12.179178     13.431781  -0.000000  -0.000000
    7       19.770886     20.859140   0.000000   0.000000
    8       29.323130     29.857334   0.000000   0.000000
    9       29.451752     29.894538   0.000000   0.000000
   10       40.126017     40.398968   0.000000   0.000000
   11       42.033972     42.522823   0.000000   0.000000
   12       44.345968     44.932893   0.000000   0.000000
 
 -0.3500000E+00  0.4500000E+00  0.1500000E+00  0.4800000E-01
    1        3.494080      4.669935   1.000000   1.000000
    2        4.454394      5.930921   1.000000   1.000000
    3        5.690056      7.156387   1.000000   1.000000
    4        7.417573      9.196280   1.000000  -0.032923
    5        9.078199     10.928586   0.121408  -0.000000
    6       12.478597     13.846209  -0.000000  -0.000000
    7       21.980235     22.890813   0.000000   0.000000
    8       25.525178     26.193839   0.000000   0.000000
    9       32.362722     32.810014   0.000000   0.000000
   10       36.445197     36.821531   0.000000   0.000000
   11       42.124762     42.618293   0.000000   0.000000
   12       48.138114     48.831886   0.000000   0.000000
 
 -0.4500000E+00 -0.4500000E+00  0.1500000E+00  0.2400000E-01
    1        3.326805      4.663287   1.000000   1.000000
    2        4.702180      6.148139   1.000000   1.000000
    3        5.421180      6.861982   1.000000   1.000000
    4        7.562576      9.373107   1.000000  -0.008250
    5        9.457964     11.310166  -0.001682  -0.000000
    6       14.644783     15.730564   0.000000   0.000000
    7       19.105037     20.186824   0.000000   0.000000
    8       24.943849     25.602070   0.000000   0.000000
    9       31.930214     32.372089   0.000000   0.000000
   10       38.035335     38.315216   0.000000   0.000000
   11       40.907624     41.472600   0.000000   0.000000
   12       46.922048     47.672128   0.000000   0.000000
 
 -0.3500000E+00 -0.4500000E+00  0.1500000E+00  0.2400000E-01
    1        3.896661      5.390992   1.000000   1.000000
    2        4.031315      5.397777   1.000000   1.000000
    3        5.315649      6.720029   1.000000   1.000000
    4        8.157490      9.944859   1.000000  -0.000000
    5        8.940765     10.779592   0.642780  -0.000000
    6       15.879629     16.983770   0.000000   0.000000
    7       20.015185     20.983765   0.000000   0.000000
    8       21.923572     22.673312   0.000000   0.000000
    9       34.480809     34.878065   0.000000   0.000000
   10       35.780068     36.144374   0.000000   0.000000
   11       39.924928     40.478519   0.000000   0.000000
   12       47.399963     48.231880   0.000000   0.000000
 
  0.2500000E+00  0.2500000E+00  0.2500000E+00  0.2000000E-02
    1        4.635480      5.782466   1.000000   1.000000
    2        4.635480      5.782466   1.000000   1.000000
    3        4.635506      5.782507   1.000000   1.000000
    4        8.247473     10.689552   1.000002  -0.000000
    5        8.247473     10.689552   1.000002  -0.000000
    6       19.589558     20.461460   0.000000   0.000000
    7       19.589558     20.461460   0.000000   0.000000
    8       19.589605     20.461549   0.000000   0.000000
    9       23.304781     23.990544   0.000000   0.000000
   10       53.024003     52.923585   0.000000   0.000000
   11       53.024005     52.923585   0.000000   0.000000
   12       53.024026     52.923598   0.000000   0.000000
 
 -0.2500000E+00  0.2500000E+00  0.2500000E+00  0.6000000E-02
    1        3.134216      3.792102   1.000000   1.000000
    2        4.905791      6.758337   1.000000   1.000000
    3        6.580495      8.097373   1.000000   1.000000
    4        6.580523      8.097415   1.000000   1.000000
    5        7.669668      9.363035   1.000000  -0.009662
    6        9.786208     11.767116  -0.000000  -0.000000
    7       29.189645     29.857087   0.000000   0.000000
    8       29.720695     30.333907   0.000000   0.000000
    9       29.720719     30.333973   0.000000   0.000000
   10       32.507523     32.927977   0.000000   0.000000
   11       48.424153     48.871813   0.000000   0.000000
   12       48.424161     48.871826   0.000000   0.000000
 
 -0.3500000E+00  0.3500000E+00  0.2500000E+00  0.2400000E-01
    1        3.484553      4.559647   1.000000   1.000000
    2        4.103342      5.773767   1.000000   1.000000
    3        6.629730      8.152613   1.000000   1.000000
    4        7.139706      8.749568   1.000000   1.033799
    5        8.668650     10.425989   1.026202  -0.000000
    6       11.676012     13.142301  -0.000000  -0.000000
    7       24.762469     25.531588   0.000000   0.000000
    8       27.403000     28.002134   0.000000   0.000000
    9       29.462931     30.108856   0.000000   0.000000
   10       33.075201     33.538434   0.000000   0.000000
   11       46.864941     47.606322   0.000000   0.000000
   12       47.442611     47.907839   0.000000   0.000000
 
 -0.4500000E+00  0.4500000E+00  0.2500000E+00  0.2400000E-01
    1        3.237439      4.659382   1.000000   1.000000
    2        3.958553      5.441310   1.000000   1.000000
    3        6.503957      8.018204   1.000000   1.000000
    4        7.398305      9.055744   1.000000   0.187454
    5        9.575959     11.415701  -0.000091  -0.000000
    6       14.608816     15.673023   0.000000   0.000000
    7       20.331320     21.259615   0.000000   0.000000
    8       25.993487     26.544641   0.000000   0.000000
    9       29.164315     29.823968   0.000000   0.000000
   10       34.946093     35.346826   0.000000   0.000000
   11       43.404860     44.253238   0.000000   0.000000
   12       46.650504     47.111435   0.000000   0.000000
 
 -0.3500000E+00  0.4500000E+00  0.2500000E+00  0.2400000E-01
    1        3.441208      4.786269   1.000000   1.000000
    2        3.442060      5.043178   1.000000   1.000000
    3        6.743271      8.261645   1.000000   1.000003
    4        7.930751      9.578683   1.000000  -0.000084
    5        9.155260     10.956330  -0.011569  -0.000000
    6       14.460491     15.551316   0.000000   0.000000
    7       22.781302     23.580778   0.000000   0.000000
    8       23.539512     24.175359   0.000000   0.000000
    9       30.476140     31.106796   0.000000   0.000000
   10       32.589570     33.080969   0.000000   0.000000
   11       42.823464     43.645893   0.000000   0.000000
   12       47.888629     48.396161   0.000000   0.000000
 
 -0.4500000E+00 -0.4500000E+00  0.2500000E+00  0.2400000E-01
    1        3.174904      4.692868   1.000000   1.000000
    2        3.418321      4.912916   1.000000   1.000000