 running on    4 total cores
 distrk:  each k-point on    4 cores,    1 groups
 distr:  one band on    1 cores,    4 groups
 using from now: INCAR     
 vasp.5.4.4.18Apr17-6-g9f103f2a35 (build Jul 01 2019 03:25:34) complex          
  
 POSCAR found type information on POSCAR  Fe
 POSCAR found :  1 types and       1 ions
 scaLAPACK will be used
 LDA part: xc-table for Pade appr. of Perdew
 POSCAR, INCAR and KPOINTS ok, starting setup
 FFT: planning ...
 WAVECAR not read
 entering main loop
       N       E                     dE             d eps       ncg     rms          rms(c)
DAV:   1     0.102545228946E+02    0.10255E+02   -0.26599E+03  2388   0.500E+02
DAV:   2    -0.803154905112E+01   -0.18286E+02   -0.16948E+02  2256   0.976E+01
DAV:   3    -0.828032215431E+01   -0.24877E+00   -0.24816E+00  2412   0.125E+01
DAV:   4    -0.828085487723E+01   -0.53272E-03   -0.53271E-03  2408   0.541E-01
DAV:   5    -0.828085658359E+01   -0.17064E-05   -0.17077E-05  1876   0.312E-02    0.162E+01
DAV:   6    -0.770557430049E+01    0.57528E+00   -0.52959E+00  2400   0.284E+01    0.370E+00
DAV:   7    -0.768043563192E+01    0.25139E-01   -0.27320E-02  2300   0.182E+00    0.240E+00
DAV:   8    -0.766475255709E+01    0.15683E-01   -0.30406E-02  2564   0.142E+00    0.112E+00
DAV:   9    -0.766504290556E+01   -0.29035E-03   -0.12920E-03  2512   0.279E-01    0.304E-01
DAV:  10    -0.766563775787E+01   -0.59485E-03   -0.84251E-04  2348   0.260E-01    0.740E-02
DAV:  11    -0.766565302415E+01   -0.15266E-04   -0.15010E-04  1200   0.103E-01
   1 F= -.76656530E+01 E0= -.76657750E+01  d E =0.365943E-03  mag=     1.8274
 writing wavefunctions
