<?xml version="1.0" encoding="ISO-8859-1"?>
<modeling>
 <generator>
  <i name="program" type="string">vasp </i>
  <i name="version" type="string">5.4.4.18Apr17-6-g9f103f2a35  </i>
  <i name="subversion" type="string">(build Jul 01 2019 03:25:34) complex            parallel </i>
  <i name="platform" type="string">LinuxIFC </i>
  <i name="date" type="string">2020 07 08 </i>
  <i name="time" type="string">18:31:51 </i>
 </generator>
 <incar>
  <i type="string" name="SYSTEM"> bcc Fe</i>
  <i type="string" name="PREC">normal</i>
  <i type="int" name="ISPIN">     2</i>
  <i name="EDIFF">      0.00010000</i>
  <i name="ENCUT">    268.00000000</i>
  <v name="MAGMOM">      3.00000000</v>
  <v type="int" name="KPOINT_BSE">    -1     0     0     0</v>
 </incar>
 <structure name="primitive_cell" >
  <crystal>
   <varray name="basis" >
    <v>      -1.30000000       1.30000000       1.30000000 </v>
    <v>       1.30000000      -1.30000000       1.30000000 </v>
    <v>       1.30000000       1.30000000      -1.30000000 </v>
   </varray>
   <i name="volume">      8.78800000 </i>
   <varray name="rec_basis" >
    <v>       0.00000000       0.38461538       0.38461538 </v>
    <v>       0.38461538       0.00000000       0.38461538 </v>
    <v>       0.38461538       0.38461538       0.00000000 </v>
   </varray>
  </crystal>
  <varray name="positions" >
   <v>       0.00000000       0.00000000       0.00000000 </v>
  </varray>
 </structure>
 <varray name="primitive_index" >
  <v type="int" >        1 </v>
 </varray>
 <kpoints>
  <generation param="Monkhorst-Pack">
   <v type="int" name="divisions">      10       10       10 </v>
   <v name="usershift">      0.00000000       0.00000000       0.00000000 </v>
   <v name="genvec1">      0.10000000       0.00000000       0.00000000 </v>
   <v name="genvec2">      0.00000000       0.10000000       0.00000000 </v>
   <v name="genvec3">      0.00000000       0.00000000       0.10000000 </v>
   <v name="shift">      0.50000000       0.50000000       0.50000000 </v>
  </generation>
  <varray name="kpointlist" >
   <v>       0.05000000       0.05000000       0.05000000 </v>
   <v>       0.15000000       0.05000000       0.05000000 </v>
   <v>       0.25000000       0.05000000       0.05000000 </v>
   <v>       0.35000000       0.05000000       0.05000000 </v>
   <v>       0.45000000       0.05000000       0.05000000 </v>
   <v>      -0.05000000       0.05000000       0.05000000 </v>
   <v>       0.15000000       0.15000000       0.05000000 </v>
   <v>       0.25000000       0.15000000       0.05000000 </v>
   <v>       0.35000000       0.15000000       0.05000000 </v>
   <v>      -0.15000000       0.15000000       0.05000000 </v>
   <v>       0.25000000       0.25000000       0.05000000 </v>
   <v>       0.35000000       0.25000000       0.05000000 </v>
   <v>      -0.25000000       0.25000000       0.05000000 </v>
   <v>      -0.15000000       0.25000000       0.05000000 </v>
   <v>      -0.35000000       0.35000000       0.05000000 </v>
   <v>      -0.25000000       0.35000000       0.05000000 </v>
   <v>      -0.45000000       0.45000000       0.05000000 </v>
   <v>      -0.35000000       0.45000000       0.05000000 </v>
   <v>      -0.25000000       0.45000000       0.05000000 </v>
   <v>      -0.45000000      -0.45000000       0.05000000 </v>
   <v>      -0.35000000      -0.45000000       0.05000000 </v>
   <v>      -0.35000000      -0.35000000       0.05000000 </v>
   <v>       0.15000000       0.15000000       0.15000000 </v>
   <v>       0.25000000       0.15000000       0.15000000 </v>
   <v>       0.35000000       0.15000000       0.15000000 </v>
   <v>      -0.15000000       0.15000000       0.15000000 </v>
   <v>       0.25000000       0.25000000       0.15000000 </v>
   <v>      -0.25000000       0.25000000       0.15000000 </v>
   <v>      -0.35000000       0.35000000       0.15000000 </v>
   <v>      -0.25000000       0.35000000       0.15000000 </v>
   <v>      -0.45000000       0.45000000       0.15000000 </v>
   <v>      -0.35000000       0.45000000       0.15000000 </v>
   <v>      -0.45000000      -0.45000000       0.15000000 </v>
   <v>      -0.35000000      -0.45000000       0.15000000 </v>
   <v>       0.25000000       0.25000000       0.25000000 </v>
   <v>      -0.25000000       0.25000000       0.25000000 </v>
   <v>      -0.35000000       0.35000000       0.25000000 </v>
   <v>      -0.45000000       0.45000000       0.25000000 </v>
   <v>      -0.35000000       0.45000000       0.25000000 </v>
   <v>      -0.45000000      -0.45000000       0.25000000 </v>
   <v>      -0.35000000       0.35000000       0.35000000 </v>
   <v>      -0.45000000       0.45000000       0.35000000 </v>
   <v>      -0.45000000      -0.45000000       0.35000000 </v>
   <v>      -0.45000000       0.45000000       0.45000000 </v>
  </varray>
  <varray name="weights" >
   <v>       0.00800000 </v>
   <v>       0.02400000 </v>
   <v>       0.02400000 </v>
   <v>       0.02400000 </v>
   <v>       0.01200000 </v>
   <v>       0.00600000 </v>
   <v>       0.02400000 </v>
   <v>       0.04800000 </v>
   <v>       0.04800000 </v>
   <v>       0.02400000 </v>
   <v>       0.02400000 </v>
   <v>       0.02400000 </v>
   <v>       0.02400000 </v>
   <v>       0.02400000 </v>
   <v>       0.02400000 </v>
   <v>       0.04800000 </v>
   <v>       0.02400000 </v>
   <v>       0.04800000 </v>
   <v>       0.02400000 </v>
   <v>       0.02400000 </v>
   <v>       0.04800000 </v>
   <v>       0.00800000 </v>
   <v>       0.00800000 </v>
   <v>       0.02400000 </v>
   <v>       0.01200000 </v>
   <v>       0.00600000 </v>
   <v>       0.02400000 </v>
   <v>       0.02400000 </v>
   <v>       0.02400000 </v>
   <v>       0.02400000 </v>
   <v>       0.02400000 </v>
   <v>       0.04800000 </v>
   <v>       0.02400000 </v>
   <v>       0.02400000 </v>
   <v>       0.00200000 </v>
   <v>       0.00600000 </v>
   <v>       0.02400000 </v>
   <v>       0.02400000 </v>
   <v>       0.02400000 </v>
   <v>       0.02400000 </v>
   <v>       0.00600000 </v>
   <v>       0.02400000 </v>
   <v>       0.00800000 </v>
   <v>       0.00600000 </v>
  </varray>
 </kpoints>
 <parameters>
  <separator name="general" >
   <i type="string" name="SYSTEM">bcc Fe</i>
   <i type="logical" name="LCOMPAT"> F  </i>
  </separator>
  <separator name="electronic" >
   <i type="string" name="PREC">normal</i>
   <i name="ENMAX">    268.00000000</i>
   <i name="ENAUG">    511.36800000</i>
   <i name="EDIFF">      0.00010000</i>
   <i type="int" name="IALGO">    38</i>
   <i type="int" name="IWAVPR">    10</i>
   <i type="int" name="NBANDS">    12</i>
   <i name="NELECT">      8.00000000</i>
   <i type="int" name="TURBO">     0</i>
   <i type="int" name="IRESTART">     0</i>
   <i type="int" name="NREBOOT">     0</i>
   <i type="int" name="NMIN">     0</i>
   <i name="EREF">      0.00000000</i>
   <separator name="electronic smearing" >
    <i type="int" name="ISMEAR">     1</i>
    <i name="SIGMA">      0.20000000</i>
    <i name="KSPACING">      0.50000000</i>
    <i type="logical" name="KGAMMA"> T  </i>
   </separator>
   <separator name="electronic projectors" >
    <i type="logical" name="LREAL"> F  </i>
    <v name="ROPT">      0.00000000</v>
    <i type="int" name="LMAXPAW">  -100</i>
    <i type="int" name="LMAXMIX">     2</i>
    <i type="logical" name="NLSPLINE"> F  </i>
   </separator>
   <separator name="electronic startup" >
    <i type="int" name="ISTART">     0</i>
    <i type="int" name="ICHARG">     2</i>
    <i type="int" name="INIWAV">     1</i>
   </separator>
   <separator name="electronic spin" >
    <i type="int" name="ISPIN">     2</i>
    <i type="logical" name="LNONCOLLINEAR"> F  </i>
    <v name="MAGMOM">      3.00000000</v>
    <i name="NUPDOWN">     -1.00000000</i>
    <i type="logical" name="LSORBIT"> F  </i>
    <v name="SAXIS">      0.00000000      0.00000000      1.00000000</v>
    <i type="logical" name="LSPIRAL"> F  </i>
    <v name="QSPIRAL">      0.00000000      0.00000000      0.00000000</v>
    <i type="logical" name="LZEROZ"> F  </i>
   </separator>
   <separator name="electronic exchange-correlation" >
    <i type="logical" name="LASPH"> F  </i>
    <i type="logical" name="LMETAGGA"> F  </i>
   </separator>
   <separator name="electronic convergence" >
    <i type="int" name="NELM">    60</i>
    <i type="int" name="NELMDL">    -5</i>
    <i type="int" name="NELMIN">     2</i>
    <i name="ENINI">    268.00000000</i>
    <separator name="electronic convergence detail" >
     <i type="logical" name="LDIAG"> T  </i>
     <i type="logical" name="LSUBROT"> F  </i>
     <i name="WEIMIN">      0.00000000</i>
     <i name="EBREAK">      0.00000208</i>
     <i name="DEPER">      0.30000000</i>
     <i type="int" name="NRMM">     4</i>
     <i name="TIME">      0.40000000</i>
    </separator>
   </separator>
   <separator name="electronic mixer" >
    <i name="AMIX">      0.40000000</i>
    <i name="BMIX">      1.00000000</i>
    <i name="AMIN">      0.10000000</i>
    <i name="AMIX_MAG">      1.60000000</i>
    <i name="BMIX_MAG">      1.00000000</i>
    <separator name="electronic mixer details" >
     <i type="int" name="IMIX">     4</i>
     <i type="logical" name="MIXFIRST"> F  </i>
     <i type="int" name="MAXMIX">   -45</i>
     <i name="WC">    100.00000000</i>
     <i type="int" name="INIMIX">     1</i>
     <i type="int" name="MIXPRE">     1</i>
     <i type="int" name="MREMOVE">     5</i>
    </separator>
   </separator>
   <separator name="electronic dipolcorrection" >
    <i type="logical" name="LDIPOL"> F  </i>
    <i type="logical" name="LMONO"> F  </i>
    <i type="int" name="IDIPOL">     0</i>
    <i name="EPSILON">      1.00000000</i>
    <v name="DIPOL">   -100.00000000   -100.00000000   -100.00000000</v>
    <i name="EFIELD">      0.00000000</i>
   </separator>
  </separator>
  <separator name="grids" >
   <i type="int" name="NGX">    10</i>
   <i type="int" name="NGY">    10</i>
   <i type="int" name="NGZ">    10</i>
   <i type="int" name="NGXF">    20</i>
   <i type="int" name="NGYF">    20</i>
   <i type="int" name="NGZF">    20</i>
   <i type="logical" name="ADDGRID"> F  </i>
  </separator>
  <separator name="ionic" >
   <i type="int" name="NSW">     0</i>
   <i type="int" name="IBRION">    -1</i>
   <i type="int" name="MDALGO">     0</i>
   <i type="int" name="ISIF">     2</i>
   <i name="PSTRESS">      0.00000000</i>
   <i name="EDIFFG">      0.00100000</i>
   <i type="int" name="NFREE">     0</i>
   <i name="POTIM">      0.50000000</i>
   <i name="SMASS">     -3.00000000</i>
   <i name="SCALEE">      1.00000000</i>
  </separator>
  <separator name="ionic md" >
   <i name="TEBEG">      0.00010000</i>
   <i name="TEEND">      0.00010000</i>
   <i type="int" name="NBLOCK">     1</i>
   <i type="int" name="KBLOCK">     1</i>
   <i type="int" name="NPACO">   256</i>
   <i name="APACO">     16.00000000</i>
  </separator>
  <separator name="symmetry" >
   <i type="int" name="ISYM">     2</i>
   <i name="SYMPREC">      0.00001000</i>
  </separator>
  <separator name="dos" >
   <i type="int" name="LORBIT">     0</i>
   <v name="RWIGS">     -1.00000000</v>
   <i type="int" name="NEDOS">   301</i>
   <i name="EMIN">     10.00000000</i>
   <i name="EMAX">    -10.00000000</i>
   <i name="EFERMI">      0.00000000</i>
  </separator>
  <separator name="writing" >
   <i type="int" name="NWRITE">     2</i>
   <i type="logical" name="LWAVE"> T  </i>
   <i type="logical" name="LDOWNSAMPLE"> F  </i>
   <i type="logical" name="LCHARG"> T  </i>
   <i type="logical" name="LPARD"> F  </i>
   <i type="logical" name="LVTOT"> F  </i>
   <i type="logical" name="LVHAR"> F  </i>
   <i type="logical" name="LELF"> F  </i>
   <i type="logical" name="LOPTICS"> F  </i>
   <v name="STM">      0.00000000      0.00000000      0.00000000      0.00000000      0.00000000      0.00000000      0.00000000</v>
  </separator>
  <separator name="performance" >
   <i type="int" name="NPAR">     4</i>
   <i type="int" name="NSIM">     4</i>
   <i type="int" name="NBLK">    -1</i>
   <i type="logical" name="LPLANE"> T  </i>
   <i type="logical" name="LSCALAPACK"> T  </i>
   <i type="logical" name="LSCAAWARE"> F  </i>
   <i type="logical" name="LSCALU"> F  </i>
   <i type="logical" name="LASYNC"> F  </i>
   <i type="logical" name="LORBITALREAL"> F  </i>
  </separator>
  <separator name="miscellaneous" >
   <i type="int" name="IDIOT">     3</i>
   <i type="int" name="ISPECIAL">     0</i>
   <i type="logical" name="LMUSIC"> F  </i>
   <v name="POMASS">     55.84700000</v>
   <v name="DARWINR">      0.00000000</v>
   <v name="DARWINV">      1.00000000</v>
   <i type="logical" name="LCORR"> T  </i>
  </separator>
  <i type="logical" name="GGA_COMPAT"> T  </i>
  <i type="logical" name="LBERRY"> F  </i>
  <i type="int" name="ICORELEVEL">     0</i>
  <i type="logical" name="LDAU"> F  </i>
  <i type="int" name="I_CONSTRAINED_M">     0</i>
  <separator name="electronic exchange-correlation" >
   <i type="string" name="GGA">--</i>
   <i type="int" name="VOSKOWN">     0</i>
   <i type="logical" name="LHFCALC"> F  </i>
   <i type="string" name="PRECFOCK"></i>
   <i type="logical" name="LSYMGRAD"> F  </i>
   <i type="logical" name="LHFONE"> F  </i>
   <i type="logical" name="LRHFCALC"> F  </i>
   <i type="logical" name="LTHOMAS"> F  </i>
   <i type="logical" name="LMODELHF"> F  </i>
   <i name="ENCUT4O">     -1.00000000</i>
   <i type="int" name="EXXOEP">     0</i>
   <i type="int" name="FOURORBIT">     0</i>
   <i name="AEXX">      0.00000000</i>
   <i name="HFALPHA">      0.00000000</i>
   <i name="MCALPHA">      0.00000000</i>
   <i name="ALDAX">      1.00000000</i>
   <i name="AGGAX">      1.00000000</i>
   <i name="ALDAC">      1.00000000</i>
   <i name="AGGAC">      1.00000000</i>
   <i type="int" name="NKREDX">     1</i>
   <i type="int" name="NKREDY">     1</i>
   <i type="int" name="NKREDZ">     1</i>
   <i type="logical" name="SHIFTRED"> F  </i>
   <i type="logical" name="ODDONLY"> F  </i>
   <i type="logical" name="EVENONLY"> F  </i>
   <i type="int" name="LMAXFOCK">     0</i>
   <i type="int" name="NMAXFOCKAE">     0</i>
   <i type="logical" name="LFOCKAEDFT"> F  </i>
   <i name="HFSCREEN">      0.00000000</i>
   <i name="HFSCREENC">      0.00000000</i>
   <i type="int" name="NBANDSGWLOW">     0</i>
  </separator>
  <separator name="vdW DFT" >
   <i type="logical" name="LUSE_VDW"> F  </i>
   <i name="Zab_VDW">     -0.84910000</i>
   <i name="PARAM1">      0.12340000</i>
   <i name="PARAM2">      1.00000000</i>
   <i name="PARAM3">      0.00000000</i>
  </separator>
  <separator name="model GW" >
   <i type="int" name="MODEL_GW">     0</i>
   <i name="MODEL_EPS0">      5.27280000</i>
   <i name="MODEL_ALPHA">      1.00000000</i>
  </separator>
  <separator name="linear response parameters" >
   <i type="logical" name="LEPSILON"> F  </i>
   <i type="logical" name="LRPA"> F  </i>
   <i type="logical" name="LNABLA"> F  </i>
   <i type="logical" name="LVEL"> F  </i>
   <i type="int" name="KINTER">     0</i>
   <i name="CSHIFT">      0.10000000</i>
   <i name="OMEGAMAX">     -1.00000000</i>
   <i name="DEG_THRESHOLD">      0.00200000</i>
   <i name="RTIME">     -0.10000000</i>
   <i name="WPLASMAI">      0.00000000</i>
   <v name="DFIELD">      0.00000000      0.00000000      0.00000000</v>
   <v name="WPLASMA">      0.00000000      0.00000000      0.00000000      0.00000000      0.00000000      0.00000000      0.00000000      0.00000000      0.00000000</v>
  </separator>
  <separator name="orbital magnetization" >
   <i type="logical" name="NUCIND"> F  </i>
   <v name="MAGPOS">      0.00000000      0.00000000      0.00000000</v>
   <i type="logical" name="LNICSALL"> T  </i>
   <i type="logical" name="ORBITALMAG"> F  </i>
   <i type="logical" name="LMAGBLOCH"> F  </i>
   <i type="logical" name="LCHIMAG"> F  </i>
   <i type="logical" name="LGAUGE"> T  </i>
   <i type="int" name="MAGATOM">     0</i>
   <v name="MAGDIPOL">      0.00000000      0.00000000      0.00000000</v>
   <v name="AVECCONST">      0.00000000      0.00000000      0.00000000</v>
  </separator>
  <separator name="response functions" >
   <i type="logical" name="LADDER"> F  </i>
   <i type="logical" name="LRPAFORCE"> F  </i>
   <i type="logical" name="LFXC"> F  </i>
   <i type="logical" name="LHARTREE"> T  </i>
   <i type="int" name="IBSE">     0</i>
   <v type="int" name="KPOINT">    -1     0     0     0</v>
   <i type="logical" name="LTCTE"> F  </i>
   <i type="logical" name="LTETE"> F  </i>
   <i type="logical" name="LTRIPLET"> F  </i>
   <i type="logical" name="LFXCEPS"> F  </i>
   <i type="logical" name="LFXHEG"> F  </i>
   <i type="int" name="NATURALO">     2</i>
   <i type="logical" name="L2ORDER"> F  </i>
   <i type="logical" name="LMP2LT"> F  </i>
   <i type="logical" name="LUSEW"> F  </i>
   <i name="ENCUTGW">     -2.00000000</i>
   <i name="ENCUTGWSOFT">     -2.00000000</i>
   <i name="ENCUTLF">     -1.00000000</i>
   <i type="int" name="LMAXMP2">    -1</i>
   <i name="SCISSOR">      0.00000000</i>
   <i type="int" name="NOMEGA">     0</i>
   <i type="int" name="NOMEGAR">     0</i>
   <i type="int" name="NBANDSGW">    -1</i>
   <i type="int" name="NBANDSO">    -1</i>
   <i type="int" name="NBANDSV">    -1</i>
   <i type="int" name="NELM">     1</i>
   <i type="int" name="NELMHF">     1</i>
   <i type="int" name="DIM">     3</i>
   <i type="int" name="ANTIRES">     0</i>
   <i name="OMEGAMAX">    -30.00000000</i>
   <i name="OMEGAMIN">    -30.00000000</i>
   <i name="OMEGATL">   -200.00000000</i>
   <i type="int" name="OMEGAGRID">   140</i>
   <i name="CSHIFT">     -0.10000000</i>
   <i type="logical" name="SELFENERGY"> F  </i>
   <i type="logical" name="LSPECTRAL"> F  </i>
   <i type="logical" name="LSPECTRALGW"> F  </i>
   <i type="logical" name="LSINGLES"> F  </i>
   <i type="logical" name="LFERMIGW"> F  </i>
   <i type="logical" name="ODDONLYGW"> F  </i>
   <i type="logical" name="EVENONLYGW"> F  </i>
   <i type="int" name="NKREDLFX">     1</i>
   <i type="int" name="NKREDLFY">     1</i>
   <i type="int" name="NKREDLFZ">     1</i>
   <i type="int" name="MAXMEM">  2800</i>
   <i type="int" name="TELESCOPE">     0</i>
   <i type="int" name="TAUPAR">     1</i>
   <i type="int" name="OMEGAPAR">    -1</i>
   <i name="LAMBDA">      1.00000000</i>
  </separator>
  <separator name="External order field" >
   <i name="OFIELD_KAPPA">      0.00000000</i>
   <v name="OFIELD_K">      0.00000000      0.00000000      0.00000000</v>
   <i name="OFIELD_Q6_NEAR">      0.00000000</i>
   <i name="OFIELD_Q6_FAR">      0.00000000</i>
   <i name="OFIELD_A">      0.00000000</i>
  </separator>
 </parameters>
 <atominfo>
  <atoms>       1 </atoms>
  <types>       1 </types>
  <array name="atoms" >
   <dimension dim="1">ion</dimension>
   <field type="string">element</field>
   <field type="int">atomtype</field>
   <set>
    <rc><c>Fe</c><c>   1</c></rc>
   </set>
  </array>
  <array name="atomtypes" >
   <dimension dim="1">type</dimension>
   <field type="int">atomspertype</field>
   <field type="string">element</field>
   <field>mass</field>
   <field>valence</field>
   <field type="string">pseudopotential</field>
   <set>
    <rc><c>   1</c><c>Fe</c><c>     55.84700000</c><c>      8.00000000</c><c>  PAW_PBE Fe 06Sep2000                  </c></rc>
   </set>
  </array>
 </atominfo>
 <structure name="initialpos" >
  <crystal>
   <varray name="basis" >
    <v>      -1.30000000       1.30000000       1.30000000 </v>
    <v>       1.30000000      -1.30000000       1.30000000 </v>
    <v>       1.30000000       1.30000000      -1.30000000 </v>
   </varray>
   <i name="volume">      8.78800000 </i>
   <varray name="rec_basis" >
    <v>       0.00000000       0.38461538       0.38461538 </v>
    <v>       0.38461538       0.00000000       0.38461538 </v>
    <v>       0.38461538       0.38461538       0.00000000 </v>
   </varray>
  </crystal>
  <varray name="positions" >
   <v>       0.00000000       0.00000000       0.00000000 </v>
  </varray>
 </structure>
 <calculation>
  <scstep>
   <time name="dav">    0.13    0.14</time>
   <time name="total">    0.14    0.15</time>
   <energy>
    <i name="alphaZ">     78.64562585 </i>
    <i name="ewald">   -644.97461067 </i>
    <i name="hartreedc">    -92.46749516 </i>
    <i name="XCdc">      5.92855513 </i>
    <i name="pawpsdc">    553.75926685 </i>
    <i name="pawaedc">   -561.48528711 </i>
    <i name="eentropy">      0.00040431 </i>
    <i name="bandstr">     76.56721871 </i>
    <i name="atom">    594.28084496 </i>
    <i name="e_fr_energy">     10.25452289 </i>
    <i name="e_wo_entrp">     10.25411858 </i>
    <i name="e_0_energy">     10.25438812 </i>
   </energy>
  </scstep>
  <scstep>
   <time name="dav">    0.11    0.11</time>
   <time name="total">    0.11    0.11</time>
   <energy>
    <i name="e_fr_energy">     -8.03154905 </i>
    <i name="e_wo_entrp">     -8.02995229 </i>
    <i name="e_0_energy">     -8.03101680 </i>
   </energy>
  </scstep>
  <scstep>
   <time name="dav">    0.11    0.11</time>
   <time name="total">    0.11    0.12</time>
   <energy>
    <i name="e_fr_energy">     -8.28032215 </i>
    <i name="e_wo_entrp">     -8.27908060 </i>
    <i name="e_0_energy">     -8.27990830 </i>
   </energy>
  </scstep>
  <scstep>
   <time name="dav">    0.11    0.11</time>
   <time name="total">    0.11    0.11</time>
   <energy>
    <i name="e_fr_energy">     -8.28085488 </i>
    <i name="e_wo_entrp">     -8.27961381 </i>
    <i name="e_0_energy">     -8.28044119 </i>
   </energy>
  </scstep>
  <scstep>
   <time name="dav">    0.10    0.10</time>
   <time name="total">    0.10    0.10</time>
   <energy>
    <i name="e_fr_energy">     -8.28085658 </i>
    <i name="e_wo_entrp">     -8.27961551 </i>
    <i name="e_0_energy">     -8.28044289 </i>
   </energy>
  </scstep>
  <scstep>
   <time name="dav">    0.11    0.11</time>
   <time name="total">    0.12    0.12</time>
   <energy>
    <i name="e_fr_energy">     -7.70557430 </i>
    <i name="e_wo_entrp">     -7.70090257 </i>
    <i name="e_0_energy">     -7.70401706 </i>
   </energy>
  </scstep>
  <scstep>
   <time name="dav">    0.11    0.11</time>
   <time name="total">    0.12    0.12</time>
   <energy>
    <i name="e_fr_energy">     -7.68043563 </i>
    <i name="e_wo_entrp">     -7.67698729 </i>
    <i name="e_0_energy">     -7.67928618 </i>
   </energy>
  </scstep>
  <scstep>
   <time name="dav">    0.12    0.12</time>
   <time name="total">    0.13    0.13</time>
   <energy>
    <i name="e_fr_energy">     -7.66475256 </i>
    <i name="e_wo_entrp">     -7.66533040 </i>
    <i name="e_0_energy">     -7.66494517 </i>
   </energy>
  </scstep>
  <scstep>
   <time name="dav">    0.12    0.12</time>
   <time name="total">    0.12    0.13</time>
   <energy>
    <i name="e_fr_energy">     -7.66504291 </i>
    <i name="e_wo_entrp">     -7.66589017 </i>
    <i name="e_0_energy">     -7.66532533 </i>
   </energy>
  </scstep>
  <scstep>
   <time name="dav">    0.11    0.11</time>
   <time name="total">    0.12    0.12</time>
   <energy>
    <i name="e_fr_energy">     -7.66563776 </i>
    <i name="e_wo_entrp">     -7.66616662 </i>
    <i name="e_0_energy">     -7.66581404 </i>
   </energy>
  </scstep>
  <scstep>
   <time name="dav">    0.08    0.08</time>
   <time name="total">    0.08    0.09</time>
   <energy>
    <i name="alphaZ">     78.64562585 </i>
    <i name="ewald">   -644.97461067 </i>
    <i name="hartreedc">    -76.48938209 </i>
    <i name="XCdc">      4.78672710 </i>
    <i name="pawpsdc">    888.30842919 </i>
    <i name="pawaedc">   -898.65894970 </i>
    <i name="eentropy">      0.00036594 </i>
    <i name="bandstr">     46.43529638 </i>
    <i name="atom">    594.28084496 </i>
    <i name="e_fr_energy">     -7.66565302 </i>
    <i name="e_wo_entrp">     -7.66601897 </i>
    <i name="e_0_energy">     -7.66577501 </i>
   </energy>
  </scstep>
  <structure>
   <crystal>
    <varray name="basis" >
     <v>      -1.30000000       1.30000000       1.30000000 </v>
     <v>       1.30000000      -1.30000000       1.30000000 </v>
     <v>       1.30000000       1.30000000      -1.30000000 </v>
    </varray>
    <i name="volume">      8.78800000 </i>
    <varray name="rec_basis" >
     <v>       0.00000000       0.38461538       0.38461538 </v>
     <v>       0.38461538       0.00000000       0.38461538 </v>
     <v>       0.38461538       0.38461538       0.00000000 </v>
    </varray>
   </crystal>
   <varray name="positions" >
    <v>       0.00000000       0.00000000       0.00000000 </v>
   </varray>
  </structure>
  <varray name="forces" >
   <v>      -0.00000000       0.00000000      -0.00000000 </v>
  </varray>
  <varray name="stress" >
   <v>     855.74986958      -0.00000000      -0.00000000 </v>
   <v>       0.00000000     855.74986958       0.00000000 </v>
   <v>       0.00000000       0.00000000     855.74986958 </v>
  </varray>
  <energy>
   <i name="e_fr_energy">     -7.66565302 </i>
   <i name="e_wo_entrp">     -7.66577501 </i>
   <i name="e_0_energy">      0.00036594 </i>
  </energy>
  <time name="totalsc">    1.35    1.41</time>
  <eigenvalues>
   <array>
    <dimension dim="1">band</dimension>
    <dimension dim="2">kpoint</dimension>
    <dimension dim="3">spin</dimension>
    <field>eigene</field>
    <field>occ</field>
    <set>
     <set comment="spin 1">
      <set comment="kpoint 1">
       <r>   -0.3977    1.0000 </r>
       <r>    5.7534    1.0000 </r>
       <r>    5.7534    1.0000 </r>
       <r>    6.5221    1.0000 </r>
       <r>    7.7669    1.0000 </r>
       <r>    7.7669    1.0000 </r>
       <r>   34.2695    0.0000 </r>
       <r>   34.2695    0.0000 </r>
       <r>   37.0751    0.0000 </r>
       <r>   41.9997    0.0000 </r>
       <r>   44.2980    0.0000 </r>
       <r>   44.2980    0.0000 </r>
      </set>
      <set comment="kpoint 2">
       <r>    0.9245    1.0000 </r>
       <r>    5.3011    1.0000 </r>
       <r>    5.5196    1.0000 </r>
       <r>    7.5103    1.0000 </r>
       <r>    7.6106    1.0000 </r>
       <r>    7.8931    1.0000 </r>
       <r>   30.2158    0.0000 </r>
       <r>   32.4328    0.0000 </r>
       <r>   37.7945    0.0000 </r>
       <r>   37.9246    0.0000 </r>
       <r>   44.3476    0.0000 </r>
       <r>   45.1549    0.0000 </r>
      </set>
      <set comment="kpoint 3">
       <r>    2.3113    1.0000 </r>
       <r>    4.8092    1.0000 </r>
       <r>    5.6972    1.0000 </r>
       <r>    7.7161    1.0000 </r>
       <r>    8.0310    1.0000 </r>
       <r>    8.8715    0.8798 </r>
       <r>   25.4998    0.0000 </r>
       <r>   30.4798    0.0000 </r>
       <r>   34.8742    0.0000 </r>
       <r>   38.0122    0.0000 </r>
       <r>   43.9663    0.0000 </r>
       <r>   46.5522    0.0000 </r>
      </set>
      <set comment="kpoint 4">
       <r>    2.5938    1.0000 </r>
       <r>    4.4461    1.0000 </r>
       <r>    7.1749    1.0000 </r>
       <r>    7.9360    1.0000 </r>
       <r>    8.1435    1.0000 </r>
       <r>   10.3771   -0.0000 </r>
       <r>   21.1228    0.0000 </r>
       <r>   29.0198    0.0000 </r>
       <r>   32.8196    0.0000 </r>
       <r>   37.9991    0.0000 </r>
       <r>   43.6715    0.0000 </r>
       <r>   48.7825    0.0000 </r>
      </set>
      <set comment="kpoint 5">
       <r>    2.5160    1.0000 </r>
       <r>    4.3162    1.0000 </r>
       <r>    7.9889    1.0000 </r>
       <r>    8.1665    1.0000 </r>
       <r>    8.1940    1.0000 </r>
       <r>   11.3728   -0.0000 </r>
       <r>   18.9510    0.0000 </r>
       <r>   28.4921    0.0000 </r>
       <r>   32.0614    0.0000 </r>
       <r>   38.0413    0.0000 </r>
       <r>   43.7739    0.0000 </r>
       <r>   48.3394    0.0000 </r>
      </set>
      <set comment="kpoint 6">
       <r>   -0.8902    1.0000 </r>
       <r>    5.9479    1.0000 </r>
       <r>    5.9479    1.0000 </r>
       <r>    6.0328    1.0000 </r>
       <r>    7.7062    1.0000 </r>
       <r>    7.9136    1.0000 </r>
       <r>   35.2589    0.0000 </r>
       <r>   36.4077    0.0000 </r>
       <r>   36.4077    0.0000 </r>
       <r>   42.0468    0.0000 </r>
       <r>   45.2832    0.0000 </r>
       <r>   45.8394    0.0000 </r>
      </set>
      <set comment="kpoint 7">
       <r>    2.3508    1.0000 </r>
       <r>    4.9482    1.0000 </r>
       <r>    5.0206    1.0000 </r>
       <r>    7.6437    1.0000 </r>
       <r>    8.0448    1.0000 </r>
       <r>    8.9526    0.5945 </r>
       <r>   27.6877    0.0000 </r>
       <r>   28.9064    0.0000 </r>
       <r>   33.8928    0.0000 </r>
       <r>   39.3593    0.0000 </r>
       <r>   45.2561    0.0000 </r>
       <r>   47.2979    0.0000 </r>
      </set>
      <set comment="kpoint 8">
       <r>    3.2328    1.0000 </r>
       <r>    4.5431    1.0000 </r>
       <r>    5.4515    1.0000 </r>
       <r>    7.8055    1.0000 </r>
       <r>    8.2206    1.0000 </r>
       <r>   10.8394   -0.0000 </r>
       <r>   23.5099    0.0000 </r>
       <r>   26.8374    0.0000 </r>
       <r>   31.4968    0.0000 </r>
       <r>   40.0934    0.0000 </r>
       <r>   46.0260    0.0000 </r>
       <r>   48.1354    0.0000 </r>
      </set>
      <set comment="kpoint 9">
       <r>    3.1388    1.0000 </r>
       <r>    4.3531    1.0000 </r>
       <r>    6.4556    1.0000 </r>
       <r>    7.9901    1.0000 </r>
       <r>    8.3511    1.0000 </r>
       <r>   12.9230   -0.0000 </r>
       <r>   19.7043    0.0000 </r>
       <r>   25.8633    0.0000 </r>
       <r>   30.3005    0.0000 </r>
       <r>   40.2616    0.0000 </r>
       <r>   46.8999    0.0000 </r>
       <r>   48.0333    0.0000 </r>
      </set>
      <set comment="kpoint 10">
       <r>    0.0695    1.0000 </r>
       <r>    5.6652    1.0000 </r>
       <r>    5.8860    1.0000 </r>
       <r>    6.6331    1.0000 </r>
       <r>    7.3901    1.0000 </r>
       <r>    8.0170    1.0000 </r>
       <r>   32.3675    0.0000 </r>
       <r>   35.0944    0.0000 </r>
       <r>   36.2360    0.0000 </r>
       <r>   41.1528    0.0000 </r>
       <r>   42.6948    0.0000 </r>
       <r>   43.5766    0.0000 </r>
      </set>
      <set comment="kpoint 11">
       <r>    3.7528    1.0000 </r>
       <r>    4.4559    1.0000 </r>
       <r>    5.4010    1.0000 </r>
       <r>    7.9621    1.0000 </r>
       <r>    8.3394    1.0000 </r>
       <r>   13.5068   -0.0000 </r>
       <r>   21.4289    0.0000 </r>
       <r>   23.1173    0.0000 </r>
       <r>   30.0209    0.0000 </r>
       <r>   41.6553    0.0000 </r>
       <r>   45.4127    0.0000 </r>
       <r>   52.4929    0.0000 </r>
      </set>
      <set comment="kpoint 12">
       <r>    3.7696    1.0000 </r>
       <r>    4.5340    1.0000 </r>
       <r>    5.4601    1.0000 </r>
       <r>    8.1107    1.0000 </r>
       <r>    8.3308    1.0000 </r>
       <r>   15.8606    0.0000 </r>
       <r>   18.8064    0.0000 </r>
       <r>   22.2281    0.0000 </r>
       <r>   29.6041    0.0000 </r>
       <r>   42.3980    0.0000 </r>
       <r>   45.0217    0.0000 </r>
       <r>   52.6549    0.0000 </r>
      </set>
      <set comment="kpoint 13">
       <r>    1.5788    1.0000 </r>
       <r>    5.1883    1.0000 </r>
       <r>    5.7377    1.0000 </r>
       <r>    7.4007    1.0000 </r>
       <r>    7.7256    1.0000 </r>
       <r>    8.1447    1.0000 </r>
       <r>   27.8882    0.0000 </r>
       <r>   32.6993    0.0000 </r>
       <r>   35.5948    0.0000 </r>
       <r>   39.7495    0.0000 </r>
       <r>   41.7064    0.0000 </r>
       <r>   43.4861    0.0000 </r>
      </set>
      <set comment="kpoint 14">
       <r>    1.3124    1.0000 </r>
       <r>    5.5370    1.0000 </r>
       <r>    5.5595    1.0000 </r>
       <r>    7.0967    1.0000 </r>
       <r>    7.4581    1.0000 </r>
       <r>    8.2636    1.0000 </r>
       <r>   29.9348    0.0000 </r>
       <r>   31.8301    0.0000 </r>
       <r>   36.4099    0.0000 </r>
       <r>   38.8658    0.0000 </r>
       <r>   41.3736    0.0000 </r>
       <r>   45.2748    0.0000 </r>
      </set>
      <set comment="kpoint 15">
       <r>    2.4442    1.0000 </r>
       <r>    4.7366    1.0000 </r>
       <r>    6.4574    1.0000 </r>
       <r>    7.7796    1.0000 </r>
       <r>    8.4831    1.0014 </r>
       <r>    8.9501    0.6046 </r>
       <r>   23.1783    0.0000 </r>
       <r>   30.6909    0.0000 </r>
       <r>   34.1321    0.0000 </r>
       <r>   38.3013    0.0000 </r>
       <r>   41.8236    0.0000 </r>
       <r>   45.4842    0.0000 </r>
      </set>
      <set comment="kpoint 16">
       <r>    2.6227    1.0000 </r>
       <r>    5.0028    1.0000 </r>
       <r>    5.5229    1.0000 </r>
       <r>    7.3023    1.0000 </r>
       <r>    8.3410    1.0000 </r>
       <r>    9.0686    0.1482 </r>
       <r>   25.7741    0.0000 </r>
       <r>   29.1791    0.0000 </r>
       <r>   35.1147    0.0000 </r>
       <r>   37.8735    0.0000 </r>
       <r>   41.9163    0.0000 </r>
       <r>   46.0619    0.0000 </r>
      </set>
      <set comment="kpoint 17">
       <r>    2.4258    1.0000 </r>
       <r>    4.4680    1.0000 </r>
       <r>    7.3677    1.0000 </r>
       <r>    7.8943    1.0000 </r>
       <r>    9.7848   -0.0000 </r>
       <r>    9.8108   -0.0000 </r>
       <r>   19.5522    0.0000 </r>
       <r>   29.5578    0.0000 </r>
       <r>   32.8195    0.0000 </r>
       <r>   37.8954    0.0000 </r>
       <r>   42.1649    0.0000 </r>
       <r>   46.3705    0.0000 </r>
      </set>
      <set comment="kpoint 18">
       <r>    2.8965    1.0000 </r>
       <r>    4.7272    1.0000 </r>
       <r>    6.0462    1.0000 </r>
       <r>    7.6766    1.0000 </r>
       <r>    8.8678    0.8893 </r>
       <r>   10.9278   -0.0000 </r>
       <r>   21.3229    0.0000 </r>
       <r>   27.7237    0.0000 </r>
       <r>   33.2352    0.0000 </r>
       <r>   38.2424    0.0000 </r>
       <r>   42.8826    0.0000 </r>
       <r>   45.9613    0.0000 </r>
      </set>
      <set comment="kpoint 19">
       <r>    3.4976    1.0000 </r>
       <r>    4.4923    1.0000 </r>
       <r>    5.5243    1.0000 </r>
       <r>    7.4926    1.0000 </r>
       <r>    8.5708    1.0075 </r>
       <r>   11.3143   -0.0000 </r>
       <r>   23.5721    0.0000 </r>
       <r>   24.9063    0.0000 </r>
       <r>   34.9491    0.0000 </r>
       <r>   36.9836    0.0000 </r>
       <r>   41.7681    0.0000 </r>
       <r>   50.5742    0.0000 </r>
      </set>
      <set comment="kpoint 20">
       <r>    2.8033    1.0000 </r>
       <r>    4.6343    1.0000 </r>
       <r>    6.3757    1.0000 </r>
       <r>    7.7342    1.0000 </r>
       <r>    9.2771   -0.0272 </r>
       <r>   12.3402   -0.0000 </r>
       <r>   18.9677    0.0000 </r>
       <r>   27.2055    0.0000 </r>
       <r>   32.5198    0.0000 </r>
       <r>   38.4384    0.0000 </r>
       <r>   43.6899    0.0000 </r>
       <r>   45.4233    0.0000 </r>
      </set>
      <set comment="kpoint 21">
       <r>    3.5978    1.0000 </r>
       <r>    4.5770    1.0000 </r>
       <r>    5.3829    1.0000 </r>
       <r>    7.8370    1.0000 </r>
       <r>    8.7589    1.0316 </r>
       <r>   14.0922   -0.0000 </r>
       <r>   19.8618    0.0000 </r>
       <r>   23.4574    0.0000 </r>
       <r>   34.0543    0.0000 </r>
       <r>   38.0103    0.0000 </r>
       <r>   41.3845    0.0000 </r>
       <r>   50.2866    0.0000 </r>
      </set>
      <set comment="kpoint 22">
       <r>    4.2084    1.0000 </r>
       <r>    4.6239    1.0000 </r>
       <r>    4.6239    1.0000 </r>
       <r>    8.3453    1.0000 </r>
       <r>    8.3454    1.0000 </r>
       <r>   17.5792    0.0000 </r>
       <r>   17.5792    0.0000 </r>
       <r>   21.2938    0.0000 </r>
       <r>   34.4386    0.0000 </r>
       <r>   39.3177    0.0000 </r>
       <r>   39.3177    0.0000 </r>
       <r>   50.6632    0.0000 </r>
      </set>
      <set comment="kpoint 23">
       <r>    3.7635    1.0000 </r>
       <r>    4.5370    1.0000 </r>
       <r>    4.5370    1.0000 </r>
       <r>    8.0008    1.0000 </r>
       <r>    8.0008    1.0000 </r>
       <r>   10.8887   -0.0000 </r>
       <r>   25.8465    0.0000 </r>
       <r>   25.8465    0.0000 </r>
       <r>   29.2393    0.0000 </r>
       <r>   42.3950    0.0000 </r>
       <r>   48.3336    0.0000 </r>
       <r>   48.3336    0.0000 </r>
      </set>
      <set comment="kpoint 24">
       <r>    3.9159    1.0000 </r>
       <r>    4.3169    1.0000 </r>
       <r>    5.3258    1.0000 </r>
       <r>    8.0885    1.0000 </r>
       <r>    8.1774    1.0000 </r>
       <r>   13.2863   -0.0000 </r>
       <r>   21.8070    0.0000 </r>
       <r>   24.6383    0.0000 </r>
       <r>   26.9915    0.0000 </r>
       <r>   44.0387    0.0000 </r>
       <r>   49.3812    0.0000 </r>
       <r>   50.4689    0.0000 </r>
      </set>
      <set comment="kpoint 25">
       <r>    3.7515    1.0000 </r>
       <r>    4.2507    1.0000 </r>
       <r>    5.9020    1.0000 </r>
       <r>    8.1471    1.0000 </r>
       <r>    8.2250    1.0000 </r>
       <r>   15.2185    0.0000 </r>
       <r>   19.0994    0.0000 </r>
       <r>   24.2155    0.0000 </r>
       <r>   26.3631    0.0000 </r>
       <r>   44.2608    0.0000 </r>
       <r>   50.3240    0.0000 </r>
       <r>   50.6894    0.0000 </r>
      </set>
      <set comment="kpoint 26">
       <r>    0.9443    1.0000 </r>
       <r>    6.0300    1.0000 </r>
       <r>    6.0300    1.0000 </r>
       <r>    6.6144    1.0000 </r>
       <r>    6.6447    1.0000 </r>
       <r>    8.3669    1.0001 </r>
       <r>   31.5240    0.0000 </r>
       <r>   34.6059    0.0000 </r>
       <r>   34.6059    0.0000 </r>
       <r>   36.5501    0.0000 </r>
       <r>   44.4149    0.0000 </r>
       <r>   44.4149    0.0000 </r>
      </set>
      <set comment="kpoint 27">
       <r>    4.1193    1.0000 </r>
       <r>    4.5643    1.0000 </r>
       <r>    5.1421    1.0000 </r>
       <r>    8.1940    1.0000 </r>
       <r>    8.2391    1.0000 </r>
       <r>   16.3184    0.0000 </r>
       <r>   20.0669    0.0000 </r>
       <r>   21.8484    0.0000 </r>
       <r>   25.3751    0.0000 </r>
       <r>   47.1309    0.0000 </r>
       <r>   49.4281    0.0000 </r>
       <r>   53.6238    0.0000 </r>
      </set>
      <set comment="kpoint 28">
       <r>    2.2807    1.0000 </r>
       <r>    5.5207    1.0000 </r>
       <r>    5.7941    1.0000 </r>
       <r>    6.6937    1.0000 </r>
       <r>    7.5870    1.0000 </r>
       <r>    8.8094    0.9969 </r>
       <r>   28.4461    0.0000 </r>
       <r>   31.8311    0.0000 </r>
       <r>   32.5216    0.0000 </r>
       <r>   36.5212    0.0000 </r>
       <r>   43.8431    0.0000 </r>
       <r>   45.2842    0.0000 </r>
      </set>
      <set comment="kpoint 29">
       <r>    3.0397    1.0000 </r>
       <r>    5.1911    1.0000 </r>
       <r>    5.4223    1.0000 </r>
       <r>    7.2786    1.0000 </r>
       <r>    8.8313    0.9662 </r>
       <r>    9.9800   -0.0000 </r>
       <r>   23.7248    0.0000 </r>
       <r>   30.2572    0.0000 </r>
       <r>   30.5718    0.0000 </r>
       <r>   38.1252    0.0000 </r>
       <r>   42.6694    0.0000 </r>
       <r>   45.4453    0.0000 </r>
      </set>
      <set comment="kpoint 30">
       <r>    3.2520    1.0000 </r>
       <r>    4.7196    1.0000 </r>
       <r>    5.9851    1.0000 </r>
       <r>    6.9027    1.0000 </r>
       <r>    8.3664    1.0001 </r>
       <r>   10.0067   -0.0000 </r>
       <r>   26.2764    0.0000 </r>
       <r>   27.4222    0.0000 </r>
       <r>   32.9852    0.0000 </r>
       <r>   35.0788    0.0000 </r>
       <r>   43.3877    0.0000 </r>
       <r>   48.9958    0.0000 </r>
      </set>
      <set comment="kpoint 31">
       <r>    2.9440    1.0000 </r>
       <r>    5.1920    1.0000 </r>
       <r>    5.4889    1.0000 </r>
       <r>    7.4060    1.0000 </r>
       <r>    9.7078   -0.0000 </r>
       <r>   12.1792   -0.0000 </r>
       <r>   19.7709    0.0000 </r>
       <r>   29.3231    0.0000 </r>
       <r>   29.4518    0.0000 </r>
       <r>   40.1260    0.0000 </r>
       <r>   42.0340    0.0000 </r>
       <r>   44.3460    0.0000 </r>
      </set>
      <set comment="kpoint 32">
       <r>    3.4941    1.0000 </r>
       <r>    4.4544    1.0000 </r>
       <r>    5.6901    1.0000 </r>
       <r>    7.4176    1.0000 </r>
       <r>    9.0782    0.1214 </r>
       <r>   12.4786   -0.0000 </r>
       <r>   21.9802    0.0000 </r>
       <r>   25.5252    0.0000 </r>
       <r>   32.3627    0.0000 </r>
       <r>   36.4452    0.0000 </r>
       <r>   42.1248    0.0000 </r>
       <r>   48.1381    0.0000 </r>
      </set>
      <set comment="kpoint 33">
       <r>    3.3268    1.0000 </r>
       <r>    4.7022    1.0000 </r>
       <r>    5.4212    1.0000 </r>
       <r>    7.5626    1.0000 </r>
       <r>    9.4580   -0.0017 </r>
       <r>   14.6448    0.0000 </r>
       <r>   19.1050    0.0000 </r>
       <r>   24.9438    0.0000 </r>
       <r>   31.9302    0.0000 </r>
       <r>   38.0353    0.0000 </r>
       <r>   40.9076    0.0000 </r>
       <r>   46.9220    0.0000 </r>
      </set>
      <set comment="kpoint 34">
       <r>    3.8967    1.0000 </r>
       <r>    4.0313    1.0000 </r>
       <r>    5.3156    1.0000 </r>
       <r>    8.1575    1.0000 </r>
       <r>    8.9408    0.6428 </r>
       <r>   15.8796    0.0000 </r>
       <r>   20.0152    0.0000 </r>
       <r>   21.9236    0.0000 </r>
       <r>   34.4808    0.0000 </r>
       <r>   35.7801    0.0000 </r>
       <r>   39.9249    0.0000 </r>
       <r>   47.4000    0.0000 </r>
      </set>
      <set comment="kpoint 35">
       <r>    4.6355    1.0000 </r>
       <r>    4.6355    1.0000 </r>
       <r>    4.6355    1.0000 </r>
       <r>    8.2475    1.0000 </r>
       <r>    8.2475    1.0000 </r>
       <r>   19.5896    0.0000 </r>
       <r>   19.5896    0.0000 </r>
       <r>   19.5896    0.0000 </r>
       <r>   23.3048    0.0000 </r>
       <r>   53.0240    0.0000 </r>
       <r>   53.0240    0.0000 </r>
       <r>   53.0240    0.0000 </r>
      </set>
      <set comment="kpoint 36">
       <r>    3.1342    1.0000 </r>
       <r>    4.9058    1.0000 </r>
       <r>    6.5805    1.0000 </r>
       <r>    6.5805    1.0000 </r>
       <r>    7.6697    1.0000 </r>
       <r>    9.7862   -0.0000 </r>
       <r>   29.1896    0.0000 </r>
       <r>   29.7207    0.0000 </r>
       <r>   29.7207    0.0000 </r>
       <r>   32.5075    0.0000 </r>
       <r>   48.4242    0.0000 </r>
       <r>   48.4242    0.0000 </r>
      </set>
      <set comment="kpoint 37">
       <r>    3.4846    1.0000 </r>
       <r>    4.1033    1.0000 </r>
       <r>    6.6297    1.0000 </r>
       <r>    7.1397    1.0000 </r>
       <r>    8.6686    1.0262 </r>
       <r>   11.6760   -0.0000 </r>
       <r>   24.7625    0.0000 </r>
       <r>   27.4030    0.0000 </r>
       <r>   29.4629    0.0000 </r>
       <r>   33.0752    0.0000 </r>
       <r>   46.8649    0.0000 </r>
       <r>   47.4426    0.0000 </r>
      </set>
      <set comment="kpoint 38">
       <r>    3.2374    1.0000 </r>
       <r>    3.9586    1.0000 </r>
       <r>    6.5040    1.0000 </r>
       <r>    7.3983    1.0000 </r>
       <r>    9.5760   -0.0001 </r>
       <r>   14.6088    0.0000 </r>
       <r>   20.3313    0.0000 </r>
       <r>   25.9935    0.0000 </r>
       <r>   29.1643    0.0000 </r>
       <r>   34.9461    0.0000 </r>
       <r>   43.4049    0.0000 </r>
       <r>   46.6505    0.0000 </r>
      </set>
      <set comment="kpoint 39">
       <r>    3.4412    1.0000 </r>
       <r>    3.4421    1.0000 </r>
       <r>    6.7433    1.0000 </r>
       <r>    7.9308    1.0000 </r>
       <r>    9.1553   -0.0116 </r>
       <r>   14.4605    0.0000 </r>
       <r>   22.7813    0.0000 </r>
       <r>   23.5395    0.0000 </r>
       <r>   30.4761    0.0000 </r>
       <r>   32.5896    0.0000 </r>
       <r>   42.8235    0.0000 </r>
       <r>   47.8886    0.0000 </r>
      </set>
      <set comment="kpoint 40">
       <r>    3.1749    1.0000 </r>
       <r>    3.4183    1.0000 </r>
       <r>    6.6633    1.0000 </r>
       <r>    8.3424    1.0000 </r>
       <r>    9.3866   -0.0066 </r>
       <r>   17.3412    0.0000 </r>
       <r>   19.5416    0.0000 </r>
       <r>   22.6130    0.0000 </r>
       <r>   30.7832    0.0000 </r>
       <r>   33.2404    0.0000 </r>
       <r>   40.7751    0.0000 </r>
       <r>   47.6917    0.0000 </r>
      </set>
      <set comment="kpoint 41">
       <r>    3.2008    1.0000 </r>
       <r>    3.2896    1.0000 </r>
       <r>    7.8289    1.0000 </r>
       <r>    7.8290    1.0000 </r>
       <r>    8.7347    1.0354 </r>
       <r>   13.8983   -0.0000 </r>
       <r>   24.7912    0.0000 </r>
       <r>   24.7912    0.0000 </r>
       <r>   28.0457    0.0000 </r>
       <r>   30.7420    0.0000 </r>
       <r>   42.7135    0.0000 </r>
       <r>   51.0613    0.0000 </r>
      </set>
      <set comment="kpoint 42">
       <r>    2.7995    1.0000 </r>
       <r>    2.9024    1.0000 </r>
       <r>    8.0815    1.0000 </r>
       <r>    8.3747    1.0001 </r>
       <r>    9.4539   -0.0018 </r>
       <r>   16.9981    0.0000 </r>
       <r>   21.2629    0.0000 </r>
       <r>   23.1872    0.0000 </r>
       <r>   28.5146    0.0000 </r>
       <r>   30.9259    0.0000 </r>
       <r>   39.4155    0.0000 </r>
       <r>   51.0385    0.0000 </r>
      </set>
      <set comment="kpoint 43">
       <r>    2.6163    1.0000 </r>
       <r>    2.6163    1.0000 </r>
       <r>    8.2321    1.0000 </r>
       <r>    9.2860   -0.0252 </r>
       <r>    9.2860   -0.0252 </r>
       <r>   19.9568    0.0000 </r>
       <r>   19.9569    0.0000 </r>
       <r>   21.0899    0.0000 </r>
       <r>   29.4529    0.0000 </r>
       <r>   29.4529    0.0000 </r>
       <r>   37.8711    0.0000 </r>
       <r>   51.6028    0.0000 </r>
      </set>
      <set comment="kpoint 44">
       <r>    2.3449    1.0000 </r>
       <r>    2.3657    1.0000 </r>
       <r>    9.2494   -0.0328 </r>
       <r>    9.2494   -0.0328 </r>
       <r>    9.4177   -0.0038 </r>
       <r>   19.4414    0.0000 </r>
       <r>   21.3986    0.0000 </r>
       <r>   21.3986    0.0000 </r>
       <r>   27.6854    0.0000 </r>
       <r>   28.6557    0.0000 </r>
       <r>   36.7338    0.0000 </r>
       <r>   53.3746    0.0000 </r>
      </set>
     </set>
     <set comment="spin 2">
      <set comment="kpoint 1">
       <r>   -0.1610    1.0000 </r>
       <r>    7.3018    1.0000 </r>
       <r>    7.3018    1.0000 </r>
       <r>    8.1272    1.0000 </r>
       <r>   10.1052   -0.0000 </r>
       <r>   10.1052   -0.0000 </r>
       <r>   34.4288    0.0000 </r>
       <r>   34.4288    0.0000 </r>
       <r>   36.9566    0.0000 </r>
       <r>   42.8388    0.0000 </r>
       <r>   44.6007    0.0000 </r>
       <r>   44.6007    0.0000 </r>
      </set>
      <set comment="kpoint 2">
       <r>    1.1988    1.0000 </r>
       <r>    6.7947    1.0000 </r>
       <r>    7.0197    1.0000 </r>
       <r>    9.1581   -0.0140 </r>
       <r>    9.8585   -0.0000 </r>
       <r>   10.2478   -0.0000 </r>
       <r>   30.6938    0.0000 </r>
       <r>   32.7289    0.0000 </r>
       <r>   37.7762    0.0000 </r>
       <r>   38.6959    0.0000 </r>
       <r>   44.6573    0.0000 </r>
       <r>   45.8295    0.0000 </r>
      </set>
      <set comment="kpoint 3">
       <r>    2.8389    1.0000 </r>
       <r>    6.2416    1.0000 </r>
       <r>    6.9286    1.0000 </r>
       <r>    9.8976   -0.0000 </r>
       <r>   10.4153   -0.0000 </r>
       <r>   10.5415   -0.0000 </r>
       <r>   26.2522    0.0000 </r>
       <r>   30.7936    0.0000 </r>
       <r>   35.5683    0.0000 </r>
       <r>   38.2013    0.0000 </r>
       <r>   44.5695    0.0000 </r>
       <r>   46.8376    0.0000 </r>
      </set>
      <set comment="kpoint 4">
       <r>    3.5738    1.0000 </r>
       <r>    5.8350    1.0000 </r>
       <r>    7.9875    1.0000 </r>
       <r>   10.0833   -0.0000 </r>
       <r>   10.5604   -0.0000 </r>
       <r>   11.9402   -0.0000 </r>
       <r>   22.1305    0.0000 </r>
       <r>   29.3019    0.0000 </r>
       <r>   33.4418    0.0000 </r>
       <r>   38.3314    0.0000 </r>
       <r>   44.2669    0.0000 </r>
       <r>   49.0005    0.0000 </r>
      </set>
      <set comment="kpoint 5">
       <r>    3.6159    1.0000 </r>
       <r>    5.6893    1.0000 </r>
       <r>    8.9205    0.7217 </r>
       <r>   10.1653   -0.0000 </r>
       <r>   10.6253   -0.0000 </r>
       <r>   12.7009   -0.0000 </r>
       <r>   20.1593    0.0000 </r>
       <r>   28.7541    0.0000 </r>
       <r>   32.6487    0.0000 </r>
       <r>   38.4104    0.0000 </r>
       <r>   44.3799    0.0000 </r>
       <r>   48.4916    0.0000 </r>
      </set>
      <set comment="kpoint 6">
       <r>   -0.6587    1.0000 </r>
       <r>    7.5175    1.0000 </r>
       <r>    7.5175    1.0000 </r>
       <r>    7.6149    1.0000 </r>
       <r>   10.0412   -0.0000 </r>
       <r>   10.2873   -0.0000 </r>
       <r>   35.2575    0.0000 </r>
       <r>   36.3412    0.0000 </r>
       <r>   36.3412    0.0000 </r>
       <r>   42.4165    0.0000 </r>
       <r>   45.4574    0.0000 </r>
       <r>   46.6629    0.0000 </r>
      </set>
      <set comment="kpoint 7">
       <r>    2.7265    1.0000 </r>
       <r>    6.4027    1.0000 </r>
       <r>    6.4231    1.0000 </r>
       <r>    9.8685   -0.0000 </r>
       <r>   10.3841   -0.0000 </r>
       <r>   10.6113   -0.0000 </r>
       <r>   28.2912    0.0000 </r>
       <r>   29.4202    0.0000 </r>
       <r>   34.5859    0.0000 </r>
       <r>   39.3400    0.0000 </r>
       <r>   45.6154    0.0000 </r>
       <r>   47.7849    0.0000 </r>
      </set>
      <set comment="kpoint 8">
       <r>    4.0429    1.0000 </r>
       <r>    5.9221    1.0000 </r>
       <r>    6.5528    1.0000 </r>
       <r>   10.0026   -0.0000 </r>
       <r>   10.5834   -0.0000 </r>
       <r>   12.3716   -0.0000 </r>
       <r>   24.3266    0.0000 </r>
       <r>   27.3971    0.0000 </r>
       <r>   32.1015    0.0000 </r>
       <r>   40.2087    0.0000 </r>
       <r>   46.3408    0.0000 </r>
       <r>   48.5928    0.0000 </r>
      </set>
      <set comment="kpoint 9">
       <r>    4.2445    1.0000 </r>
       <r>    5.6926    1.0000 </r>
       <r>    7.4810    1.0000 </r>
       <r>   10.1881   -0.0000 </r>
       <r>   10.6736   -0.0000 </r>
       <r>   14.1628   -0.0000 </r>
       <r>   20.7688    0.0000 </r>
       <r>   26.4140    0.0000 </r>
       <r>   30.8581    0.0000 </r>
       <r>   40.4763    0.0000 </r>
       <r>   47.1210    0.0000 </r>
       <r>   48.5008    0.0000 </r>
      </set>
      <set comment="kpoint 10">
       <r>    0.3157    1.0000 </r>
       <r>    7.1977    1.0000 </r>
       <r>    7.4294    1.0000 </r>
       <r>    8.2486    1.0000 </r>
       <r>    9.6399   -0.0000 </r>
       <r>   10.3980   -0.0000 </r>
       <r>   32.6711    0.0000 </r>
       <r>   35.2162    0.0000 </r>
       <r>   36.3659    0.0000 </r>
       <r>   41.4880    0.0000 </r>
       <r>   43.4432    0.0000 </r>
       <r>   44.2783    0.0000 </r>
      </set>
      <set comment="kpoint 11">
       <r>    4.8649    1.0000 </r>
       <r>    5.7630    1.0000 </r>
       <r>    6.4792    1.0000 </r>
       <r>   10.1680   -0.0000 </r>
       <r>   10.6483   -0.0000 </r>
       <r>   14.7970    0.0000 </r>
       <r>   22.3091    0.0000 </r>
       <r>   23.8456    0.0000 </r>
       <r>   30.5897    0.0000 </r>
       <r>   41.7746    0.0000 </r>
       <r>   45.6306    0.0000 </r>
       <r>   52.8460    0.0000 </r>
      </set>
      <set comment="kpoint 12">
       <r>    4.9635    1.0000 </r>
       <r>    5.7989    1.0000 </r>
       <r>    6.6151    1.0000 </r>
       <r>   10.3327   -0.0000 </r>
       <r>   10.5938   -0.0000 </r>
       <r>   16.9170    0.0000 </r>
       <r>   19.8369    0.0000 </r>
       <r>   22.9871    0.0000 </r>
       <r>   30.1722    0.0000 </r>
       <r>   42.5487    0.0000 </r>
       <r>   45.1582    0.0000 </r>
       <r>   53.1583    0.0000 </r>
      </set>
      <set comment="kpoint 13">
       <r>    1.9359    1.0000 </r>
       <r>    6.6636    1.0000 </r>
       <r>    7.1719    1.0000 </r>
       <r>    9.4126   -0.0042 </r>
       <r>    9.5278   -0.0003 </r>
       <r>   10.5209   -0.0000 </r>
       <r>   28.5278    0.0000 </r>
       <r>   32.8985    0.0000 </r>
       <r>   36.0106    0.0000 </r>
       <r>   40.3442    0.0000 </r>
       <r>   42.2298    0.0000 </r>
       <r>   43.8681    0.0000 </r>
      </set>
      <set comment="kpoint 14">
       <r>    1.6123    1.0000 </r>
       <r>    7.0387    1.0000 </r>
       <r>    7.0810    1.0000 </r>
       <r>    9.1045    0.0598 </r>
       <r>    9.2170   -0.0354 </r>
       <r>   10.6407   -0.0000 </r>
       <r>   30.4284    0.0000 </r>
       <r>   32.2664    0.0000 </r>
       <r>   36.5986    0.0000 </r>
       <r>   39.4553    0.0000 </r>
       <r>   41.7771    0.0000 </r>
       <r>   45.8149    0.0000 </r>
      </set>
      <set comment="kpoint 15">
       <r>    3.2341    1.0000 </r>
       <r>    6.1616    1.0000 </r>
       <r>    7.5422    1.0000 </r>
       <r>    9.8066   -0.0000 </r>
       <r>   10.7260   -0.0000 </r>
       <r>   10.7305   -0.0000 </r>
       <r>   24.0713    0.0000 </r>
       <r>   30.8839    0.0000 </r>
       <r>   34.7133    0.0000 </r>
       <r>   38.7868    0.0000 </r>
       <r>   42.4022    0.0000 </r>
       <r>   45.7858    0.0000 </r>
      </set>
      <set comment="kpoint 16">
       <r>    3.1829    1.0000 </r>
       <r>    6.4816    1.0000 </r>
       <r>    6.8794    1.0000 </r>
       <r>    9.3107   -0.0195 </r>
       <r>   10.3423   -0.0000 </r>
       <r>   11.0316   -0.0000 </r>
       <r>   26.5237    0.0000 </r>
       <r>   29.6784    0.0000 </r>
       <r>   35.5225    0.0000 </r>
       <r>   38.3119    0.0000 </r>
       <r>   42.2993    0.0000 </r>
       <r>   46.5487    0.0000 </r>
      </set>
      <set comment="kpoint 17">
       <r>    3.5053    1.0000 </r>
       <r>    5.8652    1.0000 </r>
       <r>    8.6909    1.0310 </r>
       <r>    9.9983   -0.0000 </r>
       <r>   11.2388   -0.0000 </r>
       <r>   11.6430   -0.0000 </r>
       <r>   20.7092    0.0000 </r>
       <r>   29.7286    0.0000 </r>
       <r>   33.3864    0.0000 </r>
       <r>   38.3976    0.0000 </r>
       <r>   42.7939    0.0000 </r>
       <r>   46.5503    0.0000 </r>
      </set>
      <set comment="kpoint 18">
       <r>    3.9211    1.0000 </r>
       <r>    6.1363    1.0000 </r>
       <r>    7.2942    1.0000 </r>
       <r>    9.6929   -0.0000 </r>
       <r>   10.8964   -0.0000 </r>
       <r>   12.4461   -0.0000 </r>
       <r>   22.3067    0.0000 </r>
       <r>   28.2268    0.0000 </r>
       <r>   33.6479    0.0000 </r>
       <r>   38.7091    0.0000 </r>
       <r>   43.1826    0.0000 </r>
       <r>   46.4623    0.0000 </r>
      </set>
      <set comment="kpoint 19">
       <r>    4.3926    1.0000 </r>
       <r>    5.9559    1.0000 </r>
       <r>    6.8026    1.0000 </r>
       <r>    9.4741   -0.0012 </r>
       <r>   10.6921   -0.0000 </r>
       <r>   12.8463   -0.0000 </r>
       <r>   24.4262    0.0000 </r>
       <r>   25.5741    0.0000 </r>
       <r>   35.4412    0.0000 </r>
       <r>   37.2573    0.0000 </r>
       <r>   42.1298    0.0000 </r>
       <r>   51.0362    0.0000 </r>
      </set>
      <set comment="kpoint 20">
       <r>    3.9559    1.0000 </r>
       <r>    6.0263    1.0000 </r>
       <r>    7.7226    1.0000 </r>
       <r>    9.8023   -0.0000 </r>
       <r>   11.1954   -0.0000 </r>
       <r>   13.5580   -0.0000 </r>
       <r>   20.1482    0.0000 </r>
       <r>   27.7001    0.0000 </r>
       <r>   32.9115    0.0000 </r>
       <r>   38.9354    0.0000 </r>
       <r>   43.8623    0.0000 </r>
       <r>   45.9862    0.0000 </r>
      </set>
      <set comment="kpoint 21">
       <r>    4.7929    1.0000 </r>
       <r>    5.9566    1.0000 </r>
       <r>    6.7000    1.0000 </r>
       <r>    9.8398   -0.0000 </r>
       <r>   10.7698   -0.0000 </r>
       <r>   15.3112    0.0000 </r>
       <r>   20.8825    0.0000 </r>
       <r>   24.1684    0.0000 </r>
       <r>   34.5090    0.0000 </r>
       <r>   38.3504    0.0000 </r>
       <r>   41.6239    0.0000 </r>
       <r>   50.9412    0.0000 </r>
      </set>
      <set comment="kpoint 22">
       <r>    5.4739    1.0000 </r>
       <r>    5.9765    1.0000 </r>
       <r>    5.9765    1.0000 </r>
       <r>   10.3405   -0.0000 </r>
       <r>   10.3406   -0.0000 </r>
       <r>   18.6271    0.0000 </r>
       <r>   18.6272    0.0000 </r>
       <r>   22.1163    0.0000 </r>
       <r>   34.9810    0.0000 </r>
       <r>   39.5523    0.0000 </r>
       <r>   39.5523    0.0000 </r>
       <r>   51.5647    0.0000 </r>
      </set>
      <set comment="kpoint 23">
       <r>    4.2708    1.0000 </r>
       <r>    5.8992    1.0000 </r>
       <r>    5.8992    1.0000 </r>
       <r>   10.3336   -0.0000 </r>
       <r>   10.3336   -0.0000 </r>
       <r>   12.4301   -0.0000 </r>
       <r>   26.4890    0.0000 </r>
       <r>   26.4890    0.0000 </r>
       <r>   29.9395    0.0000 </r>
       <r>   42.2817    0.0000 </r>
       <r>   48.6449    0.0000 </r>
       <r>   48.6449    0.0000 </r>
      </set>
      <set comment="kpoint 24">
       <r>    4.9820    1.0000 </r>
       <r>    5.6144    1.0000 </r>
       <r>    6.3053    1.0000 </r>
       <r>   10.4036   -0.0000 </r>
       <r>   10.5870   -0.0000 </r>
       <r>   14.5924    0.0000 </r>
       <r>   22.6532    0.0000 </r>
       <r>   25.2839    0.0000 </r>
       <r>   27.6425    0.0000 </r>
       <r>   44.0377    0.0000 </r>
       <r>   49.6740    0.0000 </r>
       <r>   50.6259    0.0000 </r>
      </set>
      <set comment="kpoint 25">
       <r>    4.8864    1.0000 </r>
       <r>    5.5248    1.0000 </r>
       <r>    6.9206    1.0000 </r>
       <r>   10.4575   -0.0000 </r>
       <r>   10.6634   -0.0000 </r>
       <r>   16.2629    0.0000 </r>
       <r>   20.1495    0.0000 </r>
       <r>   24.8576    0.0000 </r>
       <r>   26.9979    0.0000 </r>
       <r>   44.3376    0.0000 </r>
       <r>   50.4947    0.0000 </r>
       <r>   51.1641    0.0000 </r>
      </set>
      <set comment="kpoint 26">
       <r>    1.2192    1.0000 </r>
       <r>    7.5590    1.0000 </r>
       <r>    7.5590    1.0000 </r>
       <r>    8.2665    1.0000 </r>
       <r>    8.7436    1.0347 </r>
       <r>   10.7569   -0.0000 </r>
       <r>   31.8682    0.0000 </r>
       <r>   34.9995    0.0000 </r>
       <r>   34.9995    0.0000 </r>
       <r>   36.9587    0.0000 </r>
       <r>   44.9254    0.0000 </r>
       <r>   44.9254    0.0000 </r>
      </set>
      <set comment="kpoint 27">
       <r>    5.3151    1.0000 </r>
       <r>    5.7571    1.0000 </r>
       <r>    6.1991    1.0000 </r>
       <r>   10.5689   -0.0000 </r>
       <r>   10.6534   -0.0000 </r>
       <r>   17.3722    0.0000 </r>
       <r>   20.9430    0.0000 </r>
       <r>   22.6327    0.0000 </r>
       <r>   26.0163    0.0000 </r>
       <r>   47.1397    0.0000 </r>
       <r>   49.5384    0.0000 </r>
       <r>   53.7934    0.0000 </r>
      </set>
      <set comment="kpoint 28">
       <r>    2.6978    1.0000 </r>
       <r>    7.1942    1.0000 </r>
       <r>    7.2924    1.0000 </r>
       <r>    8.5015    1.0020 </r>
       <r>    9.2630   -0.0302 </r>
       <r>   11.0907   -0.0000 </r>
       <r>   29.0861    0.0000 </r>
       <r>   32.2293    0.0000 </r>
       <r>   33.0830    0.0000 </r>
       <r>   36.9436    0.0000 </r>
       <r>   44.3156    0.0000 </r>
       <r>   45.7339    0.0000 </r>
      </set>
      <set comment="kpoint 29">
       <r>    3.9049    1.0000 </r>
       <r>    6.6856    1.0000 </r>
       <r>    6.8810    1.0000 </r>
       <r>    9.0969    0.0759 </r>
       <r>   10.6006   -0.0000 </r>
       <r>   11.8132   -0.0000 </r>
       <r>   24.5837    0.0000 </r>
       <r>   30.6612    0.0000 </r>
       <r>   31.1702    0.0000 </r>
       <r>   38.5073    0.0000 </r>
       <r>   43.1485    0.0000 </r>
       <r>   45.9393    0.0000 </r>
      </set>
      <set comment="kpoint 30">
       <r>    3.9664    1.0000 </r>
       <r>    6.3899    1.0000 </r>
       <r>    7.4497    1.0000 </r>
       <r>    8.6233    1.0161 </r>
       <r>   10.1641   -0.0000 </r>
       <r>   11.8743   -0.0000 </r>
       <r>   27.0568    0.0000 </r>
       <r>   28.0346    0.0000 </r>
       <r>   33.4454    0.0000 </r>
       <r>   35.5051    0.0000 </r>
       <r>   43.8630    0.0000 </r>
       <r>   49.4594    0.0000 </r>
      </set>
      <set comment="kpoint 31">
       <r>    4.1376    1.0000 </r>
       <r>    6.6267    1.0000 </r>
       <r>    6.9195    1.0000 </r>
       <r>    9.3232   -0.0168 </r>
       <r>   11.5582   -0.0000 </r>
       <r>   13.4318   -0.0000 </r>
       <r>   20.8591    0.0000 </r>
       <r>   29.8573    0.0000 </r>
       <r>   29.8945    0.0000 </r>
       <r>   40.3990    0.0000 </r>
       <r>   42.5228    0.0000 </r>
       <r>   44.9329    0.0000 </r>
      </set>
      <set comment="kpoint 32">
       <r>    4.6699    1.0000 </r>
       <r>    5.9309    1.0000 </r>
       <r>    7.1564    1.0000 </r>
       <r>    9.1963   -0.0329 </r>
       <r>   10.9286   -0.0000 </r>
       <r>   13.8462   -0.0000 </r>
       <r>   22.8908    0.0000 </r>
       <r>   26.1938    0.0000 </r>
       <r>   32.8100    0.0000 </r>
       <r>   36.8215    0.0000 </r>
       <r>   42.6183    0.0000 </r>
       <r>   48.8319    0.0000 </r>
      </set>
      <set comment="kpoint 33">
       <r>    4.6633    1.0000 </r>
       <r>    6.1481    1.0000 </r>
       <r>    6.8620    1.0000 </r>
       <r>    9.3731   -0.0082 </r>
       <r>   11.3102   -0.0000 </r>
       <r>   15.7306    0.0000 </r>
       <r>   20.1868    0.0000 </r>
       <r>   25.6021    0.0000 </r>
       <r>   32.3721    0.0000 </r>
       <r>   38.3152    0.0000 </r>
       <r>   41.4726    0.0000 </r>
       <r>   47.6721    0.0000 </r>
      </set>
      <set comment="kpoint 34">
       <r>    5.3910    1.0000 </r>
       <r>    5.3978    1.0000 </r>
       <r>    6.7200    1.0000 </r>
       <r>    9.9449   -0.0000 </r>
       <r>   10.7796   -0.0000 </r>
       <r>   16.9838    0.0000 </r>
       <r>   20.9838    0.0000 </r>
       <r>   22.6733    0.0000 </r>
       <r>   34.8781    0.0000 </r>
       <r>   36.1444    0.0000 </r>
       <r>   40.4785    0.0000 </r>
       <r>   48.2319    0.0000 </r>
      </set>
      <set comment="kpoint 35">
       <r>    5.7825    1.0000 </r>
       <r>    5.7825    1.0000 </r>
       <r>    5.7825    1.0000 </r>
       <r>   10.6896   -0.0000 </r>
       <r>   10.6896   -0.0000 </r>
       <r>   20.4615    0.0000 </r>
       <r>   20.4615    0.0000 </r>
       <r>   20.4615    0.0000 </r>
       <r>   23.9905    0.0000 </r>
       <r>   52.9236    0.0000 </r>
       <r>   52.9236    0.0000 </r>
       <r>   52.9236    0.0000 </r>
      </set>
      <set comment="kpoint 36">
       <r>    3.7921    1.0000 </r>
       <r>    6.7583    1.0000 </r>
       <r>    8.0974    1.0000 </r>
       <r>    8.0974    1.0000 </r>
       <r>    9.3630   -0.0097 </r>
       <r>   11.7671   -0.0000 </r>
       <r>   29.8571    0.0000 </r>
       <r>   30.3339    0.0000 </r>
       <r>   30.3340    0.0000 </r>
       <r>   32.9280    0.0000 </r>
       <r>   48.8718    0.0000 </r>
       <r>   48.8718    0.0000 </r>
      </set>
      <set comment="kpoint 37">
       <r>    4.5596    1.0000 </r>
       <r>    5.7738    1.0000 </r>
       <r>    8.1526    1.0000 </r>
       <r>    8.7496    1.0338 </r>
       <r>   10.4260   -0.0000 </r>
       <r>   13.1423   -0.0000 </r>
       <r>   25.5316    0.0000 </r>
       <r>   28.0021    0.0000 </r>
       <r>   30.1089    0.0000 </r>
       <r>   33.5384    0.0000 </r>
       <r>   47.6063    0.0000 </r>
       <r>   47.9078    0.0000 </r>
      </set>
      <set comment="kpoint 38">
       <r>    4.6594    1.0000 </r>
       <r>    5.4413    1.0000 </r>
       <r>    8.0182    1.0000 </r>
       <r>    9.0557    0.1875 </r>
       <r>   11.4157   -0.0000 </r>
       <r>   15.6730    0.0000 </r>
       <r>   21.2596    0.0000 </r>
       <r>   26.5446    0.0000 </r>
       <r>   29.8240    0.0000 </r>
       <r>   35.3468    0.0000 </r>
       <r>   44.2532    0.0000 </r>
       <r>   47.1114    0.0000 </r>
      </set>
      <set comment="kpoint 39">
       <r>    4.7863    1.0000 </r>
       <r>    5.0432    1.0000 </r>
       <r>    8.2616    1.0000 </r>
       <r>    9.5787   -0.0001 </r>
       <r>   10.9563   -0.0000 </r>
       <r>   15.5513    0.0000 </r>
       <r>   23.5808    0.0000 </r>
       <r>   24.1754    0.0000 </r>
       <r>   31.1068    0.0000 </r>
       <r>   33.0810    0.0000 </r>
       <r>   43.6459    0.0000 </r>
       <r>   48.3962    0.0000 </r>
      </set>
      <set comment="kpoint 40">
       <r>    4.6929    1.0000 </r>
       <r>    4.9129    1.0000 </r>
       <r>    8.1499    1.0000 </r>
       <r>   10.0395   -0.0000 </r>
       <r>   11.2026   -0.0000 </r>
       <r>   18.2355    0.0000 </r>
       <r>   20.4215    0.0000 </r>
       <r>   23.2601    0.0000 </r>
       <r>   31.3887    0.0000 </r>
       <r>   33.7108    0.0000 </r>
       <r>   41.6708    0.0000 </r>
       <r>   48.1983    0.0000 </r>
      </set>
      <set comment="kpoint 41">
       <r>    4.5324    1.0000 </r>
       <r>    4.9280    1.0000 </r>
       <r>    9.4260   -0.0032 </r>
       <r>    9.4261   -0.0032 </r>
       <r>   10.5098   -0.0000 </r>
       <r>   14.9669    0.0000 </r>
       <r>   25.3435    0.0000 </r>
       <r>   25.3436    0.0000 </r>
       <r>   28.9562    0.0000 </r>
       <r>   31.3321    0.0000 </r>
       <r>   43.5740    0.0000 </r>
       <r>   51.4509    0.0000 </r>
      </set>
      <set comment="kpoint 42">
       <r>    4.3244    1.0000 </r>
       <r>    4.4095    1.0000 </r>
       <r>    9.7248   -0.0000 </r>
       <r>   10.0261   -0.0000 </r>
       <r>   11.2827   -0.0000 </r>
       <r>   17.7900    0.0000 </r>
       <r>   21.9075    0.0000 </r>
       <r>   23.6626    0.0000 </r>
       <r>   29.3726    0.0000 </r>
       <r>   31.5493    0.0000 </r>
       <r>   40.3657    0.0000 </r>
       <r>   51.4277    0.0000 </r>
      </set>
      <set comment="kpoint 43">
       <r>    4.1382    1.0000 </r>
       <r>    4.1382    1.0000 </r>
       <r>    9.8766   -0.0000 </r>
       <r>   11.0803   -0.0000 </r>
       <r>   11.0804   -0.0000 </r>
       <r>   20.5659    0.0000 </r>
       <r>   20.5659    0.0000 </r>
       <r>   21.6005    0.0000 </r>
       <r>   30.2215    0.0000 </r>
       <r>   30.2215    0.0000 </r>
       <r>   38.8692    0.0000 </r>
       <r>   51.9876    0.0000 </r>
      </set>
      <set comment="kpoint 44">
       <r>    3.8733    1.0000 </r>
       <r>    3.8756    1.0000 </r>
       <r>   11.0354   -0.0000 </r>
       <r>   11.0355   -0.0000 </r>
       <r>   11.2482   -0.0000 </r>
       <r>   19.9301    0.0000 </r>
       <r>   21.7554    0.0000 </r>
       <r>   21.7554    0.0000 </r>
       <r>   28.7054    0.0000 </r>
       <r>   29.5295    0.0000 </r>
       <r>   37.7558    0.0000 </r>
       <r>   53.6718    0.0000 </r>
      </set>
     </set>
    </set>
   </array>
  </eigenvalues>
  <separator name="orbital magnetization" >
   <v name="MAGDIPOLOUT">      0.00000000      0.00000000      0.00000000</v>
  </separator>
  <dos>
   <i name="efermi">      8.97506127 </i>
   <total>
    <array>
     <dimension dim="1">gridpoints</dimension>
     <dimension dim="2">spin</dimension>
     <field>energy</field>
     <field>total</field>
     <field>integrated</field>
     <set>
      <set comment="spin 1">
       <r>    -3.6244     0.0000     0.0000 </r>
       <r>    -3.4239     0.0000     0.0000 </r>
       <r>    -3.2233     0.0000     0.0000 </r>
       <r>    -3.0228     0.0000     0.0000 </r>
       <r>    -2.8223     0.0000     0.0000 </r>
       <r>    -2.6218    -0.0000    -0.0000 </r>
       <r>    -2.4213    -0.0000    -0.0000 </r>
       <r>    -2.2208    -0.0000    -0.0000 </r>
       <r>    -2.0203    -0.0000    -0.0000 </r>
       <r>    -1.8198    -0.0000    -0.0000 </r>
       <r>    -1.6193    -0.0000    -0.0000 </r>
       <r>    -1.4188    -0.0000    -0.0000 </r>
       <r>    -1.2183    -0.0006    -0.0001 </r>
       <r>    -1.0178     0.0025     0.0004 </r>
       <r>    -0.8173     0.0214     0.0047 </r>
       <r>    -0.6168     0.0063     0.0059 </r>
       <r>    -0.4163     0.0170     0.0093 </r>
       <r>    -0.2158     0.0200     0.0134 </r>
       <r>    -0.0152     0.0245     0.0183 </r>
       <r>     0.1853     0.0876     0.0358 </r>
       <r>     0.3858     0.0135     0.0386 </r>
       <r>     0.5863    -0.0054     0.0375 </r>
       <r>     0.7868     0.0082     0.0391 </r>
       <r>     0.9873     0.1020     0.0596 </r>
       <r>     1.1878     0.0545     0.0705 </r>
       <r>     1.3883     0.0810     0.0867 </r>
       <r>     1.5888     0.0950     0.1058 </r>
       <r>     1.7893     0.0544     0.1167 </r>
       <r>     1.9898    -0.0124     0.1142 </r>
       <r>     2.1903     0.0264     0.1195 </r>
       <r>     2.3908     0.3693     0.1935 </r>
       <r>     2.5913     0.4882     0.2914 </r>
       <r>     2.7918     0.4332     0.3783 </r>
       <r>     2.9923     0.5082     0.4802 </r>
       <r>     3.1929     0.6024     0.6010 </r>
       <r>     3.3934     0.7718     0.7557 </r>
       <r>     3.5939     0.7477     0.9056 </r>
       <r>     3.7944     0.4380     0.9935 </r>
       <r>     3.9949     0.4251     1.0787 </r>
       <r>     4.1954     0.3593     1.1507 </r>
       <r>     4.3959     0.5939     1.2698 </r>
       <r>     4.5964     1.2869     1.5278 </r>
       <r>     4.7969     0.9580     1.7199 </r>
       <r>     4.9974     0.4413     1.8084 </r>
       <r>     5.1979     0.5024     1.9091 </r>
       <r>     5.3984     0.9547     2.1006 </r>
       <r>     5.5989     1.4123     2.3837 </r>
       <r>     5.7994     0.8092     2.5460 </r>
       <r>     5.9999     0.4990     2.6460 </r>
       <r>     6.2005     0.2771     2.7016 </r>
       <r>     6.4010     0.1863     2.7390 </r>
       <r>     6.6015     0.6300     2.8653 </r>
       <r>     6.8020     0.5243     2.9704 </r>
       <r>     7.0025     0.1498     3.0004 </r>
       <r>     7.2030     0.2940     3.0594 </r>
       <r>     7.4035     0.8606     3.2319 </r>
       <r>     7.6040     1.0539     3.4433 </r>
       <r>     7.8045     1.1447     3.6728 </r>
       <r>     8.0050     1.3592     3.9453 </r>
       <r>     8.2055     1.5870     4.2635 </r>
       <r>     8.4060     1.5133     4.5669 </r>
       <r>     8.6065     0.5145     4.6701 </r>
       <r>     8.8070     0.4965     4.7697 </r>
       <r>     9.0075     0.8531     4.9407 </r>
       <r>     9.2080     0.5994     5.0609 </r>
       <r>     9.4086     0.3983     5.1408 </r>
       <r>     9.6091     0.3268     5.2063 </r>
       <r>     9.8096     0.2885     5.2641 </r>
       <r>    10.0101     0.2757     5.3194 </r>
       <r>    10.2106     0.1021     5.3399 </r>
       <r>    10.4111     0.0673     5.3534 </r>
       <r>    10.6116     0.0319     5.3598 </r>
       <r>    10.8121     0.1332     5.3865 </r>
       <r>    11.0126     0.3490     5.4565 </r>
       <r>    11.2131     0.0741     5.4713 </r>
       <r>    11.4136     0.1137     5.4941 </r>
       <r>    11.6141     0.0748     5.5091 </r>
       <r>    11.8146     0.0778     5.5247 </r>
       <r>    12.0151     0.0060     5.5259 </r>
       <r>    12.2156     0.0786     5.5417 </r>
       <r>    12.4161     0.2006     5.5819 </r>
       <r>    12.6167     0.1876     5.6195 </r>
       <r>    12.8172     0.0442     5.6284 </r>
       <r>    13.0177     0.1688     5.6622 </r>
       <r>    13.2182     0.0695     5.6762 </r>
       <r>    13.4187     0.1024     5.6967 </r>
       <r>    13.6192     0.0955     5.7158 </r>
       <r>    13.8197     0.0117     5.7182 </r>
       <r>    14.0202     0.0781     5.7338 </r>
       <r>    14.2207     0.1702     5.7680 </r>
       <r>    14.4212     0.0595     5.7799 </r>
       <r>    14.6217     0.1941     5.8188 </r>
       <r>    14.8222     0.1316     5.8452 </r>
       <r>    15.0227    -0.0052     5.8442 </r>
       <r>    15.2232     0.0304     5.8502 </r>
       <r>    15.4237     0.0295     5.8562 </r>
       <r>    15.6242    -0.0088     5.8544 </r>
       <r>    15.8248     0.0830     5.8710 </r>
       <r>    16.0253     0.1567     5.9025 </r>
       <r>    16.2258     0.0294     5.9084 </r>
       <r>    16.4263     0.0850     5.9254 </r>
       <r>    16.6268     0.0146     5.9283 </r>
       <r>    16.8273    -0.0019     5.9279 </r>
       <r>    17.0278     0.0720     5.9424 </r>
       <r>    17.2283     0.0624     5.9549 </r>
       <r>    17.4288     0.0879     5.9725 </r>
       <r>    17.6293     0.0773     5.9880 </r>
       <r>    17.8298     0.0229     5.9926 </r>
       <r>    18.0303    -0.0027     5.9921 </r>
       <r>    18.2308    -0.0003     5.9920 </r>
       <r>    18.4313    -0.0015     5.9917 </r>
       <r>    18.6318    -0.0034     5.9910 </r>
       <r>    18.8323     0.0825     6.0076 </r>
       <r>    19.0329     0.2254     6.0528 </r>
       <r>    19.2334     0.1640     6.0856 </r>
       <r>    19.4339     0.0419     6.0940 </r>
       <r>    19.6344     0.2677     6.1477 </r>
       <r>    19.8349     0.4191     6.2317 </r>
       <r>    20.0354     0.3666     6.3052 </r>
       <r>    20.2359     0.1603     6.3374 </r>
       <r>    20.4364     0.0812     6.3537 </r>
       <r>    20.6369     0.0144     6.3566 </r>
       <r>    20.8374    -0.0090     6.3548 </r>
       <r>    21.0379     0.0237     6.3595 </r>
       <r>    21.2384     0.2289     6.4054 </r>
       <r>    21.4389     0.3961     6.4848 </r>
       <r>    21.6394     0.0976     6.5044 </r>
       <r>    21.8399     0.1607     6.5366 </r>
       <r>    22.0404     0.3682     6.6105 </r>
       <r>    22.2410     0.1451     6.6395 </r>
       <r>    22.4415     0.0439     6.6484 </r>
       <r>    22.6420     0.0779     6.6640 </r>
       <r>    22.8425     0.1250     6.6890 </r>
       <r>    23.0430     0.0714     6.7034 </r>
       <r>    23.2435     0.2343     6.7503 </r>
       <r>    23.4440     0.2921     6.8089 </r>
       <r>    23.6445     0.5001     6.9092 </r>
       <r>    23.8450     0.1476     6.9388 </r>
       <r>    24.0455    -0.0007     6.9386 </r>
       <r>    24.2460     0.0333     6.9453 </r>
       <r>    24.4465     0.0187     6.9490 </r>
       <r>    24.6470     0.0746     6.9640 </r>
       <r>    24.8475     0.2440     7.0129 </r>
       <r>    25.0480     0.2093     7.0549 </r>
       <r>    25.2485     0.0169     7.0583 </r>
       <r>    25.4491     0.1694     7.0922 </r>
       <r>    25.6496     0.2975     7.1519 </r>
       <r>    25.8501     0.3596     7.2240 </r>
       <r>    26.0506     0.3056     7.2853 </r>
       <r>    26.2511     0.0840     7.3021 </r>
       <r>    26.4516     0.1080     7.3238 </r>
       <r>    26.6521     0.0081     7.3254 </r>
       <r>    26.8526     0.1411     7.3537 </r>
       <r>    27.0531     0.1972     7.3932 </r>
       <r>    27.2536     0.1145     7.4162 </r>
       <r>    27.4541     0.1803     7.4524 </r>
       <r>    27.6546     0.2009     7.4926 </r>
       <r>    27.8551     0.3063     7.5540 </r>
       <r>    28.0556     0.1107     7.5762 </r>
       <r>    28.2561     0.0025     7.5768 </r>
       <r>    28.4567     0.1234     7.6015 </r>
       <r>    28.6572     0.1901     7.6396 </r>
       <r>    28.8577     0.0533     7.6503 </r>
       <r>    29.0582     0.1914     7.6887 </r>
       <r>    29.2587     0.3809     7.7650 </r>
       <r>    29.4592     0.3736     7.8400 </r>
       <r>    29.6597     0.3428     7.9087 </r>
       <r>    29.8602     0.1159     7.9319 </r>
       <r>    30.0607     0.1525     7.9625 </r>
       <r>    30.2612     0.2778     8.0182 </r>
       <r>    30.4617     0.3720     8.0928 </r>
       <r>    30.6622     0.2913     8.1512 </r>
       <r>    30.8627     0.2343     8.1982 </r>
       <r>    31.0632     0.1085     8.2199 </r>
       <r>    31.2637    -0.0065     8.2186 </r>
       <r>    31.4642     0.0985     8.2384 </r>
       <r>    31.6648     0.1726     8.2730 </r>
       <r>    31.8653     0.1900     8.3111 </r>
       <r>    32.0658     0.1955     8.3503 </r>
       <r>    32.2663     0.0798     8.3662 </r>
       <r>    32.4668     0.4289     8.4522 </r>
       <r>    32.6673     0.4258     8.5376 </r>
       <r>    32.8678     0.2702     8.5918 </r>
       <r>    33.0683     0.2256     8.6370 </r>
       <r>    33.2688     0.3090     8.6990 </r>
       <r>    33.4693     0.1377     8.7266 </r>
       <r>    33.6698    -0.0182     8.7230 </r>
       <r>    33.8703     0.0454     8.7321 </r>
       <r>    34.0708     0.2440     8.7810 </r>
       <r>    34.2713     0.2343     8.8280 </r>
       <r>    34.4718     0.1281     8.8537 </r>
       <r>    34.6723     0.1083     8.8754 </r>
       <r>    34.8729     0.1188     8.8992 </r>
       <r>    35.0734     0.4347     8.9864 </r>
       <r>    35.2739     0.3288     9.0523 </r>
       <r>    35.4744     0.0217     9.0567 </r>
       <r>    35.6749     0.0980     9.0763 </r>
       <r>    35.8754     0.1130     9.0990 </r>
       <r>    36.0759     0.0129     9.1015 </r>
       <r>    36.2764     0.0865     9.1189 </r>
       <r>    36.4769     0.3724     9.1935 </r>
       <r>    36.6774     0.2475     9.2432 </r>
       <r>    36.8779     0.0299     9.2492 </r>
       <r>    37.0784     0.1078     9.2708 </r>
       <r>    37.2789     0.0405     9.2789 </r>
       <r>    37.4794    -0.0108     9.2767 </r>
       <r>    37.6799    -0.0098     9.2748 </r>
       <r>    37.8804     0.3790     9.3507 </r>
       <r>    38.0810     0.8205     9.5153 </r>
       <r>    38.2815     0.4685     9.6092 </r>
       <r>    38.4820     0.2172     9.6527 </r>
       <r>    38.6825     0.0310     9.6590 </r>
       <r>    38.8830     0.0635     9.6717 </r>
       <r>    39.0835     0.0461     9.6809 </r>
       <r>    39.2840     0.0656     9.6941 </r>
       <r>    39.4845     0.2188     9.7380 </r>
       <r>    39.6850     0.0703     9.7521 </r>
       <r>    39.8855     0.1106     9.7742 </r>
       <r>    40.0860     0.2504     9.8244 </r>
       <r>    40.2865     0.3576     9.8961 </r>
       <r>    40.4870     0.0968     9.9155 </r>
       <r>    40.6875     0.0093     9.9174 </r>
       <r>    40.8880     0.1366     9.9448 </r>
       <r>    41.0885     0.1087     9.9666 </r>
       <r>    41.2891     0.1451     9.9957 </r>
       <r>    41.4896     0.2636    10.0485 </r>
       <r>    41.6901     0.2019    10.0890 </r>
       <r>    41.8906     0.3837    10.1660 </r>
       <r>    42.0911     0.4385    10.2539 </r>
       <r>    42.2916     0.3071    10.3154 </r>
       <r>    42.4921     0.1158    10.3386 </r>
       <r>    42.6926     0.1762    10.3740 </r>
       <r>    42.8931     0.3501    10.4442 </r>
       <r>    43.0936     0.1341    10.4711 </r>
       <r>    43.2941     0.0177    10.4746 </r>
       <r>    43.4946     0.2621    10.5272 </r>
       <r>    43.6951     0.3368    10.5947 </r>
       <r>    43.8956     0.2767    10.6502 </r>
       <r>    44.0961     0.1949    10.6892 </r>
       <r>    44.2966     0.2047    10.7303 </r>
       <r>    44.4972     0.2658    10.7836 </r>
       <r>    44.6977     0.0157    10.7867 </r>
       <r>    44.8982    -0.0038    10.7860 </r>
       <r>    45.0987     0.1181    10.8096 </r>
       <r>    45.2992     0.3806    10.8859 </r>
       <r>    45.4997     0.4930    10.9848 </r>
       <r>    45.7002     0.1176    11.0084 </r>
       <r>    45.9007     0.1015    11.0287 </r>
       <r>    46.1012     0.5019    11.1294 </r>
       <r>    46.3017     0.1845    11.1663 </r>
       <r>    46.5022     0.1072    11.1878 </r>
       <r>    46.7027     0.1663    11.2212 </r>
       <r>    46.9032     0.2972    11.2808 </r>
       <r>    47.1037     0.2762    11.3361 </r>
       <r>    47.3042     0.1573    11.3677 </r>
       <r>    47.5047     0.2284    11.4135 </r>
       <r>    47.7053     0.1084    11.4352 </r>
       <r>    47.9058     0.1244    11.4602 </r>
       <r>    48.1063     0.4143    11.5432 </r>
       <r>    48.3068     0.4201    11.6274 </r>
       <r>    48.5073     0.1245    11.6524 </r>
       <r>    48.7078     0.0328    11.6590 </r>
       <r>    48.9083     0.1065    11.6803 </r>
       <r>    49.1088     0.0924    11.6989 </r>
       <r>    49.3093     0.0545    11.7098 </r>
       <r>    49.5098     0.1713    11.7441 </r>
       <r>    49.7103     0.0355    11.7512 </r>
       <r>    49.9108    -0.0091    11.7494 </r>
       <r>    50.1113    -0.0027    11.7489 </r>
       <r>    50.3118     0.1737    11.7837 </r>
       <r>    50.5123     0.2520    11.8342 </r>
       <r>    50.7129     0.1802    11.8704 </r>
       <r>    50.9134     0.0532    11.8810 </r>
       <r>    51.1139     0.1018    11.9015 </r>
       <r>    51.3144     0.0364    11.9088 </r>
       <r>    51.5149     0.0032    11.9094 </r>
       <r>    51.7154     0.0291    11.9152 </r>
       <r>    51.9159     0.0048    11.9162 </r>
       <r>    52.1164    -0.0024    11.9157 </r>
       <r>    52.3169    -0.0018    11.9154 </r>
       <r>    52.5174     0.0807    11.9315 </r>
       <r>    52.7179     0.1355    11.9587 </r>
       <r>    52.9184     0.0345    11.9656 </r>
       <r>    53.1189     0.0167    11.9690 </r>
       <r>    53.3194     0.0111    11.9712 </r>
       <r>    53.5199     0.0374    11.9787 </r>
       <r>    53.7204     0.0901    11.9968 </r>
       <r>    53.9210     0.0196    12.0007 </r>
       <r>    54.1215    -0.0033    12.0000 </r>
       <r>    54.3220    -0.0001    12.0000 </r>
       <r>    54.5225    -0.0000    12.0000 </r>
       <r>    54.7230    -0.0000    12.0000 </r>
       <r>    54.9235    -0.0000    12.0000 </r>
       <r>    55.1240     0.0000    12.0000 </r>
       <r>    55.3245     0.0000    12.0000 </r>
       <r>    55.5250     0.0000    12.0000 </r>
       <r>    55.7255     0.0000    12.0000 </r>
       <r>    55.9260     0.0000    12.0000 </r>
       <r>    56.1265     0.0000    12.0000 </r>
       <r>    56.3270     0.0000    12.0000 </r>
       <r>    56.5275     0.0000    12.0000 </r>
      </set>
      <set comment="spin 2">
       <r>    -3.6244     0.0000     0.0000 </r>
       <r>    -3.4239     0.0000     0.0000 </r>
       <r>    -3.2233     0.0000     0.0000 </r>
       <r>    -3.0228     0.0000     0.0000 </r>
       <r>    -2.8223     0.0000     0.0000 </r>
       <r>    -2.6218     0.0000     0.0000 </r>
       <r>    -2.4213    -0.0000    -0.0000 </r>
       <r>    -2.2208    -0.0000    -0.0000 </r>
       <r>    -2.0203    -0.0000    -0.0000 </r>
       <r>    -1.8198    -0.0000    -0.0000 </r>
       <r>    -1.6193    -0.0000    -0.0000 </r>
       <r>    -1.4188    -0.0000    -0.0000 </r>
       <r>    -1.2183    -0.0000    -0.0000 </r>
       <r>    -1.0178    -0.0004    -0.0001 </r>
       <r>    -0.8173     0.0008     0.0001 </r>
       <r>    -0.6168     0.0197     0.0040 </r>
       <r>    -0.4163     0.0096     0.0059 </r>
       <r>    -0.2158     0.0115     0.0082 </r>
       <r>    -0.0152     0.0251     0.0133 </r>
       <r>     0.1853     0.0113     0.0155 </r>
       <r>     0.3858     0.0854     0.0327 </r>
       <r>     0.5863     0.0306     0.0388 </r>
       <r>     0.7868    -0.0046     0.0379 </r>
       <r>     0.9873    -0.0040     0.0371 </r>
       <r>     1.1878     0.0693     0.0510 </r>
       <r>     1.3883     0.0832     0.0676 </r>
       <r>     1.5888     0.0493     0.0775 </r>
       <r>     1.7893     0.0767     0.0929 </r>
       <r>     1.9898     0.0829     0.1095 </r>
       <r>     2.1903     0.0363     0.1168 </r>
       <r>     2.3908    -0.0096     0.1149 </r>
       <r>     2.5913     0.0206     0.1190 </r>
       <r>     2.7918     0.2122     0.1616 </r>
       <r>     2.9923     0.1280     0.1872 </r>
       <r>     3.1929     0.1707     0.2215 </r>
       <r>     3.3934     0.2058     0.2627 </r>
       <r>     3.5939     0.1694     0.2967 </r>
       <r>     3.7944     0.1663     0.3301 </r>
       <r>     3.9949     0.5457     0.4395 </r>
       <r>     4.1954     0.5715     0.5541 </r>
       <r>     4.3959     0.4307     0.6404 </r>
       <r>     4.5964     0.3873     0.7181 </r>
       <r>     4.7969     0.7270     0.8639 </r>
       <r>     4.9974     0.6492     0.9940 </r>
       <r>     5.1979     0.2136     1.0369 </r>
       <r>     5.3984     0.2423     1.0854 </r>
       <r>     5.5989     0.3823     1.1621 </r>
       <r>     5.7994     0.7453     1.3115 </r>
       <r>     5.9999     1.1678     1.5457 </r>
       <r>     6.2005     0.7845     1.7030 </r>
       <r>     6.4010     0.5877     1.8208 </r>
       <r>     6.6015     0.8131     1.9839 </r>
       <r>     6.8020     0.9621     2.1768 </r>
       <r>     7.0025     0.8824     2.3537 </r>
       <r>     7.2030     0.7489     2.5038 </r>
       <r>     7.4035     0.7270     2.6496 </r>
       <r>     7.6040     0.5582     2.7615 </r>
       <r>     7.8045     0.1746     2.7965 </r>
       <r>     8.0050     0.1535     2.8273 </r>
       <r>     8.2055     0.4416     2.9159 </r>
       <r>     8.4060     0.2831     2.9726 </r>
       <r>     8.6065     0.1736     3.0074 </r>
       <r>     8.8070     0.2657     3.0607 </r>
       <r>     9.0075     0.1651     3.0938 </r>
       <r>     9.2080     0.6145     3.2170 </r>
       <r>     9.4086     0.8192     3.3813 </r>
       <r>     9.6091     0.5372     3.4890 </r>
       <r>     9.8096     0.7210     3.6336 </r>
       <r>    10.0101     1.0278     3.8396 </r>
       <r>    10.2106     0.9452     4.0292 </r>
       <r>    10.4111     1.0276     4.2352 </r>
       <r>    10.6116     1.5340     4.5428 </r>
       <r>    10.8121     1.5097     4.8455 </r>
       <r>    11.0126     0.7947     5.0048 </r>
       <r>    11.2131     0.6439     5.1339 </r>
       <r>    11.4136     0.4414     5.2224 </r>
       <r>    11.6141     0.2030     5.2631 </r>
       <r>    11.8146     0.2304     5.3093 </r>
       <r>    12.0151     0.2344     5.3563 </r>
       <r>    12.2156     0.0295     5.3622 </r>
       <r>    12.4161     0.2676     5.4159 </r>
       <r>    12.6167     0.2659     5.4692 </r>
       <r>    12.8172     0.0854     5.4863 </r>
       <r>    13.0177     0.0875     5.5039 </r>
       <r>    13.2182     0.0815     5.5202 </r>
       <r>    13.4187     0.0896     5.5382 </r>
       <r>    13.6192     0.1422     5.5667 </r>
       <r>    13.8197     0.1304     5.5929 </r>
       <r>    14.0202     0.1555     5.6241 </r>
       <r>    14.2207     0.1668     5.6575 </r>
       <r>    14.4212     0.0690     5.6713 </r>
       <r>    14.6217     0.0672     5.6848 </r>
       <r>    14.8222     0.1232     5.7095 </r>
       <r>    15.0227     0.0615     5.7218 </r>
       <r>    15.2232     0.0489     5.7316 </r>
       <r>    15.4237     0.1784     5.7674 </r>
       <r>    15.6242     0.1725     5.8020 </r>
       <r>    15.8248     0.1933     5.8408 </r>
       <r>    16.0253     0.0197     5.8447 </r>
       <r>    16.2258     0.0174     5.8482 </r>
       <r>    16.4263     0.0384     5.8559 </r>
       <r>    16.6268    -0.0040     5.8551 </r>
       <r>    16.8273     0.0253     5.8602 </r>
       <r>    17.0278     0.1662     5.8935 </r>
       <r>    17.2283     0.0636     5.9063 </r>
       <r>    17.4288     0.0749     5.9213 </r>
       <r>    17.6293     0.0388     5.9291 </r>
       <r>    17.8298     0.0738     5.9438 </r>
       <r>    18.0303     0.0416     5.9522 </r>
       <r>    18.2308     0.0564     5.9635 </r>
       <r>    18.4313     0.0633     5.9762 </r>
       <r>    18.6318     0.0416     5.9845 </r>
       <r>    18.8323     0.0395     5.9924 </r>
       <r>    19.0329    -0.0016     5.9921 </r>
       <r>    19.2334    -0.0006     5.9920 </r>
       <r>    19.4339    -0.0009     5.9918 </r>
       <r>    19.6344    -0.0033     5.9911 </r>
       <r>    19.8349     0.0597     6.0031 </r>
       <r>    20.0354     0.1163     6.0264 </r>
       <r>    20.2359     0.2560     6.0778 </r>
       <r>    20.4364     0.1661     6.1111 </r>
       <r>    20.6369     0.1528     6.1417 </r>
       <r>    20.8374     0.4332     6.2286 </r>
       <r>    21.0379     0.4693     6.3227 </r>
       <r>    21.2384     0.1084     6.3444 </r>
       <r>    21.4389     0.0584     6.3561 </r>
       <r>    21.6394     0.0282     6.3618 </r>
       <r>    21.8399     0.0840     6.3786 </r>
       <r>    22.0404     0.1173     6.4021 </r>
       <r>    22.2410     0.2185     6.4459 </r>
       <r>    22.4415     0.2643     6.4989 </r>
       <r>    22.6420     0.1850     6.5360 </r>
       <r>    22.8425     0.2810     6.5923 </r>
       <r>    23.0430     0.2395     6.6404 </r>
       <r>    23.2435     0.0946     6.6593 </r>
       <r>    23.4440     0.0660     6.6726 </r>
       <r>    23.6445     0.1354     6.6997 </r>
       <r>    23.8450     0.1544     6.7307 </r>
       <r>    24.0455     0.1409     6.7589 </r>
       <r>    24.2460     0.3840     6.8359 </r>
       <r>    24.4465     0.3386     6.9038 </r>
       <r>    24.6470     0.1493     6.9338 </r>
       <r>    24.8475     0.0529     6.9444 </r>
       <r>    25.0480     0.0234     6.9490 </r>
       <r>    25.2485     0.0480     6.9587 </r>
       <r>    25.4491     0.1613     6.9910 </r>
       <r>    25.6496     0.2645     7.0440 </r>
       <r>    25.8501     0.0757     7.0592 </r>
       <r>    26.0506     0.0725     7.0738 </r>
       <r>    26.2511     0.2670     7.1273 </r>
       <r>    26.4516     0.3991     7.2073 </r>
       <r>    26.6521     0.3920     7.2859 </r>
       <r>    26.8526     0.0291     7.2918 </r>
       <r>    27.0531     0.0886     7.3095 </r>
       <r>    27.2536     0.0938     7.3283 </r>
       <r>    27.4541     0.1581     7.3600 </r>
       <r>    27.6546     0.1782     7.3957 </r>
       <r>    27.8551     0.1319     7.4222 </r>
       <r>    28.0556     0.1528     7.4528 </r>
       <r>    28.2561     0.2811     7.5092 </r>
       <r>    28.4567     0.1959     7.5485 </r>
       <r>    28.6572     0.0988     7.5683 </r>
       <r>    28.8577     0.0724     7.5828 </r>
       <r>    29.0582     0.0712     7.5971 </r>
       <r>    29.2587     0.1339     7.6239 </r>
       <r>    29.4592     0.2401     7.6721 </r>
       <r>    29.6597     0.2263     7.7174 </r>
       <r>    29.8602     0.4263     7.8029 </r>
       <r>    30.0607     0.2899     7.8610 </r>
       <r>    30.2612     0.2285     7.9069 </r>
       <r>    30.4617     0.1717     7.9413 </r>
       <r>    30.6622     0.2446     7.9903 </r>
       <r>    30.8627     0.4243     8.0754 </r>
       <r>    31.0632     0.2748     8.1305 </r>
       <r>    31.2637     0.1723     8.1651 </r>
       <r>    31.4642     0.1540     8.1960 </r>
       <r>    31.6648     0.1119     8.2184 </r>
       <r>    31.8653     0.0146     8.2213 </r>
       <r>    32.0658     0.1027     8.2419 </r>
       <r>    32.2663     0.3091     8.3039 </r>
       <r>    32.4668     0.1896     8.3419 </r>
       <r>    32.6673     0.1456     8.3711 </r>
       <r>    32.8678     0.4324     8.4578 </r>
       <r>    33.0683     0.3595     8.5299 </r>
       <r>    33.2688     0.1403     8.5580 </r>
       <r>    33.4693     0.2562     8.6094 </r>
       <r>    33.6698     0.3989     8.6894 </r>
       <r>    33.8703     0.1832     8.7261 </r>
       <r>    34.0708    -0.0097     8.7242 </r>
       <r>    34.2713    -0.0115     8.7219 </r>
       <r>    34.4718     0.1536     8.7527 </r>
       <r>    34.6723     0.3110     8.8150 </r>
       <r>    34.8729     0.1733     8.8498 </r>
       <r>    35.0734     0.1336     8.8766 </r>
       <r>    35.2739     0.1357     8.9038 </r>
       <r>    35.4744     0.3594     8.9758 </r>
       <r>    35.6749     0.3764     9.0513 </r>
       <r>    35.8754     0.0240     9.0561 </r>
       <r>    36.0759     0.1024     9.0766 </r>
       <r>    36.2764     0.1548     9.1077 </r>
       <r>    36.4769     0.1435     9.1364 </r>
       <r>    36.6774     0.1102     9.1585 </r>
       <r>    36.8779     0.2362     9.2059 </r>
       <r>    37.0784     0.2060     9.2472 </r>
       <r>    37.2789     0.0792     9.2631 </r>
       <r>    37.4794     0.0443     9.2719 </r>
       <r>    37.6799     0.0237     9.2767 </r>
       <r>    37.8804     0.1045     9.2977 </r>
       <r>    38.0810     0.0055     9.2988 </r>
       <r>    38.2815     0.3434     9.3676 </r>
       <r>    38.4820     0.6753     9.5030 </r>
       <r>    38.6825     0.3079     9.5648 </r>
       <r>    38.8830     0.3501     9.6350 </r>
       <r>    39.0835     0.1145     9.6579 </r>
       <r>    39.2840     0.0325     9.6644 </r>
       <r>    39.4845     0.1767     9.6999 </r>
       <r>    39.6850     0.1122     9.7224 </r>
       <r>    39.8855    -0.0056     9.7212 </r>
       <r>    40.0860     0.0073     9.7227 </r>
       <r>    40.2865     0.2484     9.7725 </r>
       <r>    40.4870     0.5158     9.8759 </r>
       <r>    40.6875     0.2094     9.9179 </r>
       <r>    40.8880    -0.0169     9.9145 </r>
       <r>    41.0885    -0.0050     9.9135 </r>
       <r>    41.2891    -0.0087     9.9118 </r>
       <r>    41.4896     0.1433     9.9405 </r>
       <r>    41.6901     0.4069    10.0221 </r>
       <r>    41.8906     0.2816    10.0786 </r>
       <r>    42.0911     0.0574    10.0901 </r>
       <r>    42.2916     0.3023    10.1507 </r>
       <r>    42.4921     0.4014    10.2312 </r>
       <r>    42.6926     0.3722    10.3058 </r>
       <r>    42.8931     0.1638    10.3387 </r>
       <r>    43.0936     0.1017    10.3590 </r>
       <r>    43.2941     0.2568    10.4105 </r>
       <r>    43.4946     0.1240    10.4354 </r>
       <r>    43.6951     0.1364    10.4627 </r>
       <r>    43.8956     0.2665    10.5162 </r>
       <r>    44.0961     0.2212    10.5605 </r>
       <r>    44.2966     0.3312    10.6269 </r>
       <r>    44.4972     0.3385    10.6948 </r>
       <r>    44.6977     0.2155    10.7380 </r>
       <r>    44.8982     0.1303    10.7642 </r>
       <r>    45.0987     0.1401    10.7922 </r>
       <r>    45.2992     0.0805    10.8084 </r>
       <r>    45.4997     0.0342    10.8152 </r>
       <r>    45.7002     0.2705    10.8695 </r>
       <r>    45.9007     0.4616    10.9620 </r>
       <r>    46.1012     0.2168    11.0055 </r>
       <r>    46.3017     0.0875    11.0231 </r>
       <r>    46.5022     0.4299    11.1092 </r>
       <r>    46.7027     0.3611    11.1816 </r>
       <r>    46.9032     0.0853    11.1987 </r>
       <r>    47.1037     0.2406    11.2470 </r>
       <r>    47.3042     0.2750    11.3021 </r>
       <r>    47.5047     0.0150    11.3051 </r>
       <r>    47.7053     0.1841    11.3420 </r>
       <r>    47.9058     0.2101    11.3842 </r>
       <r>    48.1063     0.0951    11.4032 </r>
       <r>    48.3068     0.1809    11.4395 </r>
       <r>    48.5073     0.3458    11.5088 </r>
       <r>    48.7078     0.4090    11.5908 </r>
       <r>    48.9083     0.2749    11.6459 </r>
       <r>    49.1088     0.1547    11.6770 </r>
       <r>    49.3093     0.0061    11.6782 </r>
       <r>    49.5098     0.1299    11.7042 </r>
       <r>    49.7103     0.1913    11.7426 </r>
       <r>    49.9108     0.0431    11.7512 </r>
       <r>    50.1113    -0.0062    11.7500 </r>
       <r>    50.3118    -0.0036    11.7492 </r>
       <r>    50.5123     0.0483    11.7589 </r>
       <r>    50.7129     0.1058    11.7801 </r>
       <r>    50.9134     0.1316    11.8065 </r>
       <r>    51.1139     0.2484    11.8563 </r>
       <r>    51.3144     0.0849    11.8734 </r>
       <r>    51.5149     0.1186    11.8971 </r>
       <r>    51.7154     0.0567    11.9085 </r>
       <r>    51.9159     0.0071    11.9099 </r>
       <r>    52.1164     0.0279    11.9155 </r>
       <r>    52.3169     0.0032    11.9162 </r>
       <r>    52.5174    -0.0035    11.9155 </r>
       <r>    52.7179     0.0089    11.9172 </r>
       <r>    52.9184     0.0979    11.9369 </r>
       <r>    53.1189     0.0905    11.9550 </r>
       <r>    53.3194     0.0735    11.9698 </r>
       <r>    53.5199    -0.0004    11.9697 </r>
       <r>    53.7204     0.0481    11.9793 </r>
       <r>    53.9210     0.0966    11.9987 </r>
       <r>    54.1215     0.0092    12.0005 </r>
       <r>    54.3220    -0.0026    12.0000 </r>
       <r>    54.5225    -0.0001    12.0000 </r>
       <r>    54.7230    -0.0000    12.0000 </r>
       <r>    54.9235    -0.0000    12.0000 </r>
       <r>    55.1240    -0.0000    12.0000 </r>
       <r>    55.3245     0.0000    12.0000 </r>
       <r>    55.5250     0.0000    12.0000 </r>
       <r>    55.7255     0.0000    12.0000 </r>
       <r>    55.9260     0.0000    12.0000 </r>
       <r>    56.1265     0.0000    12.0000 </r>
       <r>    56.3270     0.0000    12.0000 </r>
       <r>    56.5275     0.0000    12.0000 </r>
      </set>
     </set>
    </array>
   </total>
  </dos>
 </calculation>
 <structure name="finalpos" >
  <crystal>
   <varray name="basis" >
    <v>      -1.30000000       1.30000000       1.30000000 </v>
    <v>       1.30000000      -1.30000000       1.30000000 </v>
    <v>       1.30000000       1.30000000      -1.30000000 </v>
   </varray>
   <i name="volume">      8.78800000 </i>
   <varray name="rec_basis" >
    <v>       0.00000000       0.38461538       0.38461538 </v>
    <v>       0.38461538       0.00000000       0.38461538 </v>
    <v>       0.38461538       0.38461538       0.00000000 </v>
   </varray>
  </crystal>
  <varray name="positions" >
   <v>       0.00000000       0.00000000       0.00000000 </v>
  </varray>
 </structure>
</modeling>
