fcc Au                                  
   4.05000000000000     
     0.000000    0.500000    0.500000
     0.500000    0.000000    0.500000
     0.500000    0.500000    0.000000
   Au
     1
Direct
  0.000000  0.000000  0.000000
 
   24   24   24
  80.332      77.315      69.510      59.562      49.466      39.709      30.159      21.251      14.030      9.2262    
  6.5911      5.2434      4.8155      5.2434      6.5911      9.2262      14.030      21.251      30.159      39.709    
  49.466      59.562      69.510      77.315      77.315      71.928      63.175      53.401      43.743      34.244    
  25.043      16.994      11.093      7.5682      5.7187      4.8657      4.8657      5.7187      7.5680      11.092    
  16.995      25.045      34.247      43.744      53.399      63.168      71.920      77.312      69.510      63.175    
  54.826      45.911      36.872      27.852      19.515      12.899      8.5906      6.2312      4.9999      4.6117    
  4.9999      6.2311      8.5902      12.899      19.516      27.854      36.875      45.912      54.821      63.167    
  69.504      71.920      59.562      53.401      45.911      37.779      29.338      21.193      14.328      9.5124    
  6.7079      5.1764      4.4715      4.4716      5.1765      6.7078      9.5119      14.328      21.193      29.339    
  37.780      45.912      53.400      59.560      63.167      63.168      49.466      43.743      36.872      29.338    
  21.780      15.116      10.158      7.0851      5.3451      4.4122      4.1231      4.4123      5.3453      7.0854    
  10.158      15.115      21.779      29.337      36.872      43.744      49.468      53.400      54.821      53.399    
  39.709      34.244      27.852      21.193      15.116      10.390      7.2958      5.4634      4.3960      3.9170    
  3.9169      4.3960      5.4638      7.2967      10.391      15.116      21.192      27.850      34.242      39.708    
  43.744      45.912      45.912      43.744      30.159      25.043      19.515      14.328      10.158      7.2958    
  5.5056      4.3949      3.8124      3.6342      3.8121      4.3945      5.5056      7.2968      10.160      14.330    
  19.516      25.041      30.155      34.242      36.872      37.780      36.875      34.247      21.251      16.994    
  12.899      9.5124      7.0851      5.4634      4.3949      3.7808      3.5089      3.5088      3.7804      4.3939    
  5.4623      7.0850      9.5142      12.902      16.997      21.251      25.041      27.850      29.337      29.339    
  27.854      25.045      14.030      11.093      8.5906      6.7079      5.3451      4.3960      3.8124      3.5089    
  3.4164      3.5092      3.8124      4.3950      5.3430      6.7060      8.5905      11.095      14.033      16.997    
  19.516      21.192      21.779      21.193      19.516      16.995      9.2262      7.5682      6.2312      5.1764    
  4.4122      3.9170      3.6342      3.5088      3.5092      3.6353      3.9181      4.4122      5.1746      6.2282    
  7.5658      9.2262      11.095      12.902      14.330      15.116      15.115      14.328      12.899      11.092    
  6.5911      5.7187      4.9999      4.4715      4.1231      3.9169      3.8121      3.7804      3.8124      3.9181    
  4.1252      4.4734      4.9999      5.7164      6.5876      7.5658      8.5905      9.5142      10.160      10.391    
  10.158      9.5119      8.5902      7.5680      5.2434      4.8657      4.6117      4.4716      4.4123      4.3960    
  4.3945      4.3939      4.3950      4.4122      4.4734      4.6147      4.8681      5.2435      5.7164      6.2282    
  6.7060      7.0850      7.2968      7.2967      7.0854      6.7078      6.2311      5.7187      4.8155      4.8657    
  4.9999      5.1765      5.3453      5.4638      5.5056      5.4623      5.3430      5.1746      4.9999      4.8681    
  4.8190      4.8681      4.9999      5.1746      5.3430      5.4623      5.5056      5.4638      5.3453      5.1765    
  4.9999      4.8657      5.2434      5.7187      6.2311      6.7078      7.0854      7.2967      7.2968      7.0850    
  6.7060      6.2282      5.7164      5.2435      4.8681      4.6147      4.4734      4.4122      4.3950      4.3939    
  4.3945      4.3960      4.4123      4.4716      4.6117      4.8657      6.5911      7.5680      8.5902      9.5119    
  10.158      10.391      10.160      9.5142      8.5905      7.5658      6.5876      5.7164      4.9999      4.4734    
  4.1252      3.9181      3.8124      3.7804      3.8121      3.9169      4.1231      4.4715      4.9999      5.7187    
  9.2262      11.092      12.899      14.328      15.115      15.116      14.330      12.902      11.095      9.2262    
  7.5658      6.2282      5.1746      4.4122      3.9181      3.6353      3.5092      3.5088      3.6342      3.9170    
  4.4122      5.1764      6.2312      7.5682      14.030      16.995      19.516      21.193      21.779      21.192    
  19.516      16.997      14.033      11.095      8.5905      6.7060      5.3430      4.3950      3.8124      3.5092    
  3.4164      3.5089      3.8124      4.3960      5.3451      6.7079      8.5906      11.093      21.251      25.045    
  27.854      29.339      29.337      27.850      25.041      21.251      16.997      12.902      9.5142      7.0850    
  5.4623      4.3939      3.7804      3.5088      3.5089      3.7808      4.3949      5.4634      7.0851      9.5124    
  12.899      16.994      30.159      34.247      36.875      37.780      36.872      34.242      30.155      25.041    
  19.516      14.330      10.160      7.2968      5.5056      4.3945      3.8121      3.6342      3.8124      4.3949    
  5.5056      7.2958      10.158      14.328      19.515      25.043      39.709      43.744      45.912      45.912    
  43.744      39.708      34.242      27.850      21.192      15.116      10.391      7.2967      5.4638      4.3960    
  3.9169      3.9170      4.3960      5.4634      7.2958      10.390      15.116      21.193      27.852      34.244    
  49.466      53.399      54.821      53.400      49.468      43.744      36.872      29.337      21.779      15.115    
  10.158      7.0854      5.3453      4.4123      4.1231      4.4122      5.3451      7.0851      10.158      15.116    
  21.780      29.338      36.872      43.743      59.562      63.168      63.167      59.560      53.400      45.912    
  37.780      29.339      21.193      14.328      9.5119      6.7078      5.1765      4.4716      4.4715      5.1764    
  6.7079      9.5124      14.328      21.193      29.338      37.779      45.911      53.401      69.510      71.920    
  69.504      63.167      54.821      45.912      36.875      27.854      19.516      12.899      8.5902      6.2311    
  4.9999      4.6117      4.9999      6.2312      8.5906      12.899      19.515      27.852      36.872      45.911    
  54.826      63.175      77.315      77.312      71.920      63.168      53.399      43.744      34.247      25.045    
  16.995      11.092      7.5680      5.7187      4.8657      4.8657      5.7187      7.5682      11.093      16.994    
  25.043      34.244      43.743      53.401      63.175      71.928      77.315      71.928      63.175      53.401    
  43.743      34.244      25.043      16.994      11.093      7.5682      5.7187      4.8657      4.8657      5.7187    
  7.5680      11.092      16.995      25.045      34.247      43.744      53.399      63.168      71.920      77.312    
  71.928      65.117      56.253      46.966      37.713      28.546      20.047      13.253      8.7943      6.3515    
  5.0838      4.6832      5.0838      6.3513      8.7940      13.253      20.049      28.550      37.717      46.966    
  56.246      65.105      71.919      74.533      63.175      56.253      48.100      39.532      30.793      22.344    
  15.131      9.9938      6.9787      5.3543      4.6043      4.6043      5.3542      6.9784      9.9932      15.131    
  22.346      30.796      39.535      48.099      56.247      63.167      67.302      67.305      53.401      46.966    
  39.532      31.564      23.568      16.403      10.957      7.5314      5.6216      4.6003      4.2822      4.6004    
  5.6216      7.5312      10.956      16.402      23.568      31.565      39.533      46.968      53.402      57.984    
  59.673      57.984      43.743      37.713      30.793      23.568      16.851      11.494      7.9168      5.8320    
  4.6317      4.0888      4.0888      4.6319      5.8324      7.9171      11.493      16.850      23.567      30.792    
  37.714      43.746      48.343      50.879      50.878      48.339      34.244      28.546      22.344      16.403    
  11.494      8.0555      5.9468      4.6643      3.9860      3.7779      3.9858      4.6643      5.9473      8.0565    
  11.495      16.403      22.343      28.544      34.243      38.831      41.829      42.876      41.829      38.831    
  25.043      20.047      15.131      10.957      7.9168      5.9468      4.6773      3.9427      3.6168      3.6166    
  3.9422      4.6768      5.9468      7.9178      10.959      15.133      20.048      25.041      29.433      32.674    
  34.392      34.394      32.678      29.436      16.994      13.253      9.9938      7.5314      5.8320      4.6643    
  3.9427      3.5676      3.4532      3.5675      3.9421      4.6630      5.8307      7.5312      9.9956      13.256    
  16.997      20.689      23.776      25.811      26.521      25.813      23.778      20.689      11.093      8.7943    
  6.9787      5.6216      4.6317      3.9860      3.6168      3.4532      3.4535      3.6173      3.9860      4.6304    
  5.6192      6.9765      8.7941      11.095      13.654      16.085      17.978      19.010      19.010      17.977    
  16.082      13.650      7.5682      6.3515      5.3543      4.6003      4.0888      3.7779      3.6166      3.5675    
  3.6173      3.7793      4.0901      4.6003      5.3523      6.3482      7.5657      9.0054      10.532      11.900    
  12.849      13.187      12.846      11.897      10.530      9.0054      5.7187      5.0838      4.6043      4.2822    
  4.0888      3.9858      3.9422      3.9421      3.9860      4.0901      4.2845      4.6063      5.0839      5.7164    
  6.4592      7.2497      8.0191      8.6438      8.9951      8.9942      8.6422      8.0188      7.2518      6.4625    
  4.8657      4.6832      4.6043      4.6004      4.6319      4.6643      4.6768      4.6630      4.6304      4.6003    
  4.6063      4.6864      4.8680      5.1532      5.5113      5.8859      6.2113      6.4330      6.5122      6.4336    
  6.2130      5.8885      5.5134      5.1532      4.8657      5.0838      5.3542      5.6216      5.8324      5.9473    
  5.9468      5.8307      5.6192      5.3523      5.0839      4.8680      4.7418      4.7131      4.7611      4.8471    
  4.9303      4.9801      4.9809      4.9322      4.8488      4.7611      4.7109      4.7385      5.7187      6.3513    
  6.9784      7.5312      7.9171      8.0565      7.9178      7.5312      6.9765      6.3482      5.7164      5.1532    
  4.7131      4.4109      4.2281      4.1310      4.0872      4.0754      4.0878      4.1310      4.2266      4.4082    
  4.7109      5.1532      7.5680      8.7940      9.9932      10.956      11.493      11.495      10.959      9.9956    
  8.7941      7.5657      6.4592      5.5113      4.7611      4.2281      3.8861      3.6912      3.6046      3.6043    
  3.6903      3.8845      4.2266      4.7611      5.5135      6.4625      11.092      13.253      15.131      16.402    
  16.850      16.403      15.133      13.256      11.095      9.0054      7.2497      5.8859      4.8471      4.1310    
  3.6912      3.4613      3.3906      3.4607      3.6904      4.1310      4.8486      5.8885      7.2519      9.0054    
  16.995      20.049      22.346      23.568      23.567      22.343      20.048      16.997      13.654      10.532    
  8.0191      6.2113      4.9303      4.0872      3.6046      3.3906      3.3905      3.6046      4.0880      4.9319    
  6.2128      8.0191      10.530      13.650      25.045      28.550      30.796      31.565      30.792      28.544    
  25.041      20.689      16.085      11.900      8.6438      6.4330      4.9801      4.0754      3.6043      3.4607    
  3.6046      4.0760      4.9809      6.4330      8.6422      11.897      16.082      20.689      34.247      37.717    
  39.535      39.533      37.714      34.243      29.433      23.776      17.978      12.849      8.9951      6.5122    
  4.9809      4.0878      3.6903      3.6904      4.0880      4.9809      6.5114      8.9934      12.847      17.977    
  23.777      29.436      43.744      46.966      48.099      46.968      43.746      38.831      32.674      25.811    
  19.010      13.187      8.9942      6.4336      4.9322      4.1310      3.8845      4.1310      4.9319      6.4330    
  8.9934      13.187      19.011      25.813      32.676      38.831      53.399      56.246      56.247      53.402    
  48.343      41.829      34.392      26.521      19.010      12.846      8.6422      6.2130      4.8488      4.2266    
  4.2266      4.8486      6.2128      8.6422      12.847      19.011      26.522      34.393      41.828      48.339    
  63.168      65.105      63.167      57.984      50.879      42.876      34.394      25.813      17.977      11.897    
  8.0188      5.8885      4.7611      4.4082      4.7611      5.8885      8.0191      11.897      17.977      25.813    
  34.393      42.875      50.879      57.984      71.920      71.919      67.302      59.673      50.878      41.829    
  32.678      23.778      16.082      10.530      7.2518      5.5134      4.7109      4.7109      5.5135      7.2519    
  10.530      16.082      23.777      32.676      41.828      50.879      59.676      67.305      77.312      74.533    
  67.305      57.984      48.339      38.831      29.436      20.689      13.650      9.0054      6.4625      5.1532    
  4.7385      5.1532      6.4625      9.0054      13.650      20.689      29.436      38.831      48.339      57.984    
  67.305      74.533      69.510      63.175      54.826      45.911      36.872      27.852      19.515      12.899    
  8.5906      6.2312      4.9999      4.6117      4.9999      6.2311      8.5902      12.899      19.516      27.854    
  36.875      45.912      54.821      63.167      69.504      71.920      63.175      56.253      48.100      39.532    
  30.793      22.344      15.131      9.9938      6.9787      5.3543      4.6043      4.6043      5.3542      6.9784    
  9.9932      15.131      22.346      30.796      39.535      48.099      56.247      63.167      67.302      67.305    
  54.826      48.100      40.443      32.321      24.183      16.853      11.241      7.6906      5.7189      4.6666    
  4.3381      4.6666      5.7188      7.6902      11.240      16.852      24.183      32.323      40.446      48.101    
  54.826      59.675      61.476      59.676      45.911      39.532      32.321      24.817      17.785      12.101    
  8.2619      6.0318      4.7599      4.1819      4.1819      4.7600      6.0319      8.2616      12.100      17.782    
  24.815      32.322      39.535      45.917      50.884      53.671      53.669      50.879      36.872      30.793    
  24.183      17.785      12.407      8.5818      6.2415      4.8451      4.1018      3.8733      4.1018      4.8454    
  6.2421      8.5822      12.407      17.782      24.180      30.792      36.875      41.834      45.127      46.288    
  45.122      41.828      27.852      22.344      16.853      12.101      8.5818      6.3156      4.8945      4.0669    
  3.6988      3.6987      4.0667      4.8946      6.3163      8.5829      12.102      16.852      22.342      27.850    
  32.676      36.253      38.159      38.158      36.251      32.676      19.515      15.131      11.241      8.2619    
  6.2415      4.8945      4.0574      3.6217      3.4887      3.6214      4.0568      4.8939      6.2415      8.2630    
  11.243      15.133      19.515      23.776      27.307      29.627      30.435      29.628      27.309      23.777    
  12.899      9.9938      7.6906      6.0318      4.8451      4.0669      3.6217      3.4244      3.4245      3.6217    
  4.0662      4.8437      6.0304      7.6904      9.9953      12.901      16.084      19.063      21.357      22.601    
  22.601      21.358      19.063      16.082      8.5906      6.9787      5.7189      4.7599      4.1018      3.6988    
  3.4887      3.4245      3.4893      3.6995      4.1019      4.7585      5.7164      6.9765      8.5902      10.532    
  12.577      14.389      15.635      16.078      15.633      14.387      12.574      10.530      6.2312      5.3543    
  4.6666      4.1819      3.8733      3.6987      3.6214      3.6217      3.6995      3.8748      4.1832      4.6666    
  5.3523      6.2281      7.2496      8.3859      9.5101      10.423      10.936      10.935      10.421      9.5079    
  8.3859      7.2519      4.9999      4.6043      4.3381      4.1819      4.1018      4.0667      4.0568      4.0662    
  4.1019      4.1832      4.3406      4.6063      4.9999      5.5113      6.0934      6.6747      7.1876      7.5467    
  7.6759      7.5460      7.1876      6.6764      6.0963      5.5135      4.6117      4.6043      4.6666      4.7600    
  4.8454      4.8946      4.8939      4.8437      4.7585      4.6666      4.6063      4.6147      4.7131      4.8964    
  5.1323      5.3717      5.5638      5.6702      5.6707      5.5654      5.3739      5.1341      4.8964      4.7109    
  4.9999      5.3542      5.7188      6.0319      6.2421      6.3163      6.2415      6.0304      5.7164      5.3523    
  4.9999      4.7131      4.5221      4.4269      4.4037      4.4184      4.4405      4.4505      4.4416      4.4196    
  4.4037      4.4251      4.5192      4.7109      6.2311      6.9784      7.6902      8.2616      8.5822      8.5829    
  8.2630      7.6904      6.9765      6.2281      5.5113      4.8964      4.4269      4.1050      3.9054      3.7953    
  3.7475      3.7476      3.7951      3.9043      4.1028      4.4251      4.8964      5.5134      8.5902      9.9932    
  11.240      12.100      12.407      12.102      11.243      9.9953      8.5902      7.2496      6.0934      5.1323    
  4.4037      3.9054      3.5986      3.4370      3.3870      3.4364      3.5975      3.9043      4.4037      5.1341    
  6.0963      7.2518      12.899      15.131      16.852      17.782      17.782      16.852      15.133      12.901    
  10.532      8.3859      6.6747      5.3717      4.4184      3.7953      3.4370      3.2770      3.2768      3.4365    
  3.7952      4.4195      5.3738      6.6765      8.3859      10.530      19.516      22.346      24.183      24.815    
  24.180      22.342      19.515      16.084      12.577      9.5101      7.1876      5.5638      4.4405      3.7475    
  3.3870      3.2768      3.3870      3.7480      4.4416      5.5650      7.1876      9.5082      12.574      16.082    
  27.854      30.796      32.323      32.322      30.792      27.850      23.776      19.063      14.389      10.423    
  7.5467      5.6702      4.4505      3.7476      3.4364      3.4365      3.7480      4.4510      5.6701      7.5455    
  10.421      14.387      19.063      23.778      36.875      39.535      40.446      39.535      36.875      32.676    
  27.307      21.357      15.635      10.936      7.6759      5.6707      4.4416      3.7951      3.5975      3.7952    
  4.4416      5.6701      7.6748      10.935      15.635      21.359      27.309      32.678      45.912      48.099    
  48.101      45.917      41.834      36.253      29.627      22.601      16.078      10.935      7.5460      5.5654    
  4.4196      3.9043      3.9043      4.4195      5.5650      7.5455      10.935      16.079      22.603      29.629    
  36.251      41.829      54.821      56.247      54.826      50.884      45.127      38.159      30.435      22.601    
  15.633      10.421      7.1876      5.3739      4.4037      4.1028      4.4037      5.3738      7.1876      10.421    
  15.635      22.603      30.436      38.158      45.122      50.878      63.167      63.167      59.675      53.671    
  46.288      38.158      29.628      21.358      14.387      9.5079      6.6764      5.1341      4.4251      4.4251    
  5.1341      6.6765      9.5082      14.387      21.359      29.629      38.158      46.286      53.669      59.673    
  69.504      67.302      61.476      53.669      45.122      36.251      27.309      19.063      12.574      8.3859    
  6.0963      4.8964      4.5192      4.8964      6.0963      8.3859      12.574      19.063      27.309      36.251    
  45.122      53.669      61.476      67.302      71.920      67.305      59.676      50.879      41.828      32.676    
  23.777      16.082      10.530      7.2519      5.5135      4.7109      4.7109      5.5134      7.2518      10.530    
  16.082      23.778      32.678      41.829      50.878      59.673      67.302      71.919      59.562      53.401    
  45.911      37.779      29.338      21.193      14.328      9.5124      6.7079      5.1764      4.4715      4.4716    
  5.1765      6.7078      9.5119      14.328      21.193      29.339      37.780      45.912      53.400      59.560    
  63.167      63.168      53.401      46.966      39.532      31.564      23.568      16.403      10.957      7.5314    
  5.6216      4.6003      4.2822      4.6004      5.6216      7.5312      10.956      16.402      23.568      31.565    
  39.533      46.968      53.402      57.984      59.673      57.984      45.911      39.532      32.321      24.817    
  17.785      12.101      8.2619      6.0318      4.7599      4.1819      4.1819      4.7600      6.0319      8.2616    
  12.100      17.782      24.815      32.322      39.535      45.917      50.884      53.671      53.669      50.879    
  37.779      31.564      24.817      18.267      12.732      8.7703      6.3455      4.9089      4.1426      3.9068    
  4.1427      4.9092      6.3461      8.7703      12.730      18.264      24.814      31.564      37.784      42.883    
  46.293      47.500      46.286      42.875      29.338      23.568      17.785      12.732      8.9528      6.5170    
  5.0126      4.1343      3.7431      3.7430      4.1344      5.0131      6.5181      8.9535      12.731      17.782    
  23.565      29.337      34.396      38.163      40.181      40.178      38.158      34.393      21.193      16.403    
  12.101      8.7703      6.5170      5.0495      4.1354      3.6590      3.5135      3.6588      4.1352      5.0498    
  6.5182      8.7718      12.102      16.402      21.191      25.811      29.628      32.136      33.010      32.136    
  29.629      25.813      14.328      10.957      8.2619      6.3455      5.0126      4.1354      3.6334      3.4110    
  3.4109      3.6331      4.1348      5.0121      6.3458      8.2633      10.959      14.329      17.976      21.357    
  23.943      25.341      25.342      23.945      21.359      17.977      9.5124      7.5314      6.0318      4.9089    
  4.1343      3.6590      3.4110      3.3351      3.4112      3.6590      4.1336      4.9075      6.0306      7.5314    
  9.5137      11.899      14.388      16.573      18.064      18.593      18.065      16.573      14.387      11.897    
  6.7079      5.6216      4.7599      4.1426      3.7431      3.5135      3.4109      3.4112      3.5143      3.7438    
  4.1426      4.7586      5.6194      6.7061      8.0188      9.5096      10.984      12.177      12.843      12.842    
  12.175      10.982      9.5082      8.0191      5.1764      4.6003      4.1819      3.9068      3.7430      3.6588    
  3.6331      3.6590      3.7438      3.9083      4.1833      4.6004      5.1747      5.8859      6.6746      7.4845    
  8.2170      8.7342      8.9206      8.7327      8.2155      7.4845      6.6765      5.8885      4.4715      4.2822    
  4.1819      4.1427      4.1344      4.1352      4.1348      4.1336      4.1426      4.1833      4.2846      4.4734    
  4.7611      5.1323      5.5431      5.9310      6.2330      6.3999      6.3998      6.2333      5.9324      5.5454    
  5.1341      4.7611      4.4716      4.6004      4.7600      4.9092      5.0131      5.0498      5.0121      4.9075    
  4.7586      4.6004      4.4734      4.4108      4.4269      4.5116      4.6350      4.7587      4.8482      4.8809    
  4.8492      4.7604      4.6364      4.5115      4.4251      4.4082      5.1765      5.6216      6.0319      6.3461    
  6.5181      6.5182      6.3458      6.0306      5.6194      5.1747      4.7611      4.4269      4.1922      4.0502    
  3.9770      3.9455      3.9352      3.9356      3.9462      3.9770      4.0488      4.1899      4.4251      4.7611    
  6.7078      7.5312      8.2616      8.7703      8.9535      8.7718      8.2633      7.5314      6.7061      5.8859    
  5.1323      4.5116      4.0502      3.7379      3.5456      3.4438      3.4121      3.4436      3.5448      3.7364    
  4.0488      4.5115      5.1341      5.8885      9.5119      10.956      12.100      12.730      12.731      12.102    
  10.959      9.5137      8.0188      6.6746      5.5431      4.6350      3.9770      3.5456      3.2943      3.1805    
  3.1802      3.2936      3.5448      3.9770      4.6364      5.5454      6.6764      8.0188      14.328      16.402    
  17.782      18.264      17.782      16.402      14.329      11.899      9.5096      7.4845      5.9310      4.7587    
  3.9455      3.4438      3.1805      3.0994      3.1803      3.4438      3.9463      4.7602      5.9324      7.4845    
  9.5079      11.897      21.193      23.568      24.815      24.814      23.565      21.191      17.976      14.388    
  10.984      8.2170      6.2330      4.8482      3.9352      3.4121      3.1802      3.1803      3.4124      3.9359    
  4.8489      6.2330      8.2157      10.982      14.387      17.977      29.339      31.565      32.322      31.564    
  29.337      25.811      21.357      16.573      12.177      8.7342      6.3999      4.8809      3.9356      3.4436    
  3.2936      3.4438      3.9359      4.8809      6.3991      8.7327      12.175      16.573      21.358      25.813    
  37.780      39.533      39.535      37.784      34.396      29.628      23.943      18.064      12.843      8.9206    
  6.3998      4.8492      3.9462      3.5448      3.5448      3.9463      4.8489      6.3991      8.9200      12.843    
  18.066      23.945      29.628      34.394      45.912      46.968      45.917      42.883      38.163      32.136    
  25.341      18.593      12.842      8.7327      6.2333      4.7604      3.9770      3.7364      3.9770      4.7602    
  6.2330      8.7327      12.843      18.596      25.343      32.136      38.158      42.876      53.400      53.402    
  50.884      46.293      40.181      33.010      25.342      18.065      12.175      8.2155      5.9324      4.6364    
  4.0488      4.0488      4.6364      5.9324      8.2157      12.175      18.066      25.343      33.010      40.178    
  46.288      50.879      59.560      57.984      53.671      47.500      40.178      32.136      23.945      16.573    
  10.982      7.4845      5.5454      4.5115      4.1899      4.5115      5.5454      7.4845      10.982      16.573    
  23.945      32.136      40.178      47.500      53.671      57.984      63.167      59.673      53.669      46.286    
  38.158      29.629      21.359      14.387      9.5082      6.6765      5.1341      4.4251      4.4251      5.1341    
  6.6764      9.5079      14.387      21.358      29.628      38.158      46.288      53.671      59.675      63.167    
  63.168      57.984      50.879      42.875      34.393      25.813      17.977      11.897      8.0191      5.8885    
  4.7611      4.4082      4.7611      5.8885      8.0188      11.897      17.977      25.813      34.394      42.876    
  50.879      57.984      63.167      65.105      49.466      43.743      36.872      29.338      21.780      15.116    
  10.158      7.0851      5.3451      4.4122      4.1231      4.4123      5.3453      7.0854      10.158      15.115    
  21.779      29.337      36.872      43.744      49.468      53.400      54.821      53.399      43.743      37.713    
  30.793      23.568      16.851      11.494      7.9168      5.8320      4.6317      4.0888      4.0888      4.6319    
  5.8324      7.9171      11.493      16.850      23.567      30.792      37.714      43.746      48.343      50.879    
  50.878      48.339      36.872      30.793      24.183      17.785      12.407      8.5818      6.2415      4.8451    
  4.1018      3.8733      4.1018      4.8454      6.2421      8.5822      12.407      17.782      24.180      30.792    
  36.875      41.834      45.127      46.288      45.122      41.828      29.338      23.568      17.785      12.732    
  8.9528      6.5170      5.0126      4.1343      3.7431      3.7430      4.1344      5.0131      6.5181      8.9535    
  12.731      17.782      23.565      29.337      34.396      38.163      40.181      40.178      38.158      34.393    
  21.780      16.851      12.407      8.9528      6.6148      5.1041      4.1630      3.6722      3.5223      3.6721    
  4.1630      5.1047      6.6164      8.9543      12.407      16.849      21.777      26.520      30.436      33.011    
  33.908      33.010      30.436      26.522      15.116      11.494      8.5818      6.5170      5.1041      4.1740    
  3.6415      3.4057      3.4056      3.6412      4.1737      5.1044      6.5185      8.5840      11.495      15.115    
  19.008      22.600      25.341      26.820      26.821      25.343      22.603      19.011      10.158      7.9168    