fcc Au                                  
   4.05000000000000     
     0.000000    0.500000    0.500000
     0.500000    0.000000    0.500000
     0.500000    0.500000    0.000000
   Au
     1
Direct
  0.000000  0.000000  0.000000
 
   24   24   24
 0.80332409385E+02 0.77315457848E+02 0.69510063076E+02 0.59562012697E+02 0.49465810655E+02
 0.39708936729E+02 0.30159184012E+02 0.21251258733E+02 0.14029609796E+02 0.92261910459E+01
 0.65910673940E+01 0.52434290829E+01 0.48155066557E+01 0.52434290829E+01 0.65910673940E+01
 0.92261910459E+01 0.14029609796E+02 0.21251258733E+02 0.30159184012E+02 0.39708936729E+02
 0.49465810655E+02 0.59562012697E+02 0.69510063076E+02 0.77315457848E+02 0.77315457848E+02
 0.71927778977E+02 0.63174710035E+02 0.53401375903E+02 0.43743140474E+02 0.34243897584E+02
 0.25042821340E+02 0.16994444502E+02 0.11092512805E+02 0.75681904096E+01 0.57187217976E+01
 0.48656574569E+01 0.48656636488E+01 0.57186851480E+01 0.75680370480E+01 0.11092427279E+02
 0.16995073231E+02 0.25044799448E+02 0.34246692718E+02 0.43744480795E+02 0.53398669009E+02
 0.63167785850E+02 0.71920153533E+02 0.77312130133E+02 0.69510063076E+02 0.63174710035E+02
 0.54825662214E+02 0.45911380858E+02 0.36871603175E+02 0.27851635987E+02 0.19514622860E+02
 0.12898995213E+02 0.85905606888E+01 0.62312488098E+01 0.49998543341E+01 0.46116561323E+01
 0.49998660142E+01 0.62311222103E+01 0.85901949796E+01 0.12898781946E+02 0.19515557675E+02
 0.27854322485E+02 0.36874744610E+02 0.45911830341E+02 0.54821078978E+02 0.63166615823E+02
 0.69503650579E+02 0.71920153533E+02 0.59562012697E+02 0.53401375903E+02 0.45911380858E+02
 0.37778552238E+02 0.29337582091E+02 0.21192964597E+02 0.14328214460E+02 0.95123593412E+01
 0.67079123237E+01 0.51764190084E+01 0.44715428566E+01 0.44715792145E+01 0.51764824757E+01
 0.67078252386E+01 0.95119258230E+01 0.14327631257E+02 0.21192955059E+02 0.29338677683E+02
 0.37780143097E+02 0.45911915370E+02 0.53399945696E+02 0.59559627560E+02 0.63166615823E+02
 0.63167785850E+02 0.49465810655E+02 0.43743140474E+02 0.36871603175E+02 0.29337582091E+02
 0.21780148673E+02 0.15115779473E+02 0.10157753540E+02 0.70850873209E+01 0.53450511033E+01
 0.44122052350E+01 0.41231451130E+01 0.44122886306E+01 0.53452985809E+01 0.70854013218E+01
 0.10157754992E+02 0.15115123593E+02 0.21778984931E+02 0.29336621695E+02 0.36871624862E+02
 0.43744343653E+02 0.49467577434E+02 0.53399945696E+02 0.54821078978E+02 0.53398669009E+02
 0.39708936729E+02 0.34243897584E+02 0.27851635987E+02 0.21192964597E+02 0.15115779473E+02
 0.10389877373E+02 0.72957989898E+01 0.54633804358E+01 0.43960396190E+01 0.39169889745E+01
 0.39169427818E+01 0.43960498872E+01 0.54637663123E+01 0.72967015017E+01 0.10390929041E+02
 0.15116182775E+02 0.21192117831E+02 0.27849778016E+02 0.34242021226E+02 0.39707924674E+02
 0.43744343653E+02 0.45911915370E+02 0.45911830341E+02 0.43744480795E+02 0.30159184012E+02
 0.25042821340E+02 0.19514622860E+02 0.14328214460E+02 0.10157753540E+02 0.72957989898E+01
 0.55055973585E+01 0.43948922979E+01 0.38123660134E+01 0.36342104042E+01 0.38120911234E+01
 0.43945164716E+01 0.55055927925E+01 0.72967622664E+01 0.10159801064E+02 0.14330480890E+02
 0.19515548625E+02 0.25041212649E+02 0.30155214215E+02 0.34242021226E+02 0.36871624862E+02
 0.37780143097E+02 0.36874744610E+02 0.34246692718E+02 0.21251258733E+02 0.16994444502E+02
 0.12898995213E+02 0.95123593412E+01 0.70850873209E+01 0.54633804358E+01 0.43948922979E+01
 0.37808000149E+01 0.35089213416E+01 0.35088400740E+01 0.37803818003E+01 0.43939400122E+01
 0.54622987785E+01 0.70849825601E+01 0.95141845528E+01 0.12902312474E+02 0.16997145167E+02
 0.21251007473E+02 0.25041212649E+02 0.27849778016E+02 0.29336621695E+02 0.29338677683E+02
 0.27854322485E+02 0.25044799448E+02 0.14029609796E+02 0.11092512805E+02 0.85905606888E+01
 0.67079123237E+01 0.53450511033E+01 0.43960396190E+01 0.38123660134E+01 0.35089213416E+01
 0.34164115142E+01 0.35092405675E+01 0.38123721050E+01 0.43949909324E+01 0.53429582173E+01
 0.67060034845E+01 0.85905247733E+01 0.11094882268E+02 0.14032937782E+02 0.16997145167E+02
 0.19515548625E+02 0.21192117831E+02 0.21778984931E+02 0.21192955059E+02 0.19515557675E+02
 0.16995073231E+02 0.92261910459E+01 0.75681904096E+01 0.62312488098E+01 0.51764190084E+01
 0.44122052350E+01 0.39169889745E+01 0.36342104042E+01 0.35088400740E+01 0.35092405675E+01
 0.36352590213E+01 0.39180579988E+01 0.44121970056E+01 0.51745786140E+01 0.62281895015E+01
 0.75657900785E+01 0.92261536709E+01 0.11094882268E+02 0.12902312474E+02 0.14330480890E+02
 0.15116182775E+02 0.15115123593E+02 0.14327631257E+02 0.12898781946E+02 0.11092427279E+02
 0.65910673940E+01 0.57187217976E+01 0.49998543341E+01 0.44715428566E+01 0.41231451130E+01
 0.39169427818E+01 0.38120911234E+01 0.37803818003E+01 0.38123721050E+01 0.39180579988E+01
 0.41251738467E+01 0.44733825190E+01 0.49998903601E+01 0.57163838819E+01 0.65876417162E+01
 0.75657900785E+01 0.85905247733E+01 0.95141845528E+01 0.10159801064E+02 0.10390929041E+02
 0.10157754992E+02 0.95119258230E+01 0.85901949796E+01 0.75680370480E+01 0.52434290829E+01
 0.48656574569E+01 0.46116561323E+01 0.44715792145E+01 0.44122886306E+01 0.43960498872E+01
 0.43945164716E+01 0.43939400122E+01 0.43949909324E+01 0.44121970056E+01 0.44733825190E+01
 0.46147291881E+01 0.48680648547E+01 0.52434650741E+01 0.57163838819E+01 0.62281895015E+01
 0.67060034845E+01 0.70849825601E+01 0.72967622664E+01 0.72967015017E+01 0.70854013218E+01
 0.67078252386E+01 0.62311222103E+01 0.57186851480E+01 0.48155066557E+01 0.48656636488E+01
 0.49998660142E+01 0.51764824757E+01 0.53452985809E+01 0.54637663123E+01 0.55055927925E+01
 0.54622987785E+01 0.53429582173E+01 0.51745786140E+01 0.49998903601E+01 0.48680648547E+01
 0.48189907825E+01 0.48680648547E+01 0.49998903601E+01 0.51745786140E+01 0.53429582173E+01
 0.54622987785E+01 0.55055927925E+01 0.54637663123E+01 0.53452985809E+01 0.51764824757E+01
 0.49998660142E+01 0.48656636488E+01 0.52434290829E+01 0.57186851480E+01 0.62311222103E+01
 0.67078252386E+01 0.70854013218E+01 0.72967015017E+01 0.72967622664E+01 0.70849825601E+01
 0.67060034845E+01 0.62281895015E+01 0.57163838819E+01 0.52434650741E+01 0.48680648547E+01
 0.46147291881E+01 0.44733825190E+01 0.44121970056E+01 0.43949909324E+01 0.43939400122E+01
 0.43945164716E+01 0.43960498872E+01 0.44122886306E+01 0.44715792145E+01 0.46116561323E+01
 0.48656574569E+01 0.65910673940E+01 0.75680370480E+01 0.85901949796E+01 0.95119258230E+01
 0.10157754992E+02 0.10390929041E+02 0.10159801064E+02 0.95141845528E+01 0.85905247733E+01
 0.75657900785E+01 0.65876417162E+01 0.57163838819E+01 0.49998903601E+01 0.44733825190E+01
 0.41251738467E+01 0.39180579988E+01 0.38123721050E+01 0.37803818003E+01 0.38120911234E+01
 0.39169427818E+01 0.41231451130E+01 0.44715428566E+01 0.49998543341E+01 0.57187217976E+01
 0.92261910459E+01 0.11092427279E+02 0.12898781946E+02 0.14327631257E+02 0.15115123593E+02
 0.15116182775E+02 0.14330480890E+02 0.12902312474E+02 0.11094882268E+02 0.92261536709E+01
 0.75657900785E+01 0.62281895015E+01 0.51745786140E+01 0.44121970056E+01 0.39180579988E+01
 0.36352590213E+01 0.35092405675E+01 0.35088400740E+01 0.36342104042E+01 0.39169889745E+01
 0.44122052350E+01 0.51764190084E+01 0.62312488098E+01 0.75681904096E+01 0.14029609796E+02
 0.16995073231E+02 0.19515557675E+02 0.21192955059E+02 0.21778984931E+02 0.21192117831E+02
 0.19515548625E+02 0.16997145167E+02 0.14032937782E+02 0.11094882268E+02 0.85905247733E+01
 0.67060034845E+01 0.53429582173E+01 0.43949909324E+01 0.38123721050E+01 0.35092405675E+01
 0.34164115142E+01 0.35089213416E+01 0.38123660134E+01 0.43960396190E+01 0.53450511033E+01
 0.67079123237E+01 0.85905606888E+01 0.11092512805E+02 0.21251258733E+02 0.25044799448E+02
 0.27854322485E+02 0.29338677683E+02 0.29336621695E+02 0.27849778016E+02 0.25041212649E+02
 0.21251007473E+02 0.16997145167E+02 0.12902312474E+02 0.95141845528E+01 0.70849825601E+01
 0.54622987785E+01 0.43939400122E+01 0.37803818003E+01 0.35088400740E+01 0.35089213416E+01
 0.37808000149E+01 0.43948922979E+01 0.54633804358E+01 0.70850873209E+01 0.95123593412E+01
 0.12898995213E+02 0.16994444502E+02 0.30159184012E+02 0.34246692718E+02 0.36874744610E+02
 0.37780143097E+02 0.36871624862E+02 0.34242021226E+02 0.30155214215E+02 0.25041212649E+02
 0.19515548625E+02 0.14330480890E+02 0.10159801064E+02 0.72967622664E+01 0.55055927925E+01
 0.43945164716E+01 0.38120911234E+01 0.36342104042E+01 0.38123660134E+01 0.43948922979E+01
 0.55055973585E+01 0.72957989898E+01 0.10157753540E+02 0.14328214460E+02 0.19514622860E+02
 0.25042821340E+02 0.39708936729E+02 0.43744480795E+02 0.45911830341E+02 0.45911915370E+02
 0.43744343653E+02 0.39707924674E+02 0.34242021226E+02 0.27849778016E+02 0.21192117831E+02
 0.15116182775E+02 0.10390929041E+02 0.72967015017E+01 0.54637663123E+01 0.43960498872E+01
 0.39169427818E+01 0.39169889745E+01 0.43960396190E+01 0.54633804358E+01 0.72957989898E+01
 0.10389877373E+02 0.15115779473E+02 0.21192964597E+02 0.27851635987E+02 0.34243897584E+02
 0.49465810655E+02 0.53398669009E+02 0.54821078978E+02 0.53399945696E+02 0.49467577434E+02
 0.43744343653E+02 0.36871624862E+02 0.29336621695E+02 0.21778984931E+02 0.15115123593E+02
 0.10157754992E+02 0.70854013218E+01 0.53452985809E+01 0.44122886306E+01 0.41231451130E+01
 0.44122052350E+01 0.53450511033E+01 0.70850873209E+01 0.10157753540E+02 0.15115779473E+02
 0.21780148673E+02 0.29337582091E+02 0.36871603175E+02 0.43743140474E+02 0.59562012697E+02
 0.63167785850E+02 0.63166615823E+02 0.59559627560E+02 0.53399945696E+02 0.45911915370E+02
 0.37780143097E+02 0.29338677683E+02 0.21192955059E+02 0.14327631257E+02 0.95119258230E+01
 0.67078252386E+01 0.51764824757E+01 0.44715792145E+01 0.44715428566E+01 0.51764190084E+01
 0.67079123237E+01 0.95123593412E+01 0.14328214460E+02 0.21192964597E+02 0.29337582091E+02
 0.37778552238E+02 0.45911380858E+02 0.53401375903E+02 0.69510063076E+02 0.71920153533E+02
 0.69503650579E+02 0.63166615823E+02 0.54821078978E+02 0.45911830341E+02 0.36874744610E+02
 0.27854322485E+02 0.19515557675E+02 0.12898781946E+02 0.85901949796E+01 0.62311222103E+01
 0.49998660142E+01 0.46116561323E+01 0.49998543341E+01 0.62312488098E+01 0.85905606888E+01
 0.12898995213E+02 0.19514622860E+02 0.27851635987E+02 0.36871603175E+02 0.45911380858E+02
 0.54825662214E+02 0.63174710035E+02 0.77315457848E+02 0.77312130133E+02 0.71920153533E+02
 0.63167785850E+02 0.53398669009E+02 0.43744480795E+02 0.34246692718E+02 0.25044799448E+02
 0.16995073231E+02 0.11092427279E+02 0.75680370480E+01 0.57186851480E+01 0.48656636488E+01
 0.48656574569E+01 0.57187217976E+01 0.75681904096E+01 0.11092512805E+02 0.16994444502E+02
 0.25042821340E+02 0.34243897584E+02 0.43743140474E+02 0.53401375903E+02 0.63174710035E+02
 0.71927778977E+02 0.77315457848E+02 0.71927778977E+02 0.63174710035E+02 0.53401375903E+02
 0.43743140474E+02 0.34243897584E+02 0.25042821340E+02 0.16994444502E+02 0.11092512805E+02
 0.75681904096E+01 0.57187217976E+01 0.48656574569E+01 0.48656636488E+01 0.57186851480E+01
 0.75680370480E+01 0.11092427279E+02 0.16995073231E+02 0.25044799448E+02 0.34246692718E+02
 0.43744480795E+02 0.53398669009E+02 0.63167785850E+02 0.71920153533E+02 0.77312130133E+02
 0.71927778977E+02 0.65116885454E+02 0.56253132795E+02 0.46966426602E+02 0.37713407321E+02
 0.28546064863E+02 0.20047333875E+02 0.13252698024E+02 0.87943379077E+01 0.63514507104E+01
 0.50838269337E+01 0.46831772016E+01 0.50838270299E+01 0.63512834066E+01 0.87939579589E+01
 0.13252716301E+02 0.20049019506E+02 0.28549953910E+02 0.37717450265E+02 0.46966320301E+02
 0.56245974226E+02 0.65105101233E+02 0.71918643099E+02 0.74532659893E+02 0.63174710035E+02
 0.56253132795E+02 0.48099546776E+02 0.39531624258E+02 0.30792551234E+02 0.22344182803E+02
 0.15131405003E+02 0.99938315412E+01 0.69786885819E+01 0.53542514543E+01 0.46042833096E+01
 0.46043090648E+01 0.53542287724E+01 0.69783704111E+01 0.99931812391E+01 0.15131151388E+02
 0.22345575570E+02 0.30795788853E+02 0.39534502611E+02 0.48098656708E+02 0.56247357838E+02
 0.63167386567E+02 0.67301751611E+02 0.67305096737E+02 0.53401375903E+02 0.46966426602E+02
 0.39531624258E+02 0.31563840231E+02 0.23568357264E+02 0.16402945944E+02 0.10957040669E+02
 0.75314188598E+01 0.56215732820E+01 0.46003099326E+01 0.42822041011E+01 0.46003859200E+01
 0.56216433801E+01 0.75311982835E+01 0.10956265828E+02 0.16401900984E+02 0.23567928511E+02
 0.31564702337E+02 0.39533409482E+02 0.46967989317E+02 0.53401974109E+02 0.57983590816E+02
 0.59673169634E+02 0.57983639325E+02 0.43743140474E+02 0.37713407321E+02 0.30792551234E+02
 0.23568357264E+02 0.16851454916E+02 0.11493625180E+02 0.79168063470E+01 0.58320248140E+01
 0.46317232630E+01 0.40888271703E+01 0.40888381895E+01 0.46318570107E+01 0.58323803177E+01
 0.79171328695E+01 0.11493334691E+02 0.16850176674E+02 0.23566581478E+02 0.30791600723E+02
 0.37714491146E+02 0.43746168976E+02 0.48342627903E+02 0.50879423561E+02 0.50877995063E+02
 0.48339323458E+02 0.34243897584E+02 0.28546064863E+02 0.22344182803E+02 0.16402945944E+02
 0.11493625180E+02 0.80554787927E+01 0.59468330476E+01 0.46643004183E+01 0.39859827741E+01
 0.37779407392E+01 0.39858471980E+01 0.46643060662E+01 0.59473302281E+01 0.80564878568E+01
 0.11494563090E+02 0.16402953497E+02 0.22342966470E+02 0.28544357988E+02 0.34242858709E+02
 0.38831411039E+02 0.41829475138E+02 0.42876170667E+02 0.41828992417E+02 0.38831349775E+02
 0.25042821340E+02 0.20047333875E+02 0.15131405003E+02 0.10957040669E+02 0.79168063470E+01
 0.59468330476E+01 0.46773488322E+01 0.39426812910E+01 0.36167709758E+01 0.36166212299E+01
 0.39422392120E+01 0.46768083873E+01 0.59467600473E+01 0.79178151955E+01 0.10959091271E+02
 0.15133464370E+02 0.20047945223E+02 0.25041207477E+02 0.29432662687E+02 0.32674394617E+02
 0.34392431181E+02 0.34393724925E+02 0.32677539306E+02 0.29435896342E+02 0.16994444502E+02
 0.13252698024E+02 0.99938315412E+01 0.75314188598E+01 0.58320248140E+01 0.46643004183E+01
 0.39426812910E+01 0.35675776555E+01 0.34531523077E+01 0.35675036557E+01 0.39421231241E+01
 0.46630432350E+01 0.58306605334E+01 0.75311911020E+01 0.99955793633E+01 0.13255767797E+02
 0.16996841612E+02 0.20689200561E+02 0.23775820706E+02 0.25811156536E+02 0.26520976728E+02
 0.25813255393E+02 0.23777938223E+02 0.20689186035E+02 0.11092512805E+02 0.87943379077E+01
 0.69786885819E+01 0.56215732820E+01 0.46317232630E+01 0.39859827741E+01 0.36167709758E+01
 0.34531523077E+01 0.34534518135E+01 0.36173384568E+01 0.39859932891E+01 0.46304330002E+01
 0.56191648338E+01 0.69765468078E+01 0.87941172497E+01 0.11094655305E+02 0.13653661191E+02
 0.16085037506E+02 0.17977883681E+02 0.19010086155E+02 0.19009780607E+02 0.17976597753E+02
 0.16082386787E+02 0.13650393822E+02 0.75681904096E+01 0.63514507104E+01 0.53542514543E+01
 0.46003099326E+01 0.40888271703E+01 0.37779407392E+01 0.36166212299E+01 0.35675036557E+01
 0.36173384568E+01 0.37792677420E+01 0.40900861195E+01 0.46003004298E+01 0.53522507489E+01
 0.63482193939E+01 0.75657012473E+01 0.90053853602E+01 0.10532042448E+02 0.11900087930E+02
 0.12848625956E+02 0.13186843708E+02 0.12846145470E+02 0.11896530784E+02 0.10529508555E+02
 0.90054179716E+01 0.57187217976E+01 0.50838269337E+01 0.46042833096E+01 0.42822041011E+01
 0.40888381895E+01 0.39858471980E+01 0.39422392120E+01 0.39421231241E+01 0.39859932891E+01
 0.40900861195E+01 0.42845123158E+01 0.46062923461E+01 0.50838525973E+01 0.57163544518E+01
 0.64592063716E+01 0.72497492178E+01 0.80191184460E+01 0.86437611051E+01 0.89950965331E+01
 0.89942392525E+01 0.86421883408E+01 0.80188377046E+01 0.72517748262E+01 0.64625036744E+01
 0.48656574569E+01 0.46831772016E+01 0.46043090648E+01 0.46003859200E+01 0.46318570107E+01
 0.46643060662E+01 0.46768083873E+01 0.46630432350E+01 0.46304330002E+01 0.46003004298E+01
 0.46062923461E+01 0.46863663442E+01 0.48680391890E+01 0.51531957156E+01 0.55113013392E+01
 0.58858544426E+01 0.62112538312E+01 0.64329705991E+01 0.65122374032E+01 0.64336430584E+01
 0.62130302027E+01 0.58885155148E+01 0.55134269109E+01 0.51531740260E+01 0.48656636488E+01
 0.50838270299E+01 0.53542287724E+01 0.56216433801E+01 0.58323803177E+01 0.59473302281E+01
 0.59467600473E+01 0.58306605334E+01 0.56191648338E+01 0.53522507489E+01 0.50838525973E+01
 0.48680391890E+01 0.47417913300E+01 0.47131440657E+01 0.47611369347E+01 0.48470817251E+01
 0.49302877503E+01 0.49801290924E+01 0.49809077306E+01 0.49321524895E+01 0.48487535320E+01
 0.47611478334E+01 0.47109422834E+01 0.47384634626E+01 0.57186851480E+01 0.63512834066E+01
 0.69783704111E+01 0.75311982835E+01 0.79171328695E+01 0.80564878568E+01 0.79178151955E+01
 0.75311911020E+01 0.69765468078E+01 0.63482193939E+01 0.57163544518E+01 0.51531957156E+01
 0.47131440657E+01 0.44108700931E+01 0.42280840171E+01 0.41309915381E+01 0.40872341669E+01
 0.40753915275E+01 0.40877643764E+01 0.41309937144E+01 0.42265820151E+01 0.44081799737E+01
 0.47109362989E+01 0.51531740260E+01 0.75680370480E+01 0.87939579589E+01 0.99931812391E+01
 0.10956265828E+02 0.11493334691E+02 0.11494563090E+02 0.10959091271E+02 0.99955793633E+01
 0.87941172497E+01 0.75657012473E+01 0.64592063716E+01 0.55113013392E+01 0.47611369347E+01
 0.42280840171E+01 0.38860929602E+01 0.36912252258E+01 0.36045577976E+01 0.36043146515E+01
 0.36903099187E+01 0.38844568078E+01 0.42265509733E+01 0.47611148511E+01 0.55134515998E+01
 0.64625036744E+01 0.11092427279E+02 0.13252716301E+02 0.15131151388E+02 0.16401900984E+02
 0.16850176674E+02 0.16402953497E+02 0.15133464370E+02 0.13255767797E+02 0.11094655305E+02
 0.90053853602E+01 0.72497492178E+01 0.58858544426E+01 0.48470817251E+01 0.41309915381E+01
 0.36912252258E+01 0.34613394877E+01 0.33905538544E+01 0.34606822007E+01 0.36904222834E+01
 0.41309851278E+01 0.48486189577E+01 0.58885346633E+01 0.72519216254E+01 0.90054179716E+01
 0.16995073231E+02 0.20049019506E+02 0.22345575570E+02 0.23567928511E+02 0.23566581478E+02
 0.22342966470E+02 0.20047945223E+02 0.16996841612E+02 0.13653661191E+02 0.10532042448E+02
 0.80191184460E+01 0.62112538312E+01 0.49302877503E+01 0.40872341669E+01 0.36045577976E+01
 0.33905538544E+01 0.33904588131E+01 0.36045822232E+01 0.40879865557E+01 0.49319027904E+01
 0.62128131746E+01 0.80190949629E+01 0.10529754967E+02 0.13650393822E+02 0.25044799448E+02
 0.28549953910E+02 0.30795788853E+02 0.31564702337E+02 0.30791600723E+02 0.28544357988E+02
 0.25041207477E+02 0.20689200561E+02 0.16085037506E+02 0.11900087930E+02 0.86437611051E+01
 0.64329705991E+01 0.49801290924E+01 0.40753915275E+01 0.36043146515E+01 0.34606822007E+01
 0.36045822232E+01 0.40760227931E+01 0.49808673612E+01 0.64329768364E+01 0.86421818531E+01
 0.11897114321E+02 0.16082392057E+02 0.20689186035E+02 0.34246692718E+02 0.37717450265E+02
 0.39534502611E+02 0.39533409482E+02 0.37714491146E+02 0.34242858709E+02 0.29432662687E+02
 0.23775820706E+02 0.17977883681E+02 0.12848625956E+02 0.89950965331E+01 0.65122374032E+01
 0.49809077306E+01 0.40877643764E+01 0.36903099187E+01 0.36904222834E+01 0.40879865557E+01
 0.49808673612E+01 0.65114420509E+01 0.89934279430E+01 0.12846796311E+02 0.17977191593E+02
 0.23777200476E+02 0.29435896342E+02 0.43744480795E+02 0.46966320301E+02 0.48098656708E+02
 0.46967989317E+02 0.43746168976E+02 0.38831411039E+02 0.32674394617E+02 0.25811156536E+02
 0.19010086155E+02 0.13186843708E+02 0.89942392525E+01 0.64336430584E+01 0.49321524895E+01
 0.41309937144E+01 0.38844568078E+01 0.41309851278E+01 0.49319027904E+01 0.64329768364E+01
 0.89934279430E+01 0.13186657478E+02 0.19011186740E+02 0.25813233819E+02 0.32676068583E+02
 0.38831349775E+02 0.53398669009E+02 0.56245974226E+02 0.56247357838E+02 0.53401974109E+02
 0.48342627903E+02 0.41829475138E+02 0.34392431181E+02 0.26520976728E+02 0.19009780607E+02
 0.12846145470E+02 0.86421883408E+01 0.62130302027E+01 0.48487535320E+01 0.42265820151E+01
 0.42265509733E+01 0.48486189577E+01 0.62128131746E+01 0.86421818531E+01 0.12846796311E+02
 0.19011186740E+02 0.26522466515E+02 0.34392785027E+02 0.41827818538E+02 0.48339323458E+02
 0.63167785850E+02 0.65105101233E+02 0.63167386567E+02 0.57983590816E+02 0.50879423561E+02
 0.42876170667E+02 0.34393724925E+02 0.25813255393E+02 0.17976597753E+02 0.11896530784E+02
 0.80188377046E+01 0.58885155148E+01 0.47611478334E+01 0.44081799737E+01 0.47611148511E+01
 0.58885346633E+01 0.80190949629E+01 0.11897114321E+02 0.17977191593E+02 0.25813233819E+02
 0.34392785027E+02 0.42874816617E+02 0.50878579594E+02 0.57983639325E+02 0.71920153533E+02
 0.71918643099E+02 0.67301751611E+02 0.59673169634E+02 0.50877995063E+02 0.41828992417E+02
 0.32677539306E+02 0.23777938223E+02 0.16082386787E+02 0.10529508555E+02 0.72517748262E+01
 0.55134269109E+01 0.47109422834E+01 0.47109362989E+01 0.55134515998E+01 0.72519216254E+01
 0.10529754967E+02 0.16082392057E+02 0.23777200476E+02 0.32676068583E+02 0.41827818538E+02
 0.50878579594E+02 0.59675904744E+02 0.67305096737E+02 0.77312130133E+02 0.74532659893E+02
 0.67305096737E+02 0.57983639325E+02 0.48339323458E+02 0.38831349775E+02 0.29435896342E+02
 0.20689186035E+02 0.13650393822E+02 0.90054179716E+01 0.64625036744E+01 0.51531740260E+01
 0.47384634626E+01 0.51531740260E+01 0.64625036744E+01 0.90054179716E+01 0.13650393822E+02
 0.20689186035E+02 0.29435896342E+02 0.38831349775E+02 0.48339323458E+02 0.57983639325E+02
 0.67305096737E+02 0.74532659893E+02 0.69510063076E+02 0.63174710035E+02 0.54825662214E+02
 0.45911380858E+02 0.36871603175E+02 0.27851635987E+02 0.19514622860E+02 0.12898995213E+02
 0.85905606888E+01 0.62312488098E+01 0.49998543341E+01 0.46116561323E+01 0.49998660142E+01
 0.62311222103E+01 0.85901949796E+01 0.12898781946E+02 0.19515557675E+02 0.27854322485E+02
 0.36874744610E+02 0.45911830341E+02 0.54821078978E+02 0.63166615823E+02 0.69503650579E+02
 0.71920153533E+02 0.63174710035E+02 0.56253132795E+02 0.48099546776E+02 0.39531624258E+02
 0.30792551234E+02 0.22344182803E+02 0.15131405003E+02 0.99938315412E+01 0.69786885819E+01
 0.53542514543E+01 0.46042833096E+01 0.46043090648E+01 0.53542287724E+01 0.69783704111E+01
 0.99931812391E+01 0.15131151388E+02 0.22345575570E+02 0.30795788853E+02 0.39534502611E+02
 0.48098656708E+02 0.56247357838E+02 0.63167386567E+02 0.67301751611E+02 0.67305096737E+02
 0.54825662214E+02 0.48099546776E+02 0.40443416198E+02 0.32321347215E+02 0.24182807127E+02
 0.16852977925E+02 0.11241148913E+02 0.76906326080E+01 0.57188826113E+01 0.46665639947E+01
 0.43381435701E+01 0.46666209933E+01 0.57188479283E+01 0.76901612347E+01 0.11240063625E+02
 0.16851857431E+02 0.24182827647E+02 0.32323089459E+02 0.40445939959E+02 0.48101111348E+02
 0.54825545624E+02 0.59675135440E+02 0.61475760597E+02 0.59675904744E+02 0.45911380858E+02
 0.39531624258E+02 0.32321347215E+02 0.24817251226E+02 0.17784591195E+02 0.12101073570E+02
 0.82619391081E+01 0.60317771465E+01 0.47598579906E+01 0.41818701749E+01 0.41819043457E+01
 0.47600039936E+01 0.60319480506E+01 0.82616464820E+01 0.12099707204E+02 0.17782232135E+02
 0.24815187670E+02 0.32321509421E+02 0.39535129360E+02 0.45917323406E+02 0.50884200984E+02
 0.53671124642E+02 0.53668822068E+02 0.50878579594E+02 0.36871603175E+02 0.30792551234E+02
 0.24182807127E+02 0.17784591195E+02 0.12407485686E+02 0.85818021407E+01 0.62415286264E+01
 0.48451436142E+01 0.41018412440E+01 0.38733183065E+01 0.41018493018E+01 0.48454024411E+01
 0.62421139976E+01 0.85821792981E+01 0.12406669112E+02 0.17782171336E+02 0.24180017743E+02
 0.30791907854E+02 0.36874791785E+02 0.41833607265E+02 0.45126878576E+02 0.46288057109E+02
 0.45122293139E+02 0.41827818538E+02 0.27851635987E+02 0.22344182803E+02 0.16852977925E+02
 0.12101073570E+02 0.85818021407E+01 0.63155905155E+01 0.48945063947E+01 0.40668907272E+01
 0.36987980094E+01 0.36986885433E+01 0.40666965611E+01 0.48945987696E+01 0.63163080162E+01
 0.85829313962E+01 0.12101700440E+02 0.16852255404E+02 0.22342401165E+02 0.27850207743E+02
 0.32676128098E+02 0.36252505509E+02 0.38159098778E+02 0.38158442888E+02 0.36251382937E+02
 0.32676068583E+02 0.19514622860E+02 0.15131405003E+02 0.11241148913E+02 0.82619391081E+01
 0.62415286264E+01 0.48945063947E+01 0.40573750818E+01 0.36216653637E+01 0.34886567316E+01
 0.36214200740E+01 0.40568261656E+01 0.48939067678E+01 0.62415279334E+01 0.82630241573E+01
 0.11242982690E+02 0.15132862954E+02 0.19514637028E+02 0.23775624776E+02 0.27306605915E+02
 0.29626761660E+02 0.30434930413E+02 0.29628356284E+02 0.27308861395E+02 0.23777200476E+02
 0.12898995213E+02 0.99938315412E+01 0.76906326080E+01 0.60317771465E+01 0.48451436142E+01
 0.40668907272E+01 0.36216653637E+01 0.34243986002E+01 0.34244897472E+01 0.36216517041E+01
 0.40662317101E+01 0.48437351742E+01 0.60303640107E+01 0.76903894012E+01 0.99953207361E+01
 0.12901458062E+02 0.16084252902E+02 0.19063144537E+02 0.21357176366E+02 0.22600758231E+02
 0.22601272728E+02 0.21357989878E+02 0.19062872061E+02 0.16082392057E+02 0.85905606888E+01
 0.69786885819E+01 0.57188826113E+01 0.47598579906E+01 0.41018412440E+01 0.36987980094E+01
 0.34886567316E+01 0.34244897472E+01 0.34892678996E+01 0.36995302311E+01 0.41018502403E+01
 0.47584922438E+01 0.57164418617E+01 0.69765344194E+01 0.85901729319E+01 0.10531521029E+02
 0.12576878673E+02 0.14389335803E+02 0.15634926087E+02 0.16077651487E+02 0.15633428482E+02
 0.14386640337E+02 0.12573928519E+02 0.10529754967E+02 0.62312488098E+01 0.53542514543E+01
 0.46665639947E+01 0.41818701749E+01 0.38733183065E+01 0.36986885433E+01 0.36214200740E+01
 0.36216517041E+01 0.36995302311E+01 0.38747907985E+01 0.41832489697E+01 0.46665963948E+01
 0.53522848323E+01 0.62281270200E+01 0.72495746860E+01 0.83858836984E+01 0.95100827774E+01
 0.10423442623E+02 0.10935984069E+02 0.10934774139E+02 0.10420710330E+02 0.95078758862E+01
 0.83859069817E+01 0.72519216254E+01 0.49998543341E+01 0.46042833096E+01 0.43381435701E+01
 0.41819043457E+01 0.41018493018E+01 0.40666965611E+01 0.40568261656E+01 0.40662317101E+01
 0.41018502403E+01 0.41832489697E+01 0.43405735261E+01 0.46062962436E+01 0.49998618345E+01
 0.55112534427E+01 0.60934302024E+01 0.66746846999E+01 0.71875771271E+01 0.75466812371E+01
 0.76759306223E+01 0.75460265206E+01 0.71875880618E+01 0.66764306252E+01 0.60963406441E+01
 0.55134515998E+01 0.46116561323E+01 0.46043090648E+01 0.46666209933E+01 0.47600039936E+01
 0.48454024411E+01 0.48945987696E+01 0.48939067678E+01 0.48437351742E+01 0.47584922438E+01
 0.46665963948E+01 0.46062962436E+01 0.46146793927E+01 0.47130913531E+01 0.48963929856E+01
 0.51323293137E+01 0.53716828024E+01 0.55638409796E+01 0.56701548701E+01 0.56706566440E+01
 0.55653755270E+01 0.53739302446E+01 0.51341485190E+01 0.48963904357E+01 0.47109362989E+01
 0.49998660142E+01 0.53542287724E+01 0.57188479283E+01 0.60319480506E+01 0.62421139976E+01
 0.63163080162E+01 0.62415279334E+01 0.60303640107E+01 0.57164418617E+01 0.53522848323E+01
 0.49998618345E+01 0.47130913531E+01 0.45220806510E+01 0.44269030078E+01 0.44036613647E+01
 0.44183574321E+01 0.44404704096E+01 0.44504909015E+01 0.44415969291E+01 0.44196152245E+01
 0.44036987514E+01 0.44250712640E+01 0.45191755443E+01 0.47109422834E+01 0.62311222103E+01
 0.69783704111E+01 0.76901612347E+01 0.82616464820E+01 0.85821792981E+01 0.85829313962E+01
 0.82630241573E+01 0.76903894012E+01 0.69765344194E+01 0.62281270200E+01 0.55112534427E+01
 0.48963929856E+01 0.44269030078E+01 0.41049554442E+01 0.39054414120E+01 0.37952523126E+01
 0.37474676713E+01 0.37475796853E+01 0.37951227402E+01 0.39042852608E+01 0.41028237722E+01
 0.44250664916E+01 0.48963904357E+01 0.55134269109E+01 0.85901949796E+01 0.99931812391E+01
 0.11240063625E+02 0.12099707204E+02 0.12406669112E+02 0.12101700440E+02 0.11242982690E+02
 0.99953207361E+01 0.85901729319E+01 0.72495746860E+01 0.60934302024E+01 0.51323293137E+01
 0.44036613647E+01 0.39054414120E+01 0.35986482710E+01 0.34370238440E+01 0.33869505282E+01
 0.34364001880E+01 0.35974602445E+01 0.39042896969E+01 0.44036614553E+01 0.51341479610E+01
 0.60963406441E+01 0.72517748262E+01 0.12898781946E+02 0.15131151388E+02 0.16851857431E+02
 0.17782232135E+02 0.17782171336E+02 0.16852255404E+02 0.15132862954E+02 0.12901458062E+02
 0.10531521029E+02 0.83858836984E+01 0.66746846999E+01 0.53716828024E+01 0.44183574321E+01
 0.37952523126E+01 0.34370238440E+01 0.32770384818E+01 0.32767752700E+01 0.34365215899E+01
 0.37952432425E+01 0.44195168043E+01 0.53738293640E+01 0.66765142949E+01 0.83859069817E+01
 0.10529508555E+02 0.19515557675E+02 0.22345575570E+02 0.24182827647E+02 0.24815187670E+02
 0.24180017743E+02 0.22342401165E+02 0.19514637028E+02 0.16084252902E+02 0.12576878673E+02
 0.95100827774E+01 0.71875771271E+01 0.55638409796E+01 0.44404704096E+01 0.37474676713E+01
 0.33869505282E+01 0.32767752700E+01 0.33870025066E+01 0.37479556942E+01 0.44415860234E+01
 0.55649984858E+01 0.71875808018E+01 0.95081998577E+01 0.12573928519E+02 0.16082386787E+02
 0.27854322485E+02 0.30795788853E+02 0.32323089459E+02 0.32321509421E+02 0.30791907854E+02
 0.27850207743E+02 0.23775624776E+02 0.19063144537E+02 0.14389335803E+02 0.10423442623E+02
 0.75466812371E+01 0.56701548701E+01 0.44504909015E+01 0.37475796853E+01 0.34364001880E+01
 0.34365215899E+01 0.37479556942E+01 0.44509535182E+01 0.56701264733E+01 0.75455247975E+01
 0.10421247558E+02 0.14387288629E+02 0.19062872061E+02 0.23777938223E+02 0.36874744610E+02
 0.39534502611E+02 0.40445939959E+02 0.39535129360E+02 0.36874791785E+02 0.32676128098E+02
 0.27306605915E+02 0.21357176366E+02 0.15634926087E+02 0.10935984069E+02 0.76759306223E+01
 0.56706566440E+01 0.44415969291E+01 0.37951227402E+01 0.35974602445E+01 0.37952432425E+01
 0.44415860234E+01 0.56701264733E+01 0.76747879018E+01 0.10934868522E+02 0.15634926192E+02
 0.21358749390E+02 0.27308861395E+02 0.32677539306E+02 0.45911830341E+02 0.48098656708E+02
 0.48101111348E+02 0.45917323406E+02 0.41833607265E+02 0.36252505509E+02 0.29626761660E+02
 0.22600758231E+02 0.16077651487E+02 0.10934774139E+02 0.75460265206E+01 0.55653755270E+01
 0.44196152245E+01 0.39042852608E+01 0.39042896969E+01 0.44195168043E+01 0.55649984858E+01
 0.75455247975E+01 0.10934868522E+02 0.16079147523E+02 0.22603411100E+02 0.29628694265E+02