   1   1   1   0
  0.1660753E+02  0.2863783E-09  0.2863783E-09  0.2863783E-09  0.5000000E-15
  1.000000000000000E-004
  CAR 
 fcc Au                                  
     37.89470616     -6.22898338  301      5.87329518      1.00000000
     -6.229  0.0000E+00  0.0000E+00
     -6.082  0.0000E+00  0.0000E+00
     -5.935 -0.1035E-32 -0.1522E-33
     -5.788 -0.1611E-27 -0.2369E-28
     -5.641 -0.8424E-23 -0.1239E-23
     -5.494 -0.1478E-18 -0.2174E-19
     -5.347 -0.8400E-15 -0.1236E-15
     -5.199 -0.1625E-11 -0.2392E-12
     -5.052 -0.1035E-08 -0.1525E-09
     -4.905 -0.2135E-06 -0.3156E-07
     -4.758 -0.1378E-04 -0.2059E-05
     -4.611 -0.2535E-03 -0.3934E-04
     -4.464 -0.8507E-03 -0.1645E-03
     -4.317  0.3423E-02  0.3390E-03
     -4.170  0.1554E-01  0.2625E-02
     -4.023  0.3576E-01  0.7884E-02
     -3.876  0.5257E-01  0.1562E-01
     -3.729  0.5298E-01  0.2341E-01
     -3.582  0.5903E-01  0.3209E-01
     -3.434  0.7933E-01  0.4376E-01
     -3.287  0.1058E+00  0.5931E-01
     -3.140  0.8929E-01  0.7245E-01
     -2.993  0.6483E-01  0.8198E-01
     -2.846  0.1170E+00  0.9919E-01
     -2.699  0.1714E+00  0.1244E+00
     -2.552  0.1363E+00  0.1444E+00
     -2.405  0.1065E+00  0.1601E+00
     -2.258  0.1797E+00  0.1865E+00
     -2.111  0.1935E+00  0.2150E+00
     -1.964  0.1936E+00  0.2435E+00
     -1.817  0.2877E+00  0.2858E+00
     -1.670  0.4596E+00  0.3534E+00
     -1.522  0.5847E+00  0.4394E+00
     -1.375  0.6657E+00  0.5373E+00
     -1.228  0.9960E+00  0.6838E+00
     -1.081  0.1243E+01  0.8667E+00
     -0.934  0.1564E+01  0.1097E+01
     -0.787  0.1756E+01  0.1355E+01
     -0.640  0.1767E+01  0.1615E+01
     -0.493  0.1690E+01  0.1863E+01
     -0.346  0.1474E+01  0.2080E+01
     -0.199  0.1524E+01  0.2304E+01
     -0.052  0.1224E+01  0.2484E+01
      0.095  0.1136E+01  0.2651E+01
      0.242  0.1589E+01  0.2885E+01
      0.390  0.1771E+01  0.3146E+01
      0.537  0.1830E+01  0.3415E+01
      0.684  0.1730E+01  0.3669E+01
      0.831  0.1984E+01  0.3961E+01
      0.978  0.2147E+01  0.4277E+01
      1.125  0.2119E+01  0.4588E+01
      1.272  0.2526E+01  0.4960E+01
      1.419  0.3137E+01  0.5421E+01
      1.566  0.2617E+01  0.5806E+01
      1.713  0.1783E+01  0.6068E+01
      1.860  0.1394E+01  0.6273E+01
      2.007  0.1504E+01  0.6495E+01
      2.155  0.1588E+01  0.6728E+01
      2.302  0.1791E+01  0.6992E+01
      2.449  0.2134E+01  0.7305E+01
      2.596  0.1906E+01  0.7586E+01
      2.743  0.1617E+01  0.7824E+01
      2.890  0.1946E+01  0.8110E+01
      3.037  0.1624E+01  0.8349E+01
      3.184  0.1257E+01  0.8534E+01
      3.331  0.1675E+01  0.8780E+01
      3.478  0.1576E+01  0.9012E+01
      3.625  0.1786E+01  0.9274E+01
      3.772  0.2428E+01  0.9631E+01
      3.919  0.2492E+01  0.9998E+01
      4.067  0.1974E+01  0.1029E+02
      4.214  0.1298E+01  0.1048E+02
      4.361  0.8171E+00  0.1060E+02
      4.508  0.2313E+00  0.1063E+02
      4.655  0.1584E-01  0.1064E+02
      4.802  0.1491E+00  0.1066E+02
      4.949  0.4317E+00  0.1072E+02
      5.096  0.4355E+00  0.1079E+02
      5.243  0.2573E+00  0.1082E+02
      5.390  0.1435E+00  0.1084E+02
      5.537  0.2626E+00  0.1088E+02
      5.684  0.4271E+00  0.1095E+02
      5.831  0.3112E+00  0.1099E+02
      5.979  0.1939E+00  0.1102E+02
      6.126  0.2220E+00  0.1105E+02
      6.273  0.1731E+00  0.1108E+02
      6.420  0.3012E+00  0.1112E+02
      6.567  0.4254E+00  0.1118E+02
      6.714  0.3148E+00  0.1123E+02
      6.861  0.3051E+00  0.1128E+02
      7.008  0.2580E+00  0.1131E+02
      7.155  0.1648E+00  0.1134E+02
      7.302  0.1804E+00  0.1136E+02
      7.449  0.2474E+00  0.1140E+02
      7.596  0.3479E+00  0.1145E+02
      7.744  0.3723E+00  0.1151E+02
      7.891  0.2556E+00  0.1154E+02
      8.038  0.1805E+00  0.1157E+02
      8.185  0.1335E+00  0.1159E+02
      8.332  0.2814E+00  0.1163E+02
      8.479  0.3423E+00  0.1168E+02
      8.626  0.2143E+00  0.1171E+02
      8.773  0.2345E+00  0.1175E+02
      8.920  0.1493E+00  0.1177E+02
      9.067  0.2506E+00  0.1181E+02
      9.214  0.5896E+00  0.1189E+02
      9.361  0.5682E+00  0.1198E+02
      9.508  0.2043E+00  0.1201E+02
      9.656  0.1341E+00  0.1203E+02
      9.803  0.3155E+00  0.1207E+02
      9.950  0.4129E+00  0.1213E+02
     10.097  0.3716E+00  0.1219E+02
     10.244  0.3159E+00  0.1224E+02
     10.391  0.2320E+00  0.1227E+02
     10.538  0.1735E+00  0.1230E+02
     10.685  0.1443E+00  0.1232E+02
     10.832  0.3480E+00  0.1237E+02
     10.979  0.4660E+00  0.1244E+02
     11.126  0.3559E+00  0.1249E+02
     11.273  0.2808E+00  0.1253E+02
     11.420  0.2725E+00  0.1257E+02
     11.568  0.3234E+00  0.1262E+02
     11.715  0.4352E+00  0.1268E+02
     11.862  0.4286E+00  0.1274E+02
     12.009  0.3269E+00  0.1279E+02
     12.156  0.3583E+00  0.1285E+02
     12.303  0.2428E+00  0.1288E+02
     12.450  0.1589E+00  0.1290E+02
     12.597  0.3086E+00  0.1295E+02
     12.744  0.5121E+00  0.1303E+02
     12.891  0.2938E+00  0.1307E+02
     13.038  0.4868E-01  0.1308E+02
     13.185  0.1222E+00  0.1309E+02
     13.333  0.3669E+00  0.1315E+02
     13.480  0.3705E+00  0.1320E+02
     13.627  0.2645E+00  0.1324E+02
     13.774  0.4578E+00  0.1331E+02
     13.921  0.4809E+00  0.1338E+02
     14.068  0.5129E+00  0.1345E+02
     14.215  0.5539E+00  0.1354E+02
     14.362  0.2257E+00  0.1357E+02
     14.509 -0.1294E-01  0.1357E+02
     14.656  0.1223E+00  0.1359E+02
     14.803  0.4593E+00  0.1365E+02
     14.950  0.4569E+00  0.1372E+02
     15.097  0.2694E+00  0.1376E+02
     15.245  0.2904E+00  0.1380E+02
     15.392  0.4820E+00  0.1387E+02
     15.539  0.5279E+00  0.1395E+02
     15.686  0.3559E+00  0.1400E+02
     15.833  0.4299E+00  0.1407E+02
     15.980  0.4595E+00  0.1413E+02
     16.127  0.3875E+00  0.1419E+02
     16.274  0.4721E+00  0.1426E+02
     16.421  0.4738E+00  0.1433E+02
     16.568  0.3805E+00  0.1439E+02
     16.715  0.5609E+00  0.1447E+02
     16.862  0.7650E+00  0.1458E+02
     17.009  0.3845E+00  0.1464E+02
     17.157  0.1783E+00  0.1466E+02
     17.304  0.3373E+00  0.1471E+02
     17.451  0.4484E+00  0.1478E+02
     17.598  0.6465E+00  0.1487E+02
     17.745  0.7266E+00  0.1498E+02
     17.892  0.7449E+00  0.1509E+02
     18.039  0.6297E+00  0.1518E+02
     18.186  0.2518E+00  0.1522E+02
     18.333  0.1708E+00  0.1525E+02
     18.480  0.3241E+00  0.1529E+02
     18.627  0.5857E+00  0.1538E+02
     18.774  0.5199E+00  0.1546E+02
     18.922  0.4396E+00  0.1552E+02
     19.069  0.5067E+00  0.1560E+02
     19.216  0.5053E+00  0.1567E+02
     19.363  0.4160E+00  0.1573E+02
     19.510  0.5792E+00  0.1582E+02
     19.657  0.5940E+00  0.1590E+02
     19.804  0.3734E+00  0.1596E+02
     19.951  0.4497E+00  0.1602E+02
     20.098  0.5892E+00  0.1611E+02
     20.245  0.5284E+00  0.1619E+02
     20.392  0.4062E+00  0.1625E+02
     20.539  0.6912E+00  0.1635E+02
     20.686  0.6653E+00  0.1645E+02
     20.834  0.3402E+00  0.1650E+02
     20.981  0.3500E+00  0.1655E+02
     21.128  0.6043E+00  0.1664E+02
     21.275  0.6825E+00  0.1674E+02
     21.422  0.5128E+00  0.1681E+02
     21.569  0.5483E+00  0.1689E+02
     21.716  0.7777E+00  0.1701E+02
     21.863  0.6840E+00  0.1711E+02
     22.010  0.5537E+00  0.1719E+02
     22.157  0.5121E+00  0.1727E+02
     22.304  0.4117E+00  0.1733E+02
     22.451  0.4736E+00  0.1740E+02
     22.598  0.4243E+00  0.1746E+02
     22.746  0.2882E+00  0.1750E+02
     22.893  0.3460E+00  0.1755E+02
     23.040  0.4823E+00  0.1762E+02
     23.187  0.6471E+00  0.1772E+02
     23.334  0.1054E+01  0.1787E+02
     23.481  0.8739E+00  0.1800E+02
     23.628  0.5893E+00  0.1809E+02
     23.775  0.6192E+00  0.1818E+02
     23.922  0.6483E+00  0.1828E+02
     24.069  0.7850E+00  0.1839E+02
     24.216  0.9824E+00  0.1854E+02
     24.363  0.8342E+00  0.1866E+02
     24.511  0.7928E+00  0.1877E+02
     24.658  0.8509E+00  0.1890E+02
     24.805  0.5531E+00  0.1898E+02
     24.952  0.3743E+00  0.1904E+02
     25.099  0.4931E+00  0.1911E+02
     25.246  0.7674E+00  0.1922E+02
     25.393  0.9277E+00  0.1936E+02
     25.540  0.7762E+00  0.1947E+02
     25.687  0.5730E+00  0.1956E+02
     25.834  0.3708E+00  0.1961E+02
     25.981  0.3291E+00  0.1966E+02
     26.128  0.5570E+00  0.1974E+02
     26.275  0.5637E+00  0.1982E+02
     26.423  0.6028E+00  0.1991E+02
     26.570  0.6408E+00  0.2001E+02
     26.717  0.3801E+00  0.2006E+02
     26.864  0.2395E+00  0.2010E+02
     27.011  0.2042E+00  0.2013E+02
     27.158  0.3298E+00  0.2018E+02
     27.305  0.5094E+00  0.2025E+02
     27.452  0.5070E+00  0.2033E+02
     27.599  0.4807E+00  0.2040E+02
     27.746  0.3946E+00  0.2045E+02
     27.893  0.2023E+00  0.2048E+02
     28.040  0.2778E+00  0.2053E+02
     28.187  0.3111E+00  0.2057E+02
     28.335  0.3452E+00  0.2062E+02
     28.482  0.5485E+00  0.2070E+02
     28.629  0.3894E+00  0.2076E+02
     28.776  0.3433E+00  0.2081E+02
     28.923  0.7772E+00  0.2092E+02
     29.070  0.6450E+00  0.2102E+02
     29.217  0.4017E+00  0.2108E+02
     29.364  0.2669E+00  0.2112E+02
     29.511  0.4769E-01  0.2112E+02
     29.658  0.2510E+00  0.2116E+02
     29.805  0.6213E+00  0.2125E+02
     29.952  0.6216E+00  0.2134E+02
     30.100  0.4667E+00  0.2141E+02
     30.247  0.4867E+00  0.2148E+02
     30.394  0.5735E+00  0.2157E+02
     30.541  0.6449E+00  0.2166E+02
     30.688  0.9570E+00  0.2180E+02
     30.835  0.7825E+00  0.2192E+02
     30.982  0.6213E+00  0.2201E+02
     31.129  0.6421E+00  0.2211E+02
     31.276  0.5646E+00  0.2219E+02
     31.423  0.5367E+00  0.2227E+02
     31.570  0.6092E+00  0.2236E+02
     31.717  0.6545E+00  0.2245E+02
     31.864  0.7807E+00  0.2257E+02
     32.012  0.7479E+00  0.2268E+02
     32.159  0.5884E+00  0.2276E+02
     32.306  0.6970E+00  0.2287E+02
     32.453  0.9748E+00  0.2301E+02
     32.600  0.8564E+00  0.2314E+02
     32.747  0.5680E+00  0.2322E+02
     32.894  0.5229E+00  0.2330E+02
     33.041  0.5833E+00  0.2338E+02
     33.188  0.4150E+00  0.2344E+02
     33.335  0.3396E+00  0.2349E+02
     33.482  0.5979E+00  0.2358E+02
     33.629  0.6611E+00  0.2368E+02
     33.776  0.3674E+00  0.2373E+02
     33.924  0.1916E+00  0.2376E+02
     34.071  0.1334E+00  0.2378E+02
     34.218  0.1154E+00  0.2380E+02
     34.365  0.1635E+00  0.2382E+02
     34.512  0.2286E+00  0.2386E+02
     34.659  0.2226E+00  0.2389E+02
     34.806  0.1882E+00  0.2392E+02
     34.953  0.2301E+00  0.2395E+02
     35.100  0.1069E+00  0.2397E+02
     35.247 -0.6051E-02  0.2396E+02
     35.394 -0.6352E-02  0.2396E+02
     35.541  0.2468E-01  0.2397E+02
     35.689  0.5783E-01  0.2398E+02
     35.836  0.8296E-01  0.2399E+02
     35.983  0.7131E-01  0.2400E+02
     36.130  0.1413E-01  0.2400E+02
     36.277 -0.3510E-02  0.2400E+02
     36.424 -0.8714E-03  0.2400E+02
     36.571 -0.4406E-04  0.2400E+02
     36.718 -0.6600E-06  0.2400E+02
     36.865 -0.3149E-08  0.2400E+02
     37.012 -0.4909E-11  0.2400E+02
     37.159 -0.2518E-14  0.2400E+02
     37.306  0.0000E+00  0.2400E+02
     37.453  0.0000E+00  0.2400E+02
     37.601  0.0000E+00  0.2400E+02
     37.748  0.0000E+00  0.2400E+02
     37.895  0.0000E+00  0.2400E+02
     37.89470616     -6.22898338  301      5.87329518      1.00000000
     -6.229  0.0000E+00  0.0000E+00  0.0000E+00
     -6.082  0.0000E+00  0.0000E+00  0.0000E+00
     -5.935 -0.7169E-33 -0.5134E-35 -0.1095E-36
     -5.788 -0.1116E-27 -0.7990E-30 -0.1704E-31
     -5.641 -0.5836E-23 -0.4179E-25 -0.8914E-27
     -5.494 -0.1024E-18 -0.7332E-21 -0.1564E-22
     -5.347 -0.5819E-15 -0.4167E-17 -0.8888E-19
     -5.199 -0.1126E-11 -0.8064E-14 -0.1720E-15
     -5.052 -0.7171E-09 -0.5136E-11 -0.1096E-12
     -4.905 -0.1479E-06 -0.1060E-08 -0.2266E-10
     -4.758 -0.9547E-05 -0.6874E-07 -0.1486E-08
     -4.611 -0.1756E-03 -0.1307E-05 -0.3050E-07
     -4.464 -0.5873E-03 -0.6182E-05 -0.2378E-06
     -4.317  0.2393E-02 -0.3435E-05 -0.1219E-05
     -4.170  0.1077E-01  0.7153E-04  0.1097E-06
     -4.023  0.2445E-01  0.5001E-03  0.2253E-04
     -3.876  0.3564E-01  0.1014E-02  0.7475E-04
     -3.729  0.3546E-01  0.1418E-02  0.1746E-03
     -3.582  0.3892E-01  0.2085E-02  0.3132E-03
     -3.434  0.5149E-01  0.3470E-02  0.6367E-03
     -3.287  0.6764E-01  0.5321E-02  0.1284E-02
     -3.140  0.5647E-01  0.4773E-02  0.1578E-02
     -2.993  0.4003E-01  0.4035E-02  0.1671E-02
     -2.846  0.7051E-01  0.8418E-02  0.3741E-02
     -2.699  0.1016E+00  0.1296E-01  0.6860E-02
     -2.552  0.7951E-01  0.1071E-01  0.6622E-02
     -2.405  0.5971E-01  0.8953E-02  0.7707E-02
     -2.258  0.9745E-01  0.1578E-01  0.1650E-01
     -2.111  0.1015E+00  0.1718E-01  0.2170E-01
     -1.964  0.9735E-01  0.1844E-01  0.2530E-01
     -1.817  0.1332E+00  0.2525E-01  0.5605E-01
     -1.670  0.1769E+00  0.3034E-01  0.1506E+00
     -1.522  0.1886E+00  0.2935E-01  0.2514E+00
     -1.375  0.1783E+00  0.3113E-01  0.3318E+00
     -1.228  0.2319E+00  0.4907E-01  0.5307E+00
     -1.081  0.2369E+00  0.5616E-01  0.7332E+00
     -0.934  0.2178E+00  0.5871E-01  0.1044E+01
     -0.787  0.1947E+00  0.5964E-01  0.1250E+01
     -0.640  0.1624E+00  0.6244E-01  0.1303E+01
     -0.493  0.1181E+00  0.5787E-01  0.1298E+01
     -0.346  0.8633E-01  0.5983E-01  0.1140E+01
     -0.199  0.6158E-01  0.6552E-01  0.1208E+01
     -0.052  0.2937E-01  0.5821E-01  0.9885E+00
      0.095  0.1561E-01  0.6346E-01  0.9203E+00
      0.242  0.1849E-01  0.9348E-01  0.1287E+01
      0.390  0.1819E-01  0.9573E-01  0.1452E+01
      0.537  0.1973E-01  0.8529E-01  0.1525E+01
      0.684  0.2452E-01  0.6984E-01  0.1461E+01
      0.831  0.3427E-01  0.9061E-01  0.1663E+01
      0.978  0.4297E-01  0.1112E+00  0.1782E+01
      1.125  0.4658E-01  0.9568E-01  0.1781E+01
      1.272  0.4380E-01  0.1086E+00  0.2154E+01
      1.419  0.4711E-01  0.1475E+00  0.2676E+01
      1.566  0.4922E-01  0.1340E+00  0.2208E+01
      1.713  0.3825E-01  0.8639E-01  0.1508E+01
      1.860  0.2091E-01  0.6732E-01  0.1191E+01
      2.007  0.2017E-01  0.8665E-01  0.1268E+01
      2.155  0.2369E-01  0.8041E-01  0.1355E+01
      2.302  0.2628E-01  0.7859E-01  0.1552E+01
      2.449  0.2886E-01  0.8106E-01  0.1874E+01
      2.596  0.1957E-01  0.4655E-01  0.1721E+01
      2.743  0.1317E-01  0.4284E-01  0.1464E+01
      2.890  0.2028E-01  0.6636E-01  0.1741E+01
      3.037  0.2081E-01  0.5505E-01  0.1451E+01
      3.184  0.1035E-01  0.2848E-01  0.1156E+01
      3.331  0.1127E-01  0.3458E-01  0.1552E+01
      3.478  0.1702E-01  0.3842E-01  0.1445E+01
      3.625  0.1641E-01  0.2833E-01  0.1670E+01
      3.772  0.1634E-01  0.2441E-01  0.2304E+01
      3.919  0.1000E-01  0.1652E-01  0.2392E+01
      4.067  0.8020E-02  0.1425E-01  0.1896E+01
      4.214  0.3048E-01  0.3419E-01  0.1181E+01
      4.361  0.4601E-01  0.4923E-01  0.6699E+00
      4.508  0.2263E-01  0.2723E-01  0.1576E+00
      4.655  0.3756E-02  0.5803E-02  0.2011E-02
      4.802  0.1571E-01  0.1522E-01  0.1042E+00
      4.949  0.4905E-01  0.4295E-01  0.2999E+00
      5.096  0.5399E-01  0.5108E-01  0.2860E+00
      5.243  0.3218E-01  0.5050E-01  0.1373E+00
      5.390  0.1159E-01  0.4456E-01  0.5787E-01
      5.537  0.3073E-01  0.5896E-01  0.1305E+00
      5.684  0.6533E-01  0.7341E-01  0.2308E+00
      5.831  0.5373E-01  0.4516E-01  0.1744E+00
      5.979  0.3400E-01  0.2944E-01  0.1062E+00
      6.126  0.3188E-01  0.4962E-01  0.1053E+00
      6.273  0.2311E-01  0.4309E-01  0.7725E-01
      6.420  0.5330E-01  0.6637E-01  0.1327E+00
      6.567  0.8008E-01  0.8918E-01  0.1881E+00
      6.714  0.5016E-01  0.7627E-01  0.1328E+00
      6.861  0.3722E-01  0.9507E-01  0.1114E+00
      7.008  0.4133E-01  0.7421E-01  0.9452E-01
      7.155  0.3537E-01  0.3660E-01  0.6618E-01
      7.302  0.4921E-01  0.3038E-01  0.7207E-01
      7.449  0.6151E-01  0.5145E-01  0.9082E-01
      7.596  0.6446E-01  0.9586E-01  0.1197E+00
      7.744  0.6178E-01  0.1156E+00  0.1197E+00
      7.891  0.4935E-01  0.7442E-01  0.8294E-01
      8.038  0.4070E-01  0.4431E-01  0.6202E-01
      8.185  0.3178E-01  0.3323E-01  0.4130E-01
      8.332  0.6691E-01  0.7511E-01  0.8199E-01
      8.479  0.8648E-01  0.8752E-01  0.9933E-01
      8.626  0.6221E-01  0.4759E-01  0.6403E-01
      8.773  0.5936E-01  0.6264E-01  0.6630E-01
      8.920  0.2823E-01  0.5158E-01  0.3671E-01
      9.067  0.1093E+00  0.3201E-01  0.6347E-01
      9.214  0.2645E+00  0.5958E-01  0.1678E+00
      9.361  0.2283E+00  0.7993E-01  0.1633E+00
      9.508  0.7902E-01  0.3509E-01  0.5197E-01
      9.656  0.4958E-01  0.3048E-01  0.2223E-01
      9.803  0.9967E-01  0.7762E-01  0.6958E-01
      9.950  0.1464E+00  0.8390E-01  0.1014E+00
     10.097  0.1208E+00  0.7957E-01  0.9781E-01
     10.244  0.1020E+00  0.7093E-01  0.7647E-01
     10.391  0.8220E-01  0.5362E-01  0.4409E-01
     10.538  0.3138E-01  0.6421E-01  0.3422E-01
     10.685  0.2085E-01  0.5674E-01  0.2926E-01
     10.832  0.8589E-01  0.1067E+00  0.7379E-01
     10.979  0.1381E+00  0.1277E+00  0.9123E-01
     11.126  0.1049E+00  0.9673E-01  0.6974E-01
     11.273  0.6894E-01  0.8698E-01  0.5945E-01
     11.420  0.1013E+00  0.6727E-01  0.4215E-01
     11.568  0.1171E+00  0.7971E-01  0.5280E-01
     11.715  0.1124E+00  0.1369E+00  0.8019E-01
     11.862  0.1291E+00  0.1270E+00  0.6826E-01
     12.009  0.9496E-01  0.9305E-01  0.6452E-01
     12.156  0.8882E-01  0.1060E+00  0.8207E-01
     12.303  0.6555E-01  0.6959E-01  0.4905E-01
     12.450  0.4911E-01  0.4649E-01  0.2126E-01
     12.597  0.8211E-01  0.9495E-01  0.5052E-01
     12.744  0.1387E+00  0.1589E+00  0.7912E-01
     12.891  0.9244E-01  0.8916E-01  0.3297E-01
     13.038  0.1148E-01  0.1989E-01  0.4116E-02
     13.185  0.1600E-01  0.5291E-01  0.2095E-01
     13.333  0.1014E+00  0.1145E+00  0.5365E-01
     13.480  0.1071E+00  0.1072E+00  0.5802E-01
     13.627  0.5986E-01  0.8375E-01  0.5287E-01
     13.774  0.9157E-01  0.1486E+00  0.1007E+00
     13.921  0.8344E-01  0.1705E+00  0.9865E-01
     14.068  0.7325E-01  0.2058E+00  0.9014E-01
     14.215  0.9398E-01  0.2059E+00  0.9625E-01
     14.362  0.4910E-01  0.7466E-01  0.3579E-01
     14.509  0.1211E-02 -0.7616E-02 -0.3427E-02
     14.656  0.9525E-02  0.4936E-01  0.2634E-01
     14.803  0.3708E-01  0.1942E+00  0.9307E-01
     14.950  0.5057E-01  0.1865E+00  0.8693E-01
     15.097  0.6116E-01  0.9342E-01  0.3527E-01
     15.245  0.7168E-01  0.9790E-01  0.3006E-01
     15.392  0.7161E-01  0.1887E+00  0.7196E-01
     15.539  0.4589E-01  0.2213E+00  0.1025E+00
     15.686  0.2104E-01  0.1504E+00  0.8318E-01
     15.833  0.2761E-01  0.1777E+00  0.1007E+00
     15.980  0.2949E-01  0.1818E+00  0.1000E+00
     16.127  0.2456E-01  0.1517E+00  0.7697E-01
     16.274  0.3989E-01  0.1893E+00  0.7973E-01
     16.421  0.4472E-01  0.1978E+00  0.5956E-01
     16.568  0.4528E-01  0.1593E+00  0.4065E-01
     16.715  0.4158E-01  0.2364E+00  0.9762E-01
     16.862  0.2677E-01  0.3275E+00  0.1572E+00
     17.009  0.9724E-02  0.1638E+00  0.8112E-01
     17.157  0.4526E-02  0.7711E-01  0.3451E-01
     17.304  0.1806E-01  0.1443E+00  0.6207E-01
     17.451  0.3104E-01  0.1740E+00  0.8808E-01
     17.598  0.3651E-01  0.2561E+00  0.1155E+00
     17.745  0.3887E-01  0.3003E+00  0.1213E+00
     17.892  0.3453E-01  0.3124E+00  0.1358E+00
     18.039  0.3206E-01  0.2580E+00  0.1213E+00
     18.186  0.1503E-01  0.9319E-01  0.5462E-01
     18.333  0.9590E-02  0.6399E-01  0.3762E-01
     18.480  0.1215E-01  0.1360E+00  0.5994E-01
     18.627  0.1509E-01  0.2374E+00  0.1142E+00
     18.774  0.1802E-01  0.1965E+00  0.9732E-01
     18.922  0.2264E-01  0.1626E+00  0.7444E-01
     19.069  0.1747E-01  0.2011E+00  0.9897E-01
     19.216  0.1929E-01  0.2040E+00  0.9634E-01
     19.363  0.1799E-01  0.1712E+00  0.6985E-01
     19.510  0.1810E-01  0.2244E+00  0.1066E+00
     19.657  0.1827E-01  0.2269E+00  0.1119E+00
     19.804  0.1102E-01  0.1341E+00  0.7355E-01
     19.951  0.1371E-01  0.1547E+00  0.8566E-01
     20.098  0.2091E-01  0.1878E+00  0.1159E+00
     20.245  0.1833E-01  0.1586E+00  0.1070E+00
     20.392  0.1085E-01  0.1282E+00  0.6989E-01
     20.539  0.1017E-01  0.2016E+00  0.1130E+00
     20.686  0.8934E-02  0.1660E+00  0.9548E-01
     20.834  0.3117E-02  0.6025E-01  0.3046E-01
     20.981  0.1051E-02  0.8247E-01  0.3723E-01
     21.128  0.6340E-02  0.1736E+00  0.9324E-01
     21.275  0.1107E-01  0.1907E+00  0.1083E+00
     21.422  0.8911E-02  0.1305E+00  0.7102E-01
     21.569  0.1369E-01  0.1155E+00  0.8881E-01
     21.716  0.2079E-01  0.1587E+00  0.1177E+00
     21.863  0.1341E-01  0.1630E+00  0.8826E-01
     22.010  0.5905E-02  0.1113E+00  0.7140E-01
     22.157  0.5471E-02  0.7103E-01  0.6482E-01
     22.304  0.6222E-02  0.7008E-01  0.4369E-01
     22.451  0.7931E-02  0.1115E+00  0.4668E-01
     22.598  0.7255E-02  0.8820E-01  0.4044E-01
     22.746  0.5059E-02  0.4695E-01  0.2397E-01
     22.893  0.6320E-02  0.6013E-01  0.3460E-01
     23.040  0.8869E-02  0.1157E+00  0.5212E-01
     23.187  0.1668E-01  0.2076E+00  0.6593E-01
     23.334  0.3305E-01  0.3165E+00  0.1245E+00
     23.481  0.3186E-01  0.2256E+00  0.1153E+00
     23.628  0.2615E-01  0.1355E+00  0.8186E-01
     23.775  0.1999E-01  0.1600E+00  0.8072E-01
     23.922  0.1503E-01  0.1660E+00  0.1015E+00
     24.069  0.2205E-01  0.1890E+00  0.1267E+00
     24.216  0.4390E-01  0.2171E+00  0.1622E+00
     24.363  0.4923E-01  0.1630E+00  0.1529E+00
     24.511  0.3888E-01  0.1520E+00  0.1444E+00
     24.658  0.2041E-01  0.2078E+00  0.1166E+00
     24.805  0.5735E-02  0.1563E+00  0.5904E-01
     24.952  0.4808E-02  0.1139E+00  0.4047E-01
     25.099  0.1045E-01  0.1640E+00  0.6203E-01
     25.246  0.1672E-01  0.2265E+00  0.1049E+00
     25.393  0.1760E-01  0.2179E+00  0.1238E+00
     25.540  0.1729E-01  0.1507E+00  0.1195E+00
     25.687  0.2017E-01  0.1016E+00  0.1128E+00
     25.834  0.1879E-01  0.5524E-01  0.9613E-01
     25.981  0.7187E-02  0.5719E-01  0.9299E-01
     26.128  0.4400E-02  0.1117E+00  0.1182E+00
     26.275  0.3980E-02  0.1123E+00  0.1057E+00
     26.423  0.6417E-02  0.1229E+00  0.1160E+00
     26.570  0.1629E-01  0.1559E+00  0.1130E+00
     26.717  0.1192E-01  0.9941E-01  0.5179E-01
     26.864  0.3709E-02  0.4565E-01  0.3313E-01
     27.011  0.4764E-02  0.3226E-01  0.3763E-01
     27.158  0.1155E-01  0.5012E-01  0.7468E-01
     27.305  0.2070E-01  0.7122E-01  0.1252E+00
     27.452  0.1894E-01  0.6389E-01  0.1324E+00
     27.599  0.8402E-02  0.1002E+00  0.7716E-01
     27.746  0.7189E-02  0.1119E+00  0.3296E-01
     27.893  0.7484E-02  0.7416E-01  0.1813E-01
     28.040  0.1105E-01  0.1039E+00  0.2412E-01
     28.187  0.1430E-01  0.1237E+00  0.2528E-01
     28.335  0.6440E-02  0.8134E-01  0.4631E-01
     28.482  0.3827E-02  0.1071E+00  0.6859E-01
     28.629  0.3680E-02  0.8267E-01  0.5077E-01
     28.776  0.1103E-01  0.7107E-01  0.5208E-01
     28.923  0.3085E-01  0.1335E+00  0.1324E+00
     29.070  0.2190E-01  0.1017E+00  0.1135E+00
     29.217  0.3567E-02  0.5869E-01  0.6489E-01
     29.364  0.4790E-03  0.3184E-01  0.4273E-01
     29.511  0.1016E-03  0.1515E-02  0.5502E-02
     29.658  0.1657E-02  0.2941E-01  0.3862E-01
     29.805  0.2895E-02  0.8454E-01  0.1174E+00
     29.952  0.1962E-02  0.7508E-01  0.1410E+00
     30.100  0.3266E-02  0.5046E-01  0.1077E+00
     30.247  0.5869E-02  0.4633E-01  0.9416E-01
     30.394  0.6473E-02  0.3236E-01  0.1085E+00
     30.541  0.1160E-01  0.3982E-01  0.1448E+00
     30.688  0.1885E-01  0.5597E-01  0.2607E+00
     30.835  0.1178E-01  0.5459E-01  0.2132E+00
     30.982  0.5649E-02  0.5318E-01  0.1713E+00
     31.129  0.4041E-02  0.4051E-01  0.2126E+00
     31.276  0.3617E-02  0.4528E-01  0.1996E+00
     31.423  0.5488E-02  0.4308E-01  0.1582E+00
     31.570  0.6296E-02  0.3367E-01  0.1720E+00
     31.717  0.3961E-02  0.3846E-01  0.1770E+00
     31.864  0.3279E-02  0.5520E-01  0.1900E+00
     32.012  0.7801E-02  0.4144E-01  0.1805E+00
     32.159  0.1401E-01  0.2196E-01  0.1491E+00
     32.306  0.2255E-01  0.1791E-01  0.1950E+00
     32.453  0.3266E-01  0.3299E-01  0.2444E+00
     32.600  0.2989E-01  0.4820E-01  0.1950E+00
     32.747  0.1704E-01  0.4651E-01  0.1320E+00
     32.894  0.1313E-01  0.2397E-01  0.1286E+00
     33.041  0.1245E-01  0.1067E-01  0.1377E+00
     33.188  0.1064E-01  0.9239E-02  0.8657E-01
     33.335  0.8405E-02  0.1344E-01  0.6391E-01
     33.482  0.1039E-01  0.2411E-01  0.9894E-01
     33.629  0.1238E-01  0.2304E-01  0.9651E-01
     33.776  0.7324E-02  0.1121E-01  0.5750E-01
     33.924  0.2152E-02  0.3973E-02  0.3982E-01
     34.071  0.6092E-02  0.7379E-02  0.3049E-01
     34.218  0.9884E-02  0.1181E-01  0.2236E-01
     34.365  0.9128E-02  0.1332E-01  0.1970E-01
     34.512  0.6208E-02  0.9985E-02  0.2584E-01
     34.659  0.1366E-02  0.2695E-02  0.2516E-01
     34.806  0.8080E-04  0.7954E-03  0.1404E-01
     34.953  0.1790E-03  0.1822E-02  0.1107E-01
     35.100  0.7745E-04  0.1107E-02  0.4526E-02
     35.247 -0.1118E-04 -0.3009E-05 -0.3659E-03
     35.394 -0.4688E-05 -0.6080E-04 -0.2799E-03
     35.541 -0.2992E-06 -0.1917E-04  0.1516E-03
     35.689 -0.5658E-08  0.1088E-04  0.8037E-03
     35.836  0.2268E-08  0.3132E-03  0.2619E-02
     35.983  0.4254E-08  0.5126E-03  0.2973E-02
     36.130  0.1369E-08  0.1550E-03  0.7072E-03
     36.277 -0.1919E-09 -0.2331E-04 -0.1400E-03
     36.424 -0.6856E-10 -0.7910E-05 -0.3946E-04
     36.571 -0.3776E-11 -0.4313E-06 -0.2063E-05
     36.718 -0.5860E-13 -0.6667E-08 -0.3136E-07
     36.865 -0.2842E-15 -0.3227E-10 -0.1506E-09
     37.012 -0.4462E-18 -0.5063E-13 -0.2355E-12
     37.159 -0.2305E-21 -0.2613E-16 -0.1211E-15
     37.306  0.0000E+00  0.0000E+00  0.0000E+00
     37.453  0.0000E+00  0.0000E+00  0.0000E+00
     37.601  0.0000E+00  0.0000E+00  0.0000E+00
     37.748  0.0000E+00  0.0000E+00  0.0000E+00
     37.895  0.0000E+00  0.0000E+00  0.0000E+00
