    1    1    1    1
  0.1660753E+02  0.2863782E-09  0.2863782E-09  0.2863782E-09  0.5000000E-15
  1.000000000000000E-004
  CAR 
 fcc Au                                  
     11    110     12
 
  0.5000000E-01  0.5000000E-01  0.5000000E-01  0.2000000E-02
    1       -4.223361   1.000000
    2        1.009067   1.000000
    3        1.071705   1.000000
    4        1.071705   1.000000
    5        2.638001   1.000000
    6        2.638001   1.000000
    7       21.327065   0.000000
    8       24.537935   0.000000
    9       25.316110   0.000000
   10       25.316110   0.000000
   11       30.195572   0.000000
   12       33.363352   0.000000
 
  0.1500000E+00  0.5000000E-01  0.5000000E-01  0.6000000E-02
    1       -3.758796   1.000000
    2        0.850667   1.000000
    3        1.215870   1.000000
    4        1.249907   1.000000
    5        2.486313   1.000000
    6        2.691824   1.000000
    7       21.690419   0.000000
    8       22.566835   0.000000
    9       24.967561   0.000000
   10       26.263942   0.000000
   11       29.696979   0.000000
   12       32.366774   0.000000
 
  0.2500000E+00  0.5000000E-01  0.5000000E-01  0.6000000E-02
    1       -2.755413   1.000000
    2        0.726105   1.000000
    3        1.373496   1.000000
    4        1.398187   1.000000
    5        2.491735   1.000000
    6        2.913417   1.000000
    7       18.702092   0.000000
    8       22.307014   0.000000
    9       25.185414   0.000000
   10       27.597674   0.000000
   11       27.629381   0.000000
   12       30.137461   0.000000
 
  0.3500000E+00  0.5000000E-01  0.5000000E-01  0.6000000E-02
    1       -1.863977   1.000000
    2        1.186382   1.000000
    3        1.276219   1.000000
    4        1.414048   1.000000
    5        2.999799   1.000000
    6        3.502984   1.000000
    7       14.652339   0.000000
    8       21.607324   0.000000
    9       24.228583   0.000000
   10       26.465326   0.000000
   11       28.816872   0.000000
   12       29.943733   0.000000
 
  0.4500000E+00  0.5000000E-01  0.5000000E-01  0.6000000E-02
    1       -1.645857   1.000000
    2        1.029756   1.000000
    3        1.102210   1.000000
    4        2.962738   1.000000
    5        3.626893   1.000000
    6        4.396826   1.000000
    7       10.842843  -0.000000
    8       20.817648   0.000000
    9       23.268665   0.000000
   10       24.391913   0.000000
   11       30.673162   0.000000
   12       30.963400   0.000000
 
 -0.4500000E+00  0.5000000E-01  0.5000000E-01  0.6000000E-02
    1       -1.642906   1.000000
    2        0.961056   1.000000
    3        1.062700   1.000000
    4        3.401840   1.000000
    5        3.919788   1.000000
    6        5.245897   1.000043
    7        9.169950  -0.000000
    8       20.602054   0.000000
    9       23.318659   0.000000
   10       23.436998   0.000000
   11       31.199603   0.000000
   12       31.275857   0.000000
 
 -0.3500000E+00  0.5000000E-01  0.5000000E-01  0.6000000E-02
    1       -1.671572   1.000000
    2        1.061558   1.000000
    3        1.175786   1.000000
    4        2.377533   1.000000
    5        3.707552   1.000000
    6        3.829026   1.000000
    7       12.020678   0.000000
    8       21.058196   0.000000
    9       23.749691   0.000000
   10       24.594360   0.000000
   11       30.615316   0.000000
   12       30.749290   0.000000
 
 -0.2500000E+00  0.5000000E-01  0.5000000E-01  0.6000000E-02
    1       -2.087970   1.000000
    2        0.984078   1.000000
    3        1.291369   1.000000
    4        1.356112   1.000000
    5        2.905503   1.000000
    6        3.183318   1.000000
    7       16.013714   0.000000
    8       21.987964   0.000000
    9       24.737092   0.000000
   10       26.598122   0.000000
   11       28.492630   0.000000
   12       30.309883   0.000000
 
 -0.1500000E+00  0.5000000E-01  0.5000000E-01  0.6000000E-02
    1       -3.123780   1.000000
    2        0.715729   1.000000
    3        1.365756   1.000000
    4        1.379318   1.000000
    5        2.445808   1.000000
    6        2.784946   1.000000
    7       19.988422   0.000000
    8       22.394808   0.000000
    9       25.190923   0.000000
   10       26.723281   0.000000
   11       28.394435   0.000000
   12       30.995654   0.000000
 
 -0.5000000E-01  0.5000000E-01  0.5000000E-01  0.6000000E-02
    1       -3.987037   1.000000
    2        0.898558   1.000000
    3        1.171394   1.000000
    4        1.177838   1.000000
    5        2.511089   1.000000
    6        2.698448   1.000000
    7       21.582777   0.000000
    8       23.618687   0.000000
    9       25.074503   0.000000
   10       25.447370   0.000000
   11       30.847463   0.000000
   12       32.589177   0.000000
 
  0.1500000E+00  0.1500000E+00  0.5000000E-01  0.6000000E-02
    1       -3.528271   1.000000
    2        0.673738   1.000000
    3        1.379063   1.000000
    4        1.383792   1.000000
    5        2.278818   1.000000
    6        2.814214   1.000000
    7       21.998030   0.000000
    8       22.744498   0.000000
    9       24.431118   0.000000
   10       25.049188   0.000000
   11       30.116963   0.000000
   12       31.788019   0.000000
 
  0.2500000E+00  0.1500000E+00  0.5000000E-01  0.1200000E-01
    1       -2.694033   1.000000
    2        0.416311   1.000000
    3        1.479406   1.000000
    4        1.671216   1.000000
    5        2.223672   1.000000
    6        3.042529   1.000000
    7       20.247732   0.000000
    8       22.053655   0.000000
    9       24.023437   0.000000
   10       25.285632   0.000000
   11       28.081805   0.000000
   12       30.943674   0.000000
 
  0.3500000E+00  0.1500000E+00  0.5000000E-01  0.1200000E-01
    1       -1.673037   1.000000
    2        0.503748   1.000000
    3        1.165972   1.000000
    4        1.681178   1.000000
    5        2.909998   1.000000
    6        3.643124   1.000000
    7       16.245642   0.000000
    8       21.513707   0.000000
    9       22.959118   0.000000
   10       25.187739   0.000000
   11       28.843753   0.000000
   12       30.635195   0.000000
 
  0.4500000E+00  0.1500000E+00  0.5000000E-01  0.1200000E-01
    1       -1.287375   1.000000
    2        0.852343   1.000000
    3        1.406177   1.000000
    4        1.570878   1.000000
    5        3.689356   1.000000
    6        4.849756   1.000000
    7       12.213371   0.000000
    8       20.981767   0.000000
    9       21.708449   0.000000
   10       23.875310   0.000000
   11       30.661174   0.000000
   12       31.803879   0.000000
 
 -0.4500000E+00  0.1500000E+00  0.5000000E-01  0.1200000E-01
    1       -1.267168   1.000000
    2        0.719077   1.000000
    3        1.371168   1.000000
    4        2.324611   1.000000
    5        3.871438   1.000000
    6        6.727331  -0.000000
    7        9.147600  -0.000000
    8       20.505382   0.000000
    9       21.368389   0.000000
   10       23.078770   0.000000
   11       31.176641   0.000000
   12       32.209132   0.000000
 
 -0.3500000E+00  0.1500000E+00  0.5000000E-01  0.1200000E-01
    1       -1.249042   1.000000
    2        0.803108   1.000000
    3        1.396649   1.000000
    4        1.984405   1.000000
    5        3.540604   1.000000
    6        5.565644   1.025918
    7       11.062488  -0.000000
    8       20.223610   0.000000
    9       21.769621   0.000000
   10       24.046775   0.000000
   11       30.304874   0.000000
   12       31.866321   0.000000
 
 -0.2500000E+00  0.1500000E+00  0.5000000E-01  0.1200000E-01
    1       -1.429157   1.000000
    2        0.794152   1.000000
    3        1.113593   1.000000
    4        1.592100   1.000000
    5        2.818377   1.000000
    6        4.202410   1.000000
    7       14.896911   0.000000
    8       20.499686   0.000000
    9       22.873430   0.000000
   10       26.065309   0.000000
   11       28.427918   0.000000
   12       30.959658   0.000000
 
 -0.1500000E+00  0.1500000E+00  0.5000000E-01  0.1200000E-01
    1       -2.332756   1.000000
    2        0.460633   1.000000
    3        1.369858   1.000000
    4        1.694663   1.000000
    5        2.218865   1.000000
    6        3.312887   1.000000
    7       18.842480   0.000000
    8       21.142358   0.000000
    9       24.587690   0.000000
   10       25.605476   0.000000
   11       29.154202   0.000000
   12       29.825605   0.000000
 
 -0.5000000E-01  0.1500000E+00  0.5000000E-01  0.1200000E-01
    1       -3.316140   1.000000
    2        0.677393   1.000000
    3        1.381650   1.000000
    4        1.392148   1.000000
    5        2.320953   1.000000
    6        2.823173   1.000000
    7       21.229540   0.000000
    8       22.164302   0.000000
    9       24.534251   0.000000
   10       26.364336   0.000000
   11       28.762465   0.000000
   12       31.808684   0.000000
 
  0.2500000E+00  0.2500000E+00  0.5000000E-01  0.6000000E-02
    1       -2.138877   1.000000
    2        0.047578   1.000000
    3        1.636820   1.000000
    4        2.066388   1.000000
    5        2.266654   1.000000
    6        3.170748   1.000000
    7       20.724335   0.000000
    8       21.869571   0.000000
    9       22.924587   0.000000
   10       23.823556   0.000000
   11       25.129425   0.000000
   12       32.396271   0.000000
 
  0.3500000E+00  0.2500000E+00  0.5000000E-01  0.1200000E-01
    1       -1.332398   1.000000
    2       -0.185278   1.000000
    3        1.368204   1.000000
    4        2.427825   1.000000
    5        2.948198   1.000000
    6        3.667352   1.000000
    7       17.980376   0.000000
    8       19.949920   0.000000
    9       21.586172   0.000000
   10       24.306845   0.000000
   11       25.700705   0.000000
   12       32.467599   0.000000
 
  0.4500000E+00  0.2500000E+00  0.5000000E-01  0.1200000E-01
    1       -0.863737   1.000000
    2        0.080534   1.000000
    3        1.113459   1.000000
    4        2.289782   1.000000
    5        3.782028   1.000000
    6        5.130251   1.000001
    7       13.859479   0.000000
    8       19.264036   0.000000
    9       19.835605   0.000000
   10       23.908407   0.000000
   11       28.926997   0.000000
   12       32.447959   0.000000
 
 -0.4500000E+00  0.2500000E+00  0.5000000E-01  0.1200000E-01
    1       -0.743199   1.000000
    2        0.351515   1.000000
    3        1.321887   1.000000
    4        2.083481   1.000000
    5        3.908368   1.000000
    6        7.626535  -0.000000
    7       10.232506  -0.000000
    8       17.966372   0.000000
    9       19.904917   0.000000
   10       23.473127   0.000000
   11       31.532966   0.000000
   12       33.147234   0.000000
 
 -0.3500000E+00  0.2500000E+00  0.5000000E-01  0.1200000E-01
    1       -0.565592   1.000000
    2        0.419415   1.000000
    3        1.340993   1.000000
    4        1.974654   1.000000
    5        3.492864   1.000000
    6        7.462684  -0.000000
    7       10.781772  -0.000000
    8       16.867864   0.000000
    9       21.116270   0.000000
   10       23.651594   0.000000
   11       30.669532   0.000000
   12       33.055410   0.000000
 
 -0.2500000E+00  0.2500000E+00  0.5000000E-01  0.1200000E-01
    1       -0.479715   1.000000
    2        0.499163   1.000000
    3        0.762600   1.000000
    4        2.057430   1.000000
    5        2.776567   1.000000
    6        5.647872   1.033787
    7       14.202027   0.000000
    8       16.788274   0.000000
    9       22.343708   0.000000
   10       25.154725   0.000000
   11       28.430022   0.000000
   12       32.881762   0.000000
 
 -0.1500000E+00  0.2500000E+00  0.5000000E-01  0.1200000E-01
    1       -1.269069   1.000000
    2        0.379243   1.000000
    3        1.085886   1.000000
    4        1.931787   1.000000
    5        2.362957   1.000000
    6        4.296301   1.000000
    7       16.358484   0.000000
    8       19.054007   0.000000
    9       23.350534   0.000000
   10       26.440534   0.000000
   11       27.572131   0.000000
   12       31.505094   0.000000
 
 -0.5000000E-01  0.2500000E+00  0.5000000E-01  0.1200000E-01
    1       -2.248416   1.000000
    2        0.646755   1.000000
    3        1.342524   1.000000
    4        1.497178   1.000000
    5        2.557064   1.000000
    6        3.237683   1.000000
    7       17.460960   0.000000
    8       22.050019   0.000000
    9       24.200447   0.000000
   10       26.624536   0.000000
   11       28.443809   0.000000
   12       29.857342   0.000000
 
  0.3500000E+00  0.3500000E+00  0.5000000E-01  0.6000000E-02
    1       -1.194810   1.000000
    2       -0.577234   1.000000
    3        2.274604   1.000000
    4        2.978728   1.000000
    5        3.416958   1.000000
    6        3.601454   1.000000
    7       17.917567   0.000000
    8       18.912346   0.000000
    9       19.202577   0.000000
   10       23.162806   0.000000
   11       25.090544   0.000000
   12       34.921464   0.000000
 
  0.4500000E+00  0.3500000E+00  0.5000000E-01  0.1200000E-01
    1       -1.049282   1.000000
    2       -0.689538   1.000000
    3        2.327254   1.000000
    4        3.289254   1.000000
    5        3.795502   1.000000
    6        5.174170   1.000004
    7       15.070091   0.000000
    8       17.207803   0.000000
    9       17.832114   0.000000
   10       24.193338   0.000000
   11       26.109245   0.000000
   12       34.473359   0.000000
 
 -0.4500000E+00  0.3500000E+00  0.5000000E-01  0.1200000E-01
    1       -0.877363   1.000000
    2       -0.366720   1.000000
    3        1.959450   1.000000
    4        2.973587   1.000000
    5        4.012811   1.000000
    6        7.854231  -0.000000
    7       11.800545   0.000000
    8       15.470807   0.000000
    9       17.942257   0.000000
   10       24.404508   0.000000
   11       28.878851   0.000000
   12       33.461838   0.000000
 
 -0.3500000E+00  0.3500000E+00  0.5000000E-01  0.1200000E-01
    1       -0.575012   1.000000
    2        0.157158   1.000000
    3        1.395300   1.000000
    4        2.630413   1.000000
    5        3.671936   1.000000
    6        9.085366  -0.000000
    7       11.235389  -0.000000
    8       13.784855   0.000000
    9       19.306088   0.000000
   10       24.145212   0.000000
   11       32.029623   0.000000
   12       32.479749   0.000000
 
 -0.2500000E+00  0.3500000E+00  0.5000000E-01  0.1200000E-01
    1       -0.280906   1.000000
    2        0.462195   1.000000
    3        0.881354   1.000000
    4        2.257543   1.000000
    5        3.242530   1.000000
    6        7.288905  -0.000000
    7       12.657355   0.000000
    8       14.785982   0.000000
    9       21.122468   0.000000
   10       24.030994   0.000000
   11       30.318135   0.000000
   12       33.300231   0.000000
 
 -0.1500000E+00  0.3500000E+00  0.5000000E-01  0.1200000E-01
    1       -0.880017   1.000000
    2        0.699125   1.000000
    3        1.207293   1.000000
    4        1.741435   1.000000
    5        3.153409   1.000000
    6        5.627420   1.035455
    7       12.597363   0.000000
    8       18.537392   0.000000
    9       22.063368   0.000000
   10       24.624961   0.000000
   11       29.278437   0.000000
   12       32.343278   0.000000
 
 -0.5000000E-01  0.3500000E+00  0.5000000E-01  0.1200000E-01
    1       -1.590539   1.000000
    2        1.063979   1.000000
    3        1.322061   1.000000
    4        1.569619   1.000000
    5        3.288984   1.000000
    6        4.019290   1.000000
    7       13.387821   0.000000
    8       21.302762   0.000000
    9       23.004915   0.000000
   10       25.305478   0.000000
   11       29.681805   0.000000
   12       30.710872   0.000000
 
  0.4500000E+00  0.4500000E+00  0.5000000E-01  0.6000000E-02
    1       -1.320325   1.000000
    2       -0.988599   1.000000
    3        3.687814   1.000000
    4        3.693835   1.000000
    5        4.044263   1.000000
    6        5.645371   1.034207
    7       13.698784   0.000000
    8       16.450285   0.000000
    9       16.782316   0.000000
   10       23.509249   0.000000
   11       25.918115   0.000000
   12       35.789491   0.000000
 
 -0.4500000E+00  0.4500000E+00  0.5000000E-01  0.1200000E-01
    1       -1.245690   1.000000
    2       -0.936375   1.000000
    3        3.286037   1.000000
    4        3.643143   1.000000
    5        4.200932   1.000000
    6        7.698481  -0.000000
    7       11.806996   0.000000
    8       15.408877   0.000000
    9       16.378180   0.000000
   10       24.461962   0.000000
   11       26.479637   0.000000
   12       34.907307   0.000000
 
 -0.3500000E+00  0.4500000E+00  0.5000000E-01  0.1200000E-01
    1       -0.933537   1.000000
    2       -0.460566   1.000000
    3        2.257946   1.000000
    4        3.150864   1.000000
    5        4.009960   1.000000
    6        9.299254  -0.000000
    7       10.911886  -0.000000
    8       14.134513   0.000000
    9       17.587285   0.000000
   10       24.602229   0.000000
   11       28.887464   0.000000
   12       33.618407   0.000000
 
 -0.2500000E+00  0.4500000E+00  0.5000000E-01  0.1200000E-01
    1       -0.609266   1.000000
    2        0.205959   1.000000
    3        1.349853   1.000000
    4        2.399242   1.000000
    5        3.802889   1.000000
    6        9.190298  -0.000000
    7        9.712699  -0.000000
    8       15.808047   0.000000
    9       19.504723   0.000000
   10       23.861116   0.000000
   11       31.750634   0.000000
   12       32.849596   0.000000
 
 -0.1500000E+00  0.4500000E+00  0.5000000E-01  0.1200000E-01
    1       -0.937530   1.000000
    2        0.539792   1.000000
    3        1.645870   1.000000
    4        1.841795   1.000000
    5        3.741556   1.000000
    6        7.578931  -0.000000
    7        9.295327  -0.000000
    8       18.918040   0.000000
    9       21.117652   0.000000
   10       23.206564   0.000000
   11       31.045761   0.000000
   12       32.681557   0.000000
 
 -0.5000000E-01  0.4500000E+00  0.5000000E-01  0.1200000E-01
    1       -1.509541   1.000000
    2        0.897650   1.000000
    3        1.181355   1.000000
    4        2.757906   1.000000
    5        3.825906   1.000000
    6        5.428697   1.003645
    7        9.854754  -0.000000
    8       20.746001   0.000000
    9       22.447718   0.000000
   10       23.606522   0.000000
   11       31.013426   0.000000
   12       31.540399   0.000000
 
 -0.4500000E+00 -0.4500000E+00  0.5000000E-01  0.6000000E-02
    1       -1.398469   1.000000
    2       -1.076080   1.000000
    3        3.819481   1.000000
    4        3.993993   1.000000
    5        4.216145   1.000000
    6        6.864122  -0.000000
    7       12.053566   0.000000
    8       15.930138   0.000000
    9       16.297083   0.000000
   10       23.653768   0.000000
   11       26.093849   0.000000
   12       35.581652   0.000000
 
 -0.3500000E+00 -0.4500000E+00  0.5000000E-01  0.1200000E-01
    1       -1.164715   1.000000
    2       -0.852343   1.000000
    3        2.908429   1.000000
    4        3.572830   1.000000
    5        4.036119   1.000000
    6        6.462578  -0.000126
    7       13.322253   0.000000
    8       16.020420   0.000000
    9       16.856015   0.000000
   10       24.342269   0.000000
   11       26.350443   0.000000
   12       34.854115   0.000000
 
 -0.2500000E+00 -0.4500000E+00  0.5000000E-01  0.1200000E-01
    1       -0.817334   1.000000
    2       -0.177681   1.000000
    3        1.511651   1.000000
    4        2.655795   1.000000
    5        3.959978   1.000000
    6        6.388028  -0.000828
    7       12.763708   0.000000
    8       17.398633   0.000000
    9       18.646591   0.000000
   10       24.109790   0.000000
   11       28.885330   0.000000
   12       33.082461   0.000000
 
 -0.1500000E+00 -0.4500000E+00  0.5000000E-01  0.1200000E-01
    1       -0.987259   1.000000
    2        0.590013   1.000000
    3        1.352337   1.000000
    4        1.778553   1.000000
    5        3.893371   1.000000
    6        6.094284  -0.032870
    7       11.145464  -0.000000
    8       20.022285   0.000000
    9       20.462566   0.000000
   10       23.298137   0.000000
   11       31.230515   0.000000
   12       32.908494   0.000000
 
 -0.3500000E+00 -0.3500000E+00  0.5000000E-01  0.6000000E-02
    1       -1.210089   1.000000
    2       -0.818721   1.000000
    3        3.082924   1.000000
    4        3.404813   1.000000
    5        3.818266   1.000000
    6        4.342914   1.000000
    7       15.889521   0.000000
    8       17.474760   0.000000
    9       17.687090   0.000000
   10       23.304071   0.000000
   11       25.578144   0.000000
   12       35.889084   0.000000
 
 -0.2500000E+00 -0.3500000E+00  0.5000000E-01  0.1200000E-01
    1       -1.030213   1.000000
    2       -0.461094   1.000000
    3        1.710207   1.000000
    4        2.870322   1.000000
    5        3.453735   1.000000
    6        4.215295   1.000000
    7       16.617794   0.000000
    8       18.590826   0.000000
    9       19.513003   0.000000
   10       24.153284   0.000000
   11       25.810969   0.000000
   12       33.588718   0.000000
 
 -0.1500000E+00 -0.3500000E+00  0.5000000E-01  0.1200000E-01
    1       -1.155810   1.000000
    2        0.324984   1.000000
    3        0.996761   1.000000
    4        1.951069   1.000000
    5        3.416636   1.000000
    6        4.206577   1.000000
    7       15.038351   0.000000
    8       20.531027   0.000000
    9       21.585960   0.000000
   10       24.123908   0.000000
   11       28.961733   0.000000
   12       31.603061   0.000000
 
 -0.2500000E+00 -0.2500000E+00  0.5000000E-01  0.6000000E-02
    1       -1.492282   1.000000
    2       -0.280903   1.000000
    3        1.720841   1.000000
    4        2.510124   1.000000
    5        2.764685   1.000000
    6        3.383902   1.000000
    7       19.452808   0.000000
    8       20.346917   0.000000
    9       21.543336   0.000000
   10       23.314470   0.000000
   11       24.522653   0.000000
   12       33.556722   0.000000
 
 -0.1500000E+00 -0.2500000E+00  0.5000000E-01  0.1200000E-01
    1       -1.972463   1.000000
    2        0.116438   1.000000
    3        1.393044   1.000000
    4        2.020842   1.000000
    5        2.462819   1.000000
    6        3.319963   1.000000
    7       19.184872   0.000000
    8       21.227356   0.000000
    9       23.326658   0.000000
   10       24.436550   0.000000
   11       26.533748   0.000000
   12       31.432346   0.000000
 
 -0.1500000E+00 -0.1500000E+00  0.5000000E-01  0.6000000E-02
    1       -2.883315   1.000000
    2        0.377324   1.000000
    3        1.628195   1.000000
    4        1.683650   1.000000
    5        2.068082   1.000000
    6        2.975582   1.000000
    7       21.691020   0.000000
    8       22.760849   0.000000
    9       23.309032   0.000000
   10       24.266366   0.000000
   11       27.782153   0.000000
   12       31.756085   0.000000
 
  0.1500000E+00  0.1500000E+00  0.1500000E+00  0.2000000E-02
    1       -3.542278   1.000000
    2        0.832944   1.000000
    3        1.269539   1.000000
    4        1.269539   1.000000
    5        2.591030   1.000000
    6        2.591030   1.000000
    7       21.074731   0.000000
    8       22.267065   0.000000
    9       25.975918   0.000000
   10       25.975918   0.000000
   11       29.259156   0.000000
   12       31.725092   0.000000
 
  0.2500000E+00  0.1500000E+00  0.1500000E+00  0.6000000E-02
    1       -2.906304   1.000000
    2        0.619042   1.000000
    3        1.400247   1.000000
    4        1.482549   1.000000
    5        2.264172   1.000000
    6        2.988511   1.000000
    7       20.014305   0.000000
    8       21.800750   0.000000
    9       24.639294   0.000000
   10       26.892475   0.000000
   11       28.021960   0.000000
   12       31.216102   0.000000
 
  0.3500000E+00  0.1500000E+00  0.1500000E+00  0.6000000E-02
    1       -1.836959   1.000000
    2        0.455874   1.000000
    3        1.286497   1.000000
    4        1.776634   1.000000
    5        2.168625   1.000000
    6        3.755024   1.000000
    7       17.550359   0.000000
    8       20.143636   0.000000
    9       24.282382   0.000000
   10       26.038239   0.000000
   11       28.538807   0.000000
   12       30.516603   0.000000
 
  0.4500000E+00  0.1500000E+00  0.1500000E+00  0.6000000E-02
    1       -1.160701   1.000000
    2        0.852740   1.000000
    3        1.230036   1.000000
    4        1.564636   1.000000
    5        2.870061   1.000000
    6        4.849855   1.000000
    7       13.683620   0.000000
    8       19.494139   0.000000
    9       22.675389   0.000000
   10       25.601012   0.000000
   11       28.492727   0.000000
   12       31.655871   0.000000
 
 -0.4500000E+00  0.1500000E+00  0.1500000E+00  0.6000000E-02
    1       -1.133103   1.000000
    2        0.705177   1.000000
    3        1.449612   1.000000
    4        2.092101   1.000000
    5        3.588599   1.000000
    6        6.454629  -0.000156
    7       10.086869  -0.000000
    8       19.502903   0.000000
    9       22.021843   0.000000
   10       23.225483   0.000000
   11       30.836208   0.000000
   12       31.903490   0.000000
 
 -0.3500000E+00  0.1500000E+00  0.1500000E+00  0.6000000E-02
    1       -1.173408   1.000000
    2        0.676012   1.000000
    3        1.500057   1.000000
    4        1.916679   1.000000
    5        3.952146   1.000000
    6        6.417794  -0.000405
    7        9.913603  -0.000000
    8       20.223019   0.000000
    9       21.917578   0.000000
   10       22.292957   0.000000
   11       31.855860   0.000000
   12       32.092445   0.000000
 
 -0.2500000E+00  0.1500000E+00  0.1500000E+00  0.6000000E-02
    1       -1.252179   1.000000
    2        0.777033   1.000000
    3        1.018242   1.000000
    4        1.669966   1.000000
    5        3.796441   1.000000
    6        4.291408   1.000000
    7       13.547151   0.000000
    8       21.375617   0.000000
    9       21.766334   0.000000
   10       23.341294   0.000000
   11       30.778109   0.000000
   12       31.729688   0.000000
 
 -0.1500000E+00  0.1500000E+00  0.1500000E+00  0.6000000E-02
    1       -1.865256   1.000000
    2        0.249948   1.000000
    3        1.293701   1.000000
    4        1.808705   1.000000
    5        2.828889   1.000000
    6        3.325079   1.000000
    7       17.715077   0.000000
    8       22.388934   0.000000
    9       22.569479   0.000000
   10       24.530825   0.000000
   11       27.643751   0.000000
   12       31.680402   0.000000
 
  0.2500000E+00  0.2500000E+00  0.1500000E+00  0.6000000E-02
    1       -2.539015   1.000000
    2        0.504268   1.000000
    3        1.419685   1.000000
    4        1.558668   1.000000
    5        2.455088   1.000000
    6        3.040677   1.000000
    7       18.866872   0.000000
    8       22.568641   0.000000
    9       23.903034   0.000000
   10       26.078681   0.000000
   11       27.985565   0.000000
   12       31.063497   0.000000
 
  0.3500000E+00  0.2500000E+00  0.1500000E+00  0.1200000E-01
    1       -1.664915   1.000000
    2        0.239266   1.000000
    3        1.190156   1.000000
    4        1.989819   1.000000
    5        2.436878   1.000000
    6        3.733587   1.000000
    7       17.692473   0.000000
    8       20.172412   0.000000
    9       23.406472   0.000000
   10       25.404104   0.000000
   11       28.119571   0.000000
   12       30.448888   0.000000
 
  0.4500000E+00  0.2500000E+00  0.1500000E+00  0.1200000E-01
    1       -0.724922   1.000000
    2        0.262889   1.000000
    3        0.782133   1.000000
    4        2.225052   1.000000
    5        2.758900   1.000000
    6        4.946584   1.000000
    7       15.249708   0.000000
    8       17.916204   0.000000
    9       21.914403   0.000000
   10       26.177857   0.000000
   11       27.651475   0.000000
   12       32.094594   0.000000
 
 -0.4500000E+00  0.2500000E+00  0.1500000E+00  0.1200000E-01
    1       -0.591923   1.000000
    2        0.442527   1.000000
    3        1.098313   1.000000
    4        2.019752   1.000000
    5        3.482599   1.000000
    6        6.646502  -0.000000
    7       11.643691   0.000000
    8       17.660174   0.000000
    9       20.523548   0.000000
   10       24.663096   0.000000
   11       29.755904   0.000000
   12       33.427681   0.000000
 
 -0.3500000E+00  0.2500000E+00  0.1500000E+00  0.1200000E-01
    1       -0.663716   1.000000
    2        0.347984   1.000000
    3        1.444735   1.000000
    4        1.951061   1.000000
    5        3.788160   1.000000
    6        8.330384  -0.000000
    7        9.306540  -0.000000
    8       18.288104   0.000000
    9       19.478628   0.000000
   10       24.140590   0.000000
   11       30.680806   0.000000
   12       33.900475   0.000000
 
 -0.2500000E+00  0.2500000E+00  0.1500000E+00  0.1200000E-01
    1       -0.713760   1.000000
    2        0.442593   1.000000
    3        0.857750   1.000000
    4        2.152633   1.000000
    5        3.613128   1.000000
    6        5.883282   0.457802
    7       12.658072   0.000000
    8       18.540285   0.000000
    9       20.083783   0.000000
   10       24.633260   0.000000
   11       29.709325   0.000000
   12       32.528882   0.000000
 
 -0.1500000E+00  0.2500000E+00  0.1500000E+00  0.1200000E-01
    1       -1.048565   1.000000
    2        0.001538   1.000000
    3        1.011199   1.000000
    4        2.356339   1.000000
    5        2.862550   1.000000
    6        4.266379   1.000000
    7       16.519946   0.000000
    8       19.011581   0.000000
    9       21.684796   0.000000
   10       25.419109   0.000000
   11       27.224679   0.000000