       N       E                     dE             d eps       ncg     rms          rms(c)
DAV:   1     0.293723838552E+02    0.29372E+02   -0.35586E+03  3284   0.430E+02
DAV:   2    -0.438686744502E+01   -0.33759E+02   -0.31685E+02  3020   0.142E+02
DAV:   3    -0.471275984992E+01   -0.32589E+00   -0.32562E+00  3172   0.143E+01
DAV:   4    -0.471363217573E+01   -0.87233E-03   -0.87229E-03  3176   0.775E-01
DAV:   5    -0.471363814757E+01   -0.59718E-05   -0.59708E-05  2896   0.628E-02    0.318E+00
DAV:   6    -0.442148431684E+01    0.29215E+00   -0.76790E-01  3136   0.859E+00    0.833E-01
DAV:   7    -0.439622927994E+01    0.25255E-01   -0.52918E-02  3164   0.190E+00    0.276E-01
DAV:   8    -0.439124079684E+01    0.49885E-02   -0.17896E-03  3004   0.451E-01    0.969E-03
DAV:   9    -0.439123902492E+01    0.17719E-05   -0.85887E-06  1816   0.214E-02
   1 F= -.43912390E+01 E0= -.43915339E+01  d E =0.884561E-03
