 vasp.5.4.4.18Apr17-6-g9f103f2a35 (build May 18 2018 14:42:58) complex          
  
 executed on             LinuxIFC date 2020.06.30  13:40:51
 running on    4 total cores
 distrk:  each k-point on    4 cores,    1 groups
 distr:  one band on NCORES_PER_BAND=   1 cores,    4 groups


--------------------------------------------------------------------------------------------------------


 INCAR:
 POTCAR:   PAW Au 04Feb1998                       
 POTCAR:   PAW Au 04Feb1998                       
   VRHFIN =Au: s1d10                                                            
   LEXCH  = CA                                                                  
   EATOM  =   929.4667 eV,   68.3139 Ry                                         
                                                                                
   TITEL  = PAW Au 04Feb1998                                                    
   LULTRA =        F    use ultrasoft PP ?                                      
   IUNSCR =        1    unscreen: 0-lin 1-nonlin 2-no                           
   RPACOR =    2.330    partial core radius                                     
   POMASS =  196.966; ZVAL   =   11.000    mass and valenz                      
   RCORE  =    2.500    outmost cutoff radius                                   
   RWIGS  =    2.840; RWIGS  =    1.503    wigner-seitz radius (au A)           
   ENMAX  =  229.869; ENMIN  =  172.402 eV                                      
   RCLOC  =    1.964    cutoff for local pot                                    
   LCOR   =        T    correct aug charges                                     
   LPAW   =        T    paw PP                                                  
   EAUG   =  356.670                                                            
   DEXC   =    -.020                                                            
   RMAX   =    3.041    core radius for proj-oper                               
   RDEP   =    2.598    core radius for depl-charge                             
   QCUT   =   -4.110; QGAM   =    8.221    optimization parameters              
                                                                                
   Description                                                                  
     l     E      TYP  RCUT    TYP  RCUT                                        
     2   .000     23  2.500                                                     
     2   .000     23  2.500                                                     
     0   .000     23  2.500                                                     
     0   .000     23  2.500                                                     
     1  -.200     23  2.500                                                     
     1   .000     23  2.500                                                     
     3   .000      7   .000                                                     
  local pseudopotential read in
  partial core-charges read in
  atomic valenz-charges read in
  non local Contribution for L=           2  read in
    real space projection operators read in
  non local Contribution for L=           2  read in
    real space projection operators read in
  non local Contribution for L=           0  read in
    real space projection operators read in
  non local Contribution for L=           0  read in
    real space projection operators read in
  non local Contribution for L=           1  read in
    real space projection operators read in
  non local Contribution for L=           1  read in
    real space projection operators read in
    PAW grid and wavefunctions read in
 
   number of l-projection  operators is LMAX  =           6
   number of lm-projection operators is LMMAX =          18
 
 PAW Au 04Feb1998                       :
 energy of atom  1       EATOM= -929.4667
 kinetic energy error for atom=    0.0706 (will be added to EATOM!!)
 
 
 POSCAR: FCC Au Bulk                             
  positions in direct lattice
  No initial velocities read in
 exchange correlation table for  LEXCH =        2
   RHO(1)=    0.500       N(1)  =     2000
   RHO(2)=  100.500       N(2)  =     4000
 


--------------------------------------------------------------------------------------------------------


 ion  position               nearest neighbor table
   1  0.000  0.000  0.000-
 
  LATTYP: Found a face centered cubic cell.
 ALAT       =     4.0500000000
  
  Lattice vectors:
  
 A1 = (   0.0000000000,   2.0250000000,   2.0250000000)
 A2 = (   2.0250000000,   0.0000000000,   2.0250000000)
 A3 = (   2.0250000000,   2.0250000000,   0.0000000000)


Analysis of symmetry for initial positions (statically):
=====================================================================
 Subroutine PRICEL returns:
 Original cell was already a primitive cell.
 

 Routine SETGRP: Setting up the symmetry group for a 
 face centered cubic supercell.


 Subroutine GETGRP returns: Found 48 space group operations
 (whereof 48 operations were pure point group operations)
 out of a pool of 48 trial point group operations.


The static configuration has the point symmetry O_h .


Analysis of symmetry for dynamics (positions and initial velocities):
=====================================================================
 Subroutine PRICEL returns:
 Original cell was already a primitive cell.
 

 Routine SETGRP: Setting up the symmetry group for a 
 face centered cubic supercell.


 Subroutine GETGRP returns: Found 48 space group operations
 (whereof 48 operations were pure point group operations)
 out of a pool of 48 trial point group operations.


The dynamic configuration has the point symmetry O_h .


 Subroutine INISYM returns: Found 48 space group operations
 (whereof 48 operations are pure point group operations),
 and found     1 'primitive' translations

 
 
 KPOINTS: 10x10x10                                

Automatic generation of k-mesh.
Space group operators:
 irot       det(A)        alpha          n_x          n_y          n_z        tau_x        tau_y        tau_z
    1     1.000000     0.000001     1.000000     0.000000     0.000000     0.000000     0.000000     0.000000
    2    -1.000000     0.000001     1.000000     0.000000     0.000000     0.000000     0.000000     0.000000
    3     1.000000   120.000000    -0.577350    -0.577350    -0.577350     0.000000     0.000000     0.000000
    4    -1.000000   120.000000    -0.577350    -0.577350    -0.577350     0.000000     0.000000     0.000000
    5     1.000000   120.000000     0.577350     0.577350     0.577350     0.000000     0.000000     0.000000
    6    -1.000000   120.000000     0.577350     0.577350     0.577350     0.000000     0.000000     0.000000
    7     1.000000    90.000000     0.000000     0.000000    -1.000000     0.000000     0.000000     0.000000
    8    -1.000000    90.000000     0.000000     0.000000    -1.000000     0.000000     0.000000     0.000000
    9     1.000000   180.000000     0.000000     0.707107     0.707107     0.000000     0.000000     0.000000
   10    -1.000000   180.000000     0.000000     0.707107     0.707107     0.000000     0.000000     0.000000
   11     1.000000    90.000000     0.000000     1.000000     0.000000     0.000000     0.000000     0.000000
   12    -1.000000    90.000000     0.000000     1.000000     0.000000     0.000000     0.000000     0.000000
   13     1.000000   180.000000     0.000000     0.000000     1.000000     0.000000     0.000000     0.000000
   14    -1.000000   180.000000     0.000000     0.000000     1.000000     0.000000     0.000000     0.000000
   15     1.000000   120.000000    -0.577350     0.577350     0.577350     0.000000     0.000000     0.000000
   16    -1.000000   120.000000    -0.577350     0.577350     0.577350     0.000000     0.000000     0.000000
   17     1.000000   120.000000    -0.577350     0.577350    -0.577350     0.000000     0.000000     0.000000
   18    -1.000000   120.000000    -0.577350     0.577350    -0.577350     0.000000     0.000000     0.000000
   19     1.000000    90.000000     0.000000     0.000000     1.000000     0.000000     0.000000     0.000000
   20    -1.000000    90.000000     0.000000     0.000000     1.000000     0.000000     0.000000     0.000000
   21     1.000000    90.000000    -1.000000     0.000000     0.000000     0.000000     0.000000     0.000000
   22    -1.000000    90.000000    -1.000000     0.000000     0.000000     0.000000     0.000000     0.000000
   23     1.000000   180.000000     0.707107     0.000000     0.707107     0.000000     0.000000     0.000000
   24    -1.000000   180.000000     0.707107     0.000000     0.707107     0.000000     0.000000     0.000000
   25     1.000000   120.000000     0.577350    -0.577350     0.577350     0.000000     0.000000     0.000000
   26    -1.000000   120.000000     0.577350    -0.577350     0.577350     0.000000     0.000000     0.000000
   27     1.000000   120.000000    -0.577350    -0.577350     0.577350     0.000000     0.000000     0.000000
   28    -1.000000   120.000000    -0.577350    -0.577350     0.577350     0.000000     0.000000     0.000000
   29     1.000000   180.000000     1.000000     0.000000     0.000000     0.000000     0.000000     0.000000
   30    -1.000000   180.000000     1.000000     0.000000     0.000000     0.000000     0.000000     0.000000
   31     1.000000    90.000000     0.000000    -1.000000     0.000000     0.000000     0.000000     0.000000
   32    -1.000000    90.000000     0.000000    -1.000000     0.000000     0.000000     0.000000     0.000000
   33     1.000000   180.000000     0.707107     0.707107     0.000000     0.000000     0.000000     0.000000
   34    -1.000000   180.000000     0.707107     0.707107     0.000000     0.000000     0.000000     0.000000
   35     1.000000    90.000000     1.000000     0.000000     0.000000     0.000000     0.000000     0.000000
   36    -1.000000    90.000000     1.000000     0.000000     0.000000     0.000000     0.000000     0.000000
   37     1.000000   120.000000     0.577350    -0.577350    -0.577350     0.000000     0.000000     0.000000
   38    -1.000000   120.000000     0.577350    -0.577350    -0.577350     0.000000     0.000000     0.000000
   39     1.000000   180.000000     0.000000     1.000000     0.000000     0.000000     0.000000     0.000000
   40    -1.000000   180.000000     0.000000     1.000000     0.000000     0.000000     0.000000     0.000000
   41     1.000000   120.000000     0.577350     0.577350    -0.577350     0.000000     0.000000     0.000000
   42    -1.000000   120.000000     0.577350     0.577350    -0.577350     0.000000     0.000000     0.000000
   43     1.000000   180.000000     0.000000    -0.707107     0.707107     0.000000     0.000000     0.000000
   44    -1.000000   180.000000     0.000000    -0.707107     0.707107     0.000000     0.000000     0.000000
   45     1.000000   180.000000     0.707107    -0.707107     0.000000     0.000000     0.000000     0.000000
   46    -1.000000   180.000000     0.707107    -0.707107     0.000000     0.000000     0.000000     0.000000
   47     1.000000   180.000000     0.707107     0.000000    -0.707107     0.000000     0.000000     0.000000
   48    -1.000000   180.000000     0.707107     0.000000    -0.707107     0.000000     0.000000     0.000000
 
 Subroutine IBZKPT returns following result:
 ===========================================
 
 Found    110 irreducible k-points:
 
 Following reciprocal coordinates:
            Coordinates               Weight
  0.050000  0.050000  0.050000     96.000000
  0.150000  0.050000  0.050000    288.000000
  0.250000  0.050000  0.050000    288.000000
  0.350000  0.050000  0.050000    288.000000
  0.450000  0.050000  0.050000    288.000000
 -0.450000  0.050000  0.050000    288.000000
 -0.350000  0.050000  0.050000    288.000000
 -0.250000  0.050000  0.050000    288.000000
 -0.150000  0.050000  0.050000    288.000000
 -0.050000  0.050000  0.050000    288.000000
  0.150000  0.150000  0.050000    288.000000
  0.250000  0.150000  0.050000    576.000000
  0.350000  0.150000  0.050000    576.000000
  0.450000  0.150000  0.050000    576.000000
 -0.450000  0.150000  0.050000    576.000000
 -0.350000  0.150000  0.050000    576.000000
 -0.250000  0.150000  0.050000    576.000000
 -0.150000  0.150000  0.050000    576.000000
 -0.050000  0.150000  0.050000    576.000000
  0.250000  0.250000  0.050000    288.000000
  0.350000  0.250000  0.050000    576.000000
  0.450000  0.250000  0.050000    576.000000
 -0.450000  0.250000  0.050000    576.000000
 -0.350000  0.250000  0.050000    576.000000
 -0.250000  0.250000  0.050000    576.000000
 -0.150000  0.250000  0.050000    576.000000
 -0.050000  0.250000  0.050000    576.000000
  0.350000  0.350000  0.050000    288.000000
  0.450000  0.350000  0.050000    576.000000
 -0.450000  0.350000  0.050000    576.000000
 -0.350000  0.350000  0.050000    576.000000
 -0.250000  0.350000  0.050000    576.000000
 -0.150000  0.350000  0.050000    576.000000
 -0.050000  0.350000  0.050000    576.000000
  0.450000  0.450000  0.050000    288.000000
 -0.450000  0.450000  0.050000    576.000000
 -0.350000  0.450000  0.050000    576.000000
 -0.250000  0.450000  0.050000    576.000000
 -0.150000  0.450000  0.050000    576.000000
 -0.050000  0.450000  0.050000    576.000000
 -0.450000 -0.450000  0.050000    288.000000
 -0.350000 -0.450000  0.050000    576.000000
 -0.250000 -0.450000  0.050000    576.000000
 -0.150000 -0.450000  0.050000    576.000000
 -0.350000 -0.350000  0.050000    288.000000
 -0.250000 -0.350000  0.050000    576.000000
 -0.150000 -0.350000  0.050000    576.000000
 -0.250000 -0.250000  0.050000    288.000000
 -0.150000 -0.250000  0.050000    576.000000
 -0.150000 -0.150000  0.050000    288.000000
  0.150000  0.150000  0.150000     96.000000
  0.250000  0.150000  0.150000    288.000000
  0.350000  0.150000  0.150000    288.000000
  0.450000  0.150000  0.150000    288.000000
 -0.450000  0.150000  0.150000    288.000000
 -0.350000  0.150000  0.150000    288.000000
 -0.250000  0.150000  0.150000    288.000000
 -0.150000  0.150000  0.150000    288.000000
  0.250000  0.250000  0.150000    288.000000
  0.350000  0.250000  0.150000    576.000000
  0.450000  0.250000  0.150000    576.000000
 -0.450000  0.250000  0.150000    576.000000
 -0.350000  0.250000  0.150000    576.000000
 -0.250000  0.250000  0.150000    576.000000
 -0.150000  0.250000  0.150000    576.000000
  0.350000  0.350000  0.150000    288.000000
  0.450000  0.350000  0.150000    576.000000
 -0.450000  0.350000  0.150000    576.000000
 -0.350000  0.350000  0.150000    576.000000
 -0.250000  0.350000  0.150000    576.000000
 -0.150000  0.350000  0.150000    576.000000
  0.450000  0.450000  0.150000    288.000000
 -0.450000  0.450000  0.150000    576.000000
 -0.350000  0.450000  0.150000    576.000000
 -0.250000  0.450000  0.150000    576.000000
 -0.150000  0.450000  0.150000    576.000000
 -0.450000 -0.450000  0.150000    288.000000
 -0.350000 -0.450000  0.150000    576.000000
 -0.250000 -0.450000  0.150000    576.000000
 -0.350000 -0.350000  0.150000    288.000000
 -0.250000 -0.350000  0.150000    576.000000
 -0.250000 -0.250000  0.150000    288.000000
  0.250000  0.250000  0.250000     96.000000
  0.350000  0.250000  0.250000    288.000000
  0.450000  0.250000  0.250000    288.000000
 -0.450000  0.250000  0.250000    288.000000
 -0.350000  0.250000  0.250000    288.000000
 -0.250000  0.250000  0.250000    288.000000
  0.350000  0.350000  0.250000    288.000000
  0.450000  0.350000  0.250000    576.000000
 -0.450000  0.350000  0.250000    576.000000
 -0.350000  0.350000  0.250000    576.000000
 -0.250000  0.350000  0.250000    576.000000
  0.450000  0.450000  0.250000    288.000000
 -0.450000  0.450000  0.250000    576.000000
 -0.350000  0.450000  0.250000    576.000000
 -0.250000  0.450000  0.250000    576.000000
 -0.450000 -0.450000  0.250000    288.000000
 -0.350000 -0.450000  0.250000    576.000000
 -0.350000 -0.350000  0.250000    288.000000
  0.350000  0.350000  0.350000     96.000000
  0.450000  0.350000  0.350000    288.000000
 -0.450000  0.350000  0.350000    288.000000
 -0.350000  0.350000  0.350000    288.000000
  0.450000  0.450000  0.350000    288.000000
 -0.450000  0.450000  0.350000    576.000000
 -0.350000  0.450000  0.350000    576.000000
 -0.450000 -0.450000  0.350000    288.000000
  0.450000  0.450000  0.450000     96.000000
 -0.450000  0.450000  0.450000    288.000000
 
 Following cartesian coordinates:
            Coordinates               Weight
  0.050000  0.050000  0.050000     96.000000
 -0.050000  0.150000  0.150000    288.000000
 -0.150000  0.250000  0.250000    288.000000
 -0.250000  0.350000  0.350000    288.000000
 -0.350000  0.450000  0.450000    288.000000
  0.550000 -0.450000 -0.450000    288.000000
  0.450000 -0.350000 -0.350000    288.000000
  0.350000 -0.250000 -0.250000    288.000000
  0.250000 -0.150000 -0.150000    288.000000
  0.150000 -0.050000 -0.050000    288.000000
  0.050000  0.050000  0.250000    288.000000
 -0.050000  0.150000  0.350000    576.000000
 -0.150000  0.250000  0.450000    576.000000
 -0.250000  0.350000  0.550000    576.000000
  0.650000 -0.550000 -0.350000    576.000000
  0.550000 -0.450000 -0.250000    576.000000
  0.450000 -0.350000 -0.150000    576.000000
  0.350000 -0.250000 -0.050000    576.000000
  0.250000 -0.150000  0.050000    576.000000
  0.050000  0.050000  0.450000    288.000000
 -0.050000  0.150000  0.550000    576.000000
 -0.150000  0.250000  0.650000    576.000000
  0.750000 -0.650000 -0.250000    576.000000
  0.650000 -0.550000 -0.150000    576.000000
  0.550000 -0.450000 -0.050000    576.000000
  0.450000 -0.350000  0.050000    576.000000
  0.350000 -0.250000  0.150000    576.000000
  0.050000  0.050000  0.650000    288.000000
 -0.050000  0.150000  0.750000    576.000000
  0.850000 -0.750000 -0.150000    576.000000
  0.750000 -0.650000 -0.050000    576.000000
  0.650000 -0.550000  0.050000    576.000000
  0.550000 -0.450000  0.150000    576.000000
  0.450000 -0.350000  0.250000    576.000000
  0.050000  0.050000  0.850000    288.000000
  0.950000 -0.850000 -0.050000    576.000000
  0.850000 -0.750000  0.050000    576.000000
  0.750000 -0.650000  0.150000    576.000000
  0.650000 -0.550000  0.250000    576.000000
  0.550000 -0.450000  0.350000    576.000000
  0.050000  0.050000 -0.950000    288.000000
 -0.050000  0.150000 -0.850000    576.000000
 -0.150000  0.250000 -0.750000    576.000000
 -0.250000  0.350000 -0.650000    576.000000
  0.050000  0.050000 -0.750000    288.000000
 -0.050000  0.150000 -0.650000    576.000000
 -0.150000  0.250000 -0.550000    576.000000
  0.050000  0.050000 -0.550000    288.000000
 -0.050000  0.150000 -0.450000    576.000000
  0.050000  0.050000 -0.350000    288.000000
  0.150000  0.150000  0.150000     96.000000
  0.050000  0.250000  0.250000    288.000000
 -0.050000  0.350000  0.350000    288.000000
 -0.150000  0.450000  0.450000    288.000000
  0.750000 -0.450000 -0.450000    288.000000
  0.650000 -0.350000 -0.350000    288.000000
  0.550000 -0.250000 -0.250000    288.000000
  0.450000 -0.150000 -0.150000    288.000000
  0.150000  0.150000  0.350000    288.000000
  0.050000  0.250000  0.450000    576.000000
 -0.050000  0.350000  0.550000    576.000000
  0.850000 -0.550000 -0.350000    576.000000
  0.750000 -0.450000 -0.250000    576.000000
  0.650000 -0.350000 -0.150000    576.000000
  0.550000 -0.250000 -0.050000    576.000000
  0.150000  0.150000  0.550000    288.000000
  0.050000  0.250000  0.650000    576.000000
  0.950000 -0.650000 -0.250000    576.000000
  0.850000 -0.550000 -0.150000    576.000000
  0.750000 -0.450000 -0.050000    576.000000
  0.650000 -0.350000  0.050000    576.000000
  0.150000  0.150000  0.750000    288.000000
  1.050000 -0.750000 -0.150000    576.000000
  0.950000 -0.650000 -0.050000    576.000000
  0.850000 -0.550000  0.050000    576.000000
  0.750000 -0.450000  0.150000    576.000000
  0.150000  0.150000 -1.050000    288.000000
  0.050000  0.250000 -0.950000    576.000000
 -0.050000  0.350000 -0.850000    576.000000
  0.150000  0.150000 -0.850000    288.000000
  0.050000  0.250000 -0.750000    576.000000
  0.150000  0.150000 -0.650000    288.000000
  0.250000  0.250000  0.250000     96.000000
  0.150000  0.350000  0.350000    288.000000
  0.050000  0.450000  0.450000    288.000000
  0.950000 -0.450000 -0.450000    288.000000
  0.850000 -0.350000 -0.350000    288.000000
  0.750000 -0.250000 -0.250000    288.000000
  0.250000  0.250000  0.450000    288.000000
  0.150000  0.350000  0.550000    576.000000
  1.050000 -0.550000 -0.350000    576.000000
  0.950000 -0.450000 -0.250000    576.000000
  0.850000 -0.350000 -0.150000    576.000000
  0.250000  0.250000  0.650000    288.000000
  1.150000 -0.650000 -0.250000    576.000000
  1.050000 -0.550000 -0.150000    576.000000
  0.950000 -0.450000 -0.050000    576.000000
  0.250000  0.250000 -1.150000    288.000000
  0.150000  0.350000 -1.050000    576.000000
  0.250000  0.250000 -0.950000    288.000000
  0.350000  0.350000  0.350000     96.000000
  0.250000  0.450000  0.450000    288.000000
  1.150000 -0.450000 -0.450000    288.000000
  1.050000 -0.350000 -0.350000    288.000000
  0.350000  0.350000  0.550000    288.000000
  1.250000 -0.550000 -0.350000    576.000000
  1.150000 -0.450000 -0.250000    576.000000
  0.350000  0.350000 -1.250000    288.000000
  0.450000  0.450000  0.450000     96.000000
  1.350000 -0.450000 -0.450000    288.000000
 


--------------------------------------------------------------------------------------------------------




 Dimension of arrays:
   k-points           NKPTS =    110   k-points in BZ     NKDIM =    110   number of bands    NBANDS=     12
   number of dos      NEDOS =    301   number of ions     NIONS =      1
   non local maximal  LDIM  =      6   non local SUM 2l+1 LMDIM =     18
   total plane-waves  NPLWV =   1728
   max r-space proj   IRMAX =      1   max aug-charges    IRDMAX=   6562
   dimension x,y,z NGX =    12 NGY =   12 NGZ =   12
   dimension x,y,z NGXF=    24 NGYF=   24 NGZF=   24
   support grid    NGXF=    24 NGYF=   24 NGZF=   24
   ions per type =               1
   NGX,Y,Z   is equivalent  to a cutoff of   6.97,  6.97,  6.97 a.u.
   NGXF,Y,Z  is equivalent  to a cutoff of  13.93, 13.93, 13.93 a.u.

 SYSTEM =  fcc Au                                  
 POSCAR =  FCC Au Bulk                             

 Startparameter for this run:
   NWRITE =      2    write-flag & timer
   PREC   = normal    normal or accurate (medium, high low for compatibility)
   ISTART =      0    job   : 0-new  1-cont  2-samecut
   ICHARG =      2    charge: 1-file 2-atom 10-const
   ISPIN  =      1    spin polarized calculation?
   LNONCOLLINEAR =      F non collinear calculations
   LSORBIT =      F    spin-orbit coupling
   INIWAV =      1    electr: 0-lowe 1-rand  2-diag
   LASPH  =      F    aspherical Exc in radial PAW
   METAGGA=      F    non-selfconsistent MetaGGA calc.

 Electronic Relaxation 1
   ENCUT  =  229.9 eV  16.89 Ry    4.11 a.u.   3.54  3.54  3.54*2*pi/ulx,y,z
   ENINI  =  229.9     initial cutoff
   ENAUG  =  356.7 eV  augmentation charge cutoff
   NELM   =     60;   NELMIN=  2; NELMDL= -5     # of ELM steps 
   EDIFF  = 0.1E-03   stopping-criterion for ELM
   LREAL  =      F    real-space projection
   NLSPLINE    = F    spline interpolate recip. space projectors
   LCOMPAT=      F    compatible to vasp.4.4
   GGA_COMPAT  = T    GGA compatible to vasp.4.4-vasp.4.6
   LMAXPAW     = -100 max onsite density
   LMAXMIX     =    2 max onsite mixed and CHGCAR
   VOSKOWN=      0    Vosko Wilk Nusair interpolation
   ROPT   =    0.00000
 Ionic relaxation
   EDIFFG = 0.1E-02   stopping-criterion for IOM
   NSW    =      0    number of steps for IOM
   NBLOCK =      1;   KBLOCK =      1    inner block; outer block 
   IBRION =     -1    ionic relax: 0-MD 1-quasi-New 2-CG
   NFREE  =      0    steps in history (QN), initial steepest desc. (CG)
   ISIF   =      2    stress and relaxation
   IWAVPR =     10    prediction:  0-non 1-charg 2-wave 3-comb
   ISYM   =      2    0-nonsym 1-usesym 2-fastsym
   LCORR  =      T    Harris-Foulkes like correction to forces

   POTIM  = 0.5000    time-step for ionic-motion
   TEIN   =    0.0    initial temperature
   TEBEG  =    0.0;   TEEND  =   0.0 temperature during run
   SMASS  =  -3.00    Nose mass-parameter (am)
   estimated Nose-frequenzy (Omega)   =  0.10E-29 period in steps =****** mass=  -0.187E-27a.u.
   SCALEE = 1.0000    scale energy and forces
   NPACO  =    256;   APACO  = 16.0  distance and # of slots for P.C.
   PSTRESS=    0.0 pullay stress

  Mass of Ions in am
   POMASS = 196.97
  Ionic Valenz
   ZVAL   =  11.00
  Atomic Wigner-Seitz radii
   RWIGS  =   1.50
  virtual crystal weights 
   VCA    =   1.00
   NELECT =      11.0000    total number of electrons
   NUPDOWN=      -1.0000    fix difference up-down

 DOS related values:
   EMIN   =  10.00;   EMAX   =-10.00  energy-range for DOS
   EFERMI =   0.00
   ISMEAR =     1;   SIGMA  =   0.20  broadening in eV -4-tet -1-fermi 0-gaus

 Electronic relaxation 2 (details)
   IALGO  =     38    algorithm
   LDIAG  =      T    sub-space diagonalisation (order eigenvalues)
   LSUBROT=      F    optimize rotation matrix (better conditioning)
   TURBO    =      0    0=normal 1=particle mesh
   IRESTART =      0    0=no restart 2=restart with 2 vectors
   NREBOOT  =      0    no. of reboots
   NMIN     =      0    reboot dimension
   EREF     =   0.00    reference energy to select bands
   IMIX   =      4    mixing-type and parameters
     AMIX     =   0.40;   BMIX     =  1.00
     AMIX_MAG =   1.60;   BMIX_MAG =  1.00
     AMIN     =   0.10
     WC   =   100.;   INIMIX=   1;  MIXPRE=   1;  MAXMIX= -45

 Intra band minimization:
   WEIMIN = 0.0000     energy-eigenvalue tresh-hold
   EBREAK =  0.21E-05  absolut break condition
   DEPER  =   0.30     relativ break condition  

   TIME   =   0.40     timestep for ELM

  volume/ion in A,a.u.               =      16.61       112.07
  Fermi-wavevector in a.u.,A,eV,Ry     =   1.427044  2.696722 27.707647  2.036455
  Thomas-Fermi vector in A             =   2.547256
 
 Write flags
   LWAVE        =      T    write WAVECAR
   LDOWNSAMPLE  =      F    k-point downsampling of WAVECAR
   LCHARG       =      T    write CHGCAR
   LVTOT        =      F    write LOCPOT, total local potential
   LVHAR        =      F    write LOCPOT, Hartree potential only
   LELF         =      F    write electronic localiz. function (ELF)
   LORBIT       =      0    0 simple, 1 ext, 2 COOP (PROOUT), +10 PAW based schemes


 Dipole corrections
   LMONO  =      F    monopole corrections only (constant potential shift)
   LDIPOL =      F    correct potential (dipole corrections)
   IDIPOL =      0    1-x, 2-y, 3-z, 4-all directions 
   EPSILON=  1.0000000 bulk dielectric constant

 Exchange correlation treatment:
   GGA     =    --    GGA type
   LEXCH   =     2    internal setting for exchange type
   VOSKOWN=      0    Vosko Wilk Nusair interpolation
   LHFCALC =     F    Hartree Fock is set to
   LHFONE  =     F    Hartree Fock one center treatment
   AEXX    =    0.0000 exact exchange contribution

 Linear response parameters
   LEPSILON=     F    determine dielectric tensor
   LRPA    =     F    only Hartree local field effects (RPA)
   LNABLA  =     F    use nabla operator in PAW spheres
   LVEL    =     F    velocity operator in full k-point grid
   LINTERFAST=   F  fast interpolation
   KINTER  =     0    interpolate to denser k-point grid
   CSHIFT  =0.1000    complex shift for real part using Kramers Kronig
   OMEGAMAX=  -1.0    maximum frequency
   DEG_THRESHOLD= 0.2000000E-02 threshold for treating states as degnerate
   RTIME   =   -0.100 relaxation time in fs
  (WPLASMAI=    0.000 imaginary part of plasma frequency in eV, 0.658/RTIME)
   DFIELD  = 0.0000000 0.0000000 0.0000000 field for delta impulse in time
 
 Orbital magnetization related:
   ORBITALMAG=     F  switch on orbital magnetization
   LCHIMAG   =     F  perturbation theory with respect to B field
   DQ        =  0.001000  dq finite difference perturbation B field
   LLRAUG    =     F  two centre corrections for induced B field



--------------------------------------------------------------------------------------------------------


 Static calculation
 charge density and potential will be updated during run
 non-spin polarized calculation
 Variant of blocked Davidson
 Davidson routine will perform the subspace rotation
 perform sub-space diagonalisation
    after iterative eigenvector-optimisation
 modified Broyden-mixing scheme, WC =      100.0
 initial mixing is a Kerker type mixing with AMIX =  0.4000 and BMIX =      1.0000
 Hartree-type preconditioning will be used
 using additional bands            6
 reciprocal scheme for non local part
 use partial core corrections
 calculate Harris-corrections to forces 
   (improved forces if not selfconsistent)
 use of overlap-Matrix (Vanderbilt PP)
 Methfessel and Paxton  Order N= 1 SIGMA  =   0.20


--------------------------------------------------------------------------------------------------------


  energy-cutoff  :      229.87
  volume of cell :       16.61
      direct lattice vectors                 reciprocal lattice vectors
     0.000000000  2.025000000  2.025000000    -0.246913580  0.246913580  0.246913580
     2.025000000  0.000000000  2.025000000     0.246913580 -0.246913580  0.246913580
     2.025000000  2.025000000  0.000000000     0.246913580  0.246913580 -0.246913580

  length of vectors
     2.863782464  2.863782464  2.863782464     0.427666866  0.427666866  0.427666866


 
 k-points in units of 2pi/SCALE and weight: 10x10x10                                
   0.05000000  0.05000000  0.05000000       0.002
  -0.05000000  0.15000000  0.15000000       0.006
  -0.15000000  0.25000000  0.25000000       0.006
  -0.25000000  0.35000000  0.35000000       0.006
  -0.35000000  0.45000000  0.45000000       0.006
   0.55000000 -0.45000000 -0.45000000       0.006
   0.45000000 -0.35000000 -0.35000000       0.006
   0.35000000 -0.25000000 -0.25000000       0.006
   0.25000000 -0.15000000 -0.15000000       0.006
   0.15000000 -0.05000000 -0.05000000       0.006
   0.05000000  0.05000000  0.25000000       0.006
  -0.05000000  0.15000000  0.35000000       0.012
  -0.15000000  0.25000000  0.45000000       0.012
  -0.25000000  0.35000000  0.55000000       0.012
   0.65000000 -0.55000000 -0.35000000       0.012
   0.55000000 -0.45000000 -0.25000000       0.012
   0.45000000 -0.35000000 -0.15000000       0.012
   0.35000000 -0.25000000 -0.05000000       0.012
   0.25000000 -0.15000000  0.05000000       0.012
   0.05000000  0.05000000  0.45000000       0.006
  -0.05000000  0.15000000  0.55000000       0.012
  -0.15000000  0.25000000  0.65000000       0.012
   0.75000000 -0.65000000 -0.25000000       0.012
   0.65000000 -0.55000000 -0.15000000       0.012
   0.55000000 -0.45000000 -0.05000000       0.012
   0.45000000 -0.35000000  0.05000000       0.012
   0.35000000 -0.25000000  0.15000000       0.012
   0.05000000  0.05000000  0.65000000       0.006
  -0.05000000  0.15000000  0.75000000       0.012
   0.85000000 -0.75000000 -0.15000000       0.012
   0.75000000 -0.65000000 -0.05000000       0.012
   0.65000000 -0.55000000  0.05000000       0.012
   0.55000000 -0.45000000  0.15000000       0.012
   0.45000000 -0.35000000  0.25000000       0.012
   0.05000000  0.05000000  0.85000000       0.006
   0.95000000 -0.85000000 -0.05000000       0.012
   0.85000000 -0.75000000  0.05000000       0.012
   0.75000000 -0.65000000  0.15000000       0.012
   0.65000000 -0.55000000  0.25000000       0.012
   0.55000000 -0.45000000  0.35000000       0.012
   0.05000000  0.05000000 -0.95000000       0.006
  -0.05000000  0.15000000 -0.85000000       0.012
  -0.15000000  0.25000000 -0.75000000       0.012
  -0.25000000  0.35000000 -0.65000000       0.012
   0.05000000  0.05000000 -0.75000000       0.006
  -0.05000000  0.15000000 -0.65000000       0.012
  -0.15000000  0.25000000 -0.55000000       0.012
   0.05000000  0.05000000 -0.55000000       0.006
  -0.05000000  0.15000000 -0.45000000       0.012
   0.05000000  0.05000000 -0.35000000       0.006
   0.15000000  0.15000000  0.15000000       0.002
   0.05000000  0.25000000  0.25000000       0.006
  -0.05000000  0.35000000  0.35000000       0.006
  -0.15000000  0.45000000  0.45000000       0.006
   0.75000000 -0.45000000 -0.45000000       0.006
   0.65000000 -0.35000000 -0.35000000       0.006
   0.55000000 -0.25000000 -0.25000000       0.006
   0.45000000 -0.15000000 -0.15000000       0.006
   0.15000000  0.15000000  0.35000000       0.006
   0.05000000  0.25000000  0.45000000       0.012
  -0.05000000  0.35000000  0.55000000       0.012
   0.85000000 -0.55000000 -0.35000000       0.012
   0.75000000 -0.45000000 -0.25000000       0.012
   0.65000000 -0.35000000 -0.15000000       0.012
   0.55000000 -0.25000000 -0.05000000       0.012
   0.15000000  0.15000000  0.55000000       0.006
   0.05000000  0.25000000  0.65000000       0.012
   0.95000000 -0.65000000 -0.25000000       0.012
   0.85000000 -0.55000000 -0.15000000       0.012
   0.75000000 -0.45000000 -0.05000000       0.012
   0.65000000 -0.35000000  0.05000000       0.012
   0.15000000  0.15000000  0.75000000       0.006
   1.05000000 -0.75000000 -0.15000000       0.012
   0.95000000 -0.65000000 -0.05000000       0.012
   0.85000000 -0.55000000  0.05000000       0.012
   0.75000000 -0.45000000  0.15000000       0.012
   0.15000000  0.15000000 -1.05000000       0.006
   0.05000000  0.25000000 -0.95000000       0.012
  -0.05000000  0.35000000 -0.85000000       0.012
   0.15000000  0.15000000 -0.85000000       0.006
   0.05000000  0.25000000 -0.75000000       0.012
   0.15000000  0.15000000 -0.65000000       0.006
   0.25000000  0.25000000  0.25000000       0.002
   0.15000000  0.35000000  0.35000000       0.006
   0.05000000  0.45000000  0.45000000       0.006
   0.95000000 -0.45000000 -0.45000000       0.006
   0.85000000 -0.35000000 -0.35000000       0.006
   0.75000000 -0.25000000 -0.25000000       0.006
   0.25000000  0.25000000  0.45000000       0.006
   0.15000000  0.35000000  0.55000000       0.012
   1.05000000 -0.55000000 -0.35000000       0.012
   0.95000000 -0.45000000 -0.25000000       0.012
   0.85000000 -0.35000000 -0.15000000       0.012
   0.25000000  0.25000000  0.65000000       0.006
   1.15000000 -0.65000000 -0.25000000       0.012
   1.05000000 -0.55000000 -0.15000000       0.012
   0.95000000 -0.45000000 -0.05000000       0.012
   0.25000000  0.25000000 -1.15000000       0.006
   0.15000000  0.35000000 -1.05000000       0.012
   0.25000000  0.25000000 -0.95000000       0.006
   0.35000000  0.35000000  0.35000000       0.002
   0.25000000  0.45000000  0.45000000       0.006
   1.15000000 -0.45000000 -0.45000000       0.006
   1.05000000 -0.35000000 -0.35000000       0.006
   0.35000000  0.35000000  0.55000000       0.006
   1.25000000 -0.55000000 -0.35000000       0.012
   1.15000000 -0.45000000 -0.25000000       0.012
   0.35000000  0.35000000 -1.25000000       0.006
   0.45000000  0.45000000  0.45000000       0.002
   1.35000000 -0.45000000 -0.45000000       0.006
 
 k-points in reciprocal lattice and weights: 10x10x10                                
   0.05000000  0.05000000  0.05000000       0.002
   0.15000000  0.05000000  0.05000000       0.006
   0.25000000  0.05000000  0.05000000       0.006
   0.35000000  0.05000000  0.05000000       0.006
   0.45000000  0.05000000  0.05000000       0.006
  -0.45000000  0.05000000  0.05000000       0.006
  -0.35000000  0.05000000  0.05000000       0.006
  -0.25000000  0.05000000  0.05000000       0.006
  -0.15000000  0.05000000  0.05000000       0.006
  -0.05000000  0.05000000  0.05000000       0.006
   0.15000000  0.15000000  0.05000000       0.006
   0.25000000  0.15000000  0.05000000       0.012
   0.35000000  0.15000000  0.05000000       0.012
   0.45000000  0.15000000  0.05000000       0.012
  -0.45000000  0.15000000  0.05000000       0.012
  -0.35000000  0.15000000  0.05000000       0.012
  -0.25000000  0.15000000  0.05000000       0.012
  -0.15000000  0.15000000  0.05000000       0.012
  -0.05000000  0.15000000  0.05000000       0.012
   0.25000000  0.25000000  0.05000000       0.006
   0.35000000  0.25000000  0.05000000       0.012
   0.45000000  0.25000000  0.05000000       0.012
  -0.45000000  0.25000000  0.05000000       0.012
  -0.35000000  0.25000000  0.05000000       0.012
  -0.25000000  0.25000000  0.05000000       0.012
  -0.15000000  0.25000000  0.05000000       0.012
  -0.05000000  0.25000000  0.05000000       0.012
   0.35000000  0.35000000  0.05000000       0.006
   0.45000000  0.35000000  0.05000000       0.012
  -0.45000000  0.35000000  0.05000000       0.012
  -0.35000000  0.35000000  0.05000000       0.012
  -0.25000000  0.35000000  0.05000000       0.012
  -0.15000000  0.35000000  0.05000000       0.012
  -0.05000000  0.35000000  0.05000000       0.012
   0.45000000  0.45000000  0.05000000       0.006
  -0.45000000  0.45000000  0.05000000       0.012
  -0.35000000  0.45000000  0.05000000       0.012
  -0.25000000  0.45000000  0.05000000       0.012
  -0.15000000  0.45000000  0.05000000       0.012
  -0.05000000  0.45000000  0.05000000       0.012
  -0.45000000 -0.45000000  0.05000000       0.006
  -0.35000000 -0.45000000  0.05000000       0.012
  -0.25000000 -0.45000000  0.05000000       0.012
  -0.15000000 -0.45000000  0.05000000       0.012
  -0.35000000 -0.35000000  0.05000000       0.006
  -0.25000000 -0.35000000  0.05000000       0.012
  -0.15000000 -0.35000000  0.05000000       0.012
  -0.25000000 -0.25000000  0.05000000       0.006
  -0.15000000 -0.25000000  0.05000000       0.012
  -0.15000000 -0.15000000  0.05000000       0.006
   0.15000000  0.15000000  0.15000000       0.002
   0.25000000  0.15000000  0.15000000       0.006
   0.35000000  0.15000000  0.15000000       0.006
   0.45000000  0.15000000  0.15000000       0.006
  -0.45000000  0.15000000  0.15000000       0.006
  -0.35000000  0.15000000  0.15000000       0.006
  -0.25000000  0.15000000  0.15000000       0.006
  -0.15000000  0.15000000  0.15000000       0.006
   0.25000000  0.25000000  0.15000000       0.006
   0.35000000  0.25000000  0.15000000       0.012
   0.45000000  0.25000000  0.15000000       0.012
  -0.45000000  0.25000000  0.15000000       0.012
  -0.35000000  0.25000000  0.15000000       0.012
  -0.25000000  0.25000000  0.15000000       0.012
  -0.15000000  0.25000000  0.15000000       0.012
   0.35000000  0.35000000  0.15000000       0.006
   0.45000000  0.35000000  0.15000000       0.012
  -0.45000000  0.35000000  0.15000000       0.012
  -0.35000000  0.35000000  0.15000000       0.012
  -0.25000000  0.35000000  0.15000000       0.012
  -0.15000000  0.35000000  0.15000000       0.012
   0.45000000  0.45000000  0.15000000       0.006
  -0.45000000  0.45000000  0.15000000       0.012
  -0.35000000  0.45000000  0.15000000       0.012
  -0.25000000  0.45000000  0.15000000       0.012
  -0.15000000  0.45000000  0.15000000       0.012
  -0.45000000 -0.45000000  0.15000000       0.006
  -0.35000000 -0.45000000  0.15000000       0.012
  -0.25000000 -0.45000000  0.15000000       0.012
  -0.35000000 -0.35000000  0.15000000       0.006
  -0.25000000 -0.35000000  0.15000000       0.012
  -0.25000000 -0.25000000  0.15000000       0.006
   0.25000000  0.25000000  0.25000000       0.002
   0.35000000  0.25000000  0.25000000       0.006
   0.45000000  0.25000000  0.25000000       0.006
  -0.45000000  0.25000000  0.25000000       0.006
  -0.35000000  0.25000000  0.25000000       0.006
  -0.25000000  0.25000000  0.25000000       0.006
   0.35000000  0.35000000  0.25000000       0.006
   0.45000000  0.35000000  0.25000000       0.012
  -0.45000000  0.35000000  0.25000000       0.012
  -0.35000000  0.35000000  0.25000000       0.012
  -0.25000000  0.35000000  0.25000000       0.012
   0.45000000  0.45000000  0.25000000       0.006
  -0.45000000  0.45000000  0.25000000       0.012
  -0.35000000  0.45000000  0.25000000       0.012
  -0.25000000  0.45000000  0.25000000       0.012
  -0.45000000 -0.45000000  0.25000000       0.006
  -0.35000000 -0.45000000  0.25000000       0.012
  -0.35000000 -0.35000000  0.25000000       0.006
   0.35000000  0.35000000  0.35000000       0.002
   0.45000000  0.35000000  0.35000000       0.006
  -0.45000000  0.35000000  0.35000000       0.006
  -0.35000000  0.35000000  0.35000000       0.006
   0.45000000  0.45000000  0.35000000       0.006
  -0.45000000  0.45000000  0.35000000       0.012
  -0.35000000  0.45000000  0.35000000       0.012
  -0.45000000 -0.45000000  0.35000000       0.006
   0.45000000  0.45000000  0.45000000       0.002
  -0.45000000  0.45000000  0.45000000       0.006
 
 position of ions in fractional coordinates (direct lattice) 
   0.00000000  0.00000000  0.00000000
 
 position of ions in cartesian coordinates  (Angst):
   0.00000000  0.00000000  0.00000000
 


--------------------------------------------------------------------------------------------------------


 k-point  1 :   0.0500 0.0500 0.0500  plane waves:     137
 k-point  2 :   0.1500 0.0500 0.0500  plane waves:     133
 k-point  3 :   0.2500 0.0500 0.0500  plane waves:     137
 k-point  4 :   0.3500 0.0500 0.0500  plane waves:     140
 k-point  5 :   0.4500 0.0500 0.0500  plane waves:     131
 k-point  6 :  -0.4500 0.0500 0.0500  plane waves:     131
 k-point  7 :  -0.3500 0.0500 0.0500  plane waves:     138
 k-point  8 :  -0.2500 0.0500 0.0500  plane waves:     139
 k-point  9 :  -0.1500 0.0500 0.0500  plane waves:     136
 k-point 10 :  -0.0500 0.0500 0.0500  plane waves:     132
 k-point 11 :   0.1500 0.1500 0.0500  plane waves:     134
 k-point 12 :   0.2500 0.1500 0.0500  plane waves:     136
 k-point 13 :   0.3500 0.1500 0.0500  plane waves:     136
 k-point 14 :   0.4500 0.1500 0.0500  plane waves:     134
 k-point 15 :  -0.4500 0.1500 0.0500  plane waves:     130
 k-point 16 :  -0.3500 0.1500 0.0500  plane waves:     132
 k-point 17 :  -0.2500 0.1500 0.0500  plane waves:     136
 k-point 18 :  -0.1500 0.1500 0.0500  plane waves:     137
 k-point 19 :  -0.0500 0.1500 0.0500  plane waves:     136
 k-point 20 :   0.2500 0.2500 0.0500  plane waves:     132
 k-point 21 :   0.3500 0.2500 0.0500  plane waves:     133
 k-point 22 :   0.4500 0.2500 0.0500  plane waves:     132
 k-point 23 :  -0.4500 0.2500 0.0500  plane waves:     129
 k-point 24 :  -0.3500 0.2500 0.0500  plane waves:     128
 k-point 25 :  -0.2500 0.2500 0.0500  plane waves:     133
 k-point 26 :  -0.1500 0.2500 0.0500  plane waves:     135
 k-point 27 :  -0.0500 0.2500 0.0500  plane waves:     136
 k-point 28 :   0.3500 0.3500 0.0500  plane waves:     129
 k-point 29 :   0.4500 0.3500 0.0500  plane waves:     130
 k-point 30 :  -0.4500 0.3500 0.0500  plane waves:     127
 k-point 31 :  -0.3500 0.3500 0.0500  plane waves:     129
 k-point 32 :  -0.2500 0.3500 0.0500  plane waves:     131
 k-point 33 :  -0.1500 0.3500 0.0500  plane waves:     132
 k-point 34 :  -0.0500 0.3500 0.0500  plane waves:     136
 k-point 35 :   0.4500 0.4500 0.0500  plane waves:     127
 k-point 36 :  -0.4500 0.4500 0.0500  plane waves:     126
 k-point 37 :  -0.3500 0.4500 0.0500  plane waves:     128
 k-point 38 :  -0.2500 0.4500 0.0500  plane waves:     129
 k-point 39 :  -0.1500 0.4500 0.0500  plane waves:     128
 k-point 40 :  -0.0500 0.4500 0.0500  plane waves:     132
 k-point 41 :  -0.4500-0.4500 0.0500  plane waves:     121
 k-point 42 :  -0.3500-0.4500 0.0500  plane waves:     128
 k-point 43 :  -0.2500-0.4500 0.0500  plane waves:     129
 k-point 44 :  -0.1500-0.4500 0.0500  plane waves:     131
 k-point 45 :  -0.3500-0.3500 0.0500  plane waves:     129
 k-point 46 :  -0.2500-0.3500 0.0500  plane waves:     132
 k-point 47 :  -0.1500-0.3500 0.0500  plane waves:     135
 k-point 48 :  -0.2500-0.2500 0.0500  plane waves:     133
 k-point 49 :  -0.1500-0.2500 0.0500  plane waves:     136
 k-point 50 :  -0.1500-0.1500 0.0500  plane waves:     134
 k-point 51 :   0.1500 0.1500 0.1500  plane waves:     132
 k-point 52 :   0.2500 0.1500 0.1500  plane waves:     137
 k-point 53 :   0.3500 0.1500 0.1500  plane waves:     137
 k-point 54 :   0.4500 0.1500 0.1500  plane waves:     133
 k-point 55 :  -0.4500 0.1500 0.1500  plane waves:     129
 k-point 56 :  -0.3500 0.1500 0.1500  plane waves:     133
 k-point 57 :  -0.2500 0.1500 0.1500  plane waves:     134
 k-point 58 :  -0.1500 0.1500 0.1500  plane waves:     136
 k-point 59 :   0.2500 0.2500 0.1500  plane waves:     136
 k-point 60 :   0.3500 0.2500 0.1500  plane waves:     136
 k-point 61 :   0.4500 0.2500 0.1500  plane waves:     134
 k-point 62 :  -0.4500 0.2500 0.1500  plane waves:     132
 k-point 63 :  -0.3500 0.2500 0.1500  plane waves:     129
 k-point 64 :  -0.2500 0.2500 0.1500  plane waves:     131
 k-point 65 :  -0.1500 0.2500 0.1500  plane waves:     134
 k-point 66 :   0.3500 0.3500 0.1500  plane waves:     136
 k-point 67 :   0.4500 0.3500 0.1500  plane waves:     131
 k-point 68 :  -0.4500 0.3500 0.1500  plane waves:     129
 k-point 69 :  -0.3500 0.3500 0.1500  plane waves:     129
 k-point 70 :  -0.2500 0.3500 0.1500  plane waves:     130
 k-point 71 :  -0.1500 0.3500 0.1500  plane waves:     131
 k-point 72 :   0.4500 0.4500 0.1500  plane waves:     131
 k-point 73 :  -0.4500 0.4500 0.1500  plane waves:     127
 k-point 74 :  -0.3500 0.4500 0.1500  plane waves:     129
 k-point 75 :  -0.2500 0.4500 0.1500  plane waves:     127
 k-point 76 :  -0.1500 0.4500 0.1500  plane waves:     131
 k-point 77 :  -0.4500-0.4500 0.1500  plane waves:     129
 k-point 78 :  -0.3500-0.4500 0.1500  plane waves:     127
 k-point 79 :  -0.2500-0.4500 0.1500  plane waves:     127
 k-point 80 :  -0.3500-0.3500 0.1500  plane waves:     129
 k-point 81 :  -0.2500-0.3500 0.1500  plane waves:     129
 k-point 82 :  -0.2500-0.2500 0.1500  plane waves:     132
 k-point 83 :   0.2500 0.2500 0.2500  plane waves:     138
 k-point 84 :   0.3500 0.2500 0.2500  plane waves:     136
 k-point 85 :   0.4500 0.2500 0.2500  plane waves:     135
 k-point 86 :  -0.4500 0.2500 0.2500  plane waves:     133
 k-point 87 :  -0.3500 0.2500 0.2500  plane waves:     127
 k-point 88 :  -0.2500 0.2500 0.2500  plane waves:     130
 k-point 89 :   0.3500 0.3500 0.2500  plane waves:     136
 k-point 90 :   0.4500 0.3500 0.2500  plane waves:     133
 k-point 91 :  -0.4500 0.3500 0.2500  plane waves:     132
 k-point 92 :  -0.3500 0.3500 0.2500  plane waves:     128
 k-point 93 :  -0.2500 0.3500 0.2500  plane waves:     129
 k-point 94 :   0.4500 0.4500 0.2500  plane waves:     132
 k-point 95 :  -0.4500 0.4500 0.2500  plane waves:     128
 k-point 96 :  -0.3500 0.4500 0.2500  plane waves:     130
 k-point 97 :  -0.2500 0.4500 0.2500  plane waves:     126
 k-point 98 :  -0.4500-0.4500 0.2500  plane waves:     128
 k-point 99 :  -0.3500-0.4500 0.2500  plane waves:     129
 k-point ** :  -0.3500-0.3500 0.2500  plane waves:     130
 k-point ** :   0.3500 0.3500 0.3500  plane waves:     138
 k-point ** :   0.4500 0.3500 0.3500  plane waves:     133
 k-point ** :  -0.4500 0.3500 0.3500  plane waves:     131
 k-point ** :  -0.3500 0.3500 0.3500  plane waves:     127
 k-point ** :   0.4500 0.4500 0.3500  plane waves:     132
 k-point ** :  -0.4500 0.4500 0.3500  plane waves:     131
 k-point ** :  -0.3500 0.4500 0.3500  plane waves:     128
 k-point ** :  -0.4500-0.4500 0.3500  plane waves:     127
 k-point ** :   0.4500 0.4500 0.4500  plane waves:     135
 k-point ** :  -0.4500 0.4500 0.4500  plane waves:     129

 maximum and minimum number of plane-waves per node :       140      121

 maximum number of plane-waves:       140
 maximum index in each direction: 
   IXMAX=    3   IYMAX=    3   IZMAX=    3
   IXMIN=   -3   IYMIN=   -3   IZMIN=   -3


 serial   3D FFT for wavefunctions
 parallel 3D FFT for charge:
    minimum data exchange during FFTs selected (reduces bandwidth)


 total amount of memory used by VASP MPI-rank0    33647. kBytes
=======================================================================

   base      :      30000. kBytes
   nonl-proj :       2219. kBytes
   fftplans  :        238. kBytes
   grid      :        331. kBytes
   one-center:         15. kBytes
   wavefun   :        844. kBytes
 
     INWAV:  cpu time    0.0000: real time    0.0000
 Broyden mixing: mesh for mixing (old mesh)
   NGX =  7   NGY =  7   NGZ =  7
  (NGX  = 24   NGY  = 24   NGZ  = 24)
  gives a total of    343 points

 initial charge density was supplied:
 charge density of overlapping atoms calculated
 number of electron      11.0000000 magnetization 
 keeping initial charge density in first step


--------------------------------------------------------------------------------------------------------


 Maximum index for augmentation-charges         1509 (set IRDMAX)


--------------------------------------------------------------------------------------------------------


 First call to EWALD:  gamma=   0.695
 Maximum number of real-space cells 3x 3x 3
 Maximum number of reciprocal cells 3x 3x 3

    FEWALD:  cpu time    0.0012: real time    0.0012


--------------------------------------- Iteration      1(   1)  ---------------------------------------


    POTLOK:  cpu time    0.0013: real time    0.0027
    SETDIJ:  cpu time    0.0019: real time    0.0019
     EDDAV:  cpu time    0.2562: real time    0.2615
       DOS:  cpu time    0.0014: real time    0.0014
    --------------------------------------------
      LOOP:  cpu time    0.2608: real time    0.2676

 eigenvalue-minimisations  :  3284
 total energy-change (2. order) : 0.2937238E+02  (-0.3558601E+03)
 number of electron      11.0000000 magnetization 
 augmentation part       11.0000000 magnetization 

 Free energy of the ion-electron system (eV)
  ---------------------------------------------------
  alpha Z        PSCENC =       110.66541513
  Ewald energy   TEWEN  =      -986.24019799
  -Hartree energ DENC   =      -119.59041952
  -exchange      EXHF   =         0.00000000
  -V(xc)+E(xc)   XCENC  =        16.38782364
  PAW double counting   =       746.10209728     -725.46159323
  entropy T*S    EENTRO =        -0.00223291
  eigenvalues    EBANDS =        58.11534166
  atomic energy  EATOM  =       929.39614979
  Solvation  Ediel_sol  =         0.00000000
  ---------------------------------------------------
  free energy    TOTEN  =        29.37238386 eV

  energy without entropy =       29.37461676  energy(sigma->0) =       29.37312816


--------------------------------------------------------------------------------------------------------




--------------------------------------- Iteration      1(   2)  ---------------------------------------


     EDDAV:  cpu time    0.2119: real time    0.2163
       DOS:  cpu time    0.0015: real time    0.0015
    --------------------------------------------
      LOOP:  cpu time    0.2134: real time    0.2178

 eigenvalue-minimisations  :  3020
 total energy-change (2. order) :-0.3375925E+02  (-0.3168522E+02)
 number of electron      11.0000000 magnetization 
 augmentation part       11.0000000 magnetization 

 Free energy of the ion-electron system (eV)
  ---------------------------------------------------
  alpha Z        PSCENC =       110.66541513
  Ewald energy   TEWEN  =      -986.24019799
  -Hartree energ DENC   =      -119.59041952
  -exchange      EXHF   =         0.00000000
  -V(xc)+E(xc)   XCENC  =        16.38782364
  PAW double counting   =       746.10209728     -725.46159323
  entropy T*S    EENTRO =        -0.00090355
  eigenvalues    EBANDS =        24.35476100
  atomic energy  EATOM  =       929.39614979
  Solvation  Ediel_sol  =         0.00000000
  ---------------------------------------------------
  free energy    TOTEN  =        -4.38686745 eV

  energy without entropy =       -4.38596389  energy(sigma->0) =       -4.38656626


--------------------------------------------------------------------------------------------------------




--------------------------------------- Iteration      1(   3)  ---------------------------------------


     EDDAV:  cpu time    0.2374: real time    0.2423
       DOS:  cpu time    0.0015: real time    0.0015
    --------------------------------------------
      LOOP:  cpu time    0.2389: real time    0.2438

 eigenvalue-minimisations  :  3172
 total energy-change (2. order) :-0.3258924E+00  (-0.3256168E+00)
 number of electron      11.0000000 magnetization 
 augmentation part       11.0000000 magnetization 

 Free energy of the ion-electron system (eV)
  ---------------------------------------------------
  alpha Z        PSCENC =       110.66541513
  Ewald energy   TEWEN  =      -986.24019799
  -Hartree energ DENC   =      -119.59041952
  -exchange      EXHF   =         0.00000000
  -V(xc)+E(xc)   XCENC  =        16.38782364
  PAW double counting   =       746.10209728     -725.46159323
  entropy T*S    EENTRO =        -0.00065813
  eigenvalues    EBANDS =        24.02862317
  atomic energy  EATOM  =       929.39614979
  Solvation  Ediel_sol  =         0.00000000
  ---------------------------------------------------
  free energy    TOTEN  =        -4.71275985 eV

  energy without entropy =       -4.71210172  energy(sigma->0) =       -4.71254047


--------------------------------------------------------------------------------------------------------




--------------------------------------- Iteration      1(   4)  ---------------------------------------


     EDDAV:  cpu time    0.2295: real time    0.2344
       DOS:  cpu time    0.0014: real time    0.0014
    --------------------------------------------
      LOOP:  cpu time    0.2309: real time    0.2359

 eigenvalue-minimisations  :  3176
 total energy-change (2. order) :-0.8723258E-03  (-0.8722859E-03)
 number of electron      11.0000000 magnetization 
 augmentation part       11.0000000 magnetization 

 Free energy of the ion-electron system (eV)
  ---------------------------------------------------
  alpha Z        PSCENC =       110.66541513
  Ewald energy   TEWEN  =      -986.24019799
  -Hartree energ DENC   =      -119.59041952
  -exchange      EXHF   =         0.00000000
  -V(xc)+E(xc)   XCENC  =        16.38782364
  PAW double counting   =       746.10209728     -725.46159323
  entropy T*S    EENTRO =        -0.00065739
  eigenvalues    EBANDS =        24.02775011
  atomic energy  EATOM  =       929.39614979
  Solvation  Ediel_sol  =         0.00000000
  ---------------------------------------------------
  free energy    TOTEN  =        -4.71363218 eV

  energy without entropy =       -4.71297478  energy(sigma->0) =       -4.71341304


--------------------------------------------------------------------------------------------------------




--------------------------------------- Iteration      1(   5)  ---------------------------------------


     EDDAV:  cpu time    0.2251: real time    0.2303
       DOS:  cpu time    0.0015: real time    0.0014
    CHARGE:  cpu time    0.0050: real time    0.0051
    MIXING:  cpu time    0.0002: real time    0.0003
    --------------------------------------------
      LOOP:  cpu time    0.2319: real time    0.2371

 eigenvalue-minimisations  :  2896
 total energy-change (2. order) :-0.5971846E-05  (-0.5970843E-05)
 number of electron      11.0000036 magnetization 
 augmentation part        3.8202040 magnetization 

 Broyden mixing:
  rms(total) = 0.31826E+00    rms(broyden)= 0.31796E+00
  rms(prec ) = 0.13191E+01
  weight for this iteration     100.00

 Free energy of the ion-electron system (eV)
  ---------------------------------------------------
  alpha Z        PSCENC =       110.66541513
  Ewald energy   TEWEN  =      -986.24019799
  -Hartree energ DENC   =      -119.59041952
  -exchange      EXHF   =         0.00000000
  -V(xc)+E(xc)   XCENC  =        16.38782364
  PAW double counting   =       746.10209728     -725.46159323
  entropy T*S    EENTRO =        -0.00065739
  eigenvalues    EBANDS =        24.02774414
  atomic energy  EATOM  =       929.39614979
  Solvation  Ediel_sol  =         0.00000000
  ---------------------------------------------------
  free energy    TOTEN  =        -4.71363815 eV

  energy without entropy =       -4.71298076  energy(sigma->0) =       -4.71341902


--------------------------------------------------------------------------------------------------------




--------------------------------------- Iteration      1(   6)  ---------------------------------------


    POTLOK:  cpu time    0.0015: real time    0.0016
    SETDIJ:  cpu time    0.0012: real time    0.0012
     EDDAV:  cpu time    0.2484: real time    0.2539
       DOS:  cpu time    0.0015: real time    0.0015
    CHARGE:  cpu time    0.0043: real time    0.0042
    MIXING:  cpu time    0.0006: real time    0.0006
    --------------------------------------------
      LOOP:  cpu time    0.2575: real time    0.2632

 eigenvalue-minimisations  :  3136
 total energy-change (2. order) : 0.2921538E+00  (-0.7679025E-01)
 number of electron      11.0000038 magnetization 
 augmentation part        3.9599572 magnetization 

 Broyden mixing:
  rms(total) = 0.83261E-01    rms(broyden)= 0.83221E-01
  rms(prec ) = 0.33503E+00
  weight for this iteration     100.00

 eigenvalues of (default mixing * dielectric matrix)
  average eigenvalue GAMMA=   1.2594
  1.2594

 Free energy of the ion-electron system (eV)
  ---------------------------------------------------
  alpha Z        PSCENC =       110.66541513
  Ewald energy   TEWEN  =      -986.24019799
  -Hartree energ DENC   =      -111.68595374
  -exchange      EXHF   =         0.00000000
  -V(xc)+E(xc)   XCENC  =        15.98618194
  PAW double counting   =       741.99795641     -722.68755432
  entropy T*S    EENTRO =         0.00062551
  eigenvalues    EBANDS =        18.14589296
  atomic energy  EATOM  =       929.39614979
  Solvation  Ediel_sol  =         0.00000000
  ---------------------------------------------------
  free energy    TOTEN  =        -4.42148432 eV

  energy without entropy =       -4.42210983  energy(sigma->0) =       -4.42169282


--------------------------------------------------------------------------------------------------------




--------------------------------------- Iteration      1(   7)  ---------------------------------------


    POTLOK:  cpu time    0.0016: real time    0.0017
    SETDIJ:  cpu time    0.0012: real time    0.0012
     EDDAV:  cpu time    0.2368: real time    0.2421
       DOS:  cpu time    0.0015: real time    0.0015
    CHARGE:  cpu time    0.0047: real time    0.0047
    MIXING:  cpu time    0.0006: real time    0.0005
    --------------------------------------------
      LOOP:  cpu time    0.2463: real time    0.2518

 eigenvalue-minimisations  :  3164
 total energy-change (2. order) : 0.2525504E-01  (-0.5291818E-02)
 number of electron      11.0000038 magnetization 
 augmentation part        3.9936613 magnetization 

 Broyden mixing:
  rms(total) = 0.27567E-01    rms(broyden)= 0.27555E-01
  rms(prec ) = 0.66031E-01
  weight for this iteration     100.00

 eigenvalues of (default mixing * dielectric matrix)
  average eigenvalue GAMMA=   1.7903
  1.2115  2.3690

 Free energy of the ion-electron system (eV)
  ---------------------------------------------------
  alpha Z        PSCENC =       110.66541513
  Ewald energy   TEWEN  =      -986.24019799
  -Hartree energ DENC   =      -109.15300273
  -exchange      EXHF   =         0.00000000
  -V(xc)+E(xc)   XCENC  =        15.85403530
  PAW double counting   =       746.96599865     -728.53264365
  entropy T*S    EENTRO =         0.00087189
  eigenvalues    EBANDS =        16.64714433
  atomic energy  EATOM  =       929.39614979
  Solvation  Ediel_sol  =         0.00000000
  ---------------------------------------------------
  free energy    TOTEN  =        -4.39622928 eV

  energy without entropy =       -4.39710117  energy(sigma->0) =       -4.39651991


--------------------------------------------------------------------------------------------------------




--------------------------------------- Iteration      1(   8)  ---------------------------------------


    POTLOK:  cpu time    0.0019: real time    0.0092
    SETDIJ:  cpu time    0.0036: real time    0.0036
     EDDAV:  cpu time    0.2436: real time    0.2503
       DOS:  cpu time    0.0017: real time    0.0016
    CHARGE:  cpu time    0.0041: real time    0.0042
    MIXING:  cpu time    0.0005: real time    0.0005
    --------------------------------------------
      LOOP:  cpu time    0.2554: real time    0.2694

 eigenvalue-minimisations  :  3004
 total energy-change (2. order) : 0.4988483E-02  (-0.1789636E-03)
 number of electron      11.0000038 magnetization 
 augmentation part        3.9928031 magnetization 

 Broyden mixing:
  rms(total) = 0.96895E-03    rms(broyden)= 0.96128E-03
  rms(prec ) = 0.22679E-02
  weight for this iteration     100.00

 eigenvalues of (default mixing * dielectric matrix)
  average eigenvalue GAMMA=   1.6595
  1.2161  1.3177  2.4447

 Free energy of the ion-electron system (eV)
  ---------------------------------------------------
  alpha Z        PSCENC =       110.66541513
  Ewald energy   TEWEN  =      -986.24019799
  -Hartree energ DENC   =      -108.41561966
  -exchange      EXHF   =         0.00000000
  -V(xc)+E(xc)   XCENC  =        15.81151070
  PAW double counting   =       755.24780419     -737.50045935
  entropy T*S    EENTRO =         0.00088401
  eigenvalues    EBANDS =        16.64327239
  atomic energy  EATOM  =       929.39614979
  Solvation  Ediel_sol  =         0.00000000
  ---------------------------------------------------
  free energy    TOTEN  =        -4.39124080 eV

  energy without entropy =       -4.39212480  energy(sigma->0) =       -4.39153547


--------------------------------------------------------------------------------------------------------




--------------------------------------- Iteration      1(   9)  ---------------------------------------


    POTLOK:  cpu time    0.0016: real time    0.0016
    SETDIJ:  cpu time    0.0013: real time    0.0013
     EDDAV:  cpu time    0.1859: real time    0.1908
       DOS:  cpu time    0.0017: real time    0.0017
    --------------------------------------------
      LOOP:  cpu time    0.1906: real time    0.1955

 eigenvalue-minimisations  :  1816
 total energy-change (2. order) : 0.1771928E-05  (-0.8588654E-06)
 number of electron      11.0000038 magnetization 
 augmentation part        3.9928031 magnetization 

 Free energy of the ion-electron system (eV)
  ---------------------------------------------------
  alpha Z        PSCENC =       110.66541513
  Ewald energy   TEWEN  =      -986.24019799
  -Hartree energ DENC   =      -108.39903405
  -exchange      EXHF   =         0.00000000
  -V(xc)+E(xc)   XCENC  =        15.81049694
  PAW double counting   =       755.93753317     -738.20108556
  entropy T*S    EENTRO =         0.00088456
  eigenvalues    EBANDS =        16.63859899
  atomic energy  EATOM  =       929.39614979
  Solvation  Ediel_sol  =         0.00000000
  ---------------------------------------------------
  free energy    TOTEN  =        -4.39123902 eV

  energy without entropy =       -4.39212359  energy(sigma->0) =       -4.39153388


--------------------------------------------------------------------------------------------------------




 average (electrostatic) potential at core
  the test charge radii are     1.2098
  (the norm of the test charge is              1.0000)
       1 -45.5754
 
 
 
 E-fermi :   5.8733     XC(G=0): -13.1332     alpha+bet :-10.5603


 k-point     1 :       0.0500    0.0500    0.0500
  band No.  band energies     occupation 
      1      -4.2234      2.00000
      2       1.0091      2.00000
      3       1.0717      2.00000
      4       1.0717      2.00000
      5       2.6380      2.00000
      6       2.6380      2.00000
      7      21.3271      0.00000
      8      24.5379      0.00000
      9      25.3161      0.00000
     10      25.3161      0.00000
     11      30.1956      0.00000
     12      33.3634      0.00000

 k-point     2 :       0.1500    0.0500    0.0500
  band No.  band energies     occupation 
      1      -3.7588      2.00000
      2       0.8507      2.00000
      3       1.2159      2.00000
      4       1.2499      2.00000
      5       2.4863      2.00000
      6       2.6918      2.00000
      7      21.6904      0.00000
      8      22.5668      0.00000
      9      24.9676      0.00000
     10      26.2639      0.00000
     11      29.6970      0.00000
     12      32.3668      0.00000

 k-point     3 :       0.2500    0.0500    0.0500
  band No.  band energies     occupation 
      1      -2.7554      2.00000
      2       0.7261      2.00000
      3       1.3735      2.00000
      4       1.3982      2.00000
      5       2.4917      2.00000
      6       2.9134      2.00000
      7      18.7021      0.00000
      8      22.3070      0.00000
      9      25.1854      0.00000
     10      27.5977      0.00000
     11      27.6294      0.00000
     12      30.1375      0.00000

 k-point     4 :       0.3500    0.0500    0.0500
  band No.  band energies     occupation 
      1      -1.8640      2.00000
      2       1.1864      2.00000
      3       1.2762      2.00000
      4       1.4140      2.00000
      5       2.9998      2.00000
      6       3.5030      2.00000
      7      14.6523      0.00000
      8      21.6073      0.00000
      9      24.2286      0.00000
     10      26.4653      0.00000
     11      28.8169      0.00000
     12      29.9437      0.00000

 k-point     5 :       0.4500    0.0500    0.0500
  band No.  band energies     occupation 
      1      -1.6459      2.00000
      2       1.0298      2.00000
      3       1.1022      2.00000
      4       2.9627      2.00000
      5       3.6269      2.00000
      6       4.3968      2.00000
      7      10.8428     -0.00000
      8      20.8176      0.00000
      9      23.2687      0.00000
     10      24.3919      0.00000
     11      30.6732      0.00000
     12      30.9634      0.00000

 k-point     6 :      -0.4500    0.0500    0.0500
  band No.  band energies     occupation 
      1      -1.6429      2.00000
      2       0.9611      2.00000
      3       1.0627      2.00000
      4       3.4018      2.00000
      5       3.9198      2.00000
      6       5.2459      2.00009
      7       9.1700     -0.00000
      8      20.6021      0.00000
      9      23.3187      0.00000
     10      23.4370      0.00000
     11      31.1996      0.00000
     12      31.2759      0.00000

 k-point     7 :      -0.3500    0.0500    0.0500
  band No.  band energies     occupation 
      1      -1.6716      2.00000
      2       1.0616      2.00000
      3       1.1758      2.00000
      4       2.3775      2.00000
      5       3.7076      2.00000
      6       3.8290      2.00000
      7      12.0207      0.00000
      8      21.0582      0.00000
      9      23.7497      0.00000
     10      24.5944      0.00000
     11      30.6153      0.00000
     12      30.7493      0.00000

 k-point     8 :      -0.2500    0.0500    0.0500
  band No.  band energies     occupation 
      1      -2.0880      2.00000
      2       0.9841      2.00000
      3       1.2914      2.00000
      4       1.3561      2.00000
      5       2.9055      2.00000
      6       3.1833      2.00000
      7      16.0137      0.00000
      8      21.9880      0.00000
      9      24.7371      0.00000
     10      26.5981      0.00000
     11      28.4926      0.00000
     12      30.3099      0.00000

 k-point     9 :      -0.1500    0.0500    0.0500
  band No.  band energies     occupation 
      1      -3.1238      2.00000
      2       0.7157      2.00000
      3       1.3658      2.00000
      4       1.3793      2.00000
      5       2.4458      2.00000
      6       2.7849      2.00000
      7      19.9884      0.00000
      8      22.3948      0.00000
      9      25.1909      0.00000
     10      26.7233      0.00000
     11      28.3944      0.00000
     12      30.9957      0.00000

 k-point    10 :      -0.0500    0.0500    0.0500
  band No.  band energies     occupation 
      1      -3.9870      2.00000
      2       0.8986      2.00000
      3       1.1714      2.00000
      4       1.1778      2.00000
      5       2.5111      2.00000
      6       2.6984      2.00000
      7      21.5828      0.00000
      8      23.6187      0.00000
      9      25.0745      0.00000
     10      25.4474      0.00000
     11      30.8475      0.00000
     12      32.5892      0.00000

 k-point    11 :       0.1500    0.1500    0.0500
  band No.  band energies     occupation 
      1      -3.5283      2.00000
      2       0.6737      2.00000
      3       1.3791      2.00000
      4       1.3838      2.00000
      5       2.2788      2.00000
      6       2.8142      2.00000
      7      21.9980      0.00000
      8      22.7445      0.00000
      9      24.4311      0.00000
     10      25.0492      0.00000
     11      30.1170      0.00000
     12      31.7880      0.00000

 k-point    12 :       0.2500    0.1500    0.0500
  band No.  band energies     occupation 
      1      -2.6940      2.00000
      2       0.4163      2.00000
      3       1.4794      2.00000
      4       1.6712      2.00000
      5       2.2237      2.00000
      6       3.0425      2.00000
      7      20.2477      0.00000
      8      22.0537      0.00000
      9      24.0234      0.00000
     10      25.2856      0.00000
     11      28.0818      0.00000
     12      30.9437      0.00000

 k-point    13 :       0.3500    0.1500    0.0500
  band No.  band energies     occupation 
      1      -1.6730      2.00000
      2       0.5037      2.00000
      3       1.1660      2.00000
      4       1.6812      2.00000
      5       2.9100      2.00000
      6       3.6431      2.00000
      7      16.2456      0.00000
      8      21.5137      0.00000
      9      22.9591      0.00000
     10      25.1877      0.00000
     11      28.8438      0.00000
     12      30.6352      0.00000

 k-point    14 :       0.4500    0.1500    0.0500
  band No.  band energies     occupation 
      1      -1.2874      2.00000
      2       0.8523      2.00000
      3       1.4062      2.00000
      4       1.5709      2.00000
      5       3.6894      2.00000
      6       4.8498      2.00000
      7      12.2134      0.00000
      8      20.9818      0.00000
      9      21.7084      0.00000
     10      23.8753      0.00000
     11      30.6612      0.00000
     12      31.8039      0.00000

 k-point    15 :      -0.4500    0.1500    0.0500
  band No.  band energies     occupation 
      1      -1.2672      2.00000
      2       0.7191      2.00000
      3       1.3712      2.00000
      4       2.3246      2.00000
      5       3.8714      2.00000
      6       6.7273     -0.00000
      7       9.1476     -0.00000
      8      20.5054      0.00000
      9      21.3684      0.00000
     10      23.0788      0.00000
     11      31.1766      0.00000
     12      32.2091      0.00000

 k-point    16 :      -0.3500    0.1500    0.0500
  band No.  band energies     occupation 
      1      -1.2490      2.00000
      2       0.8031      2.00000
      3       1.3966      2.00000
      4       1.9844      2.00000
      5       3.5406      2.00000
      6       5.5656      2.05184
      7      11.0625     -0.00000
      8      20.2236      0.00000
      9      21.7696      0.00000
     10      24.0468      0.00000
     11      30.3049      0.00000
     12      31.8663      0.00000

 k-point    17 :      -0.2500    0.1500    0.0500
  band No.  band energies     occupation 
      1      -1.4292      2.00000
      2       0.7942      2.00000
      3       1.1136      2.00000
      4       1.5921      2.00000
      5       2.8184      2.00000
      6       4.2024      2.00000
      7      14.8969      0.00000
      8      20.4997      0.00000
      9      22.8734      0.00000
     10      26.0653      0.00000
     11      28.4279      0.00000
     12      30.9597      0.00000

 k-point    18 :      -0.1500    0.1500    0.0500
  band No.  band energies     occupation 
      1      -2.3328      2.00000
      2       0.4606      2.00000
      3       1.3699      2.00000
      4       1.6947      2.00000
      5       2.2189      2.00000
      6       3.3129      2.00000
      7      18.8425      0.00000
      8      21.1424      0.00000
      9      24.5877      0.00000
     10      25.6055      0.00000
     11      29.1542      0.00000
     12      29.8256      0.00000

 k-point    19 :      -0.0500    0.1500    0.0500
  band No.  band energies     occupation 
      1      -3.3161      2.00000
      2       0.6774      2.00000
      3       1.3816      2.00000
      4       1.3921      2.00000
      5       2.3210      2.00000
      6       2.8232      2.00000
      7      21.2295      0.00000
      8      22.1643      0.00000
      9      24.5343      0.00000
     10      26.3643      0.00000
     11      28.7625      0.00000
     12      31.8087      0.00000

 k-point    20 :       0.2500    0.2500    0.0500
  band No.  band energies     occupation 
      1      -2.1389      2.00000
      2       0.0476      2.00000
      3       1.6368      2.00000
      4       2.0664      2.00000
      5       2.2667      2.00000
      6       3.1707      2.00000
      7      20.7243      0.00000
      8      21.8696      0.00000
      9      22.9246      0.00000
     10      23.8236      0.00000
     11      25.1294      0.00000
     12      32.3963      0.00000

 k-point    21 :       0.3500    0.2500    0.0500
  band No.  band energies     occupation 
      1      -1.3324      2.00000
      2      -0.1853      2.00000
      3       1.3682      2.00000
      4       2.4278      2.00000
      5       2.9482      2.00000
      6       3.6674      2.00000
      7      17.9804      0.00000
      8      19.9499      0.00000
      9      21.5862      0.00000
     10      24.3068      0.00000
     11      25.7007      0.00000
     12      32.4676      0.00000

 k-point    22 :       0.4500    0.2500    0.0500
  band No.  band energies     occupation 
      1      -0.8637      2.00000
      2       0.0805      2.00000
      3       1.1135      2.00000
      4       2.2898      2.00000
      5       3.7820      2.00000
      6       5.1303      2.00000
      7      13.8595      0.00000
      8      19.2640      0.00000
      9      19.8356      0.00000
     10      23.9084      0.00000
     11      28.9270      0.00000
     12      32.4480      0.00000

 k-point    23 :      -0.4500    0.2500    0.0500
  band No.  band energies     occupation 
      1      -0.7432      2.00000
      2       0.3515      2.00000
      3       1.3219      2.00000
      4       2.0835      2.00000
      5       3.9084      2.00000
      6       7.6265     -0.00000
      7      10.2325     -0.00000
      8      17.9664      0.00000
      9      19.9049      0.00000
     10      23.4731      0.00000
     11      31.5330      0.00000
     12      33.1472      0.00000

 k-point    24 :      -0.3500    0.2500    0.0500
  band No.  band energies     occupation 
      1      -0.5656      2.00000
      2       0.4194      2.00000
      3       1.3410      2.00000
      4       1.9747      2.00000
      5       3.4929      2.00000
      6       7.4627     -0.00000
      7      10.7818     -0.00000
      8      16.8679      0.00000
      9      21.1163      0.00000
     10      23.6516      0.00000
     11      30.6695      0.00000
     12      33.0554      0.00000

 k-point    25 :      -0.2500    0.2500    0.0500
  band No.  band energies     occupation 
      1      -0.4797      2.00000
      2       0.4992      2.00000
      3       0.7626      2.00000
      4       2.0574      2.00000
      5       2.7766      2.00000
      6       5.6479      2.06757
      7      14.2020      0.00000
      8      16.7883      0.00000
      9      22.3437      0.00000
     10      25.1547      0.00000
     11      28.4300      0.00000
     12      32.8818      0.00000

 k-point    26 :      -0.1500    0.2500    0.0500
  band No.  band energies     occupation 
      1      -1.2691      2.00000
      2       0.3792      2.00000
      3       1.0859      2.00000
      4       1.9318      2.00000
      5       2.3630      2.00000
      6       4.2963      2.00000
      7      16.3585      0.00000
      8      19.0540      0.00000
      9      23.3505      0.00000
     10      26.4405      0.00000
     11      27.5721      0.00000
     12      31.5051      0.00000

 k-point    27 :      -0.0500    0.2500    0.0500
  band No.  band energies     occupation 
      1      -2.2484      2.00000
      2       0.6468      2.00000
      3       1.3425      2.00000
      4       1.4972      2.00000
      5       2.5571      2.00000
      6       3.2377      2.00000
      7      17.4610      0.00000
      8      22.0500      0.00000
      9      24.2004      0.00000
     10      26.6245      0.00000
     11      28.4438      0.00000
     12      29.8573      0.00000

 k-point    28 :       0.3500    0.3500    0.0500
  band No.  band energies     occupation 
      1      -1.1948      2.00000
      2      -0.5772      2.00000
      3       2.2746      2.00000
      4       2.9787      2.00000
      5       3.4170      2.00000
      6       3.6015      2.00000
      7      17.9176      0.00000
      8      18.9123      0.00000
      9      19.2026      0.00000
     10      23.1628      0.00000
     11      25.0905      0.00000
     12      34.9215      0.00000

 k-point    29 :       0.4500    0.3500    0.0500
  band No.  band energies     occupation 
      1      -1.0493      2.00000
      2      -0.6895      2.00000
      3       2.3273      2.00000
      4       3.2893      2.00000
      5       3.7955      2.00000
      6       5.1742      2.00001
      7      15.0701      0.00000
      8      17.2078      0.00000
      9      17.8321      0.00000
     10      24.1933      0.00000
     11      26.1092      0.00000
     12      34.4734      0.00000

 k-point    30 :      -0.4500    0.3500    0.0500
  band No.  band energies     occupation 
      1      -0.8774      2.00000
      2      -0.3667      2.00000
      3       1.9595      2.00000
      4       2.9736      2.00000
      5       4.0128      2.00000
      6       7.8542     -0.00000
      7      11.8005      0.00000
      8      15.4708      0.00000
      9      17.9423      0.00000
     10      24.4045      0.00000
     11      28.8789      0.00000
     12      33.4618      0.00000

 k-point    31 :      -0.3500    0.3500    0.0500
  band No.  band energies     occupation 
      1      -0.5750      2.00000
      2       0.1572      2.00000
      3       1.3953      2.00000
      4       2.6304      2.00000
      5       3.6719      2.00000
      6       9.0854     -0.00000
      7      11.2354     -0.00000
      8      13.7849      0.00000
      9      19.3061      0.00000
     10      24.1452      0.00000
     11      32.0296      0.00000
     12      32.4797      0.00000

 k-point    32 :      -0.2500    0.3500    0.0500
  band No.  band energies     occupation 
      1      -0.2809      2.00000
      2       0.4622      2.00000
      3       0.8814      2.00000
      4       2.2575      2.00000
      5       3.2425      2.00000
      6       7.2889     -0.00000
      7      12.6574      0.00000
      8      14.7860      0.00000
      9      21.1225      0.00000
     10      24.0310      0.00000
     11      30.3181      0.00000
     12      33.3002      0.00000

 k-point    33 :      -0.1500    0.3500    0.0500
  band No.  band energies     occupation 
      1      -0.8800      2.00000
      2       0.6991      2.00000
[...]
      1      -0.5749      2.00000
      2      -0.0238      2.00000
      3       1.3236      2.00000
      4       2.7113      2.00000
      5       3.9196      2.00000
      6       8.6651     -0.00000
      7      11.0325     -0.00000
      8      15.4186      0.00000
      9      17.7950      0.00000
     10      25.2599      0.00000
     11      30.3087      0.00000
     12      32.2987      0.00000

 k-point    94 :       0.4500    0.4500    0.2500
  band No.  band energies     occupation 
      1      -0.9540      2.00000
      2       0.4348      2.00000
      3       1.1358      2.00000
      4       1.9516      2.00000
      5       3.9709      2.00000
      6       5.4998      2.02395
      7      12.4083      0.00000
      8      19.8041      0.00000
      9      20.6014      0.00000
     10      22.9776      0.00000
     11      30.9263      0.00000
     12      32.4805      0.00000

 k-point    95 :      -0.4500    0.4500    0.2500
  band No.  band energies     occupation 
      1      -0.5731      2.00000
      2       0.1545      2.00000
      3       1.0503      2.00000
      4       2.4792      2.00000
      5       3.8200      2.00000
      6       7.1785     -0.00000
      7      11.7260      0.00000
      8      17.2416      0.00000
      9      18.5687      0.00000
     10      24.8738      0.00000
     11      30.0212      0.00000
     12      32.5258      0.00000

 k-point    96 :      -0.3500    0.4500    0.2500
  band No.  band energies     occupation 
      1      -0.1869      2.00000
      2       0.2225      2.00000
      3       0.6944      2.00000
      4       2.5960      2.00000
      5       3.9658      2.00000
      6       9.0304     -0.00000
      7      12.1003      0.00000
      8      14.0020      0.00000
      9      16.8568      0.00000
     10      27.5426      0.00000
     11      29.2109      0.00000
     12      32.6452      0.00000

 k-point    97 :      -0.2500    0.4500    0.2500
  band No.  band energies     occupation 
      1      -0.3141      2.00000
      2       0.2296      2.00000
      3       0.8591      2.00000
      4       2.5520      2.00000
      5       4.1984      2.00000
      6      10.3234     -0.00000
      7      11.7616      0.00000
      8      13.1257      0.00000
      9      15.8680      0.00000
     10      28.3320      0.00000
     11      29.8348      0.00000
     12      31.2966      0.00000

 k-point    98 :      -0.4500   -0.4500    0.2500
  band No.  band energies     occupation 
      1      -0.7915      2.00000
      2      -0.0600      2.00000
      3       1.6930      2.00000
      4       2.6396      2.00000
      5       3.9339      2.00000
      6       8.5265     -0.00000
      7      10.6429     -0.00000
      8      15.5667      0.00000
      9      19.1211      0.00000
     10      23.6396      0.00000
     11      30.6085      0.00000
     12      33.5188      0.00000

 k-point    99 :      -0.3500   -0.4500    0.2500
  band No.  band energies     occupation 
      1      -0.6158      2.00000
      2      -0.0986      2.00000
      3       1.5356      2.00000
      4       2.7959      2.00000
      5       3.9742      2.00000
      6       9.9113     -0.00000
      7      10.8108     -0.00000
      8      13.7621      0.00000
      9      17.4748      0.00000
     10      25.5328      0.00000
     11      30.5942      0.00000
     12      32.0103      0.00000

 k-point   100 :      -0.3500   -0.3500    0.2500
  band No.  band energies     occupation 
      1      -0.8101      2.00000
      2      -0.1539      2.00000
      3       1.8952      2.00000
      4       2.9065      2.00000
      5       3.8063      2.00000
      6       9.7356     -0.00000
      7      10.4669     -0.00000
      8      13.8220      0.00000
      9      18.8256      0.00000
     10      23.8839      0.00000
     11      30.5573      0.00000
     12      33.7086      0.00000

 k-point   101 :       0.3500    0.3500    0.3500
  band No.  band energies     occupation 
      1      -1.8072      2.00000
      2       1.1728      2.00000
      3       1.1728      2.00000
      4       2.0602      2.00000
      5       3.3922      2.00000
      6       3.3922      2.00000
      7      13.2739      0.00000
      8      21.2828      0.00000
      9      25.0308      0.00000
     10      25.0308      0.00000
     11      30.2346      0.00000
     12      30.2808      0.00000

 k-point   102 :       0.4500    0.3500    0.3500
  band No.  band energies     occupation 
      1      -1.4553      2.00000
      2       0.9808      2.00000
      3       1.2879      2.00000
      4       1.9845      2.00000
      5       3.2816      2.00000
      6       4.6760      2.00000
      7      12.1592      0.00000
      8      20.7793      0.00000
      9      22.4227      0.00000
     10      25.0392      0.00000
     11      29.6696      0.00000
     12      31.1583      0.00000

 k-point   103 :      -0.4500    0.3500    0.3500
  band No.  band energies     occupation 
      1      -0.7336      2.00000
      2       0.5900      2.00000
      3       1.4221      2.00000
      4       1.7596      2.00000
      5       3.2573      2.00000
      6       6.4478     -0.00037
      7      11.6204      0.00000
      8      17.6260      0.00000
      9      22.5176      0.00000
     10      23.2846      0.00000
     11      30.1309      0.00000
     12      32.3482      0.00000

 k-point   104 :      -0.3500    0.3500    0.3500
  band No.  band energies     occupation 
      1      -0.4620      2.00000
      2       0.4047      2.00000
      3       1.1603      2.00000
      4       2.4067      2.00000
      5       3.4118      2.00000
      6       8.1221     -0.00000
      7      11.9705      0.00000
      8      14.1048      0.00000
      9      20.9336      0.00000
     10      23.2742      0.00000
     11      31.8553      0.00000
     12      33.0225      0.00000

 k-point   105 :       0.4500    0.4500    0.3500
  band No.  band energies     occupation 
      1      -1.4551      2.00000
      2       0.8878      2.00000
      3       1.2888      2.00000
      4       2.1981      2.00000
      5       3.9077      2.00000
      6       4.9665      2.00000
      7      10.8982     -0.00000
      8      20.9519      0.00000
      9      22.7042      0.00000
     10      23.2166      0.00000
     11      31.2985      0.00000
     12      31.6118      0.00000

 k-point   106 :      -0.4500    0.4500    0.3500
  band No.  band energies     occupation 
      1      -0.9780      2.00000
      2       0.5712      2.00000
      3       1.5857      2.00000
      4       1.7958      2.00000
      5       3.7526      2.00000
      6       6.7973     -0.00000
      7      10.1045     -0.00000
      8      19.6235      0.00000
      9      20.4940      0.00000
     10      23.7264      0.00000
     11      30.6347      0.00000
     12      32.9220      0.00000

 k-point   107 :      -0.3500    0.4500    0.3500
  band No.  band energies     occupation 
      1      -0.3694      2.00000
      2       0.2174      2.00000
      3       1.1555      2.00000
      4       2.2433      2.00000
      5       3.7089      2.00000
      6       8.6992     -0.00000
      7      10.1049     -0.00000
      8      16.2242      0.00000
      9      19.1667      0.00000
     10      24.7827      0.00000
     11      30.5565      0.00000
     12      34.5684      0.00000

 k-point   108 :      -0.4500   -0.4500    0.3500
  band No.  band energies     occupation 
      1      -0.8630      2.00000
      2       0.4818      2.00000
      3       1.6333      2.00000
      4       1.7938      2.00000
      5       3.8531      2.00000
      6       8.0433     -0.00000
      7       9.1417     -0.00000
      8      18.3811      0.00000
      9      21.3888      0.00000
     10      22.4944      0.00000
     11      32.1408      0.00000
     12      32.3823      0.00000

 k-point   109 :       0.4500    0.4500    0.4500
  band No.  band energies     occupation 
      1      -1.7107      2.00000
      2       1.0247      2.00000
      3       1.0247      2.00000
      4       3.8511      2.00000
      5       3.8511      2.00000
      6       4.2011      2.00000
      7       9.8075     -0.00000
      8      20.6102      0.00000
      9      23.8247      0.00000
     10      23.8247      0.00000
     11      30.9930      0.00000
     12      30.9930      0.00000

 k-point   110 :      -0.4500    0.4500    0.4500
  band No.  band energies     occupation 
      1      -1.4465      2.00000
      2       0.8431      2.00000
      3       1.2075      2.00000
      4       2.7723      2.00000
      5       3.8280      2.00000
      6       6.1320     -0.06959
      7       9.1714     -0.00000
      8      20.5978      0.00000
      9      22.2200      0.00000
     10      23.2498      0.00000
     11      31.3126      0.00000
     12      31.5027      0.00000


--------------------------------------------------------------------------------------------------------


 soft charge-density along one line, spin component           1
         0         1         2         3         4         5         6         7         8         9
 total charge-density along one line
 
 pseudopotential strength for first ion, spin component:           1
 -9.698   0.000  -0.000   0.000   0.000   0.000  -0.000   0.000  -0.000   0.000  -0.111   0.000   0.000   0.000  -0.000   0.000
 -0.000   0.000  -9.698   0.000  -0.000   0.000  -0.000   0.000   0.000   0.000   0.000   0.000  -0.111   0.000   0.000   0.000
  0.000   0.000  -0.000   0.000  -9.679   0.000  -0.000   0.000  -0.000   0.000  -0.000   0.000   0.000   0.000  -0.113   0.000
 -0.000   0.000  -0.000   0.000  -0.000   0.000  -9.698   0.000  -0.000   0.000   0.000   0.000   0.000   0.000   0.000   0.000
 -0.000   0.000   0.000   0.000  -0.000   0.000  -0.000   0.000  -9.679   0.000   0.000   0.000  -0.000   0.000   0.000   0.000
 -0.111   0.000   0.000   0.000  -0.000   0.000   0.000   0.000   0.000   0.000   0.286   0.000  -0.000   0.000   0.000   0.000
  0.000   0.000  -0.111   0.000   0.000   0.000   0.000   0.000  -0.000   0.000  -0.000   0.000   0.286   0.000  -0.000   0.000
 -0.000   0.000   0.000   0.000  -0.113   0.000   0.000   0.000   0.000   0.000   0.000   0.000  -0.000   0.000   0.286   0.000
  0.000   0.000   0.000   0.000   0.000   0.000  -0.111   0.000   0.000   0.000  -0.000   0.000  -0.000   0.000  -0.000   0.000
  0.000   0.000  -0.000   0.000   0.000   0.000   0.000   0.000  -0.113   0.000  -0.000   0.000   0.000   0.000   0.000   0.000
  0.000   0.000   0.000   0.000   0.000   0.000   0.000   0.000   0.000   0.000   0.000   0.000   0.000   0.000  -0.000   0.000
 -0.000   0.000  -0.000   0.000  -0.000   0.000  -0.000   0.000  -0.000   0.000   0.000   0.000   0.000   0.000   0.000   0.000
  0.000   0.000  -0.000   0.000   0.000   0.000  -0.000   0.000   0.000   0.000  -0.000   0.000   0.000   0.000  -0.000   0.000
 -0.000   0.000  -0.000   0.000  -0.000   0.000   0.000   0.000  -0.000   0.000   0.000   0.000   0.000   0.000   0.000   0.000
 -0.000   0.000  -0.000   0.000  -0.000   0.000  -0.000   0.000   0.000   0.000   0.000   0.000   0.000   0.000   0.000   0.000
 -0.000   0.000   0.000   0.000  -0.000   0.000   0.000   0.000  -0.000   0.000   0.000   0.000  -0.000   0.000   0.000   0.000
  0.000   0.000   0.000   0.000   0.000   0.000  -0.000   0.000   0.000   0.000  -0.000   0.000  -0.000   0.000  -0.000   0.000
  0.000   0.000   0.000   0.000   0.000   0.000   0.000   0.000  -0.000   0.000  -0.000   0.000  -0.000   0.000  -0.000   0.000
 total augmentation occupancy for first ion, spin component:           1
  1.903  -0.000   0.000  -0.000  -0.000  -0.027   0.000   0.000   0.000  -0.000  -0.000   0.000   0.000   0.000   0.000   0.000
 -0.000   1.903   0.000  -0.000  -0.000   0.000  -0.027  -0.000   0.000   0.000   0.000  -0.000   0.000   0.000   0.000   0.000
  0.000   0.000   1.952  -0.000   0.000   0.000   0.000  -0.077  -0.000   0.000   0.000  -0.000   0.000   0.000   0.000   0.000
 -0.000  -0.000  -0.000   1.903   0.000   0.000   0.000  -0.000  -0.027  -0.000  -0.000  -0.000   0.000   0.000   0.000   0.000
  0.000  -0.000   0.000   0.000   1.952   0.000  -0.000   0.000  -0.000  -0.077   0.000  -0.000   0.000   0.000   0.000   0.000
 -0.027   0.000   0.000   0.000   0.000   0.226  -0.000  -0.000  -0.000   0.000  -0.000   0.000   0.000   0.000   0.000   0.000
  0.000  -0.027   0.000   0.000   0.000  -0.000   0.226   0.000  -0.000  -0.000   0.000  -0.000   0.000   0.000   0.000   0.000
  0.000   0.000  -0.077  -0.000  -0.000  -0.000  -0.000   0.180   0.000  -0.000   0.000  -0.000   0.000   0.000   0.000   0.000
  0.000   0.000  -0.000  -0.027  -0.000  -0.000  -0.000   0.000   0.226   0.000   0.000   0.000   0.000   0.000   0.000   0.000
  0.000  -0.000   0.000  -0.000  -0.077  -0.000   0.000  -0.000   0.000   0.180  -0.000  -0.000   0.000   0.000   0.000   0.000
 -0.000   0.000   0.000  -0.000   0.000  -0.000   0.000   0.000  -0.000  -0.000   1.093  -0.402   0.000   0.000   0.000   0.000
  0.000  -0.000  -0.000  -0.000  -0.000   0.000  -0.000  -0.000   0.000  -0.000  -0.402   0.272   0.000   0.000   0.000   0.000
  0.000   0.000   0.000   0.000   0.000   0.000   0.000   0.000   0.000   0.000   0.000   0.000   0.176  -0.000   0.000  -0.013
  0.000   0.000   0.000   0.000   0.000   0.000   0.000   0.000   0.000   0.000   0.000   0.000  -0.000   0.176  -0.000   0.000
  0.000   0.000   0.000   0.000   0.000   0.000   0.000   0.000   0.000   0.000   0.000   0.000   0.000   0.000   0.176  -0.000
  0.000   0.000   0.000   0.000   0.000   0.000   0.000   0.000   0.000   0.000   0.000   0.000  -0.013   0.000  -0.000   0.001
  0.000   0.000   0.000   0.000   0.000   0.000   0.000   0.000   0.000   0.000   0.000   0.000   0.000  -0.013   0.000  -0.000
  0.000   0.000   0.000   0.000   0.000   0.000   0.000   0.000   0.000   0.000   0.000   0.000   0.000  -0.000  -0.013   0.000


------------------------ aborting loop because EDIFF is reached ----------------------------------------


    CHARGE:  cpu time    0.0041: real time    0.0041
    FORLOC:  cpu time    0.0001: real time    0.0001
    FORNL :  cpu time    0.0089: real time    0.0089
    STRESS:  cpu time    0.0568: real time    0.0569
    FORCOR:  cpu time    0.0009: real time    0.0009
    FORHAR:  cpu time    0.0006: real time    0.0007
    MIXING:  cpu time    0.0004: real time    0.0003
    OFIELD:  cpu time    0.0000: real time    0.0000

  FORCE on cell =-STRESS in cart. coord.  units (eV):
  Direction    XX          YY          ZZ          XY          YZ          ZX
  --------------------------------------------------------------------------------------
  Alpha Z   110.66542   110.66542   110.66542
  Ewald    -328.74674  -328.74674  -328.74674     0.00000     0.00000    -0.00000
  Hartree    36.13608    36.13608    36.13608    -0.00000    -0.00000    -0.00000
  E(xc)     -49.15630   -49.15630   -49.15630     0.00000     0.00000     0.00000
  Local      83.09223    83.09223    83.09223     0.00012     0.00012     0.00012
  n-local   -48.94130   -46.00544   -49.80683     0.60002    -0.66569     0.01318
  augment    42.42849    42.42849    42.42849    -0.00002    -0.00002    -0.00002
  Kinetic   153.62835   152.48840   154.69433    -0.39066     0.19408     0.01378
  Fock        0.00000     0.00000     0.00000     0.00000     0.00000     0.00000
  -------------------------------------------------------------------------------------
  Total      -0.22832    -0.22832    -0.22832     0.00000     0.00000    -0.00000
  in kB     -22.02697   -22.02697   -22.02697     0.00000     0.00000    -0.00000
  external pressure =      -22.03 kB  Pullay stress =        0.00 kB


 VOLUME and BASIS-vectors are now :
 -----------------------------------------------------------------------------
  energy-cutoff  :      229.87
  volume of cell :       16.61
      direct lattice vectors                 reciprocal lattice vectors
     0.000000000  2.025000000  2.025000000    -0.246913580  0.246913580  0.246913580
     2.025000000  0.000000000  2.025000000     0.246913580 -0.246913580  0.246913580
     2.025000000  2.025000000  0.000000000     0.246913580  0.246913580 -0.246913580

  length of vectors
     2.863782464  2.863782464  2.863782464     0.427666866  0.427666866  0.427666866


 FORCES acting on ions
    electron-ion (+dipol)            ewald-force                    non-local-force                 convergence-correction
 -----------------------------------------------------------------------------------------------
   -.258E-14 0.788E-15 -.473E-14   0.111E-14 -.542E-15 -.107E-14   0.000E+00 0.000E+00 -.529E-22   0.212E-14 0.113E-13 0.127E-13
 -----------------------------------------------------------------------------------------------
   -.258E-14 0.788E-15 -.473E-14   0.111E-14 -.542E-15 -.107E-14   0.000E+00 0.000E+00 -.529E-22   0.212E-14 0.113E-13 0.127E-13
 
 
 POSITION                                       TOTAL-FORCE (eV/Angst)
 -----------------------------------------------------------------------------------
      0.00000      0.00000      0.00000        -0.000000     -0.000000     -0.000000
 -----------------------------------------------------------------------------------
    total drift:                                0.000000      0.000000      0.000000


--------------------------------------------------------------------------------------------------------



  FREE ENERGIE OF THE ION-ELECTRON SYSTEM (eV)
  ---------------------------------------------------
  free  energy   TOTEN  =        -4.39123902 eV

  energy  without entropy=       -4.39212359  energy(sigma->0) =       -4.39153388
 


--------------------------------------------------------------------------------------------------------


    POTLOK:  cpu time    0.0030: real time    0.0031


--------------------------------------------------------------------------------------------------------


 writing wavefunctions
     LOOP+:  cpu time    2.2921: real time    2.3529
    4ORBIT:  cpu time    0.0000: real time    0.0000

volume of typ            1:    85.6 %
 
total charge     
 
# of ion       s       p       d       tot
------------------------------------------
    1        0.602   0.476   8.868   9.946
 
orbital moment (x)
 
# of ion     s             p             d             tot
-----------------------------------------------------------------
    1     0.000000E+00  0.576327E-09 -0.536321E-08 -0.478688E-08
 
orbital moment (y)
 
# of ion     s             p             d             tot
-----------------------------------------------------------------
    1     0.000000E+00 -0.891073E-08 -0.428643E-08 -0.131972E-07
 
orbital moment (z)
 
# of ion     s             p             d             tot
-----------------------------------------------------------------
    1     0.000000E+00  0.880379E-08  0.569630E-09  0.937342E-08
 

 total amount of memory used by VASP MPI-rank0    33647. kBytes
=======================================================================

   base      :      30000. kBytes
   nonl-proj :       2219. kBytes
   fftplans  :        238. kBytes
   grid      :        331. kBytes
   one-center:         15. kBytes
   wavefun   :        844. kBytes
 
  
  
 General timing and accounting informations for this job:
 ========================================================
  
                  Total CPU time used (sec):        2.880
                            User time (sec):        2.340
                          System time (sec):        0.540
                         Elapsed time (sec):        3.020
  
                   Maximum memory used (kb):       61944.
                   Average memory used (kb):           0.
  
                          Minor page faults:        21752
                          Major page faults:            0
                 Voluntary context switches:         1844
