PROCAR new format
# of k-points:  110         # of bands:   12         # of ions:    1

 k-point     1 :    0.05000000 0.05000000 0.05000000     weight = 0.00200000

band     1 # energy   -4.22336113 # occ.  2.00000000
 
ion      s      p      d    tot
    1  0.693  0.005  0.000  0.698
 
band     2 # energy    1.00906690 # occ.  2.00000000
 
ion      s      p      d    tot
    1  0.000  0.001  0.947  0.948
 
band     3 # energy    1.07170491 # occ.  2.00000000
 
ion      s      p      d    tot
    1  0.000  0.000  0.949  0.950
 
band     4 # energy    1.07170491 # occ.  2.00000000
 
ion      s      p      d    tot
    1  0.000  0.000  0.949  0.950
 
band     5 # energy    2.63800108 # occ.  2.00000000
 
ion      s      p      d    tot
    1  0.000  0.000  0.968  0.968
 
band     6 # energy    2.63800108 # occ.  2.00000000
 
ion      s      p      d    tot
    1  0.000  0.000  0.968  0.968
 
band     7 # energy   21.32706477 # occ.  0.00000000
 
ion      s      p      d    tot
    1  0.000  0.000  0.011  0.011
 
band     8 # energy   24.53793533 # occ.  0.00000000
 
ion      s      p      d    tot
    1  0.014  0.204  0.013  0.231
 
band     9 # energy   25.31611038 # occ.  0.00000000
 
ion      s      p      d    tot
    1  0.000  0.221  0.008  0.229
 
band    10 # energy   25.31611038 # occ.  0.00000000
 
ion      s      p      d    tot
    1  0.000  0.221  0.008  0.229
 
band    11 # energy   30.19557207 # occ.  0.00000000
 
ion      s      p      d    tot
    1  0.046  0.054  0.012  0.113
 
band    12 # energy   33.36335224 # occ.  0.00000000
 
ion      s      p      d    tot
    1  0.010  0.150  0.400  0.561
 

 k-point     2 :    0.15000000 0.05000000 0.05000000     weight = 0.00600000

band     1 # energy   -3.75879625 # occ.  2.00000000
 
ion      s      p      d    tot
    1  0.666  0.030  0.004  0.700
 
band     2 # energy    0.85066672 # occ.  2.00000000
 
ion      s      p      d    tot
    1  0.000  0.006  0.932  0.938
 
band     3 # energy    1.21586973 # occ.  2.00000000
 
ion      s      p      d    tot
    1  0.000  0.000  0.949  0.949
 
band     4 # energy    1.24990678 # occ.  2.00000000
 
ion      s      p      d    tot
    1  0.001  0.005  0.942  0.948
 
band     5 # energy    2.48631336 # occ.  2.00000000
 
ion      s      p      d    tot
    1  0.000  0.000  0.961  0.961
 
band     6 # energy    2.69182423 # occ.  2.00000000
 
ion      s      p      d    tot
    1  0.000  0.000  0.965  0.966
 
band     7 # energy   21.69041948 # occ.  0.00000000
 
ion      s      p      d    tot
    1  0.004  0.040  0.093  0.137
 
band     8 # energy   22.56683459 # occ.  0.00000000
 
ion      s      p      d    tot
    1  0.044  0.175  0.032  0.251
 
band     9 # energy   24.96756149 # occ.  0.00000000
 
ion      s      p      d    tot
    1  0.000  0.285  0.055  0.340
 
band    10 # energy   26.26394201 # occ.  0.00000000
 
ion      s      p      d    tot
    1  0.000  0.213  0.039  0.253
 
band    11 # energy   29.69697911 # occ.  0.00000000
 
ion      s      p      d    tot
    1  0.002  0.295  0.149  0.446
 
band    12 # energy   32.36677417 # occ.  0.00000000
 
ion      s      p      d    tot
    1  0.001  0.172  0.239  0.412
 

 k-point     3 :    0.25000000 0.05000000 0.05000000     weight = 0.00600000

band     1 # energy   -2.75541314 # occ.  2.00000000
 
ion      s      p      d    tot
    1  0.584  0.070  0.062  0.715
 
band     2 # energy    0.72610484 # occ.  2.00000000
 
ion      s      p      d    tot
    1  0.017  0.039  0.854  0.910
 
band     3 # energy    1.37349621 # occ.  2.00000000
 
ion      s      p      d    tot
    1  0.002  0.008  0.933  0.943
 
band     4 # energy    1.39818689 # occ.  2.00000000
 
ion      s      p      d    tot
    1  0.000  0.001  0.947  0.947
 
band     5 # energy    2.49173530 # occ.  2.00000000
 
ion      s      p      d    tot
    1  0.000  0.001  0.954  0.955
 
band     6 # energy    2.91341732 # occ.  2.00000000
 
ion      s      p      d    tot
    1  0.003  0.004  0.954  0.961
 
band     7 # energy   18.70209228 # occ.  0.00000000
 
ion      s      p      d    tot
    1  0.104  0.284  0.163  0.551
 
band     8 # energy   22.30701405 # occ.  0.00000000
 
ion      s      p      d    tot
    1  0.003  0.029  0.107  0.140
 
band     9 # energy   25.18541418 # occ.  0.00000000
 
ion      s      p      d    tot
    1  0.003  0.387  0.116  0.507
 
band    10 # energy   27.59767436 # occ.  0.00000000
 
ion      s      p      d    tot
    1  0.000  0.321  0.124  0.445
 
band    11 # energy   27.62938070 # occ.  0.00000000
 
ion      s      p      d    tot
    1  0.022  0.199  0.038  0.259
 
band    12 # energy   30.13746057 # occ.  0.00000000
 
ion      s      p      d    tot
    1  0.000  0.231  0.221  0.452
 

 k-point     4 :    0.35000000 0.05000000 0.05000000     weight = 0.00600000

band     1 # energy   -1.86397660 # occ.  2.00000000
 
ion      s      p      d    tot
    1  0.388  0.051  0.345  0.784
 
band     2 # energy    1.18638192 # occ.  2.00000000
 
ion      s      p      d    tot
    1  0.015  0.020  0.895  0.930
 
band     3 # energy    1.27621897 # occ.  2.00000000
 
ion      s      p      d    tot
    1  0.000  0.000  0.943  0.943
 
band     4 # energy    1.41404821 # occ.  2.00000000
 
ion      s      p      d    tot
    1  0.092  0.153  0.590  0.834
 
band     5 # energy    2.99979856 # occ.  2.00000000
 
ion      s      p      d    tot
    1  0.000  0.003  0.956  0.959
 
band     6 # energy    3.50298361 # occ.  2.00000000
 
ion      s      p      d    tot
    1  0.016  0.016  0.926  0.958
 
band     7 # energy   14.65233900 # occ.  0.00000000
 
ion      s      p      d    tot
    1  0.200  0.296  0.209  0.706
 
band     8 # energy   21.60732388 # occ.  0.00000000
 
ion      s      p      d    tot
    1  0.000  0.038  0.070  0.107
 
band     9 # energy   24.22858312 # occ.  0.00000000
 
ion      s      p      d    tot
    1  0.010  0.483  0.101  0.594
 
band    10 # energy   26.46532572 # occ.  0.00000000
 
ion      s      p      d    tot
    1  0.000  0.531  0.088  0.619
 
band    11 # energy   28.81687163 # occ.  0.00000000
 
ion      s      p      d    tot
    1  0.027  0.073  0.137  0.238
 
band    12 # energy   29.94373260 # occ.  0.00000000
 
ion      s      p      d    tot
    1  0.000  0.005  0.359  0.364
 

 k-point     5 :    0.45000000 0.05000000 0.05000000     weight = 0.00600000

band     1 # energy   -1.64585688 # occ.  2.00000000
 
ion      s      p      d    tot
    1  0.236  0.011  0.597  0.844
 
band     2 # energy    1.02975638 # occ.  2.00000000
 
ion      s      p      d    tot
    1  0.000  0.002  0.935  0.937
 
band     3 # energy    1.10221013 # occ.  2.00000000
 
ion      s      p      d    tot
    1  0.000  0.000  0.939  0.939
 
band     4 # energy    2.96273785 # occ.  2.00000000
 
ion      s      p      d    tot
    1  0.063  0.248  0.495  0.806
 
band     5 # energy    3.62689300 # occ.  2.00000000
 
ion      s      p      d    tot
    1  0.000  0.001  0.968  0.970
 
band     6 # energy    4.39682608 # occ.  2.00000000
 
ion      s      p      d    tot
    1  0.064  0.163  0.646  0.873
 
band     7 # energy   10.84284332 # occ. -0.00000000
 
ion      s      p      d    tot
    1  0.346  0.182  0.283  0.810
 
band     8 # energy   20.81764808 # occ.  0.00000000
 
ion      s      p      d    tot
    1  0.000  0.028  0.027  0.055
 
band     9 # energy   23.26866550 # occ.  0.00000000
 
ion      s      p      d    tot
    1  0.009  0.502  0.046  0.557
 
band    10 # energy   24.39191332 # occ.  0.00000000
 
ion      s      p      d    tot
    1  0.000  0.513  0.031  0.543
 
band    11 # energy   30.67316241 # occ.  0.00000000
 
ion      s      p      d    tot
    1  0.016  0.010  0.392  0.418
 
band    12 # energy   30.96339955 # occ.  0.00000000
 
ion      s      p      d    tot
    1  0.000  0.006  0.526  0.531
 

 k-point     6 :   -0.45000000 0.05000000 0.05000000     weight = 0.00600000

band     1 # energy   -1.64290620 # occ.  2.00000000
 
ion      s      p      d    tot
    1  0.207  0.004  0.645  0.856
 
band     2 # energy    0.96105628 # occ.  2.00000000
 
ion      s      p      d    tot
    1  0.000  0.001  0.934  0.935
 
band     3 # energy    1.06269972 # occ.  2.00000000
 
ion      s      p      d    tot
    1  0.000  0.001  0.938  0.939
 
band     4 # energy    3.40184016 # occ.  2.00000000
 
ion      s      p      d    tot
    1  0.002  0.146  0.736  0.884
 
band     5 # energy    3.91978813 # occ.  2.00000000
 
ion      s      p      d    tot
    1  0.000  0.000  0.977  0.977
 
band     6 # energy    5.24589750 # occ.  2.00008508
 
ion      s      p      d    tot
    1  0.010  0.454  0.254  0.718
 
band     7 # energy    9.16995022 # occ. -0.00000000
 
ion      s      p      d    tot
    1  0.489  0.017  0.382  0.887
 
band     8 # energy   20.60205354 # occ.  0.00000000
 
ion      s      p      d    tot
    1  0.000  0.024  0.015  0.040
 
band     9 # energy   23.31865931 # occ.  0.00000000
 
ion      s      p      d    tot
    1  0.009  0.501  0.029  0.539
 
band    10 # energy   23.43699786 # occ.  0.00000000
 
ion      s      p      d    tot
    1  0.000  0.515  0.016  0.530
 
band    11 # energy   31.19960254 # occ.  0.00000000
 
ion      s      p      d    tot
    1  0.000  0.001  0.528  0.529
 
band    12 # energy   31.27585665 # occ.  0.00000000
 
ion      s      p      d    tot
    1  0.002  0.001  0.539  0.542
 

 k-point     7 :   -0.35000000 0.05000000 0.05000000     weight = 0.00600000

band     1 # energy   -1.67157154 # occ.  2.00000000
 
ion      s      p      d    tot
    1  0.269  0.020  0.542  0.831
 
band     2 # energy    1.06155779 # occ.  2.00000000
 
ion      s      p      d    tot
    1  0.000  0.000  0.937  0.937
 
band     3 # energy    1.17578570 # occ.  2.00000000
 
ion      s      p      d    tot
    1  0.000  0.002  0.939  0.941
 
band     4 # energy    2.37753321 # occ.  2.00000000
 
ion      s      p      d    tot
    1  0.099  0.236  0.463  0.798
 
band     5 # energy    3.70755182 # occ.  2.00000000
 
ion      s      p      d    tot
    1  0.000  0.001  0.971  0.972
 
band     6 # energy    3.82902576 # occ.  2.00000000
 
ion      s      p      d    tot
    1  0.052  0.094  0.762  0.908
 
band     7 # energy   12.02067820 # occ.  0.00000000
 
ion      s      p      d    tot
    1  0.288  0.238  0.249  0.775
 
band     8 # energy   21.05819576 # occ.  0.00000000
 
ion      s      p      d    tot
    1  0.000  0.025  0.030  0.055
 
band     9 # energy   23.74969128 # occ.  0.00000000
 
ion      s      p      d    tot
    1  0.000  0.515  0.064  0.579
 
band    10 # energy   24.59435972 # occ.  0.00000000
 
ion      s      p      d    tot
    1  0.013  0.490  0.067  0.570
 
band    11 # energy   30.61531557 # occ.  0.00000000
 
ion      s      p      d    tot
    1  0.007  0.038  0.394  0.439
 
band    12 # energy   30.74929038 # occ.  0.00000000
 
ion      s      p      d    tot
    1  0.000  0.002  0.372  0.373
 

 k-point     8 :   -0.25000000 0.05000000 0.05000000     weight = 0.00600000

band     1 # energy   -2.08797031 # occ.  2.00000000
 
ion      s      p      d    tot
    1  0.463  0.067  0.225  0.755
 
band     2 # energy    0.98407795 # occ.  2.00000000
 
ion      s      p      d    tot
    1  0.066  0.100  0.701  0.867
 
band     3 # energy    1.29136904 # occ.  2.00000000
 
ion      s      p      d    tot
    1  0.004  0.012  0.916  0.933
 
band     4 # energy    1.35611172 # occ.  2.00000000
 
ion      s      p      d    tot
    1  0.000  0.003  0.941  0.945
 
band     5 # energy    2.90550260 # occ.  2.00000000
 
ion      s      p      d    tot
    1  0.012  0.013  0.925  0.950
 
band     6 # energy    3.18331827 # occ.  2.00000000
 
ion      s      p      d    tot
    1  0.000  0.002  0.962  0.964
 
band     7 # energy   16.01371431 # occ.  0.00000000
 
ion      s      p      d    tot
    1  0.164  0.305  0.195  0.664
 
band     8 # energy   21.98796374 # occ.  0.00000000
 
ion      s      p      d    tot
    1  0.000  0.023  0.076  0.099
 
band     9 # energy   24.73709208 # occ.  0.00000000
 
ion      s      p      d    tot
    1  0.000  0.484  0.143  0.628
 
band    10 # energy   26.59812226 # occ.  0.00000000
 
ion      s      p      d    tot
    1  0.026  0.444  0.111  0.581
 
band    11 # energy   28.49262973 # occ.  0.00000000
 
ion      s      p      d    tot
    1  0.006  0.165  0.126  0.298
 
band    12 # energy   30.30988306 # occ.  0.00000000
 
ion      s      p      d    tot
    1  0.000  0.026  0.183  0.210
 

 k-point     9 :   -0.15000000 0.05000000 0.05000000     weight = 0.00600000

band     1 # energy   -3.12378013 # occ.  2.00000000
 
ion      s      p      d    tot
    1  0.620  0.058  0.028  0.706
 
band     2 # energy    0.71572909 # occ.  2.00000000
 
ion      s      p      d    tot
    1  0.007  0.021  0.896  0.923
 
band     3 # energy    1.36575611 # occ.  2.00000000
 
ion      s      p      d    tot
    1  0.001  0.004  0.941  0.946
 
band     4 # energy    1.37931810 # occ.  2.00000000
 
ion      s      p      d    tot
    1  0.000  0.004  0.943  0.948
 
band     5 # energy    2.44580792 # occ.  2.00000000
 
ion      s      p      d    tot
    1  0.002  0.002  0.951  0.955
 
band     6 # energy    2.78494574 # occ.  2.00000000
 
ion      s      p      d    tot
    1  0.000  0.001  0.963  0.964
 
band     7 # energy   19.98842199 # occ.  0.00000000
 
ion      s      p      d    tot
    1  0.077  0.259  0.148  0.484
 
band     8 # energy   22.39480771 # occ.  0.00000000
 
ion      s      p      d    tot
    1  0.005  0.004  0.073  0.082
 
band     9 # energy   25.19092345 # occ.  0.00000000
 
ion      s      p      d    tot
    1  0.000  0.364  0.127  0.491
 
band    10 # energy   26.72328141 # occ.  0.00000000
 
ion      s      p      d    tot
    1  0.000  0.215  0.079  0.294
 
band    11 # energy   28.39443470 # occ.  0.00000000
 
ion      s      p      d    tot
    1  0.026  0.340  0.067  0.433
 
band    12 # energy   30.99565356 # occ.  0.00000000
 
ion      s      p      d    tot
    1  0.000  0.124  0.172  0.295
 

 k-point    10 :   -0.05000000 0.05000000 0.05000000     weight = 0.00600000

band     1 # energy   -3.98703662 # occ.  2.00000000
 
ion      s      p      d    tot
    1  0.680  0.018  0.001  0.699
 
band     2 # energy    0.89855845 # occ.  2.00000000
 
ion      s      p      d    tot
    1  0.000  0.002  0.942  0.943
 
band     3 # energy    1.17139391 # occ.  2.00000000
 
ion      s      p      d    tot
    1  0.000  0.002  0.947  0.949
 
band     4 # energy    1.17783837 # occ.  2.00000000
 
ion      s      p      d    tot
    1  0.000  0.002  0.947  0.949
 
band     5 # energy    2.51108896 # occ.  2.00000000
 
ion      s      p      d    tot
    1  0.000  0.000  0.963  0.963
 
band     6 # energy    2.69844759 # occ.  2.00000000
 
ion      s      p      d    tot
    1  0.000  0.000  0.968  0.968
 
band     7 # energy   21.58277713 # occ.  0.00000000
 
ion      s      p      d    tot
    1  0.000  0.003  0.042  0.045
 
band     8 # energy   23.61868696 # occ.  0.00000000
 
ion      s      p      d    tot
    1  0.032  0.187  0.031  0.251
 
band     9 # energy   25.07450316 # occ.  0.00000000
 
ion      s      p      d    tot
    1  0.000  0.264  0.043  0.307
 
band    10 # energy   25.44736993 # occ.  0.00000000
 
ion      s      p      d    tot
    1  0.002  0.223  0.030  0.256
 
band    11 # energy   30.84746265 # occ.  0.00000000
 
ion      s      p      d    tot
    1  0.004  0.237  0.101  0.341
 
band    12 # energy   32.58917723 # occ.  0.00000000
 
ion      s      p      d    tot
    1  0.000  0.165  0.338  0.503
 

 k-point    11 :    0.15000000 0.15000000 0.05000000     weight = 0.00600000

band     1 # energy   -3.52827063 # occ.  2.00000000
 
ion      s      p      d    tot
    1  0.652  0.042  0.006  0.700
 
band     2 # energy    0.67373767 # occ.  2.00000000
 
ion      s      p      d    tot
    1  0.000  0.002  0.934  0.936
 
band     3 # energy    1.37906337 # occ.  2.00000000
 
ion      s      p      d    tot
    1  0.000  0.006  0.941  0.947
 
band     4 # energy    1.38379212 # occ.  2.00000000
 
ion      s      p      d    tot
    1  0.000  0.006  0.942  0.948
 
band     5 # energy    2.27881757 # occ.  2.00000000
 
ion      s      p      d    tot
    1  0.003  0.001  0.949  0.954
 
band     6 # energy    2.81421353 # occ.  2.00000000
 
ion      s      p      d    tot
    1  0.000  0.000  0.969  0.969
 
band     7 # energy   21.99802962 # occ.  0.00000000
 
ion      s      p      d    tot
    1  0.004  0.035  0.110  0.148
 
band     8 # energy   22.74449786 # occ.  0.00000000
 
ion      s      p      d    tot
    1  0.046  0.157  0.052  0.255
 
band     9 # energy   24.43111759 # occ.  0.00000000
 
ion      s      p      d    tot
    1  0.000  0.339  0.100  0.439
 
band    10 # energy   25.04918848 # occ.  0.00000000
 
ion      s      p      d    tot
    1  0.005  0.242  0.079  0.326
 
band    11 # energy   30.11696304 # occ.  0.00000000
 
ion      s      p      d    tot
    1  0.044  0.458  0.075  0.577
 
band    12 # energy   31.78801863 # occ.  0.00000000
 
ion      s      p      d    tot
    1  0.000  0.126  0.199  0.326
 

 k-point    12 :    0.25000000 0.15000000 0.05000000     weight = 0.01200000

band     1 # energy   -2.69403302 # occ.  2.00000000
 
ion      s      p      d    tot
    1  0.590  0.081  0.036  0.707
 
band     2 # energy    0.41631115 # occ.  2.00000000
 
ion      s      p      d    tot
    1  0.001  0.009  0.914  0.925
 
band     3 # energy    1.47940585 # occ.  2.00000000
 
ion      s      p      d    tot
    1  0.000  0.009  0.932  0.940
 
band     4 # energy    1.67121610 # occ.  2.00000000
 
ion      s      p      d    tot
    1  0.000  0.007  0.940  0.947
 
band     5 # energy    2.22367170 # occ.  2.00000000
 
ion      s      p      d    tot
    1  0.014  0.011  0.919  0.944
 
band     6 # energy    3.04252944 # occ.  2.00000000
 
ion      s      p      d    tot
    1  0.003  0.003  0.961  0.967
 
band     7 # energy   20.24773201 # occ.  0.00000000
 
ion      s      p      d    tot
    1  0.084  0.269  0.133  0.487
 
band     8 # energy   22.05365471 # occ.  0.00000000
 
ion      s      p      d    tot
    1  0.007  0.188  0.206  0.401
 
band     9 # energy   24.02343698 # occ.  0.00000000
 
ion      s      p      d    tot
    1  0.000  0.238  0.087  0.325
 
band    10 # energy   25.28563179 # occ.  0.00000000
 
ion      s      p      d    tot
    1  0.003  0.164  0.131  0.299
 
band    11 # energy   28.08180483 # occ.  0.00000000
 
ion      s      p      d    tot
    1  0.091  0.526  0.020  0.637
 
band    12 # energy   30.94367428 # occ.  0.00000000
 
ion      s      p      d    tot
    1  0.005  0.145  0.170  0.319
 

 k-point    13 :    0.35000000 0.15000000 0.05000000     weight = 0.01200000

band     1 # energy   -1.67303728 # occ.  2.00000000
 
ion      s      p      d    tot
    1  0.433  0.090  0.231  0.754
 
band     2 # energy    0.50374768 # occ.  2.00000000
 
ion      s      p      d    tot
    1  0.040  0.064  0.781  0.885
 
band     3 # energy    1.16597171 # occ.  2.00000000
 
ion      s      p      d    tot
    1  0.001  0.007  0.921  0.928
 
band     4 # energy    1.68117783 # occ.  2.00000000
 
ion      s      p      d    tot
    1  0.002  0.008  0.934  0.944
 
band     5 # energy    2.90999801 # occ.  2.00000000
 
ion      s      p      d    tot
    1  0.025  0.029  0.886  0.940
 
band     6 # energy    3.64312375 # occ.  2.00000000
 
ion      s      p      d    tot
    1  0.027  0.022  0.907  0.956
 
band     7 # energy   16.24564241 # occ.  0.00000000
 
ion      s      p      d    tot
    1  0.164  0.324  0.177  0.666
 
band     8 # energy   21.51370670 # occ.  0.00000000
 
ion      s      p      d    tot
    1  0.007  0.256  0.193  0.456
 
band     9 # energy   22.95911802 # occ.  0.00000000
 
ion      s      p      d    tot
    1  0.013  0.254  0.093  0.359
 
band    10 # energy   25.18773940 # occ.  0.00000000
 
ion      s      p      d    tot
    1  0.041  0.286  0.171  0.498
 
band    11 # energy   28.84375307 # occ.  0.00000000
 
ion      s      p      d    tot
    1  0.019  0.396  0.015  0.430
 
band    12 # energy   30.63519466 # occ.  0.00000000
 
ion      s      p      d    tot
    1  0.010  0.015  0.232  0.257
 

 k-point    14 :    0.45000000 0.15000000 0.05000000     weight = 0.01200000

band     1 # energy   -1.28737469 # occ.  2.00000000
 
ion      s      p      d    tot
    1  0.233  0.037  0.566  0.836
 
band     2 # energy    0.85234285 # occ.  2.00000000
 
ion      s      p      d    tot
    1  0.000  0.009  0.909  0.919
 
band     3 # energy    1.40617715 # occ.  2.00000000
 
ion      s      p      d    tot
    1  0.033  0.082  0.774  0.889
 
band     4 # energy    1.57087775 # occ.  2.00000000
 
ion      s      p      d    tot
    1  0.036  0.078  0.778  0.892
 
band     5 # energy    3.68935615 # occ.  2.00000000
 
ion      s      p      d    tot
    1  0.004  0.014  0.945  0.964
 
band     6 # energy    4.84975572 # occ.  2.00000000
 
ion      s      p      d    tot
    1  0.108  0.136  0.641  0.886
 
band     7 # energy   12.21337052 # occ.  0.00000000
 
ion      s      p      d    tot
    1  0.275  0.266  0.218  0.759
 
band     8 # energy   20.98176718 # occ.  0.00000000
 
ion      s      p      d    tot
    1  0.002  0.170  0.142  0.313
 
band     9 # energy   21.70844877 # occ.  0.00000000
 
ion      s      p      d    tot
    1  0.030  0.389  0.096  0.515
 
band    10 # energy   23.87530954 # occ.  0.00000000
 
ion      s      p      d    tot
    1  0.023  0.411  0.107  0.541
 
band    11 # energy   30.66117445 # occ.  0.00000000
 
ion      s      p      d    tot
    1  0.004  0.064  0.236  0.305
 
band    12 # energy   31.80387917 # occ.  0.00000000
 
ion      s      p      d    tot
    1  0.009  0.052  0.351  0.412
 

 k-point    15 :   -0.45000000 0.15000000 0.05000000     weight = 0.01200000

band     1 # energy   -1.26716844 # occ.  2.00000000
 
ion      s      p      d    tot
    1  0.177  0.021  0.662  0.859
 
band     2 # energy    0.71907654 # occ.  2.00000000
 
ion      s      p      d    tot
    1  0.000  0.009  0.908  0.917
 
band     3 # energy    1.37116780 # occ.  2.00000000
 
ion      s      p      d    tot
    1  0.000  0.005  0.933  0.938
 
band     4 # energy    2.32461126 # occ.  2.00000000
 
ion      s      p      d    tot
    1  0.003  0.171  0.685  0.859
 
band     5 # energy    3.87143830 # occ.  2.00000000
 
ion      s      p      d    tot
    1  0.000  0.000  0.974  0.975
 
band     6 # energy    6.72733096 # occ. -0.00000003
 
ion      s      p      d    tot
    1  0.018  0.409  0.329  0.756
 
band     7 # energy    9.14760039 # occ. -0.00000000
 
ion      s      p      d    tot
    1  0.490  0.033  0.345  0.869
 
band     8 # energy   20.50538196 # occ.  0.00000000
 
ion      s      p      d    tot
    1  0.009  0.157  0.128  0.294
 
band     9 # energy   21.36838856 # occ.  0.00000000
 
ion      s      p      d    tot
    1  0.035  0.425  0.105  0.566
 
band    10 # energy   23.07877041 # occ.  0.00000000
 
ion      s      p      d    tot
    1  0.002  0.427  0.028  0.457
 
band    11 # energy   31.17664139 # occ.  0.00000000
 
ion      s      p      d    tot
    1  0.012  0.004  0.445  0.461
 
band    12 # energy   32.20913224 # occ.  0.00000000
 
ion      s      p      d    tot
    1  0.002  0.005  0.376  0.383
 

 k-point    16 :   -0.35000000 0.15000000 0.05000000     weight = 0.01200000

band     1 # energy   -1.24904208 # occ.  2.00000000
 
ion      s      p      d    tot
    1  0.205  0.030  0.613  0.848
 
band     2 # energy    0.80310790 # occ.  2.00000000
 
ion      s      p      d    tot
    1  0.000  0.007  0.914  0.921
 
band     3 # energy    1.39664923 # occ.  2.00000000
 
ion      s      p      d    tot
    1  0.000  0.006  0.931  0.937
 
band     4 # energy    1.98440547 # occ.  2.00000000
 
ion      s      p      d    tot
    1  0.041  0.182  0.614  0.837
 
band     5 # energy    3.54060351 # occ.  2.00000000
 
ion      s      p      d    tot
    1  0.001  0.008  0.955  0.964
 
band     6 # energy    5.56564363 # occ.  2.05183661
 
ion      s      p      d    tot
    1  0.126  0.181  0.553  0.860
 
band     7 # energy   11.06248837 # occ. -0.00000000
 
ion      s      p      d    tot
    1  0.318  0.219  0.253  0.790
 
band     8 # energy   20.22361042 # occ.  0.00000000
 
ion      s      p      d    tot
    1  0.019  0.290  0.163  0.472
 
band     9 # energy   21.76962117 # occ.  0.00000000
 
ion      s      p      d    tot
    1  0.023  0.248  0.056  0.327
 
band    10 # energy   24.04677509 # occ.  0.00000000
 
ion      s      p      d    tot
    1  0.002  0.468  0.069  0.539
 
band    11 # energy   30.30487441 # occ.  0.00000000
 
ion      s      p      d    tot
    1  0.014  0.027  0.297  0.337
 
band    12 # energy   31.86632107 # occ.  0.00000000
 
ion      s      p      d    tot
    1  0.000  0.021  0.418  0.439
 

 k-point    17 :   -0.25000000 0.15000000 0.05000000     weight = 0.01200000

band     1 # energy   -1.42915732 # occ.  2.00000000
 
ion      s      p      d    tot
    1  0.362  0.076  0.347  0.784
 
band     2 # energy    0.79415216 # occ.  2.00000000
 
ion      s      p      d    tot
    1  0.053  0.081  0.748  0.882
 
band     3 # energy    1.11359284 # occ.  2.00000000
 
ion      s      p      d    tot
    1  0.010  0.038  0.854  0.903
 
band     4 # energy    1.59209951 # occ.  2.00000000
 
ion      s      p      d    tot
    1  0.004  0.007  0.929  0.940
 
band     5 # energy    2.81837652 # occ.  2.00000000
 
ion      s      p      d    tot
    1  0.006  0.012  0.931  0.949
 
band     6 # energy    4.20240996 # occ.  2.00000000
 
ion      s      p      d    tot
    1  0.062  0.045  0.836  0.943
 
band     7 # energy   14.89691081 # occ.  0.00000000
 
ion      s      p      d    tot
    1  0.200  0.311  0.188  0.699
 
band     8 # energy   20.49968561 # occ.  0.00000000
 
ion      s      p      d    tot
    1  0.018  0.310  0.213  0.541
 
band     9 # energy   22.87343034 # occ.  0.00000000
 
ion      s      p      d    tot
    1  0.019  0.205  0.040  0.263
 
band    10 # energy   26.06530886 # occ.  0.00000000
 
ion      s      p      d    tot
    1  0.012  0.378  0.142  0.533
 
band    11 # energy   28.42791803 # occ.  0.00000000
 
ion      s      p      d    tot
    1  0.002  0.184  0.093  0.278
 
band    12 # energy   30.95965764 # occ.  0.00000000
 
ion      s      p      d    tot
    1  0.007  0.086  0.326  0.418
 

 k-point    18 :   -0.15000000 0.15000000 0.05000000     weight = 0.01200000

band     1 # energy   -2.33275570 # occ.  2.00000000
 
ion      s      p      d    tot
    1  0.557  0.093  0.066  0.715
 
band     2 # energy    0.46063315 # occ.  2.00000000
 
ion      s      p      d    tot
    1  0.003  0.023  0.892  0.918
 
band     3 # energy    1.36985759 # occ.  2.00000000
 
ion      s      p      d    tot
    1  0.002  0.014  0.918  0.934
 
band     4 # energy    1.69466256 # occ.  2.00000000
 
ion      s      p      d    tot
    1  0.000  0.003  0.945  0.948
 
band     5 # energy    2.21886495 # occ.  2.00000000
 
ion      s      p      d    tot
    1  0.006  0.006  0.934  0.946
 
band     6 # energy    3.31288720 # occ.  2.00000000
 
ion      s      p      d    tot
    1  0.017  0.011  0.933  0.961
 
band     7 # energy   18.84248014 # occ.  0.00000000
 
ion      s      p      d    tot
    1  0.122  0.284  0.136  0.542
 
band     8 # energy   21.14235834 # occ.  0.00000000
 
ion      s      p      d    tot
    1  0.008  0.272  0.254  0.533
 
band     9 # energy   24.58768983 # occ.  0.00000000
 
ion      s      p      d    tot
    1  0.008  0.199  0.045  0.251
 
band    10 # energy   25.60547559 # occ.  0.00000000
 
ion      s      p      d    tot
    1  0.015  0.149  0.066  0.230
 
band    11 # energy   29.15420187 # occ.  0.00000000
 
ion      s      p      d    tot
    1  0.022  0.323  0.078  0.423
 
band    12 # energy   29.82560543 # occ.  0.00000000
 
ion      s      p      d    tot
    1  0.005  0.370  0.201  0.576
 

 k-point    19 :   -0.05000000 0.15000000 0.05000000     weight = 0.01200000

band     1 # energy   -3.31614039 # occ.  2.00000000
 
ion      s      p      d    tot
    1  0.637  0.052  0.013  0.702
 
band     2 # energy    0.67739270 # occ.  2.00000000
 
ion      s      p      d    tot
    1  0.001  0.009  0.923  0.932
 
band     3 # energy    1.38164992 # occ.  2.00000000
 
ion      s      p      d    tot
    1  0.001  0.008  0.936  0.945
 
band     4 # energy    1.39214823 # occ.  2.00000000
 
ion      s      p      d    tot
    1  0.000  0.003  0.945  0.948
 
band     5 # energy    2.32095342 # occ.  2.00000000
 
ion      s      p      d    tot
    1  0.002  0.002  0.950  0.954
 
band     6 # energy    2.82317295 # occ.  2.00000000
 
ion      s      p      d    tot
    1  0.001  0.001  0.964  0.966
 
band     7 # energy   21.22953959 # occ.  0.00000000
 
ion      s      p      d    tot
    1  0.057  0.216  0.122  0.395
 
band     8 # energy   22.16430175 # occ.  0.00000000
 
ion      s      p      d    tot
    1  0.012  0.056  0.104  0.172
 
band     9 # energy   24.53425103 # occ.  0.00000000
 
ion      s      p      d    tot
    1  0.000  0.311  0.068  0.379
 
band    10 # energy   26.36433569 # occ.  0.00000000
 
ion      s      p      d    tot
    1  0.000  0.209  0.094  0.303
 
band    11 # energy   28.76246476 # occ.  0.00000000
 
ion      s      p      d    tot
    1  0.026  0.327  0.070  0.422
 
band    12 # energy   31.80868449 # occ.  0.00000000
 
ion      s      p      d    tot
    1  0.007  0.244  0.192  0.443
 

 k-point    20 :    0.25000000 0.25000000 0.05000000     weight = 0.00600000

band     1 # energy   -2.13887665 # occ.  2.00000000
 
ion      s      p      d    tot
    1  0.525  0.104  0.085  0.715
 
band     2 # energy    0.04757794 # occ.  2.00000000
 
ion      s      p      d    tot
    1  0.000  0.002  0.919  0.921
 