<?xml version="1.0" encoding="ISO-8859-1"?>
<modeling>
 <generator>
  <i name="program" type="string">vasp </i>
  <i name="version" type="string">5.4.4.18Apr17-6-g9f103f2a35  </i>
  <i name="subversion" type="string">(build May 18 2018 14:42:58) complex            parallel </i>
  <i name="platform" type="string">LinuxIFC </i>
  <i name="date" type="string">2020 06 30 </i>
  <i name="time" type="string">13:40:51 </i>
 </generator>
 <incar>
  <i type="string" name="SYSTEM"> fcc Au</i>
  <i type="string" name="PREC">normal</i>
  <v name="RWIGS">      1.50300000</v>
  <v type="int" name="KPOINT_BSE">    -1     0     0     0</v>
 </incar>
 <structure name="primitive_cell" >
  <crystal>
   <varray name="basis" >
    <v>       0.00000000       2.02500000       2.02500000 </v>
    <v>       2.02500000       0.00000000       2.02500000 </v>
    <v>       2.02500000       2.02500000       0.00000000 </v>
   </varray>
   <i name="volume">     16.60753125 </i>
   <varray name="rec_basis" >
    <v>      -0.24691358       0.24691358       0.24691358 </v>
    <v>       0.24691358      -0.24691358       0.24691358 </v>
    <v>       0.24691358       0.24691358      -0.24691358 </v>
   </varray>
  </crystal>
  <varray name="positions" >
   <v>       0.00000000       0.00000000       0.00000000 </v>
  </varray>
 </structure>
 <varray name="primitive_index" >
  <v type="int" >        1 </v>
 </varray>
 <kpoints>
  <generation param="Monkhorst-Pack">
   <v type="int" name="divisions">      10       10       10 </v>
   <v name="usershift">      0.00000000       0.00000000       0.00000000 </v>
   <v name="genvec1">      0.10000000       0.00000000       0.00000000 </v>
   <v name="genvec2">      0.00000000       0.10000000       0.00000000 </v>
   <v name="genvec3">      0.00000000       0.00000000       0.10000000 </v>
   <v name="shift">      0.50000000       0.50000000       0.50000000 </v>
  </generation>
  <varray name="kpointlist" >
   <v>       0.05000000       0.05000000       0.05000000 </v>
   <v>       0.15000000       0.05000000       0.05000000 </v>
   <v>       0.25000000       0.05000000       0.05000000 </v>
   <v>       0.35000000       0.05000000       0.05000000 </v>
   <v>       0.45000000       0.05000000       0.05000000 </v>
   <v>      -0.45000000       0.05000000       0.05000000 </v>
   <v>      -0.35000000       0.05000000       0.05000000 </v>
   <v>      -0.25000000       0.05000000       0.05000000 </v>
   <v>      -0.15000000       0.05000000       0.05000000 </v>
   <v>      -0.05000000       0.05000000       0.05000000 </v>
   <v>       0.15000000       0.15000000       0.05000000 </v>
   <v>       0.25000000       0.15000000       0.05000000 </v>
   <v>       0.35000000       0.15000000       0.05000000 </v>
   <v>       0.45000000       0.15000000       0.05000000 </v>
   <v>      -0.45000000       0.15000000       0.05000000 </v>
   <v>      -0.35000000       0.15000000       0.05000000 </v>
   <v>      -0.25000000       0.15000000       0.05000000 </v>
   <v>      -0.15000000       0.15000000       0.05000000 </v>
   <v>      -0.05000000       0.15000000       0.05000000 </v>
   <v>       0.25000000       0.25000000       0.05000000 </v>
   <v>       0.35000000       0.25000000       0.05000000 </v>
   <v>       0.45000000       0.25000000       0.05000000 </v>
   <v>      -0.45000000       0.25000000       0.05000000 </v>
   <v>      -0.35000000       0.25000000       0.05000000 </v>
   <v>      -0.25000000       0.25000000       0.05000000 </v>
   <v>      -0.15000000       0.25000000       0.05000000 </v>
   <v>      -0.05000000       0.25000000       0.05000000 </v>
   <v>       0.35000000       0.35000000       0.05000000 </v>
   <v>       0.45000000       0.35000000       0.05000000 </v>
   <v>      -0.45000000       0.35000000       0.05000000 </v>
   <v>      -0.35000000       0.35000000       0.05000000 </v>
   <v>      -0.25000000       0.35000000       0.05000000 </v>
   <v>      -0.15000000       0.35000000       0.05000000 </v>
   <v>      -0.05000000       0.35000000       0.05000000 </v>
   <v>       0.45000000       0.45000000       0.05000000 </v>
   <v>      -0.45000000       0.45000000       0.05000000 </v>
   <v>      -0.35000000       0.45000000       0.05000000 </v>
   <v>      -0.25000000       0.45000000       0.05000000 </v>
   <v>      -0.15000000       0.45000000       0.05000000 </v>
   <v>      -0.05000000       0.45000000       0.05000000 </v>
   <v>      -0.45000000      -0.45000000       0.05000000 </v>
   <v>      -0.35000000      -0.45000000       0.05000000 </v>
   <v>      -0.25000000      -0.45000000       0.05000000 </v>
   <v>      -0.15000000      -0.45000000       0.05000000 </v>
   <v>      -0.35000000      -0.35000000       0.05000000 </v>
   <v>      -0.25000000      -0.35000000       0.05000000 </v>
   <v>      -0.15000000      -0.35000000       0.05000000 </v>
   <v>      -0.25000000      -0.25000000       0.05000000 </v>
   <v>      -0.15000000      -0.25000000       0.05000000 </v>
   <v>      -0.15000000      -0.15000000       0.05000000 </v>
   <v>       0.15000000       0.15000000       0.15000000 </v>
   <v>       0.25000000       0.15000000       0.15000000 </v>
   <v>       0.35000000       0.15000000       0.15000000 </v>
   <v>       0.45000000       0.15000000       0.15000000 </v>
   <v>      -0.45000000       0.15000000       0.15000000 </v>
   <v>      -0.35000000       0.15000000       0.15000000 </v>
   <v>      -0.25000000       0.15000000       0.15000000 </v>
   <v>      -0.15000000       0.15000000       0.15000000 </v>
   <v>       0.25000000       0.25000000       0.15000000 </v>
   <v>       0.35000000       0.25000000       0.15000000 </v>
   <v>       0.45000000       0.25000000       0.15000000 </v>
   <v>      -0.45000000       0.25000000       0.15000000 </v>
   <v>      -0.35000000       0.25000000       0.15000000 </v>
   <v>      -0.25000000       0.25000000       0.15000000 </v>
   <v>      -0.15000000       0.25000000       0.15000000 </v>
   <v>       0.35000000       0.35000000       0.15000000 </v>
   <v>       0.45000000       0.35000000       0.15000000 </v>
   <v>      -0.45000000       0.35000000       0.15000000 </v>
   <v>      -0.35000000       0.35000000       0.15000000 </v>
   <v>      -0.25000000       0.35000000       0.15000000 </v>
   <v>      -0.15000000       0.35000000       0.15000000 </v>
   <v>       0.45000000       0.45000000       0.15000000 </v>
   <v>      -0.45000000       0.45000000       0.15000000 </v>
   <v>      -0.35000000       0.45000000       0.15000000 </v>
   <v>      -0.25000000       0.45000000       0.15000000 </v>
   <v>      -0.15000000       0.45000000       0.15000000 </v>
   <v>      -0.45000000      -0.45000000       0.15000000 </v>
   <v>      -0.35000000      -0.45000000       0.15000000 </v>
   <v>      -0.25000000      -0.45000000       0.15000000 </v>
   <v>      -0.35000000      -0.35000000       0.15000000 </v>
   <v>      -0.25000000      -0.35000000       0.15000000 </v>
   <v>      -0.25000000      -0.25000000       0.15000000 </v>
   <v>       0.25000000       0.25000000       0.25000000 </v>
   <v>       0.35000000       0.25000000       0.25000000 </v>
   <v>       0.45000000       0.25000000       0.25000000 </v>
   <v>      -0.45000000       0.25000000       0.25000000 </v>
   <v>      -0.35000000       0.25000000       0.25000000 </v>
   <v>      -0.25000000       0.25000000       0.25000000 </v>
   <v>       0.35000000       0.35000000       0.25000000 </v>
   <v>       0.45000000       0.35000000       0.25000000 </v>
   <v>      -0.45000000       0.35000000       0.25000000 </v>
   <v>      -0.35000000       0.35000000       0.25000000 </v>
   <v>      -0.25000000       0.35000000       0.25000000 </v>
   <v>       0.45000000       0.45000000       0.25000000 </v>
   <v>      -0.45000000       0.45000000       0.25000000 </v>
   <v>      -0.35000000       0.45000000       0.25000000 </v>
   <v>      -0.25000000       0.45000000       0.25000000 </v>
   <v>      -0.45000000      -0.45000000       0.25000000 </v>
   <v>      -0.35000000      -0.45000000       0.25000000 </v>
   <v>      -0.35000000      -0.35000000       0.25000000 </v>
   <v>       0.35000000       0.35000000       0.35000000 </v>
   <v>       0.45000000       0.35000000       0.35000000 </v>
   <v>      -0.45000000       0.35000000       0.35000000 </v>
   <v>      -0.35000000       0.35000000       0.35000000 </v>
   <v>       0.45000000       0.45000000       0.35000000 </v>
   <v>      -0.45000000       0.45000000       0.35000000 </v>
   <v>      -0.35000000       0.45000000       0.35000000 </v>
   <v>      -0.45000000      -0.45000000       0.35000000 </v>
   <v>       0.45000000       0.45000000       0.45000000 </v>
   <v>      -0.45000000       0.45000000       0.45000000 </v>
  </varray>
  <varray name="weights" >
   <v>       0.00200000 </v>
   <v>       0.00600000 </v>
   <v>       0.00600000 </v>
   <v>       0.00600000 </v>
   <v>       0.00600000 </v>
   <v>       0.00600000 </v>
   <v>       0.00600000 </v>
   <v>       0.00600000 </v>
   <v>       0.00600000 </v>
   <v>       0.00600000 </v>
   <v>       0.00600000 </v>
   <v>       0.01200000 </v>
   <v>       0.01200000 </v>
   <v>       0.01200000 </v>
   <v>       0.01200000 </v>
   <v>       0.01200000 </v>
   <v>       0.01200000 </v>
   <v>       0.01200000 </v>
   <v>       0.01200000 </v>
   <v>       0.00600000 </v>
   <v>       0.01200000 </v>
   <v>       0.01200000 </v>
   <v>       0.01200000 </v>
   <v>       0.01200000 </v>
   <v>       0.01200000 </v>
   <v>       0.01200000 </v>
   <v>       0.01200000 </v>
   <v>       0.00600000 </v>
   <v>       0.01200000 </v>
   <v>       0.01200000 </v>
   <v>       0.01200000 </v>
   <v>       0.01200000 </v>
   <v>       0.01200000 </v>
   <v>       0.01200000 </v>
   <v>       0.00600000 </v>
   <v>       0.01200000 </v>
   <v>       0.01200000 </v>
   <v>       0.01200000 </v>
   <v>       0.01200000 </v>
   <v>       0.01200000 </v>
   <v>       0.00600000 </v>
   <v>       0.01200000 </v>
   <v>       0.01200000 </v>
   <v>       0.01200000 </v>
   <v>       0.00600000 </v>
   <v>       0.01200000 </v>
   <v>       0.01200000 </v>
   <v>       0.00600000 </v>
   <v>       0.01200000 </v>
   <v>       0.00600000 </v>
   <v>       0.00200000 </v>
   <v>       0.00600000 </v>
   <v>       0.00600000 </v>
   <v>       0.00600000 </v>
   <v>       0.00600000 </v>
   <v>       0.00600000 </v>
   <v>       0.00600000 </v>
   <v>       0.00600000 </v>
   <v>       0.00600000 </v>
   <v>       0.01200000 </v>
   <v>       0.01200000 </v>
   <v>       0.01200000 </v>
   <v>       0.01200000 </v>
   <v>       0.01200000 </v>
   <v>       0.01200000 </v>
   <v>       0.00600000 </v>
   <v>       0.01200000 </v>
   <v>       0.01200000 </v>
   <v>       0.01200000 </v>
   <v>       0.01200000 </v>
   <v>       0.01200000 </v>
   <v>       0.00600000 </v>
   <v>       0.01200000 </v>
   <v>       0.01200000 </v>
   <v>       0.01200000 </v>
   <v>       0.01200000 </v>
   <v>       0.00600000 </v>
   <v>       0.01200000 </v>
   <v>       0.01200000 </v>
   <v>       0.00600000 </v>
   <v>       0.01200000 </v>
   <v>       0.00600000 </v>
   <v>       0.00200000 </v>
   <v>       0.00600000 </v>
   <v>       0.00600000 </v>
   <v>       0.00600000 </v>
   <v>       0.00600000 </v>
   <v>       0.00600000 </v>
   <v>       0.00600000 </v>
   <v>       0.01200000 </v>
   <v>       0.01200000 </v>
   <v>       0.01200000 </v>
   <v>       0.01200000 </v>
   <v>       0.00600000 </v>
   <v>       0.01200000 </v>
   <v>       0.01200000 </v>
   <v>       0.01200000 </v>
   <v>       0.00600000 </v>
   <v>       0.01200000 </v>
   <v>       0.00600000 </v>
   <v>       0.00200000 </v>
   <v>       0.00600000 </v>
   <v>       0.00600000 </v>
   <v>       0.00600000 </v>
   <v>       0.00600000 </v>
   <v>       0.01200000 </v>
   <v>       0.01200000 </v>
   <v>       0.00600000 </v>
   <v>       0.00200000 </v>
   <v>       0.00600000 </v>
  </varray>
 </kpoints>
 <parameters>
  <separator name="general" >
   <i type="string" name="SYSTEM">fcc Au</i>
   <i type="logical" name="LCOMPAT"> F  </i>
  </separator>
  <separator name="electronic" >
   <i type="string" name="PREC">normal</i>
   <i name="ENMAX">    229.86900000</i>
   <i name="ENAUG">    356.67000000</i>
   <i name="EDIFF">      0.00010000</i>
   <i type="int" name="IALGO">    38</i>
   <i type="int" name="IWAVPR">    10</i>
   <i type="int" name="NBANDS">    12</i>
   <i name="NELECT">     11.00000000</i>
   <i type="int" name="TURBO">     0</i>
   <i type="int" name="IRESTART">     0</i>
   <i type="int" name="NREBOOT">     0</i>
   <i type="int" name="NMIN">     0</i>
   <i name="EREF">      0.00000000</i>
   <separator name="electronic smearing" >
    <i type="int" name="ISMEAR">     1</i>
    <i name="SIGMA">      0.20000000</i>
    <i name="KSPACING">      0.50000000</i>
    <i type="logical" name="KGAMMA"> T  </i>
   </separator>
   <separator name="electronic projectors" >
    <i type="logical" name="LREAL"> F  </i>
    <v name="ROPT">      0.00000000</v>
    <i type="int" name="LMAXPAW">  -100</i>
    <i type="int" name="LMAXMIX">     2</i>
    <i type="logical" name="NLSPLINE"> F  </i>
   </separator>
   <separator name="electronic startup" >
    <i type="int" name="ISTART">     0</i>
    <i type="int" name="ICHARG">     2</i>
    <i type="int" name="INIWAV">     1</i>
   </separator>
   <separator name="electronic spin" >
    <i type="int" name="ISPIN">     1</i>
    <i type="logical" name="LNONCOLLINEAR"> F  </i>
    <v name="MAGMOM">      1.00000000</v>
    <i name="NUPDOWN">     -1.00000000</i>
    <i type="logical" name="LSORBIT"> F  </i>
    <v name="SAXIS">      0.00000000      0.00000000      1.00000000</v>
    <i type="logical" name="LSPIRAL"> F  </i>
    <v name="QSPIRAL">      0.00000000      0.00000000      0.00000000</v>
    <i type="logical" name="LZEROZ"> F  </i>
   </separator>
   <separator name="electronic exchange-correlation" >
    <i type="logical" name="LASPH"> F  </i>
    <i type="logical" name="LMETAGGA"> F  </i>
   </separator>
   <separator name="electronic convergence" >
    <i type="int" name="NELM">    60</i>
    <i type="int" name="NELMDL">    -5</i>
    <i type="int" name="NELMIN">     2</i>
    <i name="ENINI">    229.86900000</i>
    <separator name="electronic convergence detail" >
     <i type="logical" name="LDIAG"> T  </i>
     <i type="logical" name="LSUBROT"> F  </i>
     <i name="WEIMIN">      0.00000000</i>
     <i name="EBREAK">      0.00000208</i>
     <i name="DEPER">      0.30000000</i>
     <i type="int" name="NRMM">     4</i>
     <i name="TIME">      0.40000000</i>
    </separator>
   </separator>
   <separator name="electronic mixer" >
    <i name="AMIX">      0.40000000</i>
    <i name="BMIX">      1.00000000</i>
    <i name="AMIN">      0.10000000</i>
    <i name="AMIX_MAG">      1.60000000</i>
    <i name="BMIX_MAG">      1.00000000</i>
    <separator name="electronic mixer details" >
     <i type="int" name="IMIX">     4</i>
     <i type="logical" name="MIXFIRST"> F  </i>
     <i type="int" name="MAXMIX">   -45</i>
     <i name="WC">    100.00000000</i>
     <i type="int" name="INIMIX">     1</i>
     <i type="int" name="MIXPRE">     1</i>
     <i type="int" name="MREMOVE">     5</i>
    </separator>
   </separator>
   <separator name="electronic dipolcorrection" >
    <i type="logical" name="LDIPOL"> F  </i>
    <i type="logical" name="LMONO"> F  </i>
    <i type="int" name="IDIPOL">     0</i>
    <i name="EPSILON">      1.00000000</i>
    <v name="DIPOL">   -100.00000000   -100.00000000   -100.00000000</v>
    <i name="EFIELD">      0.00000000</i>
   </separator>
  </separator>
  <separator name="grids" >
   <i type="int" name="NGX">    12</i>
   <i type="int" name="NGY">    12</i>
   <i type="int" name="NGZ">    12</i>
   <i type="int" name="NGXF">    24</i>
   <i type="int" name="NGYF">    24</i>
   <i type="int" name="NGZF">    24</i>
   <i type="logical" name="ADDGRID"> F  </i>
  </separator>
  <separator name="ionic" >
   <i type="int" name="NSW">     0</i>
   <i type="int" name="IBRION">    -1</i>
   <i type="int" name="MDALGO">     0</i>
   <i type="int" name="ISIF">     2</i>
   <i name="PSTRESS">      0.00000000</i>
   <i name="EDIFFG">      0.00100000</i>
   <i type="int" name="NFREE">     0</i>
   <i name="POTIM">      0.50000000</i>
   <i name="SMASS">     -3.00000000</i>
   <i name="SCALEE">      1.00000000</i>
  </separator>
  <separator name="ionic md" >
   <i name="TEBEG">      0.00010000</i>
   <i name="TEEND">      0.00010000</i>
   <i type="int" name="NBLOCK">     1</i>
   <i type="int" name="KBLOCK">     1</i>
   <i type="int" name="NPACO">   256</i>
   <i name="APACO">     16.00000000</i>
  </separator>
  <separator name="symmetry" >
   <i type="int" name="ISYM">     2</i>
   <i name="SYMPREC">      0.00001000</i>
  </separator>
  <separator name="dos" >
   <i type="int" name="LORBIT">     0</i>
   <v name="RWIGS">      1.50300000</v>
   <i type="int" name="NEDOS">   301</i>
   <i name="EMIN">     10.00000000</i>
   <i name="EMAX">    -10.00000000</i>
   <i name="EFERMI">      0.00000000</i>
  </separator>
  <separator name="writing" >
   <i type="int" name="NWRITE">     2</i>
   <i type="logical" name="LWAVE"> T  </i>
   <i type="logical" name="LDOWNSAMPLE"> F  </i>
   <i type="logical" name="LCHARG"> T  </i>
   <i type="logical" name="LPARD"> F  </i>
   <i type="logical" name="LVTOT"> F  </i>
   <i type="logical" name="LVHAR"> F  </i>
   <i type="logical" name="LELF"> F  </i>
   <i type="logical" name="LOPTICS"> F  </i>
   <v name="STM">      0.00000000      0.00000000      0.00000000      0.00000000      0.00000000      0.00000000      0.00000000</v>
  </separator>
  <separator name="performance" >
   <i type="int" name="NPAR">     4</i>
   <i type="int" name="NSIM">     4</i>
   <i type="int" name="NBLK">    -1</i>
   <i type="logical" name="LPLANE"> T  </i>
   <i type="logical" name="LSCALAPACK"> T  </i>
   <i type="logical" name="LSCAAWARE"> F  </i>
   <i type="logical" name="LSCALU"> F  </i>
   <i type="logical" name="LASYNC"> F  </i>
   <i type="logical" name="LORBITALREAL"> F  </i>
  </separator>
  <separator name="miscellaneous" >
   <i type="int" name="IDIOT">     3</i>
   <i type="int" name="ISPECIAL">     0</i>
   <i type="logical" name="LMUSIC"> F  </i>
   <v name="POMASS">    196.96600000</v>
   <v name="DARWINR">      0.00000000</v>
   <v name="DARWINV">      1.00000000</v>
   <i type="logical" name="LCORR"> T  </i>
  </separator>
  <i type="logical" name="GGA_COMPAT"> T  </i>
  <i type="logical" name="LBERRY"> F  </i>
  <i type="int" name="ICORELEVEL">     0</i>
  <i type="logical" name="LDAU"> F  </i>
  <i type="int" name="I_CONSTRAINED_M">     0</i>
  <separator name="electronic exchange-correlation" >
   <i type="string" name="GGA">--</i>
   <i type="int" name="VOSKOWN">     0</i>
   <i type="logical" name="LHFCALC"> F  </i>
   <i type="string" name="PRECFOCK"></i>
   <i type="logical" name="LSYMGRAD"> F  </i>
   <i type="logical" name="LHFONE"> F  </i>
   <i type="logical" name="LRHFCALC"> F  </i>
   <i type="logical" name="LTHOMAS"> F  </i>
   <i type="logical" name="LMODELHF"> F  </i>
   <i name="ENCUT4O">     -1.00000000</i>
   <i type="int" name="EXXOEP">     0</i>
   <i type="int" name="FOURORBIT">     0</i>
   <i name="AEXX">      0.00000000</i>
   <i name="HFALPHA">      0.00000000</i>
   <i name="MCALPHA">      0.00000000</i>
   <i name="ALDAX">      1.00000000</i>
   <i name="AGGAX">      1.00000000</i>
   <i name="ALDAC">      1.00000000</i>
   <i name="AGGAC">      1.00000000</i>
   <i type="int" name="NKREDX">     1</i>
   <i type="int" name="NKREDY">     1</i>
   <i type="int" name="NKREDZ">     1</i>
   <i type="logical" name="SHIFTRED"> F  </i>
   <i type="logical" name="ODDONLY"> F  </i>
   <i type="logical" name="EVENONLY"> F  </i>
   <i type="int" name="LMAXFOCK">     0</i>
   <i type="int" name="NMAXFOCKAE">     0</i>
   <i type="logical" name="LFOCKAEDFT"> F  </i>
   <i name="HFSCREEN">      0.00000000</i>
   <i name="HFSCREENC">      0.00000000</i>
   <i type="int" name="NBANDSGWLOW">     0</i>
  </separator>
  <separator name="vdW DFT" >
   <i type="logical" name="LUSE_VDW"> F  </i>
   <i name="Zab_VDW">     -0.84910000</i>
   <i name="PARAM1">      0.12340000</i>
   <i name="PARAM2">      1.00000000</i>
   <i name="PARAM3">      0.00000000</i>
  </separator>
  <separator name="model GW" >
   <i type="int" name="MODEL_GW">     0</i>
   <i name="MODEL_EPS0">      9.96451875</i>
   <i name="MODEL_ALPHA">      1.00000000</i>
  </separator>
  <separator name="linear response parameters" >
   <i type="logical" name="LEPSILON"> F  </i>
   <i type="logical" name="LRPA"> F  </i>
   <i type="logical" name="LNABLA"> F  </i>
   <i type="logical" name="LVEL"> F  </i>
   <i type="int" name="KINTER">     0</i>
   <i name="CSHIFT">      0.10000000</i>
   <i name="OMEGAMAX">     -1.00000000</i>
   <i name="DEG_THRESHOLD">      0.00200000</i>
   <i name="RTIME">     -0.10000000</i>
   <i name="WPLASMAI">      0.00000000</i>
   <v name="DFIELD">      0.00000000      0.00000000      0.00000000</v>
   <v name="WPLASMA">      0.00000000      0.00000000      0.00000000      0.00000000      0.00000000      0.00000000      0.00000000      0.00000000      0.00000000</v>
  </separator>
  <separator name="orbital magnetization" >
   <i type="logical" name="NUCIND"> F  </i>
   <v name="MAGPOS">      0.00000000      0.00000000      0.00000000</v>
   <i type="logical" name="LNICSALL"> T  </i>
   <i type="logical" name="ORBITALMAG"> F  </i>
   <i type="logical" name="LMAGBLOCH"> F  </i>
   <i type="logical" name="LCHIMAG"> F  </i>
   <i type="logical" name="LGAUGE"> T  </i>
   <i type="int" name="MAGATOM">     0</i>
   <v name="MAGDIPOL">      0.00000000      0.00000000      0.00000000</v>
   <v name="AVECCONST">      0.00000000      0.00000000      0.00000000</v>
  </separator>
  <separator name="response functions" >
   <i type="logical" name="LADDER"> F  </i>
   <i type="logical" name="LRPAFORCE"> F  </i>
   <i type="logical" name="LFXC"> F  </i>
   <i type="logical" name="LHARTREE"> T  </i>
   <i type="int" name="IBSE">     0</i>
   <v type="int" name="KPOINT">    -1     0     0     0</v>
   <i type="logical" name="LTCTE"> F  </i>
   <i type="logical" name="LTETE"> F  </i>
   <i type="logical" name="LTRIPLET"> F  </i>
   <i type="logical" name="LFXCEPS"> F  </i>
   <i type="logical" name="LFXHEG"> F  </i>
   <i type="int" name="NATURALO">     2</i>
   <i type="logical" name="L2ORDER"> F  </i>
   <i type="logical" name="LMP2LT"> F  </i>
   <i type="logical" name="LUSEW"> F  </i>
   <i name="ENCUTGW">     -2.00000000</i>
   <i name="ENCUTGWSOFT">     -2.00000000</i>
   <i name="ENCUTLF">     -1.00000000</i>
   <i type="int" name="LMAXMP2">    -1</i>
   <i name="SCISSOR">      0.00000000</i>
   <i type="int" name="NOMEGA">     0</i>
   <i type="int" name="NOMEGAR">     0</i>
   <i type="int" name="NBANDSGW">    -1</i>
   <i type="int" name="NBANDSO">    -1</i>
   <i type="int" name="NBANDSV">    -1</i>
   <i type="int" name="NELM">     1</i>
   <i type="int" name="NELMHF">     1</i>
   <i type="int" name="DIM">     3</i>
   <i type="int" name="ANTIRES">     0</i>
   <i name="OMEGAMAX">    -30.00000000</i>
   <i name="OMEGAMIN">    -30.00000000</i>
   <i name="OMEGATL">   -200.00000000</i>
   <i type="int" name="OMEGAGRID">   140</i>
   <i name="CSHIFT">     -0.10000000</i>
   <i type="logical" name="SELFENERGY"> F  </i>
   <i type="logical" name="LSPECTRAL"> F  </i>
   <i type="logical" name="LSPECTRALGW"> F  </i>
   <i type="logical" name="LSINGLES"> F  </i>
   <i type="logical" name="LFERMIGW"> F  </i>
   <i type="logical" name="ODDONLYGW"> F  </i>
   <i type="logical" name="EVENONLYGW"> F  </i>
   <i type="int" name="NKREDLFX">     1</i>
   <i type="int" name="NKREDLFY">     1</i>
   <i type="int" name="NKREDLFZ">     1</i>
   <i type="int" name="MAXMEM">  2800</i>
   <i type="int" name="TELESCOPE">     0</i>
   <i type="int" name="TAUPAR">     1</i>
   <i type="int" name="OMEGAPAR">    -1</i>
   <i name="LAMBDA">      1.00000000</i>
  </separator>
  <separator name="External order field" >
   <i name="OFIELD_KAPPA">      0.00000000</i>
   <v name="OFIELD_K">      0.00000000      0.00000000      0.00000000</v>
   <i name="OFIELD_Q6_NEAR">      0.00000000</i>
   <i name="OFIELD_Q6_FAR">      0.00000000</i>
   <i name="OFIELD_A">      0.00000000</i>
  </separator>
 </parameters>
 <atominfo>
  <atoms>       1 </atoms>
  <types>       1 </types>
  <array name="atoms" >
   <dimension dim="1">ion</dimension>
   <field type="string">element</field>
   <field type="int">atomtype</field>
   <set>
    <rc><c>Au</c><c>   1</c></rc>
   </set>
  </array>
  <array name="atomtypes" >
   <dimension dim="1">type</dimension>
   <field type="int">atomspertype</field>
   <field type="string">element</field>
   <field>mass</field>
   <field>valence</field>
   <field type="string">pseudopotential</field>
   <set>
    <rc><c>   1</c><c>Au</c><c>    196.96600000</c><c>     11.00000000</c><c> PAW Au 04Feb1998                       </c></rc>
   </set>
  </array>
 </atominfo>
 <structure name="initialpos" >
  <crystal>
   <varray name="basis" >
    <v>       0.00000000       2.02500000       2.02500000 </v>
    <v>       2.02500000       0.00000000       2.02500000 </v>
    <v>       2.02500000       2.02500000       0.00000000 </v>
   </varray>
   <i name="volume">     16.60753125 </i>
   <varray name="rec_basis" >
    <v>      -0.24691358       0.24691358       0.24691358 </v>
    <v>       0.24691358      -0.24691358       0.24691358 </v>
    <v>       0.24691358       0.24691358      -0.24691358 </v>
   </varray>
  </crystal>
  <varray name="positions" >
   <v>       0.00000000       0.00000000       0.00000000 </v>
  </varray>
 </structure>
 <calculation>
  <scstep>
   <time name="dav">    0.26    0.26</time>
   <time name="total">    0.26    0.27</time>
   <energy>
    <i name="alphaZ">    110.66541513 </i>
    <i name="ewald">   -986.24019799 </i>
    <i name="hartreedc">   -119.59041952 </i>
    <i name="XCdc">     16.38782364 </i>
    <i name="pawpsdc">    746.10209728 </i>
    <i name="pawaedc">   -725.46159323 </i>
    <i name="eentropy">     -0.00223291 </i>
    <i name="bandstr">     58.11534166 </i>
    <i name="atom">    929.39614979 </i>
    <i name="e_fr_energy">     29.37238386 </i>
    <i name="e_wo_entrp">     29.37461676 </i>
    <i name="e_0_energy">     29.37312816 </i>
   </energy>
  </scstep>
  <scstep>
   <time name="dav">    0.21    0.22</time>
   <time name="total">    0.21    0.22</time>
   <energy>
    <i name="e_fr_energy">     -4.38686745 </i>
    <i name="e_wo_entrp">     -4.38596389 </i>
    <i name="e_0_energy">     -4.38656626 </i>
   </energy>
  </scstep>
  <scstep>
   <time name="dav">    0.24    0.24</time>
   <time name="total">    0.24    0.24</time>
   <energy>
    <i name="e_fr_energy">     -4.71275985 </i>
    <i name="e_wo_entrp">     -4.71210172 </i>
    <i name="e_0_energy">     -4.71254047 </i>
   </energy>
  </scstep>
  <scstep>
   <time name="dav">    0.23    0.23</time>
   <time name="total">    0.23    0.24</time>
   <energy>
    <i name="e_fr_energy">     -4.71363218 </i>
    <i name="e_wo_entrp">     -4.71297478 </i>
    <i name="e_0_energy">     -4.71341304 </i>
   </energy>
  </scstep>
  <scstep>
   <time name="dav">    0.23    0.23</time>
   <time name="total">    0.23    0.24</time>
   <energy>
    <i name="e_fr_energy">     -4.71363815 </i>
    <i name="e_wo_entrp">     -4.71298076 </i>
    <i name="e_0_energy">     -4.71341902 </i>
   </energy>
  </scstep>
  <scstep>
   <time name="dav">    0.25    0.25</time>
   <time name="total">    0.26    0.26</time>
   <energy>
    <i name="e_fr_energy">     -4.42148432 </i>
    <i name="e_wo_entrp">     -4.42210983 </i>
    <i name="e_0_energy">     -4.42169282 </i>
   </energy>
  </scstep>
  <scstep>
   <time name="dav">    0.24    0.24</time>
   <time name="total">    0.25    0.25</time>
   <energy>
    <i name="e_fr_energy">     -4.39622928 </i>
    <i name="e_wo_entrp">     -4.39710117 </i>
    <i name="e_0_energy">     -4.39651991 </i>
   </energy>
  </scstep>
  <scstep>
   <time name="dav">    0.24    0.25</time>
   <time name="total">    0.26    0.27</time>
   <energy>
    <i name="e_fr_energy">     -4.39124080 </i>
    <i name="e_wo_entrp">     -4.39212480 </i>
    <i name="e_0_energy">     -4.39153547 </i>
   </energy>
  </scstep>
  <scstep>
   <time name="dav">    0.19    0.19</time>
   <time name="total">    0.19    0.20</time>
   <energy>
    <i name="alphaZ">    110.66541513 </i>
    <i name="ewald">   -986.24019799 </i>
    <i name="hartreedc">   -108.39903405 </i>
    <i name="XCdc">     15.81049694 </i>
    <i name="pawpsdc">    755.93753317 </i>
    <i name="pawaedc">   -738.20108556 </i>
    <i name="eentropy">      0.00088456 </i>
    <i name="bandstr">     16.63859899 </i>
    <i name="atom">    929.39614979 </i>
    <i name="e_fr_energy">     -4.39123902 </i>
    <i name="e_wo_entrp">     -4.39212359 </i>
    <i name="e_0_energy">     -4.39153388 </i>
   </energy>
  </scstep>
  <structure>
   <crystal>
    <varray name="basis" >
     <v>       0.00000000       2.02500000       2.02500000 </v>
     <v>       2.02500000       0.00000000       2.02500000 </v>
     <v>       2.02500000       2.02500000       0.00000000 </v>
    </varray>
    <i name="volume">     16.60753125 </i>
    <varray name="rec_basis" >
     <v>      -0.24691358       0.24691358       0.24691358 </v>
     <v>       0.24691358      -0.24691358       0.24691358 </v>
     <v>       0.24691358       0.24691358      -0.24691358 </v>
    </varray>
   </crystal>
   <varray name="positions" >
    <v>       0.00000000       0.00000000       0.00000000 </v>
   </varray>
  </structure>
  <varray name="forces" >
   <v>      -0.00000000      -0.00000000      -0.00000000 </v>
  </varray>
  <varray name="stress" >
   <v>     -22.02697299       0.00000000      -0.00000000 </v>
   <v>       0.00000000     -22.02697299       0.00000000 </v>
   <v>       0.00000000       0.00000000     -22.02697299 </v>
  </varray>
  <energy>
   <i name="e_fr_energy">     -4.39123902 </i>
   <i name="e_wo_entrp">     -4.39153388 </i>
   <i name="e_0_energy">      0.00088456 </i>
  </energy>
  <time name="totalsc">    2.29    2.35</time>
  <eigenvalues>
   <array>
    <dimension dim="1">band</dimension>
    <dimension dim="2">kpoint</dimension>
    <dimension dim="3">spin</dimension>
    <field>eigene</field>
    <field>occ</field>
    <set>
     <set comment="spin 1">
      <set comment="kpoint 1">
       <r>   -4.2234    1.0000 </r>
       <r>    1.0091    1.0000 </r>
       <r>    1.0717    1.0000 </r>
       <r>    1.0717    1.0000 </r>
       <r>    2.6380    1.0000 </r>
       <r>    2.6380    1.0000 </r>
       <r>   21.3271    0.0000 </r>
       <r>   24.5379    0.0000 </r>
       <r>   25.3161    0.0000 </r>
       <r>   25.3161    0.0000 </r>
       <r>   30.1956    0.0000 </r>
       <r>   33.3634    0.0000 </r>
      </set>
      <set comment="kpoint 2">
       <r>   -3.7588    1.0000 </r>
       <r>    0.8507    1.0000 </r>
       <r>    1.2159    1.0000 </r>
       <r>    1.2499    1.0000 </r>
       <r>    2.4863    1.0000 </r>
       <r>    2.6918    1.0000 </r>
       <r>   21.6904    0.0000 </r>
       <r>   22.5668    0.0000 </r>
       <r>   24.9676    0.0000 </r>
       <r>   26.2639    0.0000 </r>
       <r>   29.6970    0.0000 </r>
       <r>   32.3668    0.0000 </r>
      </set>
      <set comment="kpoint 3">
       <r>   -2.7554    1.0000 </r>
       <r>    0.7261    1.0000 </r>
       <r>    1.3735    1.0000 </r>
       <r>    1.3982    1.0000 </r>
       <r>    2.4917    1.0000 </r>
       <r>    2.9134    1.0000 </r>
       <r>   18.7021    0.0000 </r>
       <r>   22.3070    0.0000 </r>
       <r>   25.1854    0.0000 </r>
       <r>   27.5977    0.0000 </r>
       <r>   27.6294    0.0000 </r>
       <r>   30.1375    0.0000 </r>
      </set>
      <set comment="kpoint 4">
       <r>   -1.8640    1.0000 </r>
       <r>    1.1864    1.0000 </r>
       <r>    1.2762    1.0000 </r>
       <r>    1.4140    1.0000 </r>
       <r>    2.9998    1.0000 </r>
       <r>    3.5030    1.0000 </r>
       <r>   14.6523    0.0000 </r>
       <r>   21.6073    0.0000 </r>
       <r>   24.2286    0.0000 </r>
       <r>   26.4653    0.0000 </r>
       <r>   28.8169    0.0000 </r>
       <r>   29.9437    0.0000 </r>
      </set>
      <set comment="kpoint 5">
       <r>   -1.6459    1.0000 </r>
       <r>    1.0298    1.0000 </r>
       <r>    1.1022    1.0000 </r>
       <r>    2.9627    1.0000 </r>
       <r>    3.6269    1.0000 </r>
       <r>    4.3968    1.0000 </r>
       <r>   10.8428   -0.0000 </r>
       <r>   20.8176    0.0000 </r>
       <r>   23.2687    0.0000 </r>
       <r>   24.3919    0.0000 </r>
       <r>   30.6732    0.0000 </r>
       <r>   30.9634    0.0000 </r>
      </set>
      <set comment="kpoint 6">
       <r>   -1.6429    1.0000 </r>
       <r>    0.9611    1.0000 </r>
       <r>    1.0627    1.0000 </r>
       <r>    3.4018    1.0000 </r>
       <r>    3.9198    1.0000 </r>
       <r>    5.2459    1.0000 </r>
       <r>    9.1700   -0.0000 </r>
       <r>   20.6021    0.0000 </r>
       <r>   23.3187    0.0000 </r>
       <r>   23.4370    0.0000 </r>
       <r>   31.1996    0.0000 </r>
       <r>   31.2759    0.0000 </r>
      </set>
      <set comment="kpoint 7">
       <r>   -1.6716    1.0000 </r>
       <r>    1.0616    1.0000 </r>
       <r>    1.1758    1.0000 </r>
       <r>    2.3775    1.0000 </r>
       <r>    3.7076    1.0000 </r>
       <r>    3.8290    1.0000 </r>
       <r>   12.0207    0.0000 </r>
       <r>   21.0582    0.0000 </r>
       <r>   23.7497    0.0000 </r>
       <r>   24.5944    0.0000 </r>
       <r>   30.6153    0.0000 </r>
       <r>   30.7493    0.0000 </r>
      </set>
      <set comment="kpoint 8">
       <r>   -2.0880    1.0000 </r>
       <r>    0.9841    1.0000 </r>
       <r>    1.2914    1.0000 </r>
       <r>    1.3561    1.0000 </r>
       <r>    2.9055    1.0000 </r>
       <r>    3.1833    1.0000 </r>
       <r>   16.0137    0.0000 </r>
       <r>   21.9880    0.0000 </r>
       <r>   24.7371    0.0000 </r>
       <r>   26.5981    0.0000 </r>
       <r>   28.4926    0.0000 </r>
       <r>   30.3099    0.0000 </r>
      </set>
      <set comment="kpoint 9">
       <r>   -3.1238    1.0000 </r>
       <r>    0.7157    1.0000 </r>
       <r>    1.3658    1.0000 </r>
       <r>    1.3793    1.0000 </r>
       <r>    2.4458    1.0000 </r>
       <r>    2.7849    1.0000 </r>
       <r>   19.9884    0.0000 </r>
       <r>   22.3948    0.0000 </r>
       <r>   25.1909    0.0000 </r>
       <r>   26.7233    0.0000 </r>
       <r>   28.3944    0.0000 </r>
       <r>   30.9957    0.0000 </r>
      </set>
      <set comment="kpoint 10">
       <r>   -3.9870    1.0000 </r>
       <r>    0.8986    1.0000 </r>
       <r>    1.1714    1.0000 </r>
       <r>    1.1778    1.0000 </r>
       <r>    2.5111    1.0000 </r>
       <r>    2.6984    1.0000 </r>
       <r>   21.5828    0.0000 </r>
       <r>   23.6187    0.0000 </r>
       <r>   25.0745    0.0000 </r>
       <r>   25.4474    0.0000 </r>
       <r>   30.8475    0.0000 </r>
       <r>   32.5892    0.0000 </r>
      </set>
      <set comment="kpoint 11">
       <r>   -3.5283    1.0000 </r>
       <r>    0.6737    1.0000 </r>
       <r>    1.3791    1.0000 </r>
       <r>    1.3838    1.0000 </r>
       <r>    2.2788    1.0000 </r>
       <r>    2.8142    1.0000 </r>
       <r>   21.9980    0.0000 </r>
       <r>   22.7445    0.0000 </r>
       <r>   24.4311    0.0000 </r>
       <r>   25.0492    0.0000 </r>
       <r>   30.1170    0.0000 </r>
       <r>   31.7880    0.0000 </r>
      </set>
      <set comment="kpoint 12">
       <r>   -2.6940    1.0000 </r>
       <r>    0.4163    1.0000 </r>
       <r>    1.4794    1.0000 </r>
       <r>    1.6712    1.0000 </r>
       <r>    2.2237    1.0000 </r>
       <r>    3.0425    1.0000 </r>
       <r>   20.2477    0.0000 </r>
       <r>   22.0537    0.0000 </r>
       <r>   24.0234    0.0000 </r>
       <r>   25.2856    0.0000 </r>
       <r>   28.0818    0.0000 </r>
       <r>   30.9437    0.0000 </r>
      </set>
      <set comment="kpoint 13">
       <r>   -1.6730    1.0000 </r>
       <r>    0.5037    1.0000 </r>
       <r>    1.1660    1.0000 </r>
       <r>    1.6812    1.0000 </r>
       <r>    2.9100    1.0000 </r>
       <r>    3.6431    1.0000 </r>
       <r>   16.2456    0.0000 </r>
       <r>   21.5137    0.0000 </r>
       <r>   22.9591    0.0000 </r>
       <r>   25.1877    0.0000 </r>
       <r>   28.8438    0.0000 </r>
       <r>   30.6352    0.0000 </r>
      </set>
      <set comment="kpoint 14">
       <r>   -1.2874    1.0000 </r>
       <r>    0.8523    1.0000 </r>
       <r>    1.4062    1.0000 </r>
       <r>    1.5709    1.0000 </r>
       <r>    3.6894    1.0000 </r>
       <r>    4.8498    1.0000 </r>
       <r>   12.2134    0.0000 </r>
       <r>   20.9818    0.0000 </r>
       <r>   21.7084    0.0000 </r>
       <r>   23.8753    0.0000 </r>
       <r>   30.6612    0.0000 </r>
       <r>   31.8039    0.0000 </r>
      </set>
      <set comment="kpoint 15">
       <r>   -1.2672    1.0000 </r>
       <r>    0.7191    1.0000 </r>
       <r>    1.3712    1.0000 </r>
       <r>    2.3246    1.0000 </r>
       <r>    3.8714    1.0000 </r>
       <r>    6.7273   -0.0000 </r>
       <r>    9.1476   -0.0000 </r>
       <r>   20.5054    0.0000 </r>
       <r>   21.3684    0.0000 </r>
       <r>   23.0788    0.0000 </r>
       <r>   31.1766    0.0000 </r>
       <r>   32.2091    0.0000 </r>
      </set>
      <set comment="kpoint 16">
       <r>   -1.2490    1.0000 </r>
       <r>    0.8031    1.0000 </r>
       <r>    1.3966    1.0000 </r>
       <r>    1.9844    1.0000 </r>
       <r>    3.5406    1.0000 </r>
       <r>    5.5656    1.0259 </r>
       <r>   11.0625   -0.0000 </r>
       <r>   20.2236    0.0000 </r>
       <r>   21.7696    0.0000 </r>
       <r>   24.0468    0.0000 </r>
       <r>   30.3049    0.0000 </r>
       <r>   31.8663    0.0000 </r>
      </set>
      <set comment="kpoint 17">
       <r>   -1.4292    1.0000 </r>
       <r>    0.7942    1.0000 </r>
       <r>    1.1136    1.0000 </r>
       <r>    1.5921    1.0000 </r>
       <r>    2.8184    1.0000 </r>
       <r>    4.2024    1.0000 </r>
       <r>   14.8969    0.0000 </r>
       <r>   20.4997    0.0000 </r>
       <r>   22.8734    0.0000 </r>
       <r>   26.0653    0.0000 </r>
       <r>   28.4279    0.0000 </r>
       <r>   30.9597    0.0000 </r>
      </set>
      <set comment="kpoint 18">
       <r>   -2.3328    1.0000 </r>
       <r>    0.4606    1.0000 </r>
       <r>    1.3699    1.0000 </r>
       <r>    1.6947    1.0000 </r>
       <r>    2.2189    1.0000 </r>
       <r>    3.3129    1.0000 </r>
       <r>   18.8425    0.0000 </r>
       <r>   21.1424    0.0000 </r>
       <r>   24.5877    0.0000 </r>
       <r>   25.6055    0.0000 </r>
       <r>   29.1542    0.0000 </r>
       <r>   29.8256    0.0000 </r>
      </set>
      <set comment="kpoint 19">
       <r>   -3.3161    1.0000 </r>
       <r>    0.6774    1.0000 </r>
       <r>    1.3816    1.0000 </r>
       <r>    1.3921    1.0000 </r>
       <r>    2.3210    1.0000 </r>
       <r>    2.8232    1.0000 </r>
       <r>   21.2295    0.0000 </r>
       <r>   22.1643    0.0000 </r>
       <r>   24.5343    0.0000 </r>
       <r>   26.3643    0.0000 </r>
       <r>   28.7625    0.0000 </r>
       <r>   31.8087    0.0000 </r>
      </set>
      <set comment="kpoint 20">
       <r>   -2.1389    1.0000 </r>
       <r>    0.0476    1.0000 </r>
       <r>    1.6368    1.0000 </r>
       <r>    2.0664    1.0000 </r>
       <r>    2.2667    1.0000 </r>
       <r>    3.1707    1.0000 </r>
       <r>   20.7243    0.0000 </r>
       <r>   21.8696    0.0000 </r>
       <r>   22.9246    0.0000 </r>
       <r>   23.8236    0.0000 </r>
       <r>   25.1294    0.0000 </r>
       <r>   32.3963    0.0000 </r>
      </set>
      <set comment="kpoint 21">
       <r>   -1.3324    1.0000 </r>
       <r>   -0.1853    1.0000 </r>
       <r>    1.3682    1.0000 </r>
       <r>    2.4278    1.0000 </r>
       <r>    2.9482    1.0000 </r>
       <r>    3.6674    1.0000 </r>
       <r>   17.9804    0.0000 </r>
       <r>   19.9499    0.0000 </r>
       <r>   21.5862    0.0000 </r>
       <r>   24.3068    0.0000 </r>
       <r>   25.7007    0.0000 </r>
       <r>   32.4676    0.0000 </r>
      </set>
      <set comment="kpoint 22">
       <r>   -0.8637    1.0000 </r>
       <r>    0.0805    1.0000 </r>
       <r>    1.1135    1.0000 </r>
       <r>    2.2898    1.0000 </r>
       <r>    3.7820    1.0000 </r>
       <r>    5.1303    1.0000 </r>
       <r>   13.8595    0.0000 </r>
       <r>   19.2640    0.0000 </r>
       <r>   19.8356    0.0000 </r>
       <r>   23.9084    0.0000 </r>
       <r>   28.9270    0.0000 </r>
       <r>   32.4480    0.0000 </r>
      </set>
      <set comment="kpoint 23">
       <r>   -0.7432    1.0000 </r>
       <r>    0.3515    1.0000 </r>
       <r>    1.3219    1.0000 </r>
       <r>    2.0835    1.0000 </r>
       <r>    3.9084    1.0000 </r>
       <r>    7.6265   -0.0000 </r>
       <r>   10.2325   -0.0000 </r>
       <r>   17.9664    0.0000 </r>
       <r>   19.9049    0.0000 </r>
       <r>   23.4731    0.0000 </r>
       <r>   31.5330    0.0000 </r>
       <r>   33.1472    0.0000 </r>
      </set>
      <set comment="kpoint 24">
       <r>   -0.5656    1.0000 </r>
       <r>    0.4194    1.0000 </r>
       <r>    1.3410    1.0000 </r>
       <r>    1.9747    1.0000 </r>
       <r>    3.4929    1.0000 </r>
       <r>    7.4627   -0.0000 </r>
       <r>   10.7818   -0.0000 </r>
       <r>   16.8679    0.0000 </r>
       <r>   21.1163    0.0000 </r>
       <r>   23.6516    0.0000 </r>
       <r>   30.6695    0.0000 </r>
       <r>   33.0554    0.0000 </r>
      </set>
      <set comment="kpoint 25">
       <r>   -0.4797    1.0000 </r>
       <r>    0.4992    1.0000 </r>
       <r>    0.7626    1.0000 </r>
       <r>    2.0574    1.0000 </r>
       <r>    2.7766    1.0000 </r>
       <r>    5.6479    1.0338 </r>
       <r>   14.2020    0.0000 </r>
       <r>   16.7883    0.0000 </r>
       <r>   22.3437    0.0000 </r>
       <r>   25.1547    0.0000 </r>
       <r>   28.4300    0.0000 </r>
       <r>   32.8818    0.0000 </r>
      </set>
      <set comment="kpoint 26">
       <r>   -1.2691    1.0000 </r>
       <r>    0.3792    1.0000 </r>
       <r>    1.0859    1.0000 </r>
       <r>    1.9318    1.0000 </r>
       <r>    2.3630    1.0000 </r>
       <r>    4.2963    1.0000 </r>
       <r>   16.3585    0.0000 </r>
       <r>   19.0540    0.0000 </r>
       <r>   23.3505    0.0000 </r>
       <r>   26.4405    0.0000 </r>
       <r>   27.5721    0.0000 </r>
       <r>   31.5051    0.0000 </r>
      </set>
      <set comment="kpoint 27">
       <r>   -2.2484    1.0000 </r>
       <r>    0.6468    1.0000 </r>
       <r>    1.3425    1.0000 </r>
       <r>    1.4972    1.0000 </r>
       <r>    2.5571    1.0000 </r>
       <r>    3.2377    1.0000 </r>
       <r>   17.4610    0.0000 </r>
       <r>   22.0500    0.0000 </r>
       <r>   24.2004    0.0000 </r>
       <r>   26.6245    0.0000 </r>
       <r>   28.4438    0.0000 </r>
       <r>   29.8573    0.0000 </r>
      </set>
      <set comment="kpoint 28">
       <r>   -1.1948    1.0000 </r>
       <r>   -0.5772    1.0000 </r>
       <r>    2.2746    1.0000 </r>
       <r>    2.9787    1.0000 </r>
       <r>    3.4170    1.0000 </r>
       <r>    3.6015    1.0000 </r>
       <r>   17.9176    0.0000 </r>
       <r>   18.9123    0.0000 </r>
       <r>   19.2026    0.0000 </r>
       <r>   23.1628    0.0000 </r>
       <r>   25.0905    0.0000 </r>
       <r>   34.9215    0.0000 </r>
      </set>
      <set comment="kpoint 29">
       <r>   -1.0493    1.0000 </r>
       <r>   -0.6895    1.0000 </r>
       <r>    2.3273    1.0000 </r>
       <r>    3.2893    1.0000 </r>
       <r>    3.7955    1.0000 </r>
       <r>    5.1742    1.0000 </r>
       <r>   15.0701    0.0000 </r>
       <r>   17.2078    0.0000 </r>
       <r>   17.8321    0.0000 </r>
       <r>   24.1933    0.0000 </r>
       <r>   26.1092    0.0000 </r>
       <r>   34.4734    0.0000 </r>
      </set>
      <set comment="kpoint 30">
       <r>   -0.8774    1.0000 </r>
       <r>   -0.3667    1.0000 </r>
       <r>    1.9595    1.0000 </r>
       <r>    2.9736    1.0000 </r>
       <r>    4.0128    1.0000 </r>
       <r>    7.8542   -0.0000 </r>
       <r>   11.8005    0.0000 </r>
       <r>   15.4708    0.0000 </r>
       <r>   17.9423    0.0000 </r>
       <r>   24.4045    0.0000 </r>
       <r>   28.8789    0.0000 </r>
       <r>   33.4618    0.0000 </r>
      </set>
      <set comment="kpoint 31">
       <r>   -0.5750    1.0000 </r>
       <r>    0.1572    1.0000 </r>
       <r>    1.3953    1.0000 </r>
       <r>    2.6304    1.0000 </r>
       <r>    3.6719    1.0000 </r>
       <r>    9.0854   -0.0000 </r>
       <r>   11.2354   -0.0000 </r>
       <r>   13.7849    0.0000 </r>
       <r>   19.3061    0.0000 </r>
       <r>   24.1452    0.0000 </r>
       <r>   32.0296    0.0000 </r>
       <r>   32.4797    0.0000 </r>
      </set>
      <set comment="kpoint 32">
       <r>   -0.2809    1.0000 </r>
       <r>    0.4622    1.0000 </r>
       <r>    0.8814    1.0000 </r>
       <r>    2.2575    1.0000 </r>
       <r>    3.2425    1.0000 </r>
       <r>    7.2889   -0.0000 </r>
       <r>   12.6574    0.0000 </r>
       <r>   14.7860    0.0000 </r>
       <r>   21.1225    0.0000 </r>
       <r>   24.0310    0.0000 </r>
       <r>   30.3181    0.0000 </r>
       <r>   33.3002    0.0000 </r>
      </set>
      <set comment="kpoint 33">
       <r>   -0.8800    1.0000 </r>
       <r>    0.6991    1.0000 </r>
       <r>    1.2073    1.0000 </r>
       <r>    1.7414    1.0000 </r>
       <r>    3.1534    1.0000 </r>
       <r>    5.6274    1.0355 </r>
       <r>   12.5974    0.0000 </r>
       <r>   18.5374    0.0000 </r>
       <r>   22.0634    0.0000 </r>
       <r>   24.6250    0.0000 </r>
       <r>   29.2784    0.0000 </r>
       <r>   32.3433    0.0000 </r>
      </set>
      <set comment="kpoint 34">
       <r>   -1.5905    1.0000 </r>
       <r>    1.0640    1.0000 </r>
       <r>    1.3221    1.0000 </r>
       <r>    1.5696    1.0000 </r>
       <r>    3.2890    1.0000 </r>
       <r>    4.0193    1.0000 </r>
       <r>   13.3878    0.0000 </r>
       <r>   21.3028    0.0000 </r>
       <r>   23.0049    0.0000 </r>
       <r>   25.3055    0.0000 </r>
       <r>   29.6818    0.0000 </r>
       <r>   30.7109    0.0000 </r>
      </set>
      <set comment="kpoint 35">
       <r>   -1.3203    1.0000 </r>
       <r>   -0.9886    1.0000 </r>
       <r>    3.6878    1.0000 </r>
       <r>    3.6938    1.0000 </r>
       <r>    4.0443    1.0000 </r>
       <r>    5.6454    1.0342 </r>
       <r>   13.6988    0.0000 </r>
       <r>   16.4503    0.0000 </r>
       <r>   16.7823    0.0000 </r>
       <r>   23.5092    0.0000 </r>
       <r>   25.9181    0.0000 </r>
       <r>   35.7895    0.0000 </r>
      </set>
      <set comment="kpoint 36">
       <r>   -1.2457    1.0000 </r>
       <r>   -0.9364    1.0000 </r>
       <r>    3.2860    1.0000 </r>
       <r>    3.6431    1.0000 </r>
       <r>    4.2009    1.0000 </r>
       <r>    7.6985   -0.0000 </r>
       <r>   11.8070    0.0000 </r>
       <r>   15.4089    0.0000 </r>
       <r>   16.3782    0.0000 </r>
       <r>   24.4620    0.0000 </r>
       <r>   26.4796    0.0000 </r>
       <r>   34.9073    0.0000 </r>
      </set>
      <set comment="kpoint 37">
       <r>   -0.9335    1.0000 </r>
       <r>   -0.4606    1.0000 </r>
       <r>    2.2579    1.0000 </r>
       <r>    3.1509    1.0000 </r>
       <r>    4.0100    1.0000 </r>
       <r>    9.2993   -0.0000 </r>
       <r>   10.9119   -0.0000 </r>
       <r>   14.1345    0.0000 </r>
       <r>   17.5873    0.0000 </r>
       <r>   24.6022    0.0000 </r>
       <r>   28.8875    0.0000 </r>
       <r>   33.6184    0.0000 </r>
      </set>
      <set comment="kpoint 38">
       <r>   -0.6093    1.0000 </r>
       <r>    0.2060    1.0000 </r>
       <r>    1.3499    1.0000 </r>
       <r>    2.3992    1.0000 </r>
       <r>    3.8029    1.0000 </r>
       <r>    9.1903   -0.0000 </r>
       <r>    9.7127   -0.0000 </r>
       <r>   15.8080    0.0000 </r>
       <r>   19.5047    0.0000 </r>
       <r>   23.8611    0.0000 </r>
       <r>   31.7506    0.0000 </r>
       <r>   32.8496    0.0000 </r>
      </set>
      <set comment="kpoint 39">
       <r>   -0.9375    1.0000 </r>
       <r>    0.5398    1.0000 </r>
       <r>    1.6459    1.0000 </r>
       <r>    1.8418    1.0000 </r>
       <r>    3.7416    1.0000 </r>
       <r>    7.5789   -0.0000 </r>
       <r>    9.2953   -0.0000 </r>
       <r>   18.9180    0.0000 </r>
       <r>   21.1177    0.0000 </r>
       <r>   23.2066    0.0000 </r>
       <r>   31.0458    0.0000 </r>
       <r>   32.6816    0.0000 </r>
      </set>
      <set comment="kpoint 40">
       <r>   -1.5095    1.0000 </r>
       <r>    0.8976    1.0000 </r>
       <r>    1.1814    1.0000 </r>
       <r>    2.7579    1.0000 </r>
       <r>    3.8259    1.0000 </r>
       <r>    5.4287    1.0036 </r>
       <r>    9.8548   -0.0000 </r>
       <r>   20.7460    0.0000 </r>
       <r>   22.4477    0.0000 </r>
       <r>   23.6065    0.0000 </r>
       <r>   31.0134    0.0000 </r>
       <r>   31.5404    0.0000 </r>
      </set>
      <set comment="kpoint 41">
       <r>   -1.3985    1.0000 </r>
       <r>   -1.0761    1.0000 </r>
       <r>    3.8195    1.0000 </r>
       <r>    3.9940    1.0000 </r>
       <r>    4.2161    1.0000 </r>
       <r>    6.8641   -0.0000 </r>
       <r>   12.0536    0.0000 </r>
       <r>   15.9301    0.0000 </r>
       <r>   16.2971    0.0000 </r>
       <r>   23.6538    0.0000 </r>
       <r>   26.0938    0.0000 </r>
       <r>   35.5817    0.0000 </r>
      </set>
      <set comment="kpoint 42">
       <r>   -1.1647    1.0000 </r>
       <r>   -0.8523    1.0000 </r>
       <r>    2.9084    1.0000 </r>
       <r>    3.5728    1.0000 </r>
       <r>    4.0361    1.0000 </r>
       <r>    6.4626   -0.0001 </r>
       <r>   13.3223    0.0000 </r>
       <r>   16.0204    0.0000 </r>
       <r>   16.8560    0.0000 </r>
       <r>   24.3423    0.0000 </r>
       <r>   26.3504    0.0000 </r>
       <r>   34.8541    0.0000 </r>
      </set>
      <set comment="kpoint 43">
       <r>   -0.8173    1.0000 </r>
       <r>   -0.1777    1.0000 </r>
       <r>    1.5117    1.0000 </r>
       <r>    2.6558    1.0000 </r>
       <r>    3.9600    1.0000 </r>
       <r>    6.3880   -0.0008 </r>
       <r>   12.7637    0.0000 </r>
       <r>   17.3986    0.0000 </r>
       <r>   18.6466    0.0000 </r>
       <r>   24.1098    0.0000 </r>
       <r>   28.8853    0.0000 </r>
       <r>   33.0825    0.0000 </r>
      </set>
      <set comment="kpoint 44">
       <r>   -0.9873    1.0000 </r>
       <r>    0.5900    1.0000 </r>
       <r>    1.3523    1.0000 </r>
       <r>    1.7786    1.0000 </r>
       <r>    3.8934    1.0000 </r>
       <r>    6.0943   -0.0329 </r>
       <r>   11.1455   -0.0000 </r>
       <r>   20.0223    0.0000 </r>
       <r>   20.4626    0.0000 </r>
       <r>   23.2981    0.0000 </r>
       <r>   31.2305    0.0000 </r>
       <r>   32.9085    0.0000 </r>
      </set>
      <set comment="kpoint 45">
       <r>   -1.2101    1.0000 </r>
       <r>   -0.8187    1.0000 </r>
       <r>    3.0829    1.0000 </r>
       <r>    3.4048    1.0000 </r>
       <r>    3.8183    1.0000 </r>
       <r>    4.3429    1.0000 </r>
       <r>   15.8895    0.0000 </r>
       <r>   17.4748    0.0000 </r>
       <r>   17.6871    0.0000 </r>
       <r>   23.3041    0.0000 </r>
       <r>   25.5781    0.0000 </r>
       <r>   35.8891    0.0000 </r>
      </set>
      <set comment="kpoint 46">
       <r>   -1.0302    1.0000 </r>
       <r>   -0.4611    1.0000 </r>
       <r>    1.7102    1.0000 </r>
       <r>    2.8703    1.0000 </r>
       <r>    3.4537    1.0000 </r>
       <r>    4.2153    1.0000 </r>
       <r>   16.6178    0.0000 </r>
       <r>   18.5908    0.0000 </r>
       <r>   19.5130    0.0000 </r>
       <r>   24.1533    0.0000 </r>
       <r>   25.8110    0.0000 </r>
       <r>   33.5887    0.0000 </r>
      </set>
      <set comment="kpoint 47">
       <r>   -1.1558    1.0000 </r>
       <r>    0.3250    1.0000 </r>
       <r>    0.9968    1.0000 </r>
       <r>    1.9511    1.0000 </r>
       <r>    3.4166    1.0000 </r>
       <r>    4.2066    1.0000 </r>
       <r>   15.0384    0.0000 </r>
       <r>   20.5310    0.0000 </r>
       <r>   21.5860    0.0000 </r>
       <r>   24.1239    0.0000 </r>
       <r>   28.9617    0.0000 </r>
       <r>   31.6031    0.0000 </r>
      </set>
      <set comment="kpoint 48">
       <r>   -1.4923    1.0000 </r>
       <r>   -0.2809    1.0000 </r>
       <r>    1.7208    1.0000 </r>
       <r>    2.5101    1.0000 </r>
       <r>    2.7647    1.0000 </r>
       <r>    3.3839    1.0000 </r>
       <r>   19.4528    0.0000 </r>
       <r>   20.3469    0.0000 </r>
       <r>   21.5433    0.0000 </r>
       <r>   23.3145    0.0000 </r>
       <r>   24.5227    0.0000 </r>
       <r>   33.5567    0.0000 </r>
      </set>
      <set comment="kpoint 49">
       <r>   -1.9725    1.0000 </r>
       <r>    0.1164    1.0000 </r>
       <r>    1.3930    1.0000 </r>
       <r>    2.0208    1.0000 </r>
       <r>    2.4628    1.0000 </r>
       <r>    3.3200    1.0000 </r>
       <r>   19.1849    0.0000 </r>
       <r>   21.2274    0.0000 </r>
       <r>   23.3267    0.0000 </r>
       <r>   24.4365    0.0000 </r>
       <r>   26.5337    0.0000 </r>
       <r>   31.4323    0.0000 </r>
      </set>
      <set comment="kpoint 50">
       <r>   -2.8833    1.0000 </r>
       <r>    0.3773    1.0000 </r>
       <r>    1.6282    1.0000 </r>
       <r>    1.6836    1.0000 </r>
       <r>    2.0681    1.0000 </r>
       <r>    2.9756    1.0000 </r>
       <r>   21.6910    0.0000 </r>
       <r>   22.7608    0.0000 </r>
       <r>   23.3090    0.0000 </r>
       <r>   24.2664    0.0000 </r>
       <r>   27.7822    0.0000 </r>
       <r>   31.7561    0.0000 </r>
      </set>
      <set comment="kpoint 51">
       <r>   -3.5423    1.0000 </r>
       <r>    0.8329    1.0000 </r>
       <r>    1.2695    1.0000 </r>
       <r>    1.2695    1.0000 </r>
       <r>    2.5910    1.0000 </r>
       <r>    2.5910    1.0000 </r>
       <r>   21.0747    0.0000 </r>
       <r>   22.2671    0.0000 </r>
       <r>   25.9759    0.0000 </r>
       <r>   25.9759    0.0000 </r>
       <r>   29.2592    0.0000 </r>
       <r>   31.7251    0.0000 </r>
      </set>
      <set comment="kpoint 52">
       <r>   -2.9063    1.0000 </r>
       <r>    0.6190    1.0000 </r>
       <r>    1.4002    1.0000 </r>
       <r>    1.4825    1.0000 </r>
       <r>    2.2642    1.0000 </r>
       <r>    2.9885    1.0000 </r>
       <r>   20.0143    0.0000 </r>
       <r>   21.8008    0.0000 </r>
       <r>   24.6393    0.0000 </r>
       <r>   26.8925    0.0000 </r>
       <r>   28.0220    0.0000 </r>
       <r>   31.2161    0.0000 </r>
      </set>
      <set comment="kpoint 53">
       <r>   -1.8370    1.0000 </r>
       <r>    0.4559    1.0000 </r>
       <r>    1.2865    1.0000 </r>
       <r>    1.7766    1.0000 </r>
       <r>    2.1686    1.0000 </r>
       <r>    3.7550    1.0000 </r>
       <r>   17.5504    0.0000 </r>
       <r>   20.1436    0.0000 </r>
       <r>   24.2824    0.0000 </r>
       <r>   26.0382    0.0000 </r>
       <r>   28.5388    0.0000 </r>
       <r>   30.5166    0.0000 </r>
      </set>
      <set comment="kpoint 54">
       <r>   -1.1607    1.0000 </r>
       <r>    0.8527    1.0000 </r>
       <r>    1.2300    1.0000 </r>
       <r>    1.5646    1.0000 </r>
       <r>    2.8701    1.0000 </r>
       <r>    4.8499    1.0000 </r>
       <r>   13.6836    0.0000 </r>
       <r>   19.4941    0.0000 </r>
       <r>   22.6754    0.0000 </r>
       <r>   25.6010    0.0000 </r>
       <r>   28.4927    0.0000 </r>
       <r>   31.6559    0.0000 </r>
      </set>
      <set comment="kpoint 55">
       <r>   -1.1331    1.0000 </r>
       <r>    0.7052    1.0000 </r>
       <r>    1.4496    1.0000 </r>
       <r>    2.0921    1.0000 </r>
       <r>    3.5886    1.0000 </r>
       <r>    6.4546   -0.0002 </r>
       <r>   10.0869   -0.0000 </r>
       <r>   19.5029    0.0000 </r>
       <r>   22.0218    0.0000 </r>
       <r>   23.2255    0.0000 </r>
       <r>   30.8362    0.0000 </r>
       <r>   31.9035    0.0000 </r>
      </set>
      <set comment="kpoint 56">
       <r>   -1.1734    1.0000 </r>
       <r>    0.6760    1.0000 </r>
       <r>    1.5001    1.0000 </r>
       <r>    1.9167    1.0000 </r>
       <r>    3.9521    1.0000 </r>
       <r>    6.4178   -0.0004 </r>
       <r>    9.9136   -0.0000 </r>
       <r>   20.2230    0.0000 </r>
       <r>   21.9176    0.0000 </r>
       <r>   22.2930    0.0000 </r>
       <r>   31.8559    0.0000 </r>
       <r>   32.0924    0.0000 </r>
      </set>
      <set comment="kpoint 57">
       <r>   -1.2522    1.0000 </r>
       <r>    0.7770    1.0000 </r>
       <r>    1.0182    1.0000 </r>
       <r>    1.6700    1.0000 </r>
       <r>    3.7964    1.0000 </r>
       <r>    4.2914    1.0000 </r>
       <r>   13.5472    0.0000 </r>
       <r>   21.3756    0.0000 </r>
       <r>   21.7663    0.0000 </r>
       <r>   23.3413    0.0000 </r>
       <r>   30.7781    0.0000 </r>
       <r>   31.7297    0.0000 </r>
      </set>
      <set comment="kpoint 58">
       <r>   -1.8653    1.0000 </r>
       <r>    0.2499    1.0000 </r>
       <r>    1.2937    1.0000 </r>
       <r>    1.8087    1.0000 </r>
       <r>    2.8289    1.0000 </r>
       <r>    3.3251    1.0000 </r>
       <r>   17.7151    0.0000 </r>
       <r>   22.3889    0.0000 </r>
       <r>   22.5695    0.0000 </r>
       <r>   24.5308    0.0000 </r>
       <r>   27.6438    0.0000 </r>
       <r>   31.6804    0.0000 </r>
      </set>
      <set comment="kpoint 59">
       <r>   -2.5390    1.0000 </r>
       <r>    0.5043    1.0000 </r>
       <r>    1.4197    1.0000 </r>
       <r>    1.5587    1.0000 </r>
       <r>    2.4551    1.0000 </r>
       <r>    3.0407    1.0000 </r>
       <r>   18.8669    0.0000 </r>
       <r>   22.5686    0.0000 </r>
       <r>   23.9030    0.0000 </r>
       <r>   26.0787    0.0000 </r>
       <r>   27.9856    0.0000 </r>
       <r>   31.0635    0.0000 </r>
      </set>
      <set comment="kpoint 60">
       <r>   -1.6649    1.0000 </r>
       <r>    0.2393    1.0000 </r>
       <r>    1.1902    1.0000 </r>
       <r>    1.9898    1.0000 </r>
       <r>    2.4369    1.0000 </r>
       <r>    3.7336    1.0000 </r>
       <r>   17.6925    0.0000 </r>
       <r>   20.1724    0.0000 </r>
       <r>   23.4065    0.0000 </r>
       <r>   25.4041    0.0000 </r>
       <r>   28.1196    0.0000 </r>
       <r>   30.4489    0.0000 </r>
      </set>
      <set comment="kpoint 61">
       <r>   -0.7249    1.0000 </r>
       <r>    0.2629    1.0000 </r>
       <r>    0.7821    1.0000 </r>
       <r>    2.2251    1.0000 </r>
       <r>    2.7589    1.0000 </r>
       <r>    4.9466    1.0000 </r>
       <r>   15.2497    0.0000 </r>
       <r>   17.9162    0.0000 </r>
       <r>   21.9144    0.0000 </r>
       <r>   26.1779    0.0000 </r>
       <r>   27.6515    0.0000 </r>
       <r>   32.0946    0.0000 </r>
      </set>
      <set comment="kpoint 62">
       <r>   -0.5919    1.0000 </r>
       <r>    0.4425    1.0000 </r>
       <r>    1.0983    1.0000 </r>
       <r>    2.0198    1.0000 </r>
       <r>    3.4826    1.0000 </r>
       <r>    6.6465   -0.0000 </r>
       <r>   11.6437    0.0000 </r>
       <r>   17.6602    0.0000 </r>
       <r>   20.5235    0.0000 </r>
       <r>   24.6631    0.0000 </r>
       <r>   29.7559    0.0000 </r>
       <r>   33.4277    0.0000 </r>
      </set>
      <set comment="kpoint 63">
       <r>   -0.6637    1.0000 </r>
       <r>    0.3480    1.0000 </r>
       <r>    1.4447    1.0000 </r>
       <r>    1.9511    1.0000 </r>
       <r>    3.7882    1.0000 </r>
       <r>    8.3304   -0.0000 </r>
       <r>    9.3065   -0.0000 </r>
       <r>   18.2881    0.0000 </r>
       <r>   19.4786    0.0000 </r>
       <r>   24.1406    0.0000 </r>
       <r>   30.6808    0.0000 </r>
       <r>   33.9005    0.0000 </r>
      </set>
      <set comment="kpoint 64">
       <r>   -0.7138    1.0000 </r>
       <r>    0.4426    1.0000 </r>
       <r>    0.8578    1.0000 </r>
       <r>    2.1526    1.0000 </r>
       <r>    3.6131    1.0000 </r>
       <r>    5.8833    0.4578 </r>
       <r>   12.6581    0.0000 </r>
       <r>   18.5403    0.0000 </r>
       <r>   20.0838    0.0000 </r>
       <r>   24.6333    0.0000 </r>
       <r>   29.7093    0.0000 </r>
       <r>   32.5289    0.0000 </r>
      </set>
      <set comment="kpoint 65">
       <r>   -1.0486    1.0000 </r>
       <r>    0.0015    1.0000 </r>
       <r>    1.0112    1.0000 </r>
       <r>    2.3563    1.0000 </r>
       <r>    2.8625    1.0000 </r>
       <r>    4.2664    1.0000 </r>
       <r>   16.5199    0.0000 </r>
       <r>   19.0116    0.0000 </r>
       <r>   21.6848    0.0000 </r>
       <r>   25.4191    0.0000 </r>
       <r>   27.2247    0.0000 </r>
       <r>   31.4503    0.0000 </r>
      </set>
      <set comment="kpoint 66">
       <r>   -1.2677    1.0000 </r>
       <r>   -0.0106    1.0000 </r>
       <r>    1.2166    1.0000 </r>
       <r>    2.1238    1.0000 </r>
       <r>    3.5136    1.0000 </r>
       <r>    3.6030    1.0000 </r>
       <r>   16.4989    0.0000 </r>
       <r>   20.8811    0.0000 </r>
       <r>   21.5663    0.0000 </r>
       <r>   23.5568    0.0000 </r>
       <r>   27.3537    0.0000 </r>
       <r>   32.5914    0.0000 </r>
      </set>
      <set comment="kpoint 67">
       <r>   -0.7325    1.0000 </r>
       <r>   -0.2258    1.0000 </r>
       <r>    1.1223    1.0000 </r>
       <r>    2.7688    1.0000 </r>
       <r>    3.3180    1.0000 </r>
       <r>    5.0116    1.0000 </r>
       <r>   15.3231    0.0000 </r>
       <r>   17.8026    0.0000 </r>
       <r>   19.7586    0.0000 </r>
       <r>   25.3588    0.0000 </r>
       <r>   27.0575    0.0000 </r>
       <r>   32.3092    0.0000 </r>
      </set>
      <set comment="kpoint 68">
       <r>   -0.3716    1.0000 </r>
       <r>   -0.0672    1.0000 </r>
       <r>    0.8970    1.0000 </r>
       <r>    2.8509    1.0000 </r>
       <r>    3.6222    1.0000 </r>
       <r>    6.9202   -0.0000 </r>
       <r>   13.2911    0.0000 </r>
       <r>   15.7600    0.0000 </r>
       <r>   18.2049    0.0000 </r>
       <r>   26.4564    0.0000 </r>
       <r>   28.2576    0.0000 </r>
       <r>   32.3345    0.0000 </r>
      </set>
      <set comment="kpoint 69">
       <r>   -0.1974    1.0000 </r>
       <r>    0.1041    1.0000 </r>
       <r>    0.9224    1.0000 </r>
       <r>    2.4740    1.0000 </r>
       <r>    3.8654    1.0000 </r>
       <r>    9.2927   -0.0000 </r>
       <r>   10.4753   -0.0000 </r>
       <r>   15.4222    0.0000 </r>
       <r>   17.5622    0.0000 </r>
       <r>   26.1384    0.0000 </r>
       <r>   30.0943    0.0000 </r>
       <r>   33.4128    0.0000 </r>
      </set>
      <set comment="kpoint 70">
       <r>    0.0297    1.0000 </r>
       <r>    0.1458    1.0000 </r>
       <r>    0.5426    1.0000 </r>
       <r>    2.5561    1.0000 </r>
       <r>    3.5964    1.0000 </r>
       <r>    7.6798   -0.0000 </r>
       <r>   12.6549    0.0000 </r>
       <r>   14.8355    0.0000 </r>
       <r>   18.5779    0.0000 </r>
       <r>   26.4216    0.0000 </r>
       <r>   29.0523    0.0000 </r>
       <r>   33.6121    0.0000 </r>
      </set>
      <set comment="kpoint 71">
       <r>   -0.3785    1.0000 </r>
       <r>    0.1260    1.0000 </r>
       <r>    0.6333    1.0000 </r>
       <r>    2.5825    1.0000 </r>
       <r>    3.2072    1.0000 </r>
       <r>    5.7921    0.8141 </r>
       <r>   14.2253    0.0000 </r>
       <r>   16.8024    0.0000 </r>
       <r>   20.0798    0.0000 </r>
       <r>   26.1390    0.0000 </r>
       <r>   27.9751    0.0000 </r>
       <r>   32.3357    0.0000 </r>
      </set>
      <set comment="kpoint 72">
       <r>   -0.9786    1.0000 </r>
       <r>   -0.5000    1.0000 </r>
       <r>    2.0366    1.0000 </r>
       <r>    2.8647    1.0000 </r>
       <r>    4.0113    1.0000 </r>
       <r>    5.6480    1.0338 </r>
       <r>   13.9565    0.0000 </r>
       <r>   17.3712    0.0000 </r>
       <r>   18.4111    0.0000 </r>
       <r>   23.8303    0.0000 </r>
       <r>   27.3256    0.0000 </r>
       <r>   34.2795    0.0000 </r>
      </set>
      <set comment="kpoint 73">
       <r>   -0.8771    1.0000 </r>
       <r>   -0.5831    1.0000 </r>
       <r>    2.0666    1.0000 </r>
       <r>    3.3031    1.0000 </r>
       <r>    3.9987    1.0000 </r>
       <r>    7.4241   -0.0000 </r>
       <r>   12.8088    0.0000 </r>
       <r>   15.4930    0.0000 </r>
       <r>   16.7531    0.0000 </r>
       <r>   25.6292    0.0000 </r>
       <r>   27.2870    0.0000 </r>
       <r>   33.3461    0.0000 </r>
      </set>
      <set comment="kpoint 74">
       <r>   -0.6073    1.0000 </r>
       <r>   -0.2664    1.0000 </r>
       <r>    1.5941    1.0000 </r>
       <r>    2.8727    1.0000 </r>
       <r>    4.1953    1.0000 </r>
       <r>    9.8305   -0.0000 </r>
       <r>   11.3302   -0.0000 </r>
       <r>   14.0031    0.0000 </r>
       <r>   15.9938    0.0000 </r>
       <r>   27.1080    0.0000 </r>
       <r>   28.8898    0.0000 </r>
       <r>   31.8882    0.0000 </r>
      </set>
      <set comment="kpoint 75">
       <r>   -0.2555    1.0000 </r>
       <r>    0.2054    1.0000 </r>
       <r>    0.8799    1.0000 </r>
       <r>    2.5400    1.0000 </r>
       <r>    3.9638    1.0000 </r>
       <r>    9.5742   -0.0000 </r>
       <r>   11.5815    0.0000 </r>
       <r>   13.6266    0.0000 </r>
       <r>   17.1482    0.0000 </r>
       <r>   26.7455    0.0000 </r>
       <r>   30.2678    0.0000 </r>
       <r>   32.6938    0.0000 </r>
      </set>
      <set comment="kpoint 76">
       <r>   -0.3205    1.0000 </r>
       <r>    0.1869    1.0000 </r>
       <r>    0.9983    1.0000 </r>
       <r>    2.2925    1.0000 </r>
       <r>    3.7132    1.0000 </r>
       <r>    7.9442   -0.0000 </r>
       <r>   10.8586   -0.0000 </r>
       <r>   16.7686    0.0000 </r>
       <r>   18.7399    0.0000 </r>
       <r>   25.3154    0.0000 </r>
       <r>   29.9557    0.0000 </r>
       <r>   34.1005    0.0000 </r>
      </set>
      <set comment="kpoint 77">
       <r>   -1.1453    1.0000 </r>
       <r>   -0.7645    1.0000 </r>
       <r>    2.9214    1.0000 </r>
       <r>    3.4394    1.0000 </r>
       <r>    4.0842    1.0000 </r>
       <r>    8.3534   -0.0000 </r>
       <r>   11.4373    0.0000 </r>
       <r>   14.6626    0.0000 </r>
       <r>   17.2041    0.0000 </r>
       <r>   24.2767    0.0000 </r>
       <r>   27.4497    0.0000 </r>
       <r>   34.6893    0.0000 </r>
      </set>
      <set comment="kpoint 78">
       <r>   -0.9635    1.0000 </r>
       <r>   -0.6607    1.0000 </r>
       <r>    2.4245    1.0000 </r>
       <r>    3.2959    1.0000 </r>
       <r>    4.1969    1.0000 </r>
       <r>    8.7974   -0.0000 </r>
       <r>   11.4781    0.0000 </r>
       <r>   14.7866    0.0000 </r>
       <r>   16.2124    0.0000 </r>
       <r>   25.7763    0.0000 </r>
       <r>   27.3661    0.0000 </r>
       <r>   33.4984    0.0000 </r>
      </set>
      <set comment="kpoint 79">
       <r>   -0.5076    1.0000 </r>
       <r>   -0.2037    1.0000 </r>
       <r>    1.2993    1.0000 </r>
       <r>    2.9258    1.0000 </r>
       <r>    3.9769    1.0000 </r>
       <r>    8.3154   -0.0000 </r>
       <r>   12.3963    0.0000 </r>
       <r>   14.7696    0.0000 </r>
       <r>   16.7194    0.0000 </r>
       <r>   26.8637    0.0000 </r>
       <r>   28.5775    0.0000 </r>
       <r>   32.1474    0.0000 </r>
      </set>
      <set comment="kpoint 80">
       <r>   -1.0743    1.0000 </r>
       <r>   -0.6746    1.0000 </r>
       <r>    2.5892    1.0000 </r>
       <r>    3.2091    1.0000 </r>
       <r>    4.0871    1.0000 </r>
       <r>    7.0375   -0.0000 </r>
       <r>   12.6640    0.0000 </r>
       <r>   15.6296    0.0000 </r>
       <r>   17.6179    0.0000 </r>
       <r>   24.1015    0.0000 </r>
       <r>   27.4005    0.0000 </r>
       <r>   34.6122    0.0000 </r>
      </set>
      <set comment="kpoint 81">
       <r>   -0.7538    1.0000 </r>
       <r>   -0.4312    1.0000 </r>
       <r>    1.5633    1.0000 </r>
       <r>    3.1291    1.0000 </r>
       <r>    3.6919    1.0000 </r>
       <r>    6.0740   -0.0255 </r>
       <r>   14.1069    0.0000 </r>
       <r>   16.6173    0.0000 </r>
       <r>   17.9651    0.0000 </r>
       <r>   25.4391    0.0000 </r>
       <r>   27.1601    0.0000 </r>
       <r>   32.9579    0.0000 </r>
      </set>
      <set comment="kpoint 82">
       <r>   -0.9766    1.0000 </r>
       <r>   -0.2650    1.0000 </r>
       <r>    1.4809    1.0000 </r>
       <r>    2.4872    1.0000 </r>
       <r>    3.8429    1.0000 </r>
       <r>    4.4560    1.0000 </r>
       <r>   15.2325    0.0000 </r>
       <r>   19.4968    0.0000 </r>
       <r>   19.5246    0.0000 </r>
       <r>   23.5809    0.0000 </r>
       <r>   27.2826    0.0000 </r>
       <r>   33.5523    0.0000 </r>
      </set>
      <set comment="kpoint 83">
       <r>   -2.4711    1.0000 </r>
       <r>    0.8901    1.0000 </r>
       <r>    1.3379    1.0000 </r>
       <r>    1.3379    1.0000 </r>
       <r>    2.8231    1.0000 </r>
       <r>    2.8231    1.0000 </r>
       <r>   17.3280    0.0000 </r>
       <r>   22.2198    0.0000 </r>
       <r>   26.3476    0.0000 </r>
       <r>   26.3476    0.0000 </r>
       <r>   28.4500    0.0000 </r>
       <r>   29.9159    0.0000 </r>
      </set>
      <set comment="kpoint 84">
       <r>   -1.8604    1.0000 </r>
       <r>    0.7643    1.0000 </r>
       <r>    1.2881    1.0000 </r>
       <r>    1.4854    1.0000 </r>
       <r>    2.5773    1.0000 </r>
       <r>    3.6637    1.0000 </r>
       <r>   16.1386    0.0000 </r>
       <r>   21.3310    0.0000 </r>
       <r>   23.7057    0.0000 </r>
       <r>   27.3332    0.0000 </r>
       <r>   27.8321    0.0000 </r>
       <r>   29.9215    0.0000 </r>
      </set>
      <set comment="kpoint 85">
       <r>   -0.8566    1.0000 </r>
       <r>    0.4781    1.0000 </r>
       <r>    0.9977    1.0000 </r>
       <r>    1.8850    1.0000 </r>
       <r>    2.4729    1.0000 </r>
       <r>    4.9282    1.0000 </r>
       <r>   15.1974    0.0000 </r>
       <r>   17.9103    0.0000 </r>
       <r>   23.2031    0.0000 </r>
       <r>   25.9250    0.0000 </r>
       <r>   27.6203    0.0000 </r>
       <r>   32.4782    0.0000 </r>
      </set>
      <set comment="kpoint 86">
       <r>   -0.3538    1.0000 </r>
       <r>    0.5694    1.0000 </r>
       <r>    0.8555    1.0000 </r>
       <r>    2.0531    1.0000 </r>
       <r>    2.9438    1.0000 </r>
       <r>    6.4003   -0.0006 </r>
       <r>   13.3584    0.0000 </r>
       <r>   15.7112    0.0000 </r>
       <r>   22.9353    0.0000 </r>
       <r>   23.3423    0.0000 </r>
       <r>   29.6033    0.0000 </r>
       <r>   32.6894    0.0000 </r>
      </set>
      <set comment="kpoint 87">
       <r>   -0.5967    1.0000 </r>
       <r>    0.3804    1.0000 </r>
       <r>    1.3644    1.0000 </r>
       <r>    2.1273    1.0000 </r>
       <r>    3.6362    1.0000 </r>
       <r>    8.4158   -0.0000 </r>
       <r>   10.0156   -0.0000 </r>
       <r>   16.2510    0.0000 </r>
       <r>   21.0751    0.0000 </r>
       <r>   22.9496    0.0000 </r>
       <r>   31.9931    0.0000 </r>
       <r>   32.7906    0.0000 </r>
      </set>
      <set comment="kpoint 88">
       <r>   -0.8127    1.0000 </r>
       <r>    0.1393    1.0000 </r>
       <r>    1.3913    1.0000 </r>
       <r>    2.2896    1.0000 </r>
       <r>    4.0129    1.0000 </r>
       <r>    6.9452   -0.0000 </r>
       <r>   11.4005    0.0000 </r>
       <r>   17.6891    0.0000 </r>
       <r>   19.7138    0.0000 </r>
       <r>   23.2634    0.0000 </r>
       <r>   30.7389    0.0000 </r>
       <r>   33.1081    0.0000 </r>
      </set>
      <set comment="kpoint 89">
       <r>   -1.6580    1.0000 </r>
       <r>    0.9723    1.0000 </r>
       <r>    1.1251    1.0000 </r>
       <r>    1.4680    1.0000 </r>
       <r>    3.3940    1.0000 </r>
       <r>    3.5223    1.0000 </r>
       <r>   14.7571    0.0000 </r>
       <r>   21.8045    0.0000 </r>
       <r>   23.1686    0.0000 </r>
       <r>   24.9273    0.0000 </r>
       <r>   29.7445    0.0000 </r>
       <r>   30.9657    0.0000 </r>
      </set>
      <set comment="kpoint 90">
       <r>   -1.0205    1.0000 </r>
       <r>    0.7702    1.0000 </r>
       <r>    0.8149    1.0000 </r>
       <r>    1.8332    1.0000 </r>
       <r>    3.2437    1.0000 </r>
       <r>    4.9017    1.0000 </r>
       <r>   13.7321    0.0000 </r>
       <r>   19.5525    0.0000 </r>
       <r>   21.7304    0.0000 </r>
       <r>   24.9213    0.0000 </r>
       <r>   29.2125    0.0000 </r>
       <r>   31.9599    0.0000 </r>
      </set>
      <set comment="kpoint 91">
       <r>   -0.1507    1.0000 </r>
       <r>    0.3691    1.0000 </r>
       <r>    0.5410    1.0000 </r>
       <r>    2.3501    1.0000 </r>
       <r>    3.1782    1.0000 </r>
       <r>    6.5392   -0.0000 </r>
       <r>   13.3593    0.0000 </r>
       <r>   15.7456    0.0000 </r>
       <r>   20.5564    0.0000 </r>
       <r>   25.5187    0.0000 </r>
       <r>   28.8758    0.0000 </r>
       <r>   33.8249    0.0000 </r>
      </set>
      <set comment="kpoint 92">
       <r>   -0.2321    1.0000 </r>
       <r>    0.2780    1.0000 </r>
       <r>    0.8935    1.0000 </r>
       <r>    2.4545    1.0000 </r>
       <r>    3.6101    1.0000 </r>
       <r>    8.3766   -0.0000 </r>
       <r>   12.0365    0.0000 </r>
       <r>   14.1045    0.0000 </r>
       <r>   19.0378    0.0000 </r>
       <r>   25.2716    0.0000 </r>
       <r>   30.4032    0.0000 </r>
       <r>   34.3454    0.0000 </r>
      </set>
      <set comment="kpoint 93">
       <r>   -0.5749    1.0000 </r>
       <r>   -0.0238    1.0000 </r>
       <r>    1.3236    1.0000 </r>
       <r>    2.7113    1.0000 </r>
       <r>    3.9196    1.0000 </r>
       <r>    8.6651   -0.0000 </r>
       <r>   11.0325   -0.0000 </r>
       <r>   15.4186    0.0000 </r>
       <r>   17.7950    0.0000 </r>
       <r>   25.2599    0.0000 </r>
       <r>   30.3087    0.0000 </r>
       <r>   32.2987    0.0000 </r>
      </set>
      <set comment="kpoint 94">
       <r>   -0.9540    1.0000 </r>
       <r>    0.4348    1.0000 </r>
       <r>    1.1358    1.0000 </r>
       <r>    1.9516    1.0000 </r>
       <r>    3.9709    1.0000 </r>
       <r>    5.4998    1.0120 </r>
       <r>   12.4083    0.0000 </r>
       <r>   19.8041    0.0000 </r>
       <r>   20.6014    0.0000 </r>
       <r>   22.9776    0.0000 </r>
       <r>   30.9263    0.0000 </r>
       <r>   32.4805    0.0000 </r>
      </set>
      <set comment="kpoint 95">
       <r>   -0.5731    1.0000 </r>
       <r>    0.1545    1.0000 </r>
       <r>    1.0503    1.0000 </r>
       <r>    2.4792    1.0000 </r>
       <r>    3.8200    1.0000 </r>
       <r>    7.1785   -0.0000 </r>
       <r>   11.7260    0.0000 </r>
       <r>   17.2416    0.0000 </r>
       <r>   18.5687    0.0000 </r>
       <r>   24.8738    0.0000 </r>
       <r>   30.0212    0.0000 </r>
       <r>   32.5258    0.0000 </r>
      </set>
      <set comment="kpoint 96">
       <r>   -0.1869    1.0000 </r>
       <r>    0.2225    1.0000 </r>
       <r>    0.6944    1.0000 </r>
       <r>    2.5960    1.0000 </r>
       <r>    3.9658    1.0000 </r>
       <r>    9.0304   -0.0000 </r>
       <r>   12.1003    0.0000 </r>
       <r>   14.0020    0.0000 </r>
       <r>   16.8568    0.0000 </r>
       <r>   27.5426    0.0000 </r>
       <r>   29.2109    0.0000 </r>
       <r>   32.6452    0.0000 </r>
      </set>
      <set comment="kpoint 97">
       <r>   -0.3141    1.0000 </r>
       <r>    0.2296    1.0000 </r>
       <r>    0.8591    1.0000 </r>
       <r>    2.5520    1.0000 </r>
       <r>    4.1984    1.0000 </r>
       <r>   10.3234   -0.0000 </r>
       <r>   11.7616    0.0000 </r>
       <r>   13.1257    0.0000 </r>
       <r>   15.8680    0.0000 </r>
       <r>   28.3320    0.0000 </r>
       <r>   29.8348    0.0000 </r>
       <r>   31.2966    0.0000 </r>
      </set>
      <set comment="kpoint 98">
       <r>   -0.7915    1.0000 </r>
       <r>   -0.0600    1.0000 </r>
       <r>    1.6930    1.0000 </r>
       <r>    2.6396    1.0000 </r>
       <r>    3.9339    1.0000 </r>
       <r>    8.5265   -0.0000 </r>
       <r>   10.6429   -0.0000 </r>
       <r>   15.5667    0.0000 </r>
       <r>   19.1211    0.0000 </r>
       <r>   23.6396    0.0000 </r>
       <r>   30.6085    0.0000 </r>
       <r>   33.5188    0.0000 </r>
      </set>
      <set comment="kpoint 99">
       <r>   -0.6158    1.0000 </r>
       <r>   -0.0986    1.0000 </r>
       <r>    1.5356    1.0000 </r>
       <r>    2.7959    1.0000 </r>
       <r>    3.9742    1.0000 </r>
       <r>    9.9113   -0.0000 </r>
       <r>   10.8108   -0.0000 </r>
       <r>   13.7621    0.0000 </r>
       <r>   17.4748    0.0000 </r>
       <r>   25.5328    0.0000 </r>
       <r>   30.5942    0.0000 </r>
       <r>   32.0103    0.0000 </r>
      </set>
      <set comment="kpoint 100">
       <r>   -0.8101    1.0000 </r>
       <r>   -0.1539    1.0000 </r>
       <r>    1.8952    1.0000 </r>
       <r>    2.9065    1.0000 </r>
       <r>    3.8063    1.0000 </r>
       <r>    9.7356   -0.0000 </r>
       <r>   10.4669   -0.0000 </r>
       <r>   13.8220    0.0000 </r>
       <r>   18.8256    0.0000 </r>
       <r>   23.8839    0.0000 </r>
       <r>   30.5573    0.0000 </r>
       <r>   33.7086    0.0000 </r>
      </set>
      <set comment="kpoint 101">
       <r>   -1.8072    1.0000 </r>
       <r>    1.1728    1.0000 </r>
       <r>    1.1728    1.0000 </r>
       <r>    2.0602    1.0000 </r>
       <r>    3.3922    1.0000 </r>
       <r>    3.3922    1.0000 </r>
       <r>   13.2739    0.0000 </r>
       <r>   21.2828    0.0000 </r>
       <r>   25.0308    0.0000 </r>
       <r>   25.0308    0.0000 </r>
       <r>   30.2346    0.0000 </r>
       <r>   30.2808    0.0000 </r>
      </set>
      <set comment="kpoint 102">
       <r>   -1.4553    1.0000 </r>
       <r>    0.9808    1.0000 </r>
       <r>    1.2879    1.0000 </r>
       <r>    1.9845    1.0000 </r>
       <r>    3.2816    1.0000 </r>
       <r>    4.6760    1.0000 </r>
       <r>   12.1592    0.0000 </r>
       <r>   20.7793    0.0000 </r>
       <r>   22.4227    0.0000 </r>
       <r>   25.0392    0.0000 </r>
       <r>   29.6696    0.0000 </r>
       <r>   31.1583    0.0000 </r>
      </set>
      <set comment="kpoint 103">
       <r>   -0.7336    1.0000 </r>
       <r>    0.5900    1.0000 </r>
       <r>    1.4221    1.0000 </r>
       <r>    1.7596    1.0000 </r>
       <r>    3.2573    1.0000 </r>
       <r>    6.4478   -0.0002 </r>
       <r>   11.6204    0.0000 </r>
       <r>   17.6260    0.0000 </r>
       <r>   22.5176    0.0000 </r>
       <r>   23.2846    0.0000 </r>
       <r>   30.1309    0.0000 </r>
       <r>   32.3482    0.0000 </r>
      </set>
      <set comment="kpoint 104">
       <r>   -0.4620    1.0000 </r>
[...]
      <set comment="kpoint 93">
       <set comment="band 1">
        <r>  0.0464  0.0205  0.8071 </r>
       </set>
       <set comment="band 2">
        <r>  0.0000  0.0700  0.8009 </r>
       </set>
       <set comment="band 3">
        <r>  0.0330  0.0960  0.7597 </r>
       </set>
       <set comment="band 4">
        <r>  0.0014  0.0222  0.9179 </r>
       </set>
       <set comment="band 5">
        <r>  0.0034  0.0017  0.9675 </r>
       </set>
       <set comment="band 6">
        <r>  0.2868  0.2180  0.3213 </r>
       </set>
       <set comment="band 7">
        <r>  0.2563  0.3371  0.1310 </r>
       </set>
       <set comment="band 8">
        <r>  0.1113  0.3930  0.2304 </r>
       </set>
       <set comment="band 9">
        <r>  0.0025  0.4103  0.2092 </r>
       </set>
       <set comment="band 10">
        <r>  0.0247  0.1458  0.2123 </r>
       </set>
       <set comment="band 11">
        <r>  0.0309  0.1176  0.1940 </r>
       </set>
       <set comment="band 12">
        <r>  0.0502  0.0188  0.2272 </r>
       </set>
      </set>
      <set comment="kpoint 94">
       <set comment="band 1">
        <r>  0.1637  0.0390  0.6460 </r>
       </set>
       <set comment="band 2">
        <r>  0.0082  0.0658  0.7955 </r>
       </set>
       <set comment="band 3">
        <r>  0.0775  0.0773  0.7293 </r>
       </set>
       <set comment="band 4">
        <r>  0.0000  0.0097  0.9330 </r>
       </set>
       <set comment="band 5">
        <r>  0.0000  0.0005  0.9779 </r>
       </set>
       <set comment="band 6">
        <r>  0.1475  0.1762  0.5406 </r>
       </set>
       <set comment="band 7">
        <r>  0.2665  0.3020  0.1656 </r>
       </set>
       <set comment="band 8">
        <r>  0.0529  0.2827  0.2178 </r>
       </set>
       <set comment="band 9">
        <r>  0.0000  0.5166  0.0973 </r>
       </set>
       <set comment="band 10">
        <r>  0.0469  0.1494  0.1910 </r>
       </set>
       <set comment="band 11">
        <r>  0.0426  0.2037  0.1370 </r>
       </set>
       <set comment="band 12">
        <r>  0.0000  0.0100  0.1910 </r>
       </set>
      </set>
      <set comment="kpoint 95">
       <set comment="band 1">
        <r>  0.0824  0.0356  0.7504 </r>
       </set>
       <set comment="band 2">
        <r>  0.0008  0.0629  0.8054 </r>
       </set>
       <set comment="band 3">
        <r>  0.0605  0.0817  0.7428 </r>
       </set>
       <set comment="band 4">
        <r>  0.0012  0.0266  0.9108 </r>
       </set>
       <set comment="band 5">
        <r>  0.0010  0.0056  0.9637 </r>
       </set>
       <set comment="band 6">
        <r>  0.2236  0.1974  0.4252 </r>
       </set>
       <set comment="band 7">
        <r>  0.2726  0.3129  0.1447 </r>
       </set>
       <set comment="band 8">
        <r>  0.0967  0.4443  0.1733 </r>
       </set>
       <set comment="band 9">
        <r>  0.0027  0.3323  0.2487 </r>
       </set>
       <set comment="band 10">
        <r>  0.0205  0.1874  0.1421 </r>
       </set>
       <set comment="band 11">
        <r>  0.0115  0.1202  0.1937 </r>
       </set>
       <set comment="band 12">
        <r>  0.0771  0.0297  0.2747 </r>
       </set>
      </set>
      <set comment="kpoint 96">
       <set comment="band 1">
        <r>  0.0061  0.0484  0.8006 </r>
       </set>
       <set comment="band 2">
        <r>  0.0102  0.0651  0.8189 </r>
       </set>
       <set comment="band 3">
        <r>  0.0332  0.0833  0.7700 </r>
       </set>
       <set comment="band 4">
        <r>  0.0156  0.0153  0.9037 </r>
       </set>
       <set comment="band 5">
        <r>  0.0010  0.0044  0.9676 </r>
       </set>
       <set comment="band 6">
        <r>  0.3874  0.1722  0.2497 </r>
       </set>
       <set comment="band 7">
        <r>  0.1888  0.3730  0.1783 </r>
       </set>
       <set comment="band 8">
        <r>  0.0989  0.4585  0.1802 </r>
       </set>
       <set comment="band 9">
        <r>  0.0079  0.3275  0.3137 </r>
       </set>
       <set comment="band 10">
        <r>  0.0028  0.1950  0.1120 </r>
       </set>
       <set comment="band 11">
        <r>  0.0001  0.0465  0.2479 </r>
       </set>
       <set comment="band 12">
        <r>  0.0509  0.1443  0.2335 </r>
       </set>
      </set>
      <set comment="kpoint 97">
       <set comment="band 1">
        <r>  0.0042  0.0466  0.8022 </r>
       </set>
       <set comment="band 2">
        <r>  0.0029  0.0674  0.8249 </r>
       </set>
       <set comment="band 3">
        <r>  0.0050  0.0882  0.8008 </r>
       </set>
       <set comment="band 4">
        <r>  0.0359  0.0039  0.8907 </r>
       </set>
       <set comment="band 5">
        <r>  0.0002  0.0012  0.9778 </r>
       </set>
       <set comment="band 6">
        <r>  0.5581  0.0951  0.1479 </r>
       </set>
       <set comment="band 7">
        <r>  0.0762  0.4678  0.1989 </r>
       </set>
       <set comment="band 8">
        <r>  0.0666  0.4786  0.1911 </r>
       </set>
       <set comment="band 9">
        <r>  0.0000  0.3237  0.3383 </r>
       </set>
       <set comment="band 10">
        <r>  0.0035  0.1083  0.2203 </r>
       </set>
       <set comment="band 11">
        <r>  0.0023  0.0876  0.1922 </r>
       </set>
       <set comment="band 12">
        <r>  0.0223  0.2058  0.1576 </r>
       </set>
      </set>
      <set comment="kpoint 98">
       <set comment="band 1">
        <r>  0.0587  0.0078  0.8113 </r>
       </set>
       <set comment="band 2">
        <r>  0.0006  0.0723  0.7931 </r>
       </set>
       <set comment="band 3">
        <r>  0.0320  0.1149  0.7391 </r>
       </set>
       <set comment="band 4">
        <r>  0.0000  0.0116  0.9353 </r>
       </set>
       <set comment="band 5">
        <r>  0.0000  0.0001  0.9754 </r>
       </set>
       <set comment="band 6">
        <r>  0.2384  0.2436  0.3486 </r>
       </set>
       <set comment="band 7">
        <r>  0.2933  0.3163  0.1072 </r>
       </set>
       <set comment="band 8">
        <r>  0.1036  0.3486  0.2756 </r>
       </set>
       <set comment="band 9">
        <r>  0.0000  0.5306  0.0886 </r>
       </set>
       <set comment="band 10">
        <r>  0.0455  0.0685  0.2974 </r>
       </set>
       <set comment="band 11">
        <r>  0.0700  0.1045  0.2173 </r>
       </set>
       <set comment="band 12">
        <r>  0.0000  0.0028  0.1470 </r>
       </set>
      </set>
      <set comment="kpoint 99">
       <set comment="band 1">
        <r>  0.0333  0.0140  0.8254 </r>
       </set>
       <set comment="band 2">
        <r>  0.0002  0.0728  0.8011 </r>
       </set>
       <set comment="band 3">
        <r>  0.0047  0.1092  0.7793 </r>
       </set>
       <set comment="band 4">
        <r>  0.0113  0.0115  0.9196 </r>
       </set>
       <set comment="band 5">
        <r>  0.0008  0.0026  0.9705 </r>
       </set>
       <set comment="band 6">
        <r>  0.5076  0.1241  0.1654 </r>
       </set>
       <set comment="band 7">
        <r>  0.0664  0.4699  0.2055 </r>
       </set>
       <set comment="band 8">
        <r>  0.1097  0.3633  0.2713 </r>
       </set>
       <set comment="band 9">
        <r>  0.0067  0.4338  0.1945 </r>
       </set>
       <set comment="band 10">
        <r>  0.0272  0.1247  0.2643 </r>
       </set>
       <set comment="band 11">
        <r>  0.0611  0.1204  0.2060 </r>
       </set>
       <set comment="band 12">
        <r>  0.0097  0.0186  0.1574 </r>
       </set>
      </set>
      <set comment="kpoint 100">
       <set comment="band 1">
        <r>  0.0450  0.0008  0.8331 </r>
       </set>
       <set comment="band 2">
        <r>  0.0001  0.0750  0.7923 </r>
       </set>
       <set comment="band 3">
        <r>  0.0041  0.1246  0.7631 </r>
       </set>
       <set comment="band 4">
        <r>  0.0000  0.0120  0.9378 </r>
       </set>
       <set comment="band 5">
        <r>  0.0000  0.0001  0.9718 </r>
       </set>
       <set comment="band 6">
        <r>  0.5080  0.1238  0.1589 </r>
       </set>
       <set comment="band 7">
        <r>  0.0502  0.4774  0.2148 </r>
       </set>
       <set comment="band 8">
        <r>  0.1193  0.3262  0.3039 </r>
       </set>
       <set comment="band 9">
        <r>  0.0000  0.5336  0.0888 </r>
       </set>
       <set comment="band 10">
        <r>  0.0476  0.0583  0.3364 </r>
       </set>
       <set comment="band 11">
        <r>  0.0789  0.0879  0.2299 </r>
       </set>
       <set comment="band 12">
        <r>  0.0000  0.0003  0.1238 </r>
       </set>
      </set>
      <set comment="kpoint 101">
       <set comment="band 1">
        <r>  0.3251  0.0304  0.4555 </r>
       </set>
       <set comment="band 2">
        <r>  0.0000  0.0006  0.9410 </r>
       </set>
       <set comment="band 3">
        <r>  0.0000  0.0006  0.9410 </r>
       </set>
       <set comment="band 4">
        <r>  0.1453  0.2564  0.3722 </r>
       </set>
       <set comment="band 5">
        <r>  0.0000  0.0022  0.9636 </r>
       </set>
       <set comment="band 6">
        <r>  0.0000  0.0022  0.9636 </r>
       </set>
       <set comment="band 7">
        <r>  0.2423  0.2712  0.2302 </r>
       </set>
       <set comment="band 8">
        <r>  0.0000  0.0253  0.0283 </r>
       </set>
       <set comment="band 9">
        <r>  0.0000  0.5205  0.0713 </r>
       </set>
       <set comment="band 10">
        <r>  0.0000  0.5205  0.0713 </r>
       </set>
       <set comment="band 11">
        <r>  0.0685  0.0825  0.1323 </r>
       </set>
       <set comment="band 12">
        <r>  0.0000  0.0000  0.3717 </r>
       </set>
      </set>
      <set comment="kpoint 102">
       <set comment="band 1">
        <r>  0.2539  0.0310  0.5477 </r>
       </set>
       <set comment="band 2">
        <r>  0.0005  0.0044  0.9270 </r>
       </set>
       <set comment="band 3">
        <r>  0.0000  0.0008  0.9386 </r>
       </set>
       <set comment="band 4">
        <r>  0.0804  0.2110  0.5195 </r>
       </set>
       <set comment="band 5">
        <r>  0.0000  0.0022  0.9601 </r>
       </set>
       <set comment="band 6">
        <r>  0.0873  0.1027  0.7177 </r>
       </set>
       <set comment="band 7">
        <r>  0.2791  0.2518  0.2371 </r>
       </set>
       <set comment="band 8">
        <r>  0.0068  0.1641  0.1344 </r>
       </set>
       <set comment="band 9">
        <r>  0.0213  0.3521  0.0252 </r>
       </set>
       <set comment="band 10">
        <r>  0.0000  0.5021  0.0821 </r>
       </set>
       <set comment="band 11">
        <r>  0.0186  0.0362  0.2310 </r>
       </set>
       <set comment="band 12">
        <r>  0.0000  0.0224  0.4777 </r>
       </set>
      </set>
      <set comment="kpoint 103">
       <set comment="band 1">
        <r>  0.1645  0.0472  0.6449 </r>
       </set>
       <set comment="band 2">
        <r>  0.0006  0.0243  0.8767 </r>
       </set>
       <set comment="band 3">
        <r>  0.0260  0.1630  0.6575 </r>
       </set>
       <set comment="band 4">
        <r>  0.0000  0.0059  0.9321 </r>
       </set>
       <set comment="band 5">
        <r>  0.0000  0.0017  0.9599 </r>
       </set>
       <set comment="band 6">
        <r>  0.2161  0.1486  0.4929 </r>
       </set>
       <set comment="band 7">
        <r>  0.2626  0.2725  0.2355 </r>
       </set>
       <set comment="band 8">
        <r>  0.0561  0.4040  0.2096 </r>
       </set>
       <set comment="band 9">
        <r>  0.0178  0.0943  0.0969 </r>
       </set>
       <set comment="band 10">
        <r>  0.0000  0.4997  0.1424 </r>
       </set>
       <set comment="band 11">
        <r>  0.0070  0.0403  0.1385 </r>
       </set>
       <set comment="band 12">
        <r>  0.0000  0.0086  0.3497 </r>
       </set>
      </set>
      <set comment="kpoint 104">
       <set comment="band 1">
        <r>  0.0657  0.0087  0.8146 </r>
       </set>
       <set comment="band 2">
        <r>  0.0118  0.1124  0.7219 </r>
       </set>
       <set comment="band 3">
        <r>  0.0001  0.1083  0.7820 </r>
       </set>
       <set comment="band 4">
        <r>  0.0000  0.0118  0.9291 </r>
       </set>
       <set comment="band 5">
        <r>  0.0000  0.0003  0.9644 </r>
       </set>
       <set comment="band 6">
        <r>  0.4042  0.1368  0.2567 </r>
       </set>
       <set comment="band 7">
        <r>  0.1152  0.3827  0.2747 </r>
       </set>
       <set comment="band 8">
        <r>  0.1313  0.3652  0.2444 </r>
       </set>
       <set comment="band 9">
        <r>  0.0000  0.5163  0.1340 </r>
       </set>
       <set comment="band 10">
        <r>  0.0276  0.0654  0.2395 </r>
       </set>
       <set comment="band 11">
        <r>  0.0003  0.0444  0.0518 </r>
       </set>
       <set comment="band 12">
        <r>  0.0000  0.0004  0.2001 </r>
       </set>
      </set>
      <set comment="kpoint 105">
       <set comment="band 1">
        <r>  0.2184  0.0200  0.6080 </r>
       </set>
       <set comment="band 2">
        <r>  0.0003  0.0044  0.9216 </r>
       </set>
       <set comment="band 3">
        <r>  0.0000  0.0036  0.9361 </r>
       </set>
       <set comment="band 4">
        <r>  0.0473  0.1777  0.6152 </r>
       </set>
       <set comment="band 5">
        <r>  0.0000  0.0004  0.9763 </r>
       </set>
       <set comment="band 6">
        <r>  0.0959  0.2170  0.5277 </r>
       </set>
       <set comment="band 7">
        <r>  0.3371  0.1987  0.2626 </r>
       </set>
       <set comment="band 8">
        <r>  0.0010  0.0416  0.0665 </r>
       </set>
       <set comment="band 9">
        <r>  0.0000  0.5146  0.0659 </r>
       </set>
       <set comment="band 10">
        <r>  0.0346  0.4426  0.1057 </r>
       </set>
       <set comment="band 11">
        <r>  0.0000  0.0040  0.3598 </r>
       </set>
       <set comment="band 12">
        <r>  0.0055  0.0082  0.4695 </r>
       </set>
      </set>
      <set comment="kpoint 106">
       <set comment="band 1">
        <r>  0.1607  0.0348  0.6639 </r>
       </set>
       <set comment="band 2">
        <r>  0.0001  0.0141  0.8911 </r>
       </set>
       <set comment="band 3">
        <r>  0.0032  0.0433  0.8718 </r>
       </set>
       <set comment="band 4">
        <r>  0.0136  0.1224  0.7412 </r>
       </set>
       <set comment="band 5">
        <r>  0.0006  0.0040  0.9651 </r>
       </set>
       <set comment="band 6">
        <r>  0.1417  0.2600  0.4160 </r>
       </set>
       <set comment="band 7">
        <r>  0.3557  0.1850  0.2632 </r>
       </set>
       <set comment="band 8">
        <r>  0.0431  0.4136  0.1593 </r>
       </set>
       <set comment="band 9">
        <r>  0.0210  0.2450  0.1699 </r>
       </set>
       <set comment="band 10">
        <r>  0.0019  0.3432  0.0261 </r>
       </set>
       <set comment="band 11">
        <r>  0.0101  0.0169  0.3672 </r>
       </set>
       <set comment="band 12">
        <r>  0.0012  0.0139  0.2915 </r>
       </set>
      </set>
      <set comment="kpoint 107">
       <set comment="band 1">
        <r>  0.0820  0.0371  0.7608 </r>
       </set>
       <set comment="band 2">
        <r>  0.0072  0.0556  0.8054 </r>
       </set>
       <set comment="band 3">
        <r>  0.0002  0.1182  0.7626 </r>
       </set>
       <set comment="band 4">
        <r>  0.0017  0.0152  0.9209 </r>
       </set>
       <set comment="band 5">
        <r>  0.0048  0.0011  0.9621 </r>
       </set>
       <set comment="band 6">
        <r>  0.3707  0.1681  0.2625 </r>
       </set>
       <set comment="band 7">
        <r>  0.1662  0.3327  0.2820 </r>
       </set>
       <set comment="band 8">
        <r>  0.0993  0.4114  0.2045 </r>
       </set>
       <set comment="band 9">
        <r>  0.0130  0.3625  0.2212 </r>
       </set>
       <set comment="band 10">
        <r>  0.0047  0.2099  0.1001 </r>
       </set>
       <set comment="band 11">
        <r>  0.0031  0.0213  0.2647 </r>
       </set>
       <set comment="band 12">
        <r>  0.0076  0.0159  0.1517 </r>
       </set>
      </set>
      <set comment="kpoint 108">
       <set comment="band 1">
        <r>  0.1300  0.0298  0.7090 </r>
       </set>
       <set comment="band 2">
        <r>  0.0020  0.0367  0.8486 </r>
       </set>
       <set comment="band 3">
        <r>  0.0095  0.1392  0.7222 </r>
       </set>
       <set comment="band 4">
        <r>  0.0000  0.0078  0.9313 </r>
       </set>
       <set comment="band 5">
        <r>  0.0000  0.0003  0.9737 </r>
       </set>
       <set comment="band 6">
        <r>  0.0312  0.4082  0.3276 </r>
       </set>
       <set comment="band 7">
        <r>  0.4898  0.0643  0.2820 </r>
       </set>
       <set comment="band 8">
        <r>  0.0604  0.3614  0.2066 </r>
       </set>
       <set comment="band 9">
        <r>  0.0000  0.5160  0.0991 </r>
       </set>
       <set comment="band 10">
        <r>  0.0258  0.1116  0.1370 </r>
       </set>
       <set comment="band 11">
        <r>  0.0087  0.0230  0.2887 </r>
       </set>
       <set comment="band 12">
        <r>  0.0000  0.0054  0.2903 </r>
       </set>
      </set>
      <set comment="kpoint 109">
       <set comment="band 1">
        <r>  0.2210  0.0027  0.6280 </r>
       </set>
       <set comment="band 2">
        <r>  0.0000  0.0001  0.9390 </r>
       </set>
       <set comment="band 3">
        <r>  0.0000  0.0001  0.9390 </r>
       </set>
       <set comment="band 4">
        <r>  0.0000  0.0004  0.9746 </r>
       </set>
       <set comment="band 5">
        <r>  0.0000  0.0004  0.9746 </r>
       </set>
       <set comment="band 6">
        <r>  0.0696  0.5130  0.0790 </r>
       </set>
       <set comment="band 7">
        <r>  0.4208  0.0957  0.3369 </r>
       </set>
       <set comment="band 8">
        <r>  0.0000  0.0232  0.0028 </r>
       </set>
       <set comment="band 9">
        <r>  0.0000  0.5160  0.0085 </r>
       </set>
       <set comment="band 10">
        <r>  0.0000  0.5160  0.0085 </r>
       </set>
       <set comment="band 11">
        <r>  0.0000  0.0003  0.5418 </r>
       </set>
       <set comment="band 12">
        <r>  0.0000  0.0003  0.5418 </r>
       </set>
      </set>
      <set comment="kpoint 110">
       <set comment="band 1">
        <r>  0.1921  0.0129  0.6523 </r>
       </set>
       <set comment="band 2">
        <r>  0.0000  0.0050  0.9211 </r>
       </set>
       <set comment="band 3">
        <r>  0.0000  0.0020  0.9361 </r>
       </set>
       <set comment="band 4">
        <r>  0.0011  0.1813  0.6753 </r>
       </set>
       <set comment="band 5">
        <r>  0.0000  0.0004  0.9735 </r>
       </set>
       <set comment="band 6">
        <r>  0.0195  0.4055  0.3273 </r>
       </set>
       <set comment="band 7">
        <r>  0.4859  0.0276  0.3648 </r>
       </set>
       <set comment="band 8">
        <r>  0.0035  0.0908  0.0828 </r>
       </set>
       <set comment="band 9">
        <r>  0.0258  0.4191  0.0481 </r>
       </set>
       <set comment="band 10">
        <r>  0.0000  0.5109  0.0477 </r>
       </set>
       <set comment="band 11">
        <r>  0.0145  0.0043  0.4289 </r>
       </set>
       <set comment="band 12">
        <r>  0.0000  0.0050  0.4879 </r>
       </set>
      </set>
     </set>
    </set>
   </array>
  </projected>
 </calculation>
 <structure name="finalpos" >
  <crystal>
   <varray name="basis" >
    <v>       0.00000000       2.02500000       2.02500000 </v>
    <v>       2.02500000       0.00000000       2.02500000 </v>
    <v>       2.02500000       2.02500000       0.00000000 </v>
   </varray>
   <i name="volume">     16.60753125 </i>
   <varray name="rec_basis" >
    <v>      -0.24691358       0.24691358       0.24691358 </v>
    <v>       0.24691358      -0.24691358       0.24691358 </v>
    <v>       0.24691358       0.24691358      -0.24691358 </v>
   </varray>
  </crystal>
  <varray name="positions" >
   <v>       0.00000000       0.00000000       0.00000000 </v>
  </varray>
 </structure>
</modeling>
