bcc Fe                                  
   2.90000000000000     
    -0.500000    0.500000    0.500000
     0.500000   -0.500000    0.500000
     0.500000    0.500000   -0.500000
   Fe
     1
Direct
  0.000000  0.000000  0.000000
 
   20   20   20
  103.46      97.210      80.708      59.296      38.480      21.966      11.320      6.1945      4.5648      3.9506    
  3.7673      3.9506      4.5648      6.1945      11.320      21.966      38.480      59.296      80.708      97.210    
  97.210      95.169      82.246      62.839      42.429      25.225      13.367      7.0652      4.8001      4.0436    
  3.7372      3.7942      4.2412      5.2628      8.6187      16.698      30.477      49.121      69.775      87.618    
  80.708      82.246      73.846      58.493      40.899      25.215      13.862      7.4372      4.8988      4.0513    
  3.6514      3.6008      3.8789      4.5592      6.2900      11.294      21.121      35.715      53.184      69.775    
  59.296      62.839      58.493      47.889      34.543      22.010      12.605      7.0910      4.7910      3.9625    
  3.5215      3.3966      3.5371      3.9995      4.8634      7.2586      13.014      22.812      35.715      49.121    
  38.480      42.429      40.899      34.543      25.663      16.912      10.186      6.1957      4.4942      3.7843    
  3.3619      3.2039      3.2529      3.5288      4.0988      5.0762      7.6511      13.014      21.121      30.477    
  21.966      25.225      25.215      22.010      16.912      11.654      7.5653      5.1620      4.1131      3.5458    
  3.1886      3.0369      3.0394      3.1883      3.5388      4.1351      5.0762      7.2586      11.294      16.698    
  11.320      13.367      13.862      12.605      10.186      7.5653      5.5243      4.3397      3.7284      3.2900    
  3.0196      2.9009      2.8913      2.9726      3.1714      3.5388      4.0988      4.8634      6.2900      8.6187    
  6.1945      7.0652      7.4372      7.0910      6.1957      5.1620      4.3397      3.7970      3.3718      3.0588    
  2.8737      2.7966      2.7951      2.8510      2.9726      3.1883      3.5288      3.9995      4.5592      5.2628    
  4.5648      4.8001      4.8988      4.7910      4.4942      4.1131      3.7284      3.3718      3.0817      2.8791    
  2.7650      2.7252      2.7397      2.7951      2.8913      3.0394      3.2529      3.5371      3.8789      4.2412    
  3.9506      4.0436      4.0513      3.9625      3.7843      3.5458      3.2900      3.0588      2.8791      2.7604    
  2.7001      2.6909      2.7252      2.7966      2.9009      3.0369      3.2039      3.3966      3.6008      3.7942    
  3.7673      3.7372      3.6514      3.5215      3.3619      3.1886      3.0196      2.8737      2.7650      2.7001    
  2.6787      2.7001      2.7650      2.8737      3.0196      3.1886      3.3619      3.5215      3.6514      3.7372    
  3.9506      3.7942      3.6008      3.3966      3.2039      3.0369      2.9009      2.7966      2.7252      2.6909    
  2.7001      2.7604      2.8791      3.0588      3.2900      3.5458      3.7843      3.9625      4.0513      4.0436    
  4.5648      4.2412      3.8789      3.5371      3.2529      3.0394      2.8913      2.7951      2.7397      2.7252    
  2.7650      2.8791      3.0817      3.3718      3.7284      4.1131      4.4942      4.7910      4.8988      4.8001    
  6.1945      5.2628      4.5592      3.9995      3.5288      3.1883      2.9726      2.8510      2.7951      2.7966    
  2.8737      3.0588      3.3718      3.7970      4.3397      5.1620      6.1957      7.0910      7.4372      7.0652    
  11.320      8.6187      6.2900      4.8634      4.0988      3.5388      3.1714      2.9726      2.8913      2.9009    
  3.0196      3.2900      3.7284      4.3397      5.5243      7.5653      10.186      12.605      13.862      13.367    
  21.966      16.698      11.294      7.2586      5.0762      4.1351      3.5388      3.1883      3.0394      3.0369    
  3.1886      3.5458      4.1131      5.1620      7.5653      11.654      16.912      22.010      25.215      25.225    
  38.480      30.477      21.121      13.014      7.6511      5.0762      4.0988      3.5288      3.2529      3.2039    
  3.3619      3.7843      4.4942      6.1957      10.186      16.912      25.663      34.543      40.899      42.429    
  59.296      49.121      35.715      22.812      13.014      7.2586      4.8634      3.9995      3.5371      3.3966    
  3.5215      3.9625      4.7910      7.0910      12.605      22.010      34.543      47.889      58.493      62.839    
  80.708      69.775      53.184      35.715      21.121      11.294      6.2900      4.5592      3.8789      3.6008    
  3.6514      4.0513      4.8988      7.4372      13.862      25.215      40.899      58.493      73.846      82.246    
  97.210      87.618      69.775      49.121      30.477      16.698      8.6187      5.2628      4.2412      3.7942    
  3.7372      4.0436      4.8001      7.0652      13.367      25.225      42.429      62.839      82.246      95.169    
  97.210      95.169      82.246      62.839      42.429      25.225      13.367      7.0652      4.8001      4.0436    
  3.7372      3.7942      4.2412      5.2628      8.6187      16.698      30.477      49.121      69.775      87.618    
  95.169      97.197      87.600      69.761      49.115      30.476      16.698      8.6185      5.2640      4.2435    
  3.7949      3.7354      4.0417      4.8004      7.0668      13.368      25.226      42.436      62.851      82.257    
  82.246      87.600      82.239      68.104      49.793      32.097      18.260      9.5916      5.6121      4.3489    
  3.7913      3.6254      3.7913      4.3489      5.6118      9.5908      18.260      32.099      49.800      68.113    
  62.839      69.761      68.104      58.495      44.254      29.505      17.416      9.5018      5.6441      4.3293    
  3.7234      3.4801      3.5305      3.8959      4.6431      6.5988      11.784      21.308      34.711      49.795    
  42.429      49.115      49.793      44.254      34.546      23.765      14.574      8.3991      5.3077      4.1805    
  3.5952      3.3181      3.2908      3.4972      4.0062      4.8956      7.2786      12.641      21.307      32.095    
  25.225      30.476      32.097      29.505      23.765      16.913      10.887      6.8024      4.7563      3.9297    
  3.4197      3.1555      3.0910      3.1915      3.5003      4.0744      5.0029      7.2797      11.785      18.259    
  13.367      16.698      18.260      17.416      14.574      10.887      7.5656      5.3301      4.2098      3.6266    
  3.2212      3.0044      2.9371      2.9825      3.1546      3.5078      4.0756      4.8973      6.5997      9.5904    
  7.0652      8.6185      9.5916      9.5018      8.3991      6.8024      5.3301      4.3391      3.7610      3.3257    
  3.0299      2.8745      2.8256      2.8522      2.9523      3.1553      3.5014      4.0066      4.6422      5.6100    
  4.8001      5.2640      5.6121      5.6441      5.3077      4.7563      4.2098      3.7610      3.3718      3.0690    
  2.8721      2.7739      2.7502      2.7787      2.8524      2.9828      3.1914      3.4960      3.8939      4.3473    
  4.0436      4.2435      4.3489      4.3293      4.1805      3.9297      3.6266      3.3257      3.0690      2.8793    
  2.7616      2.7091      2.7093      2.7502      2.8255      2.9367      3.0901      3.2898      3.5300      3.7919    
  3.7372      3.7949      3.7913      3.7234      3.5952      3.4197      3.2212      3.0299      2.8721      2.7616    
  2.7001      2.6838      2.7091      2.7737      2.8741      3.0040      3.1552      3.3186      3.4816      3.6274    
  3.7942      3.7354      3.6254      3.4801      3.3181      3.1555      3.0044      2.8745      2.7739      2.7091    
  2.6838      2.7001      2.7615      2.8719      3.0297      3.2214      3.4206      3.5966      3.7249      3.7919    
  4.2412      4.0417      3.7913      3.5305      3.2908      3.0910      2.9371      2.8256      2.7502      2.7093    
  2.7091      2.7615      2.8791      3.0689      3.3260      3.6274      3.9307      4.1812      4.3289      4.3473    
  5.2628      4.8004      4.3489      3.8959      3.4972      3.1915      2.9825      2.8522      2.7787      2.7502    
  2.7737      2.8719      3.0689      3.3722      3.7618      4.2106      4.7565      5.3069      5.6422      5.6100    
  8.6187      7.0668      5.6118      4.6431      4.0062      3.5003      3.1546      2.9523      2.8524      2.8255    
  2.8741      3.0297      3.3260      3.7618      4.3397      5.3302      6.8015      8.3973      9.4998      9.5904    
  16.698      13.368      9.5908      6.5988      4.8956      4.0744      3.5078      3.1553      2.9828      2.9367    
  3.0040      3.2214      3.6274      4.2106      5.3302      7.5647      10.885      14.571      17.414      18.259    
  30.477      25.226      18.260      11.784      7.2786      5.0029      4.0756      3.5014      3.1914      3.0901    
  3.1552      3.4206      3.9307      4.7565      6.8015      10.885      16.911      23.762      29.502      32.095    
  49.121      42.436      32.099      21.308      12.641      7.2797      4.8973      4.0066      3.4960      3.2898    
  3.3186      3.5966      4.1812      5.3069      8.3973      14.571      23.762      34.542      44.252      49.795    
  69.775      62.851      49.800      34.711      21.307      11.785      6.5997      4.6422      3.8939      3.5300    
  3.4816      3.7249      4.3289      5.6422      9.4998      17.414      29.502      44.252      58.497      68.113    
  87.618      82.257      68.113      49.795      32.095      18.259      9.5904      5.6100      4.3473      3.7919    
  3.6274      3.7919      4.3473      5.6100      9.5904      18.259      32.095      49.795      68.113      82.257    
  80.708      82.246      73.846      58.493      40.899      25.215      13.862      7.4372      4.8988      4.0513    
  3.6514      3.6008      3.8789      4.5592      6.2900      11.294      21.121      35.715      53.184      69.775    
  82.246      87.600      82.239      68.104      49.793      32.097      18.260      9.5916      5.6121      4.3489    
  3.7913      3.6254      3.7913      4.3489      5.6118      9.5908      18.260      32.099      49.800      68.113    
  73.846      82.239      80.696      69.764      53.178      35.714      21.122      11.296      6.2905      4.5592    
  3.8789      3.6008      3.6513      4.0513      4.8987      7.4369      13.863      25.217      40.903      58.497    
  58.493      68.104      69.764      62.843      49.798      34.714      21.311      11.787      6.6001      4.6421    
  3.8940      3.5300      3.4815      3.7248      4.3289      5.6421      9.4999      17.414      29.503      44.252    
  40.899      49.793      53.178      49.798      40.906      29.508      18.780      10.845      6.3535      4.5588    
  3.8241      3.4210      3.3036      3.4210      3.8241      4.5590      6.3534      10.843      18.776      29.502    
  25.215      32.097      35.714      34.714      29.508      22.014      14.574      8.9177      5.6682      4.3221    
  3.6731      3.2846      3.1360      3.1710      3.4068      3.9074      4.7087      6.6452      10.843      17.414    
  13.862      18.260      21.122      21.311      18.780      14.574      10.186      6.8010      4.8635      4.0015    
  3.4652      3.1342      2.9907      2.9851      3.1099      3.4130      3.9390      4.7087      6.3534      9.4998    
  7.4372      9.5916      11.296      11.787      10.845      8.9177      6.8010      5.1603      4.2094      3.6532    
  3.2390      2.9865      2.8727      2.8576      2.9241      3.0942      3.4129      3.9073      4.5590      5.6422    
  4.8988      5.6121      6.2905      6.6001      6.3535      5.6682      4.8635      4.2094      3.7283      3.3261    
  3.0330      2.8590      2.7834      2.7763      2.8211      2.9241      3.1097      3.4067      3.8240      4.3289    
  4.0513      4.3489      4.5592      4.6421      4.5588      4.3221      4.0015      3.6532      3.3261      3.0593    
  2.8722      2.7649      2.7239      2.7316      2.7763      2.8576      2.9851      3.1711      3.4210      3.7249    
  3.6514      3.7913      3.8789      3.8940      3.8241      3.6731      3.4652      3.2390      3.0330      2.8722    
  2.7652      2.7092      2.6975      2.7240      2.7835      2.8728      2.9908      3.1361      3.3037      3.4816    
  3.6008      3.6254      3.6008      3.5300      3.4210      3.2846      3.1342      2.9865      2.8590      2.7649    
  2.7092      2.6910      2.7092      2.7649      2.8590      2.9865      3.1341      3.2846      3.4210      3.5300    
  3.8789      3.7913      3.6513      3.4815      3.3036      3.1360      2.9907      2.8727      2.7834      2.7239    
  2.6975      2.7092      2.7652      2.8721      3.0329      3.2389      3.4651      3.6730      3.8240      3.8939    
  4.5592      4.3489      4.0513      3.7248      3.4210      3.1710      2.9851      2.8576      2.7763      2.7316    
  2.7240      2.7649      2.8721      3.0592      3.3260      3.6533      4.0018      4.3223      4.5590      4.6422    
  6.2900      5.6118      4.8987      4.3289      3.8241      3.4068      3.1099      2.9241      2.8211      2.7763    
  2.7835      2.8590      3.0329      3.3260      3.7285      4.2100      4.8642      5.6686      6.3534      6.5997    
  11.294      9.5908      7.4369      5.6421      4.5590      3.9074      3.4130      3.0942      2.9241      2.8576    
  2.8728      2.9865      3.2389      3.6533      4.2100      5.1613      6.8016      8.9171      10.843      11.785    
  21.121      18.260      13.863      9.4999      6.3534      4.7087      3.9390      3.4129      3.1097      2.9851    
  2.9908      3.1341      3.4651      4.0018      4.8642      6.8016      10.185      14.572      18.776      21.307    
  35.715      32.099      25.217      17.414      10.843      6.6452      4.7087      3.9073      3.4067      3.1711    
  3.1361      3.2846      3.6730      4.3223      5.6686      8.9171      14.572      22.009      29.503      34.711    
  53.184      49.800      40.903      29.503      18.776      10.843      6.3534      4.5590      3.8240      3.4210    
  3.3037      3.4210      3.8240      4.5590      6.3534      10.843      18.776      29.503      40.903      49.800    
  69.775      68.113      58.497      44.252      29.502      17.414      9.4998      5.6422      4.3289      3.7249    
  3.4816      3.5300      3.8939      4.6422      6.5997      11.785      21.307      34.711      49.800      62.851    
  59.296      62.839      58.493      47.889      34.543      22.010      12.605      7.0910      4.7910      3.9625    
  3.5215      3.3966      3.5371      3.9995      4.8634      7.2586      13.014      22.812      35.715      49.121    
  62.839      69.761      68.104      58.495      44.254      29.505      17.416      9.5018      5.6441      4.3293    
  3.7234      3.4801      3.5305      3.8959      4.6431      6.5988      11.784      21.308      34.711      49.795    
  58.493      68.104      69.764      62.843      49.798      34.714      21.311      11.787      6.6001      4.6421    
  3.8940      3.5300      3.4815      3.7248      4.3289      5.6421      9.4999      17.414      29.503      44.252    
  47.889      58.495      62.843      59.300      49.124      35.719      22.815      13.017      7.2585      4.8615    
  3.9980      3.5376      3.3981      3.5219      3.9611      4.7893      7.0903      12.605      22.009      34.542    
  34.543      44.254      49.798      49.124      42.439      32.103      21.312      12.642      7.2781      4.8950    
  4.0060      3.4972      3.2908      3.3181      3.5951      4.1805      5.3076      8.3983      14.572      23.762    
  22.010      29.505      34.714      35.719      32.103      25.221      17.417      10.842      6.6424      4.7068    
  3.9075      3.4079      3.1714      3.1352      3.2837      3.6735      4.3237      5.6696      8.9171      14.571    
  12.605      17.416      21.311      22.815      21.312      17.417      12.604      8.3952      5.6665      4.3734    
  3.7195      3.2782      3.0507      2.9852      3.0508      3.2783      3.7198      4.3745      5.6686      8.3973    
  7.0910      9.5018      11.787      13.017      12.642      10.842      8.3952      6.1922      4.7547      4.0019    
  3.4813      3.1272      2.9378      2.8711      2.8947      3.0165      3.2787      3.7187      4.3223      5.3069    
  4.7910      5.6441      6.6001      7.2585      7.2781      6.6424      5.6665      4.7547      4.1124      3.6275    
  3.2391      2.9803      2.8413      2.7901      2.8001      2.8681      3.0158      3.2773      3.6730      4.1812    
  3.9625      4.3293      4.6421      4.8615      4.8950      4.7068      4.3734      4.0019      3.6275      3.2909    
  3.0301      2.8589      2.7684      2.7383      2.7506      2.7999      2.8944      3.0509      3.2846      3.5966    
  3.5215      3.7234      3.8940      3.9980      4.0060      3.9075      3.7195      3.4813      3.2391      3.0301    
  2.8738      2.7738      2.7239      2.7148      2.7384      2.7903      2.8715      2.9860      3.1361      3.3186    
  3.3966      3.4801      3.5300      3.5376      3.4972      3.4079      3.2782      3.1272      2.9803      2.8589    
  2.7738      2.7251      2.7093      2.7240      2.7687      2.8417      2.9383      3.0509      3.1711      3.2898    
  3.5371      3.5305      3.4815      3.3981      3.2908      3.1714      3.0507      2.9378      2.8413      2.7684    
  2.7239      2.7093      2.7252      2.7739      2.8590      2.9802      3.1268      3.2773      3.4067      3.4960    
  3.9995      3.8959      3.7248      3.5219      3.3181      3.1352      2.9852      2.8711      2.7901      2.7383    
  2.7148      2.7240      2.7739      2.8737      3.0297      3.2383      3.4803      3.7187      3.9073      4.0066    
  4.8634      4.6431      4.3289      3.9611      3.5951      3.2837      3.0508      2.8947      2.8001      2.7506    
  2.7384      2.7687      2.8590      3.0297      3.2900      3.6267      4.0018      4.3745      4.7087      4.8973    
  7.2586      6.5988      5.6421      4.7893      4.1805      3.6735      3.2783      3.0165      2.8681      2.7999    
  2.7903      2.8417      2.9802      3.2383      3.6267      4.1128      4.7567      5.6696      6.6452      7.2797    
  13.014      11.784      9.4999      7.0903      5.3076      4.3237      3.7198      3.2787      3.0158      2.8944    
  2.8715      2.9383      3.1268      3.4803      4.0018      4.7567      6.1957      8.3983      10.843      12.641    
  22.812      21.308      17.414      12.605      8.3983      5.6696      4.3745      3.7187      3.2773      3.0509    
  2.9860      3.0509      3.2773      3.7187      4.3745      5.6696      8.3983      12.605      17.414      21.308    
  35.715      34.711      29.503      22.009      14.572      8.9171      5.6686      4.3223      3.6730      3.2846    
  3.1361      3.1711      3.4067      3.9073      4.7087      6.6452      10.843      17.414      25.217      32.099    
  49.121      49.795      44.252      34.542      23.762      14.571      8.3973      5.3069      4.1812      3.5966    
  3.3186      3.2898      3.4960      4.0066      4.8973      7.2797      12.641      21.308      32.099      42.436    
  38.480      42.429      40.899      34.543      25.663      16.912      10.186      6.1957      4.4942      3.7843    
  3.3619      3.2039      3.2529      3.5288      4.0988      5.0762      7.6511      13.014      21.121      30.477    
  42.429      49.115      49.793      44.254      34.546      23.765      14.574      8.3991      5.3077      4.1805    
  3.5952      3.3181      3.2908      3.4972      4.0062      4.8956      7.2786      12.641      21.307      32.095    
  40.899      49.793      53.178      49.798      40.906      29.508      18.780      10.845      6.3535      4.5588    
  3.8241      3.4210      3.3036      3.4210      3.8241      4.5590      6.3534      10.843      18.776      29.502    
  34.543      44.254      49.798      49.124      42.439      32.103      21.312      12.642      7.2781      4.8950    
  4.0060      3.4972      3.2908      3.3181      3.5951      4.1805      5.3076      8.3983      14.572      23.762    
  25.663      34.546      40.906      42.439      38.490      30.484      21.123      13.014      7.6492      5.0747    
  4.0982      3.5287      3.2529      3.2039      3.3619      3.7843      4.4943      6.1957      10.185      16.911    
  16.912      23.765      29.508      32.103      30.484      25.230      18.259      11.781      7.2751      5.0009    
  4.0749      3.5013      3.1914      3.0901      3.1552      3.4205      3.9308      4.7567      6.8016      10.885    
  10.186      14.574      18.780      21.312      21.123      18.259      13.858      9.4947      6.3494      4.7069    
  3.9386      3.4129      3.1098      2.9851      2.9908      3.1341      3.4651      4.0018      4.8642      6.8015    
  6.1957      8.3991      10.845      12.642      13.014      11.781      9.4947      7.0855      5.3047      4.3229    
  3.7200      3.2790      3.0159      2.8944      2.8715      2.9383      3.1268      3.4803      4.0018      4.7565    
  4.4942      5.3077      6.3535      7.2781      7.6492      7.2751      6.3494      5.3047      4.4932      3.9312    
  3.4659      3.1272      2.9220      2.8215      2.7926      2.8216      2.9219      3.1268      3.4651      3.9307    
  3.7843      4.1805      4.5588      4.8950      5.0747      5.0009      4.7069      4.3229      3.9312      3.5472    
  3.2219      2.9862      2.8414      2.7688      2.7466      2.7631      2.8215      2.9383      3.1341      3.4206    
  3.3619      3.5952      3.8241      4.0060      4.0982      4.0749      3.9386      3.7200      3.4659      3.2219    
  3.0200      2.8741      2.7833      2.7383      2.7284      2.7466      2.7926      2.8715      2.9908      3.1552    
  3.2039      3.3181      3.4210      3.4972      3.5287      3.5013      3.4129      3.2790      3.1272      2.9862    
  2.8741      2.7962      2.7501      2.7316      2.7384      2.7689      2.8215      2.8944      2.9851      3.0901    
  3.2529      3.2908      3.3036      3.2908      3.2529      3.1914      3.1098      3.0159      2.9220      2.8414    
  2.7833      2.7501      2.7396      2.7502      2.7834      2.8414      2.9219      3.0158      3.1097      3.1914    
  3.5288      3.4972      3.4210      3.3181      3.2039      3.0901      2.9851      2.8944      2.8215      2.7688    
  2.7383      2.7316      2.7502      2.7963      2.8740      2.9859      3.1268      3.2787      3.4129      3.5014    
  4.0988      4.0062      3.8241      3.5951      3.3619      3.1552      2.9908      2.8715      2.7926      2.7466    
  2.7284      2.7384      2.7834      2.8740      3.0195      3.2210      3.4651      3.7198      3.9390      4.0756    
  5.0762      4.8956      4.5590      4.1805      3.7843      3.4205      3.1341      2.9383      2.8216      2.7631    
  2.7466      2.7689      2.8414      2.9859      3.2210      3.5462      3.9308      4.3237      4.7087      5.0029    
  7.6511      7.2786      6.3534      5.3076      4.4943      3.9308      3.4651      3.1268      2.9219      2.8215    
  2.7926      2.8215      2.9219      3.1268      3.4651      3.9308      4.4943      5.3076      6.3534      7.2786    
  13.014      12.641      10.843      8.3983      6.1957      4.7567      4.0018      3.4803      3.1268      2.9383    
  2.8715      2.8944      3.0158      3.2787      3.7198      4.3237      5.3076      7.0903      9.4999      11.784    
  21.121      21.307      18.776      14.572      10.185      6.8016      4.8642      4.0018      3.4651      3.1341    
  2.9908      2.9851      3.1097      3.4129      3.9390      4.7087      6.3534      9.4999      13.863      18.260    
  30.477      32.095      29.502      23.762      16.911      10.885      6.8015      4.7565      3.9307      3.4206    
  3.1552      3.0901      3.1914      3.5014      4.0756      5.0029      7.2786      11.784      18.260      25.226    
  21.966      25.225      25.215      22.010      16.912      11.654      7.5653      5.1620      4.1131      3.5458    
  3.1886      3.0369      3.0394      3.1883      3.5388      4.1351      5.0762      7.2586      11.294      16.698    
  25.225      30.476      32.097      29.505      23.765      16.913      10.887      6.8024      4.7563      3.9297    
  3.4197      3.1555      3.0910      3.1915      3.5003      4.0744      5.0029      7.2797      11.785      18.259    
  25.215      32.097      35.714      34.714      29.508      22.014      14.574      8.9177      5.6682      4.3221    
  3.6731      3.2846      3.1360      3.1710      3.4068      3.9074      4.7087      6.6452      10.843      17.414    
  22.010      29.505      34.714      35.719      32.103      25.221      17.417      10.842      6.6424      4.7068    
  3.9075      3.4079      3.1714      3.1352      3.2837      3.6735      4.3237      5.6696      8.9171      14.571    
  16.912      23.765      29.508      32.103      30.484      25.230      18.259      11.781      7.2751      5.0009    
  4.0749      3.5013      3.1914      3.0901      3.1552      3.4205      3.9308      4.7567      6.8016      10.885    
  11.654      16.913      22.014      25.221      25.230      21.967      16.693      11.287      7.2533      5.0748    
  4.1360      3.5394      3.1878      3.0388      3.0371      3.1894      3.5462      4.1128      5.1613      7.5647    
  7.5653      10.887      14.574      17.417      18.259      16.693      13.360      9.5828      6.5949      4.8957    
  4.0758      3.5083      3.1548      2.9826      2.9372      3.0044      3.2210      3.6267      4.2100      5.3302    
  5.1620      6.8024      8.9177      10.842      11.781      11.287      9.5828      7.4317      5.6413      4.5610    
  3.9093      3.4134      3.0939      2.9241      2.8580      2.8729      2.9859      3.2383      3.6533      4.2106    
  4.1131      4.7563      5.6682      6.6424      7.2751      7.2533      6.5949      5.6413      4.7914      4.1835    
  3.6753      3.2786      3.0163      2.8682      2.8002      2.7902      2.8414      2.9802      3.2389      3.6274    
  3.5458      3.9297      4.3221      4.7068      5.0009      5.0748      4.8957      4.5610      4.1835      3.7868    
  3.4217      3.1341      2.9381      2.8216      2.7632      2.7466      2.7689      2.8417      2.9865      3.2214    
  3.1886      3.4197      3.6731      3.9075      4.0749      4.1360      4.0758      3.9093      3.6753      3.4217    
  3.1896      3.0041      2.8726      2.7902      2.7467      2.7333      2.7466      2.7903      2.8728      3.0040    
  3.0369      3.1555      3.2846      3.4079      3.5013      3.5394      3.5083      3.4134      3.2786      3.1341    
  3.0041      2.9004      2.8253      2.7763      2.7507      2.7466      2.7631      2.7999      2.8576      2.9367    
  3.0394      3.0910      3.1360      3.1714      3.1914      3.1878      3.1548      3.0939      3.0163      2.9381    
  2.8726      2.8253      2.7949      2.7786      2.7764      2.7902      2.8216      2.8681      2.9241      2.9828    
  3.1883      3.1915      3.1710      3.1352      3.0901      3.0388      2.9826      2.9241      2.8682      2.8216    
  2.7902      2.7763      2.7786      2.7950      2.8255      2.8729      2.9383      3.0165      3.0942      3.1553    
  3.5388      3.5003      3.4068      3.2837      3.1552      3.0371      2.9372      2.8580      2.8002      2.7632    
  2.7467      2.7507      2.7764      2.8255      2.9008      3.0044      3.1341      3.2783      3.4130      3.5078    
  4.1351      4.0744      3.9074      3.6735      3.4205      3.1894      3.0044      2.8729      2.7902      2.7466    
  2.7333      2.7466      2.7902      2.8729      3.0044      3.1894      3.4205      3.6735      3.9074      4.0744    
  5.0762      5.0029      4.7087      4.3237      3.9308      3.5462      3.2210      2.9859      2.8414      2.7689    
  2.7466      2.7631      2.8216      2.9383      3.1341      3.4205      3.7843      4.1805      4.5590      4.8956    
  7.2586      7.2797      6.6452      5.6696      4.7567      4.1128      3.6267      3.2383      2.9802      2.8417    
  2.7903      2.7999      2.8681      3.0165      3.2783      3.6735      4.1805      4.7893      5.6421      6.5988    
  11.294      11.785      10.843      8.9171      6.8016      5.1613      4.2100      3.6533      3.2389      2.9865    
  2.8728      2.8576      2.9241      3.0942      3.4130      3.9074      4.5590      5.6421      7.4369      9.5908    
  16.698      18.259      17.414      14.571      10.885      7.5647      5.3302      4.2106      3.6274      3.2214    
  3.0040      2.9367      2.9828      3.1553      3.5078      4.0744      4.8956      6.5988      9.5908      13.368    
  11.320      13.367      13.862      12.605      10.186      7.5653      5.5243      4.3397      3.7284      3.2900    
  3.0196      2.9009      2.8913      2.9726      3.1714      3.5388      4.0988      4.8634      6.2900      8.6187    
  13.367      16.698      18.260      17.416      14.574      10.887      7.5656      5.3301      4.2098      3.6266    
  3.2212      3.0044      2.9371      2.9825      3.1546      3.5078      4.0756      4.8973      6.5997      9.5904    
  13.862      18.260      21.122      21.311      18.780      14.574      10.186      6.8010      4.8635      4.0015    