bcc Fe                                  
   2.90000000000000     
    -0.500000    0.500000    0.500000
     0.500000   -0.500000    0.500000
     0.500000    0.500000   -0.500000
   Fe
     1
Direct
  0.000000  0.000000  0.000000
 
   20   20   20
 0.10346325046E+03 0.97209558430E+02 0.80707544279E+02 0.59295783152E+02 0.38479694376E+02
 0.21966451154E+02 0.11320093992E+02 0.61944581664E+01 0.45647982094E+01 0.39505823425E+01
 0.37673274072E+01 0.39505823425E+01 0.45647982094E+01 0.61944581664E+01 0.11320093992E+02
 0.21966451154E+02 0.38479694376E+02 0.59295783152E+02 0.80707544279E+02 0.97209558430E+02
 0.97209558430E+02 0.95168655564E+02 0.82245990782E+02 0.62839390660E+02 0.42429133913E+02
 0.25224845682E+02 0.13367492675E+02 0.70652482637E+01 0.48000808393E+01 0.40435911684E+01
 0.37371822130E+01 0.37942439228E+01 0.42412077359E+01 0.52627507019E+01 0.86187101573E+01
 0.16698142077E+02 0.30476729850E+02 0.49120851899E+02 0.69775087728E+02 0.87618110438E+02
 0.80707544279E+02 0.82245990782E+02 0.73846205065E+02 0.58493063473E+02 0.40898696444E+02
 0.25215089392E+02 0.13862396375E+02 0.74372295433E+01 0.48987875137E+01 0.40513400287E+01
 0.36513774454E+01 0.36007734781E+01 0.38788938547E+01 0.45591917360E+01 0.62900311174E+01
 0.11294265395E+02 0.21120559695E+02 0.35715143127E+02 0.53184002891E+02 0.69775087728E+02
 0.59295783152E+02 0.62839390660E+02 0.58493063473E+02 0.47888985383E+02 0.34543455018E+02
 0.22009786913E+02 0.12604891174E+02 0.70909735866E+01 0.47910068423E+01 0.39624972818E+01
 0.35214707857E+01 0.33965673267E+01 0.35371001180E+01 0.39995321663E+01 0.48634404804E+01
 0.72585770672E+01 0.13014276029E+02 0.22811766394E+02 0.35715143127E+02 0.49120851899E+02
 0.38479694376E+02 0.42429133913E+02 0.40898696444E+02 0.34543455018E+02 0.25662701781E+02
 0.16911511376E+02 0.10185563122E+02 0.61957241702E+01 0.44942426531E+01 0.37843166072E+01
 0.33618925957E+01 0.32039099594E+01 0.32529373882E+01 0.35287706880E+01 0.40987819192E+01
 0.50761839873E+01 0.76511411856E+01 0.13014276029E+02 0.21120559695E+02 0.30476729850E+02
 0.21966451154E+02 0.25224845682E+02 0.25215089392E+02 0.22009786913E+02 0.16911511376E+02
 0.11653919246E+02 0.75652759802E+01 0.51619866873E+01 0.41131158690E+01 0.35457855635E+01
 0.31885727065E+01 0.30368819125E+01 0.30393805354E+01 0.31882992602E+01 0.35388076306E+01
 0.41351270429E+01 0.50761839873E+01 0.72585770672E+01 0.11294265395E+02 0.16698142077E+02
 0.11320093992E+02 0.13367492675E+02 0.13862396375E+02 0.12604891174E+02 0.10185563122E+02
 0.75652759802E+01 0.55243193964E+01 0.43396528520E+01 0.37283927639E+01 0.32900236444E+01
 0.30196106613E+01 0.29008551173E+01 0.28912759611E+01 0.29725538275E+01 0.31713983675E+01
 0.35388076306E+01 0.40987819192E+01 0.48634404804E+01 0.62900311174E+01 0.86187101573E+01
 0.61944581664E+01 0.70652482637E+01 0.74372295433E+01 0.70909735866E+01 0.61957241702E+01
 0.51619866873E+01 0.43396528520E+01 0.37969688660E+01 0.33717882276E+01 0.30587517851E+01
 0.28736632368E+01 0.27965527307E+01 0.27950602472E+01 0.28510362845E+01 0.29725538275E+01
 0.31882992602E+01 0.35287706880E+01 0.39995321663E+01 0.45591917360E+01 0.52627507019E+01
 0.45647982094E+01 0.48000808393E+01 0.48987875137E+01 0.47910068423E+01 0.44942426531E+01
 0.41131158690E+01 0.37283927639E+01 0.33717882276E+01 0.30817060391E+01 0.28790743754E+01
 0.27650486883E+01 0.27251946228E+01 0.27396543914E+01 0.27950602472E+01 0.28912759611E+01
 0.30393805354E+01 0.32529373882E+01 0.35371001180E+01 0.38788938547E+01 0.42412077359E+01
 0.39505823425E+01 0.40435911684E+01 0.40513400287E+01 0.39624972818E+01 0.37843166072E+01
 0.35457855635E+01 0.32900236444E+01 0.30587517851E+01 0.28790743754E+01 0.27603848283E+01
 0.27000644141E+01 0.26908780702E+01 0.27251946228E+01 0.27965527307E+01 0.29008551173E+01
 0.30368819125E+01 0.32039099594E+01 0.33965673267E+01 0.36007734781E+01 0.37942439228E+01
 0.37673274072E+01 0.37371822130E+01 0.36513774454E+01 0.35214707857E+01 0.33618925957E+01
 0.31885727065E+01 0.30196106613E+01 0.28736632368E+01 0.27650486883E+01 0.27000644141E+01
 0.26787205238E+01 0.27000644141E+01 0.27650486883E+01 0.28736632368E+01 0.30196106613E+01
 0.31885727065E+01 0.33618925957E+01 0.35214707857E+01 0.36513774454E+01 0.37371822130E+01
 0.39505823425E+01 0.37942439228E+01 0.36007734781E+01 0.33965673267E+01 0.32039099594E+01
 0.30368819125E+01 0.29008551173E+01 0.27965527307E+01 0.27251946228E+01 0.26908780702E+01
 0.27000644141E+01 0.27603848283E+01 0.28790743754E+01 0.30587517851E+01 0.32900236444E+01
 0.35457855635E+01 0.37843166072E+01 0.39624972818E+01 0.40513400287E+01 0.40435911684E+01
 0.45647982094E+01 0.42412077359E+01 0.38788938547E+01 0.35371001180E+01 0.32529373882E+01
 0.30393805354E+01 0.28912759611E+01 0.27950602472E+01 0.27396543914E+01 0.27251946228E+01
 0.27650486883E+01 0.28790743754E+01 0.30817060391E+01 0.33717882276E+01 0.37283927639E+01
 0.41131158690E+01 0.44942426531E+01 0.47910068423E+01 0.48987875137E+01 0.48000808393E+01
 0.61944581664E+01 0.52627507019E+01 0.45591917360E+01 0.39995321663E+01 0.35287706880E+01
 0.31882992602E+01 0.29725538275E+01 0.28510362845E+01 0.27950602472E+01 0.27965527307E+01
 0.28736632368E+01 0.30587517851E+01 0.33717882276E+01 0.37969688660E+01 0.43396528520E+01
 0.51619866873E+01 0.61957241702E+01 0.70909735866E+01 0.74372295433E+01 0.70652482637E+01
 0.11320093992E+02 0.86187101573E+01 0.62900311174E+01 0.48634404804E+01 0.40987819192E+01
 0.35388076306E+01 0.31713983675E+01 0.29725538275E+01 0.28912759611E+01 0.29008551173E+01
 0.30196106613E+01 0.32900236444E+01 0.37283927639E+01 0.43396528520E+01 0.55243193964E+01
 0.75652759802E+01 0.10185563122E+02 0.12604891174E+02 0.13862396375E+02 0.13367492675E+02
 0.21966451154E+02 0.16698142077E+02 0.11294265395E+02 0.72585770672E+01 0.50761839873E+01
 0.41351270429E+01 0.35388076306E+01 0.31882992602E+01 0.30393805354E+01 0.30368819125E+01
 0.31885727065E+01 0.35457855635E+01 0.41131158690E+01 0.51619866873E+01 0.75652759802E+01
 0.11653919246E+02 0.16911511376E+02 0.22009786913E+02 0.25215089392E+02 0.25224845682E+02
 0.38479694376E+02 0.30476729850E+02 0.21120559695E+02 0.13014276029E+02 0.76511411856E+01
 0.50761839873E+01 0.40987819192E+01 0.35287706880E+01 0.32529373882E+01 0.32039099594E+01
 0.33618925957E+01 0.37843166072E+01 0.44942426531E+01 0.61957241702E+01 0.10185563122E+02
 0.16911511376E+02 0.25662701781E+02 0.34543455018E+02 0.40898696444E+02 0.42429133913E+02
 0.59295783152E+02 0.49120851899E+02 0.35715143127E+02 0.22811766394E+02 0.13014276029E+02
 0.72585770672E+01 0.48634404804E+01 0.39995321663E+01 0.35371001180E+01 0.33965673267E+01
 0.35214707857E+01 0.39624972818E+01 0.47910068423E+01 0.70909735866E+01 0.12604891174E+02
 0.22009786913E+02 0.34543455018E+02 0.47888985383E+02 0.58493063473E+02 0.62839390660E+02
 0.80707544279E+02 0.69775087728E+02 0.53184002891E+02 0.35715143127E+02 0.21120559695E+02
 0.11294265395E+02 0.62900311174E+01 0.45591917360E+01 0.38788938547E+01 0.36007734781E+01
 0.36513774454E+01 0.40513400287E+01 0.48987875137E+01 0.74372295433E+01 0.13862396375E+02
 0.25215089392E+02 0.40898696444E+02 0.58493063473E+02 0.73846205065E+02 0.82245990782E+02
 0.97209558430E+02 0.87618110438E+02 0.69775087728E+02 0.49120851899E+02 0.30476729850E+02
 0.16698142077E+02 0.86187101573E+01 0.52627507019E+01 0.42412077359E+01 0.37942439228E+01
 0.37371822130E+01 0.40435911684E+01 0.48000808393E+01 0.70652482637E+01 0.13367492675E+02
 0.25224845682E+02 0.42429133913E+02 0.62839390660E+02 0.82245990782E+02 0.95168655564E+02
 0.97209558430E+02 0.95168655564E+02 0.82245990782E+02 0.62839390660E+02 0.42429133913E+02
 0.25224845682E+02 0.13367492675E+02 0.70652482637E+01 0.48000808393E+01 0.40435911684E+01
 0.37371822130E+01 0.37942439228E+01 0.42412077359E+01 0.52627507019E+01 0.86187101573E+01
 0.16698142077E+02 0.30476729850E+02 0.49120851899E+02 0.69775087728E+02 0.87618110438E+02
 0.95168655564E+02 0.97196555658E+02 0.87599564403E+02 0.69761168654E+02 0.49115419574E+02
 0.30476235137E+02 0.16698047572E+02 0.86184797025E+01 0.52640268635E+01 0.42435033812E+01
 0.37949391115E+01 0.37354084241E+01 0.40417202887E+01 0.48003778217E+01 0.70667956677E+01
 0.13368350774E+02 0.25226425547E+02 0.42435591451E+02 0.62851341360E+02 0.82256608894E+02
 0.82245990782E+02 0.87599564403E+02 0.82239128685E+02 0.68103564593E+02 0.49793210305E+02
 0.32096696059E+02 0.18260385839E+02 0.95915723353E+01 0.56121247571E+01 0.43489028333E+01
 0.37912874159E+01 0.36254048939E+01 0.37912629420E+01 0.43488965725E+01 0.56118422520E+01
 0.95907594923E+01 0.18260006542E+02 0.32099085309E+02 0.49799951187E+02 0.68112858828E+02
 0.62839390660E+02 0.69761168654E+02 0.68103564593E+02 0.58495390719E+02 0.44254178164E+02
 0.29504810242E+02 0.17415570469E+02 0.95017677752E+01 0.56440553385E+01 0.43293171977E+01
 0.37234005397E+01 0.34801494376E+01 0.35305258814E+01 0.38958540646E+01 0.46430545756E+01
 0.65988088465E+01 0.11784261681E+02 0.21308310012E+02 0.34711211784E+02 0.49794579388E+02
 0.42429133913E+02 0.49115419574E+02 0.49793210305E+02 0.44254178164E+02 0.34546168626E+02
 0.23764877209E+02 0.14573527165E+02 0.83990611439E+01 0.53076973632E+01 0.41805063332E+01
 0.35951520219E+01 0.33180859097E+01 0.32908310983E+01 0.34971659649E+01 0.40062186345E+01
 0.48956442215E+01 0.72785568189E+01 0.12641204415E+02 0.21307450077E+02 0.32095113093E+02
 0.25224845682E+02 0.30476235137E+02 0.32096696059E+02 0.29504810242E+02 0.23764877209E+02
 0.16913135512E+02 0.10886789854E+02 0.68023788062E+01 0.47563392398E+01 0.39296745191E+01
 0.34197191808E+01 0.31554761701E+01 0.30910044183E+01 0.31915322735E+01 0.35003272764E+01
 0.40743997650E+01 0.50029040131E+01 0.72796718597E+01 0.11784963794E+02 0.18259192368E+02
 0.13367492675E+02 0.16698047572E+02 0.18260385839E+02 0.17415570469E+02 0.14573527165E+02
 0.10886789854E+02 0.75655730291E+01 0.53301451330E+01 0.42098254925E+01 0.36266449549E+01
 0.32212136478E+01 0.30044498034E+01 0.29370843784E+01 0.29824837096E+01 0.31545721320E+01
 0.35078147669E+01 0.40756013734E+01 0.48973144488E+01 0.65996792702E+01 0.95903638373E+01
 0.70652482637E+01 0.86184797025E+01 0.95915723353E+01 0.95017677752E+01 0.83990611439E+01
 0.68023788062E+01 0.53301451330E+01 0.43390659989E+01 0.37610323945E+01 0.33256949269E+01
 0.30299415536E+01 0.28744775095E+01 0.28255560534E+01 0.28521845911E+01 0.29523424753E+01
 0.31552681427E+01 0.35013659872E+01 0.40066228389E+01 0.46421534515E+01 0.56100179847E+01
 0.48000808393E+01 0.52640268635E+01 0.56121247571E+01 0.56440553385E+01 0.53076973632E+01
 0.47563392398E+01 0.42098254925E+01 0.37610323945E+01 0.33718289446E+01 0.30689836637E+01
 0.28721068936E+01 0.27738787237E+01 0.27502005255E+01 0.27786519689E+01 0.28524474862E+01
 0.29828298033E+01 0.31913585377E+01 0.34959884041E+01 0.38939366230E+01 0.43472643033E+01
 0.40435911684E+01 0.42435033812E+01 0.43489028333E+01 0.43293171977E+01 0.41805063332E+01
 0.39296745191E+01 0.36266449549E+01 0.33256949269E+01 0.30689836637E+01 0.28792707079E+01
 0.27616046097E+01 0.27091173349E+01 0.27093356536E+01 0.27502429358E+01 0.28255210174E+01
 0.29367073350E+01 0.30901371783E+01 0.32897624695E+01 0.35299800774E+01 0.37919166818E+01
 0.37371822130E+01 0.37949391115E+01 0.37912874159E+01 0.37234005397E+01 0.35951520219E+01
 0.34197191808E+01 0.32212136478E+01 0.30299415536E+01 0.28721068936E+01 0.27616046097E+01
 0.27001340537E+01 0.26838079025E+01 0.27091166019E+01 0.27737489843E+01 0.28741141458E+01
 0.30039570473E+01 0.31552363066E+01 0.33185825138E+01 0.34815928282E+01 0.36274346851E+01
 0.37942439228E+01 0.37354084241E+01 0.36254048939E+01 0.34801494376E+01 0.33180859097E+01
 0.31554761701E+01 0.30044498034E+01 0.28744775095E+01 0.27738787237E+01 0.27091173349E+01
 0.26838079025E+01 0.27001451382E+01 0.27615268544E+01 0.28718785135E+01 0.30297134885E+01
 0.32213560180E+01 0.34205616845E+01 0.35966162867E+01 0.37248683312E+01 0.37919166818E+01
 0.42412077359E+01 0.40417202887E+01 0.37912629420E+01 0.35305258814E+01 0.32908310983E+01
 0.30910044183E+01 0.29370843784E+01 0.28255560534E+01 0.27502005255E+01 0.27093356536E+01
 0.27091166019E+01 0.27615268544E+01 0.28791303998E+01 0.30689383238E+01 0.33259930493E+01
 0.36274319621E+01 0.39307358141E+01 0.41812068824E+01 0.43289480762E+01 0.43472643033E+01
 0.52627507019E+01 0.48003778217E+01 0.43488965725E+01 0.38958540646E+01 0.34971659649E+01
 0.31915322735E+01 0.29824837096E+01 0.28521845911E+01 0.27786519689E+01 0.27502429358E+01
 0.27737489843E+01 0.28718785135E+01 0.30689383238E+01 0.33721878736E+01 0.37617564521E+01
 0.42105677262E+01 0.47565448107E+01 0.53068869197E+01 0.56422364565E+01 0.56100179847E+01
 0.86187101573E+01 0.70667956677E+01 0.56118422520E+01 0.46430545756E+01 0.40062186345E+01
 0.35003272764E+01 0.31545721320E+01 0.29523424753E+01 0.28524474862E+01 0.28255210174E+01
 0.28741141458E+01 0.30297134885E+01 0.33259930493E+01 0.37617564521E+01 0.43397112294E+01
 0.53301647166E+01 0.68014756421E+01 0.83973475378E+01 0.94998418014E+01 0.95903638373E+01
 0.16698142077E+02 0.13368350774E+02 0.95907594923E+01 0.65988088465E+01 0.48956442215E+01
 0.40743997650E+01 0.35078147669E+01 0.31552681427E+01 0.29828298033E+01 0.29367073350E+01
 0.30039570473E+01 0.32213560180E+01 0.36274319621E+01 0.42105677262E+01 0.53301647166E+01
 0.75646609971E+01 0.10885094974E+02 0.14571367996E+02 0.17413510452E+02 0.18259192368E+02
 0.30476729850E+02 0.25226425547E+02 0.18260006542E+02 0.11784261681E+02 0.72785568189E+01
 0.50029040131E+01 0.40756013734E+01 0.35013659872E+01 0.31913585377E+01 0.30901371783E+01
 0.31552363066E+01 0.34205616845E+01 0.39307358141E+01 0.47565448107E+01 0.68014756421E+01
 0.10885094974E+02 0.16910769538E+02 0.23761860171E+02 0.29501838642E+02 0.32095113093E+02
 0.49120851899E+02 0.42435591451E+02 0.32099085309E+02 0.21308310012E+02 0.12641204415E+02
 0.72796718597E+01 0.48973144488E+01 0.40066228389E+01 0.34959884041E+01 0.32897624695E+01
 0.33185825138E+01 0.35966162867E+01 0.41812068824E+01 0.53068869197E+01 0.83973475378E+01
 0.14571367996E+02 0.23761860171E+02 0.34542413411E+02 0.44251691056E+02 0.49794579388E+02
 0.69775087728E+02 0.62851341360E+02 0.49799951187E+02 0.34711211784E+02 0.21307450077E+02
 0.11784963794E+02 0.65996792702E+01 0.46421534515E+01 0.38939366230E+01 0.35299800774E+01
 0.34815928282E+01 0.37248683312E+01 0.43289480762E+01 0.56422364565E+01 0.94998418014E+01
 0.17413510452E+02 0.29501838642E+02 0.44251691056E+02 0.58497432010E+02 0.68112858828E+02
 0.87618110438E+02 0.82256608894E+02 0.68112858828E+02 0.49794579388E+02 0.32095113093E+02
 0.18259192368E+02 0.95903638373E+01 0.56100179847E+01 0.43472643033E+01 0.37919166818E+01
 0.36274346851E+01 0.37919166818E+01 0.43472643033E+01 0.56100179847E+01 0.95903638373E+01
 0.18259192368E+02 0.32095113093E+02 0.49794579388E+02 0.68112858828E+02 0.82256608894E+02
 0.80707544279E+02 0.82245990782E+02 0.73846205065E+02 0.58493063473E+02 0.40898696444E+02
 0.25215089392E+02 0.13862396375E+02 0.74372295433E+01 0.48987875137E+01 0.40513400287E+01
 0.36513774454E+01 0.36007734781E+01 0.38788938547E+01 0.45591917360E+01 0.62900311174E+01
 0.11294265395E+02 0.21120559695E+02 0.35715143127E+02 0.53184002891E+02 0.69775087728E+02
 0.82245990782E+02 0.87599564403E+02 0.82239128685E+02 0.68103564593E+02 0.49793210305E+02
 0.32096696059E+02 0.18260385839E+02 0.95915723353E+01 0.56121247571E+01 0.43489028333E+01
 0.37912874159E+01 0.36254048939E+01 0.37912629420E+01 0.43488965725E+01 0.56118422520E+01
 0.95907594923E+01 0.18260006542E+02 0.32099085309E+02 0.49799951187E+02 0.68112858828E+02
 0.73846205065E+02 0.82239128685E+02 0.80695902616E+02 0.69764045398E+02 0.53177941625E+02
 0.35714397252E+02 0.21122307653E+02 0.11295738814E+02 0.62904652804E+01 0.45591812501E+01
 0.38789071689E+01 0.36007697476E+01 0.36513194564E+01 0.40513160313E+01 0.48986624794E+01
 0.74368716865E+01 0.13862519474E+02 0.25217169964E+02 0.40903140017E+02 0.58497432010E+02
 0.58493063473E+02 0.68103564593E+02 0.69764045398E+02 0.62843400685E+02 0.49797786245E+02
 0.34713514362E+02 0.21310763164E+02 0.11786873881E+02 0.66000979970E+01 0.46421018275E+01
 0.38939641833E+01 0.35299814099E+01 0.34815013492E+01 0.37248355657E+01 0.43289453877E+01
 0.56421030233E+01 0.94998853500E+01 0.17414423888E+02 0.29503380395E+02 0.44251691056E+02
 0.40898696444E+02 0.49793210305E+02 0.53177941625E+02 0.49797786245E+02 0.40905570755E+02
 0.29508080295E+02 0.18780285518E+02 0.10844947374E+02 0.63535312623E+01 0.45588292003E+01
 0.38240802588E+01 0.34210000931E+01 0.33036012878E+01 0.34209673756E+01 0.38241332044E+01
 0.45589909140E+01 0.63533787977E+01 0.10843476194E+02 0.18776437572E+02 0.29501838642E+02
 0.25215089392E+02 0.32096696059E+02 0.35714397252E+02 0.34713514362E+02 0.29508080295E+02
 0.22014079323E+02 0.14574391491E+02 0.89176899617E+01 0.56681992983E+01 0.43221017967E+01
 0.36730626306E+01 0.32845712638E+01 0.31359979915E+01 0.31710407227E+01 0.34068230242E+01
 0.39074291770E+01 0.47087366063E+01 0.66452288115E+01 0.10843333517E+02 0.17413510452E+02
 0.13862396375E+02 0.18260385839E+02 0.21122307653E+02 0.21310763164E+02 0.18780285518E+02
 0.14574391491E+02 0.10186030680E+02 0.68010498510E+01 0.48634722284E+01 0.40015356092E+01
 0.34651790441E+01 0.31341511262E+01 0.29906712265E+01 0.29850817844E+01 0.31098612401E+01
 0.34129969694E+01 0.39389737774E+01 0.47087285201E+01 0.63534234318E+01 0.94998418014E+01
 0.74372295433E+01 0.95915723353E+01 0.11295738814E+02 0.11786873881E+02 0.10844947374E+02
 0.89176899617E+01 0.68010498510E+01 0.51603151954E+01 0.42094039689E+01 0.36531596149E+01
 0.32390158787E+01 0.29864519861E+01 0.28727141001E+01 0.28575662072E+01 0.29240982476E+01
 0.30942163749E+01 0.34128823960E+01 0.39072947308E+01 0.45589684859E+01 0.56422364565E+01
 0.48987875137E+01 0.56121247571E+01 0.62904652804E+01 0.66000979970E+01 0.63535312623E+01
 0.56681992983E+01 0.48634722284E+01 0.42094039689E+01 0.37282573949E+01 0.33261005879E+01
 0.30329704413E+01 0.28590199786E+01 0.27833658723E+01 0.27762608896E+01 0.28211365962E+01
 0.29240640240E+01 0.31097335097E+01 0.34066584673E+01 0.38240290035E+01 0.43289480762E+01
 0.40513400287E+01 0.43489028333E+01 0.45591812501E+01 0.46421018275E+01 0.45588292003E+01
 0.43221017967E+01 0.40015356092E+01 0.36531596149E+01 0.33261005879E+01 0.30593266076E+01
 0.28722047105E+01 0.27649067621E+01 0.27239165079E+01 0.27316315126E+01 0.27763216638E+01
 0.28576322614E+01 0.29851123294E+01 0.31710501570E+01 0.34209876361E+01 0.37248683312E+01
 0.36513774454E+01 0.37912874159E+01 0.38789071689E+01 0.38939641833E+01 0.38240802588E+01
 0.36730626306E+01 0.34651790441E+01 0.32390158787E+01 0.30329704413E+01 0.28722047105E+01
 0.27651975776E+01 0.27091812032E+01 0.26975445088E+01 0.27239675150E+01 0.27834684555E+01
 0.28728387484E+01 0.29907927378E+01 0.31361121157E+01 0.33037095912E+01 0.34815928282E+01
 0.36007734781E+01 0.36254048939E+01 0.36007697476E+01 0.35299814099E+01 0.34210000931E+01
 0.32845712638E+01 0.31341511262E+01 0.29864519861E+01 0.28590199786E+01 0.27649067621E+01
 0.27091812032E+01 0.26910211250E+01 0.27091917853E+01 0.27649243162E+01 0.28590360556E+01
 0.29864564271E+01 0.31341404241E+01 0.32845532664E+01 0.34209876361E+01 0.35299800774E+01
 0.38788938547E+01 0.37912629420E+01 0.36513194564E+01 0.34815013492E+01 0.33036012878E+01
 0.31359979915E+01 0.29906712265E+01 0.28727141001E+01 0.27833658723E+01 0.27239165079E+01
 0.26975445088E+01 0.27091917853E+01 0.27651702512E+01 0.28721235382E+01 0.30328585183E+01
 0.32389063213E+01 0.34650879146E+01 0.36729907354E+01 0.38240290035E+01 0.38939366230E+01
 0.45591917360E+01 0.43488965725E+01 0.40513160313E+01 0.37248355657E+01 0.34209673756E+01
 0.31710407227E+01 0.29850817844E+01 0.28575662072E+01 0.27762608896E+01 0.27316315126E+01
 0.27239675150E+01 0.27649243162E+01 0.28721235382E+01 0.30591933018E+01 0.33260459190E+01
 0.36532703160E+01 0.40017683871E+01 0.43223318760E+01 0.45589684859E+01 0.46421534515E+01
 0.62900311174E+01 0.56118422520E+01 0.48986624794E+01 0.43289453877E+01 0.38241332044E+01
 0.34068230242E+01 0.31098612401E+01 0.29240982476E+01 0.28211365962E+01 0.27763216638E+01
 0.27834684555E+01 0.28590360556E+01 0.30328585183E+01 0.33260459190E+01 0.37285281977E+01
 0.42100433409E+01 0.48641824099E+01 0.56685794321E+01 0.63534234318E+01 0.65996792702E+01
 0.11294265395E+02 0.95907594923E+01 0.74368716865E+01 0.56421030233E+01 0.45589909140E+01
 0.39074291770E+01 0.34129969694E+01 0.30942163749E+01 0.29240640240E+01 0.28576322614E+01
 0.28728387484E+01 0.29864564271E+01 0.32389063213E+01 0.36532703160E+01 0.42100433409E+01
 0.51612611361E+01 0.68015514315E+01 0.89170984304E+01 0.10843333517E+02 0.11784963794E+02
 0.21120559695E+02 0.18260006542E+02 0.13862519474E+02 0.94998853500E+01 0.63533787977E+01
 0.47087366063E+01 0.39389737774E+01 0.34128823960E+01 0.31097335097E+01 0.29851123294E+01
 0.29907927378E+01 0.31341404241E+01 0.34650879146E+01 0.40017683871E+01 0.48641824099E+01
 0.68015514315E+01 0.10185148917E+02 0.14571606241E+02 0.18776437572E+02 0.21307450077E+02
 0.35715143127E+02 0.32099085309E+02 0.25217169964E+02 0.17414423888E+02 0.10843476194E+02
 0.66452288115E+01 0.47087285201E+01 0.39072947308E+01 0.34066584673E+01 0.31710501570E+01
 0.31361121157E+01 0.32845532664E+01 0.36729907354E+01 0.43223318760E+01 0.56685794321E+01
 0.89170984304E+01 0.14571606241E+02 0.22009317369E+02 0.29503380395E+02 0.34711211784E+02
 0.53184002891E+02 0.49799951187E+02 0.40903140017E+02 0.29503380395E+02 0.18776437572E+02
 0.10843333517E+02 0.63534234318E+01 0.45589684859E+01 0.38240290035E+01 0.34209876361E+01
 0.33037095912E+01 0.34209876361E+01 0.38240290035E+01 0.45589684859E+01 0.63534234318E+01
 0.10843333517E+02 0.18776437572E+02 0.29503380395E+02 0.40903140017E+02 0.49799951187E+02
 0.69775087728E+02 0.68112858828E+02 0.58497432010E+02 0.44251691056E+02 0.29501838642E+02
 0.17413510452E+02 0.94998418014E+01 0.56422364565E+01 0.43289480762E+01 0.37248683312E+01
 0.34815928282E+01 0.35299800774E+01 0.38939366230E+01 0.46421534515E+01 0.65996792702E+01
 0.11784963794E+02 0.21307450077E+02 0.34711211784E+02 0.49799951187E+02 0.62851341360E+02
 0.59295783152E+02 0.62839390660E+02 0.58493063473E+02 0.47888985383E+02 0.34543455018E+02
 0.22009786913E+02 0.12604891174E+02 0.70909735866E+01 0.47910068423E+01 0.39624972818E+01
 0.35214707857E+01 0.33965673267E+01 0.35371001180E+01 0.39995321663E+01 0.48634404804E+01
 0.72585770672E+01 0.13014276029E+02 0.22811766394E+02 0.35715143127E+02 0.49120851899E+02
 0.62839390660E+02 0.69761168654E+02 0.68103564593E+02 0.58495390719E+02 0.44254178164E+02
 0.29504810242E+02 0.17415570469E+02 0.95017677752E+01 0.56440553385E+01 0.43293171977E+01
 0.37234005397E+01 0.34801494376E+01 0.35305258814E+01 0.38958540646E+01 0.46430545756E+01
 0.65988088465E+01 0.11784261681E+02 0.21308310012E+02 0.34711211784E+02 0.49794579388E+02
 0.58493063473E+02 0.68103564593E+02 0.69764045398E+02 0.62843400685E+02 0.49797786245E+02
 0.34713514362E+02 0.21310763164E+02 0.11786873881E+02 0.66000979970E+01 0.46421018275E+01
 0.38939641833E+01 0.35299814099E+01 0.34815013492E+01 0.37248355657E+01 0.43289453877E+01
 0.56421030233E+01 0.94998853500E+01 0.17414423888E+02 0.29503380395E+02 0.44251691056E+02
 0.47888985383E+02 0.58495390719E+02 0.62843400685E+02 0.59299802675E+02 0.49124218752E+02
 0.35718505924E+02 0.22815340953E+02 0.13016758303E+02 0.72585434470E+01 0.48614673400E+01
 0.39979913466E+01 0.35375732487E+01 0.33980953776E+01 0.35218949248E+01 0.39611470275E+01
 0.47892974029E+01 0.70903362137E+01 0.12604974127E+02 0.22009317369E+02 0.34542413411E+02
 0.34543455018E+02 0.44254178164E+02 0.49797786245E+02 0.49124218752E+02 0.42439425936E+02
 0.32103499416E+02 0.21312029325E+02 0.12642379375E+02 0.72780627705E+01 0.48949960558E+01
 0.40059581087E+01 0.34971522794E+01 0.32908372414E+01 0.33180594541E+01 0.35951444349E+01
 0.41805290174E+01 0.53075730691E+01 0.83983157108E+01 0.14571606241E+02 0.23761860171E+02
 0.22009786913E+02 0.29504810242E+02 0.34713514362E+02 0.35718505924E+02 0.32103499416E+02
 0.25221445295E+02 0.17416515915E+02 0.10842395164E+02 0.66423830305E+01 0.47067745030E+01
 0.39075275276E+01 0.34079235468E+01 0.31714137412E+01 0.31351922893E+01 0.32837303262E+01
 0.36734866880E+01 0.43237350502E+01 0.56695526326E+01 0.89170984304E+01 0.14571367996E+02
 0.12604891174E+02 0.17415570469E+02 0.21310763164E+02 0.22815340953E+02 0.21312029325E+02
 0.17416515915E+02 0.12604143001E+02 0.83951978132E+01 0.56664813269E+01 0.43734309813E+01
 0.37195305170E+01 0.32782040478E+01 0.30506591610E+01 0.29851825874E+01 0.30508138939E+01
 0.32783015274E+01 0.37197690369E+01 0.43744895390E+01 0.56685794321E+01 0.83973475378E+01
 0.70909735866E+01 0.95017677752E+01 0.11786873881E+02 0.13016758303E+02 0.12642379375E+02
 0.10842395164E+02 0.83951978132E+01 0.61921547477E+01 0.47546642249E+01 0.40018560293E+01
 0.34812800707E+01 0.31272284275E+01 0.29378487497E+01 0.28710789839E+01 0.28947060467E+01
 0.30164855896E+01 0.32786600461E+01 0.37187289906E+01 0.43223318760E+01 0.53068869197E+01
 0.47910068423E+01 0.56440553385E+01 0.66000979970E+01 0.72585434470E+01 0.72780627705E+01
 0.66423830305E+01 0.56664813269E+01 0.47546642249E+01 0.41123861203E+01 0.36274672189E+01
 0.32391345181E+01 0.29802680275E+01 0.28413304503E+01 0.27900923690E+01 0.28000942003E+01
 0.28680978190E+01 0.30158432626E+01 0.32772917441E+01 0.36729907354E+01 0.41812068824E+01
 0.39624972818E+01 0.43293171977E+01 0.46421018275E+01 0.48614673400E+01 0.48949960558E+01
 0.47067745030E+01 0.43734309813E+01 0.40018560293E+01 0.36274672189E+01 0.32909408624E+01
 0.30301359913E+01 0.28588945176E+01 0.27684147877E+01 0.27382726893E+01 0.27506426157E+01
 0.27999381658E+01 0.28944162135E+01 0.30508536952E+01 0.32845532664E+01 0.35966162867E+01
 0.35214707857E+01 0.37234005397E+01 0.38939641833E+01 0.39979913466E+01 0.40059581087E+01
 0.39075275276E+01 0.37195305170E+01 0.34812800707E+01 0.32391345181E+01 0.30301359913E+01
 0.28738240829E+01 0.27737513233E+01 0.27238843386E+01 0.27148484673E+01 0.27383812969E+01
 0.27903022737E+01 0.28715122027E+01 0.29859520959E+01 0.31361121157E+01 0.33185825138E+01
 0.33965673267E+01 0.34801494376E+01 0.35299814099E+01 0.35375732487E+01 0.34971522794E+01
 0.34079235468E+01 0.32782040478E+01 0.31272284275E+01 0.29802680275E+01 0.28588945176E+01
 0.27737513233E+01 0.27251398785E+01 0.27093331804E+01 0.27240100971E+01 0.27686850201E+01
 0.28417316402E+01 0.29382741867E+01 0.30508536952E+01 0.31710501570E+01 0.32897624695E+01
 0.35371001180E+01 0.35305258814E+01 0.34815013492E+01 0.33980953776E+01 0.32908372414E+01
 0.31714137412E+01 0.30506591610E+01 0.29378487497E+01 0.28413304503E+01 0.27684147877E+01
 0.27238843386E+01 0.27093331804E+01 0.27252310170E+01 0.27738809898E+01 0.28589831650E+01
 0.29801844455E+01 0.31267919936E+01 0.32772917441E+01 0.34066584673E+01 0.34959884041E+01
 0.39995321663E+01 0.38958540646E+01 0.37248355657E+01 0.35218949248E+01 0.33180594541E+01
 0.31351922893E+01 0.29851825874E+01 0.28710789839E+01 0.27900923690E+01 0.27382726893E+01
 0.27148484673E+01 0.27240100971E+01 0.27738809898E+01 0.28737348820E+01 0.30296739885E+01
 0.32383238570E+01 0.34803132988E+01 0.37187289906E+01 0.39072947308E+01 0.40066228389E+01
 0.48634404804E+01 0.46430545756E+01 0.43289453877E+01 0.39611470275E+01 0.35951444349E+01
 0.32837303262E+01 0.30508138939E+01 0.28947060467E+01 0.28000942003E+01 0.27506426157E+01
 0.27383812969E+01 0.27686850201E+01 0.28589831650E+01 0.30296739885E+01 0.32900162563E+01
 0.36266654170E+01 0.40018364169E+01 0.43744895390E+01 0.47087285201E+01 0.48973144488E+01
 0.72585770672E+01 0.65988088465E+01 0.56421030233E+01 0.47892974029E+01 0.41805290174E+01
 0.36734866880E+01 0.32783015274E+01 0.30164855896E+01 0.28680978190E+01 0.27999381658E+01
 0.27903022737E+01 0.28417316402E+01 0.29801844455E+01 0.32383238570E+01 0.36266654170E+01
 0.41127543133E+01 0.47567034718E+01 0.56695526326E+01 0.66452288115E+01 0.72796718597E+01
 0.13014276029E+02 0.11784261681E+02 0.94998853500E+01 0.70903362137E+01 0.53075730691E+01
 0.43237350502E+01 0.37197690369E+01 0.32786600461E+01 0.30158432626E+01 0.28944162135E+01
 0.28715122027E+01 0.29382741867E+01 0.31267919936E+01 0.34803132988E+01 0.40018364169E+01
 0.47567034718E+01 0.61956819927E+01 0.83983157108E+01 0.10843476194E+02 0.12641204415E+02
 0.22811766394E+02 0.21308310012E+02 0.17414423888E+02 0.12604974127E+02 0.83983157108E+01
 0.56695526326E+01 0.43744895390E+01 0.37187289906E+01 0.32772917441E+01 0.30508536952E+01
 0.29859520959E+01 0.30508536952E+01 0.32772917441E+01 0.37187289906E+01 0.43744895390E+01
 0.56695526326E+01 0.83983157108E+01 0.12604974127E+02 0.17414423888E+02 0.21308310012E+02
 0.35715143127E+02 0.34711211784E+02 0.29503380395E+02 0.22009317369E+02 0.14571606241E+02
 0.89170984304E+01 0.56685794321E+01 0.43223318760E+01 0.36729907354E+01 0.32845532664E+01
 0.31361121157E+01 0.31710501570E+01 0.34066584673E+01 0.39072947308E+01 0.47087285201E+01
 0.66452288115E+01 0.10843476194E+02 0.17414423888E+02 0.25217169964E+02 0.32099085309E+02
 0.49120851899E+02 0.49794579388E+02 0.44251691056E+02 0.34542413411E+02 0.23761860171E+02
 0.14571367996E+02 0.83973475378E+01 0.53068869197E+01 0.41812068824E+01 0.35966162867E+01
 0.33185825138E+01 0.32897624695E+01 0.34959884041E+01 0.40066228389E+01 0.48973144488E+01
 0.72796718597E+01 0.12641204415E+02 0.21308310012E+02 0.32099085309E+02 0.42435591451E+02
 0.38479694376E+02 0.42429133913E+02 0.40898696444E+02 0.34543455018E+02 0.25662701781E+02
 0.16911511376E+02 0.10185563122E+02 0.61957241702E+01 0.44942426531E+01 0.37843166072E+01
 0.33618925957E+01 0.32039099594E+01 0.32529373882E+01 0.35287706880E+01 0.40987819192E+01
 0.50761839873E+01 0.76511411856E+01 0.13014276029E+02 0.21120559695E+02 0.30476729850E+02
 0.42429133913E+02 0.49115419574E+02 0.49793210305E+02 0.44254178164E+02 0.34546168626E+02
 0.23764877209E+02 0.14573527165E+02 0.83990611439E+01 0.53076973632E+01 0.41805063332E+01