   1   1   0   0
  0.1219450E+02  0.2511474E-09  0.2511474E-09  0.2511474E-09  0.5000000E-15
  1.000000000000000E-004
  CAR 
 bcc Fe                                  
     45.16029516     -4.98550103  301      5.08870269      1.00000000
     -4.986  0.0000E+00  0.0000E+00  0.0000E+00  0.0000E+00
     -4.818  0.0000E+00  0.0000E+00  0.0000E+00  0.0000E+00
     -4.651  0.0000E+00  0.0000E+00  0.0000E+00  0.0000E+00
     -4.484  0.0000E+00  0.0000E+00  0.0000E+00  0.0000E+00
     -4.317 -0.5521E-29  0.0000E+00 -0.9229E-30  0.0000E+00
     -4.150 -0.1728E-23 -0.7067E-29 -0.2889E-24 -0.1181E-29
     -3.983 -0.1320E-18 -0.2155E-23 -0.2206E-19 -0.3602E-24
     -3.815 -0.2373E-14 -0.1603E-18 -0.3967E-15 -0.2680E-19
     -3.648 -0.1051E-10 -0.2806E-14 -0.1757E-11 -0.4691E-15
     -3.481 -0.1105E-07 -0.1211E-10 -0.1849E-08 -0.2025E-11
     -3.314 -0.2678E-05 -0.1240E-07 -0.4495E-06 -0.2074E-08
     -3.147 -0.1382E-03 -0.2922E-05 -0.2355E-04 -0.4906E-06
     -2.980 -0.1040E-02 -0.1464E-03 -0.1975E-03 -0.2495E-04
     -2.813  0.5164E-02 -0.1049E-02  0.6657E-03 -0.2003E-03
     -2.645  0.2166E-01  0.5473E-02  0.4286E-02  0.7145E-03
     -2.478  0.1220E-01  0.2177E-01  0.6325E-02  0.4353E-02
     -2.311  0.2266E-01  0.1181E-01  0.1011E-01  0.6326E-02
     -2.144  0.2099E-01  0.2276E-01  0.1362E-01  0.1013E-01
     -1.977  0.6077E-01  0.2026E-01  0.2378E-01  0.1352E-01
     -1.810  0.8022E-01  0.5736E-01  0.3719E-01  0.2311E-01
     -1.642  0.6715E-02  0.8257E-01  0.3831E-01  0.3691E-01
     -1.475 -0.7484E-02  0.9294E-02  0.3706E-01  0.3846E-01
     -1.308  0.5518E-01 -0.8809E-02  0.4628E-01  0.3699E-01
     -1.141  0.1087E+00  0.3777E-01  0.6445E-01  0.4330E-01
     -0.974  0.6983E-01  0.1112E+00  0.7612E-01  0.6188E-01
     -0.807  0.8980E-01  0.6338E-01  0.9113E-01  0.7248E-01
     -0.640  0.9388E-01  0.8274E-01  0.1068E+00  0.8631E-01
     -0.472  0.5590E-01  0.6947E-01  0.1162E+00  0.9792E-01
     -0.305 -0.1052E-01  0.8786E-01  0.1144E+00  0.1126E+00
     -0.138  0.6059E-01  0.2251E-01  0.1245E+00  0.1164E+00
      0.029  0.2262E+00 -0.1128E-01  0.1624E+00  0.1145E+00
      0.196  0.1684E+00  0.8596E-01  0.1905E+00  0.1289E+00
      0.363  0.2242E+00  0.1911E+00  0.2280E+00  0.1608E+00
      0.531  0.2196E+00  0.1144E+00  0.2647E+00  0.1799E+00
      0.698  0.2461E+00  0.1011E+00  0.3058E+00  0.1968E+00
      0.865  0.5860E+00  0.1770E+00  0.4038E+00  0.2264E+00
      1.032  0.8987E+00  0.8320E-01  0.5540E+00  0.2403E+00
      1.199  0.7934E+00  0.8278E-01  0.6866E+00  0.2541E+00
      1.366  0.9663E+00  0.5227E-01  0.8481E+00  0.2629E+00
      1.533  0.8408E+00  0.8264E-01  0.9887E+00  0.2767E+00
      1.701  0.4760E+00  0.3294E+00  0.1068E+01  0.3318E+00
      1.868  0.5983E+00  0.3847E+00  0.1168E+01  0.3961E+00
      2.035  0.1395E+01  0.3314E+00  0.1401E+01  0.4515E+00
      2.202  0.1615E+01  0.2674E+00  0.1671E+01  0.4962E+00
      2.369  0.9729E+00  0.2503E+00  0.1834E+01  0.5380E+00
      2.536  0.1316E+01  0.4424E+00  0.2054E+01  0.6119E+00
      2.704  0.1871E+01  0.3827E+00  0.2367E+01  0.6759E+00
      2.871  0.1316E+01  0.6255E+00  0.2587E+01  0.7805E+00
      3.038  0.5869E+00  0.7883E+00  0.2685E+01  0.9122E+00
      3.205  0.4427E+00  0.4227E+00  0.2759E+01  0.9829E+00
      3.372  0.8592E+00  0.2957E+00  0.2902E+01  0.1032E+01
      3.539  0.5258E+00  0.3975E+00  0.2990E+01  0.1099E+01
      3.706  0.6359E+00  0.6156E+00  0.3096E+01  0.1202E+01
      3.874  0.1613E+01  0.1265E+01  0.3366E+01  0.1413E+01
      4.041  0.2152E+01  0.1533E+01  0.3726E+01  0.1669E+01
      4.208  0.2570E+01  0.1149E+01  0.4155E+01  0.1861E+01
      4.375  0.2212E+01  0.1199E+01  0.4525E+01  0.2062E+01
      4.542  0.1067E+01  0.1390E+01  0.4703E+01  0.2294E+01
      4.709  0.9603E+00  0.1320E+01  0.4864E+01  0.2515E+01
      4.877  0.1066E+01  0.1120E+01  0.5042E+01  0.2702E+01
      5.044  0.7298E+00  0.5893E+00  0.5164E+01  0.2801E+01
      5.211  0.4494E+00  0.1757E+00  0.5239E+01  0.2830E+01
      5.378  0.2555E+00  0.3784E+00  0.5282E+01  0.2893E+01
      5.545  0.1752E+00  0.5301E+00  0.5311E+01  0.2982E+01
      5.712  0.1392E+00  0.2435E+00  0.5334E+01  0.3022E+01
      5.879  0.1443E+00  0.2395E+00  0.5358E+01  0.3062E+01
      6.047  0.1957E+00  0.3756E+00  0.5391E+01  0.3125E+01
      6.214  0.3218E+00  0.8764E+00  0.5445E+01  0.3272E+01
      6.381  0.1892E+00  0.1000E+01  0.5477E+01  0.3439E+01
      6.548  0.8652E-01  0.1033E+01  0.5491E+01  0.3612E+01
      6.715  0.1192E+00  0.1451E+01  0.5511E+01  0.3854E+01
      6.882  0.9015E-01  0.1505E+01  0.5526E+01  0.4106E+01
      7.049 -0.1035E-01  0.2081E+01  0.5524E+01  0.4454E+01
      7.217  0.4709E-01  0.2439E+01  0.5532E+01  0.4861E+01
      7.384  0.2793E+00  0.1449E+01  0.5579E+01  0.5103E+01
      7.551  0.2148E+00  0.6913E+00  0.5615E+01  0.5219E+01
      7.718  0.1072E+00  0.4757E+00  0.5633E+01  0.5299E+01
      7.885  0.2302E+00  0.3135E+00  0.5671E+01  0.5351E+01
      8.052  0.1770E+00  0.2075E+00  0.5701E+01  0.5386E+01
      8.220  0.9060E-01  0.3890E+00  0.5716E+01  0.5451E+01
      8.387  0.1347E-01  0.2559E+00  0.5718E+01  0.5493E+01
      8.554  0.5310E-01  0.1667E+00  0.5727E+01  0.5521E+01
      8.721  0.1846E+00  0.7745E-01  0.5758E+01  0.5534E+01
      8.888  0.1378E+00  0.1781E+00  0.5781E+01  0.5564E+01
      9.055  0.1126E+00  0.2605E+00  0.5800E+01  0.5608E+01
      9.222  0.1533E+00  0.1280E+00  0.5825E+01  0.5629E+01
      9.390  0.1059E+00  0.1643E+00  0.5843E+01  0.5656E+01
      9.557  0.1276E-01  0.1359E+00  0.5845E+01  0.5679E+01
      9.724  0.3321E-01  0.1593E+00  0.5851E+01  0.5706E+01
      9.891  0.2678E-01  0.9627E-01  0.5855E+01  0.5722E+01
     10.058  0.7545E-01  0.1096E+00  0.5868E+01  0.5740E+01
     10.225  0.1599E+00  0.2861E+00  0.5895E+01  0.5788E+01
     10.393  0.1048E+00  0.2208E+00  0.5912E+01  0.5825E+01
     10.560  0.8385E-01  0.1100E+00  0.5926E+01  0.5843E+01
     10.727  0.1394E-01  0.8290E-02  0.5928E+01  0.5845E+01
     10.894 -0.4381E-02  0.2407E-01  0.5928E+01  0.5849E+01
     11.061  0.5945E-01  0.3313E-01  0.5938E+01  0.5854E+01
     11.228  0.7764E-01  0.4128E-01  0.5951E+01  0.5861E+01
     11.395  0.7970E-01  0.1620E+00  0.5964E+01  0.5888E+01
     11.563  0.1283E+00  0.1076E+00  0.5985E+01  0.5906E+01
     11.730  0.4270E-01  0.8122E-01  0.5992E+01  0.5920E+01
     11.897  0.7716E-01  0.1040E+00  0.6005E+01  0.5937E+01
     12.064  0.1189E+00  0.7827E-01  0.6025E+01  0.5950E+01
     12.231  0.1647E+00  0.2846E-01  0.6053E+01  0.5955E+01
     12.398  0.2212E+00  0.8326E-01  0.6090E+01  0.5969E+01
     12.566  0.1096E+00  0.6006E-01  0.6108E+01  0.5979E+01
     12.733  0.2074E+00  0.5767E-01  0.6143E+01  0.5989E+01
     12.900  0.3254E+00  0.2306E-01  0.6197E+01  0.5992E+01
     13.067  0.2243E+00 -0.1134E-01  0.6235E+01  0.5991E+01
     13.234  0.1510E+00  0.1686E-01  0.6260E+01  0.5993E+01
     13.401  0.1267E+00  0.2218E+00  0.6281E+01  0.6030E+01
     13.568  0.2333E+00  0.2806E+00  0.6320E+01  0.6077E+01
     13.736  0.1860E+00  0.1196E+00  0.6351E+01  0.6097E+01
     13.903  0.8519E-01  0.2773E+00  0.6365E+01  0.6144E+01
     14.070  0.1236E+00  0.3778E+00  0.6386E+01  0.6207E+01
     14.237  0.1960E+00  0.3105E+00  0.6419E+01  0.6259E+01
     14.404  0.1455E+00  0.2294E+00  0.6443E+01  0.6297E+01
     14.571  0.1658E+00  0.2296E+00  0.6471E+01  0.6335E+01
     14.739  0.2905E+00  0.1268E+00  0.6519E+01  0.6357E+01
     14.906  0.4499E+00  0.4391E-01  0.6595E+01  0.6364E+01
     15.073  0.3212E+00  0.9972E-01  0.6648E+01  0.6381E+01
     15.240  0.1695E-01  0.2953E+00  0.6651E+01  0.6430E+01
     15.407  0.6768E-03  0.3185E+00  0.6651E+01  0.6483E+01
     15.574  0.1251E+00  0.1997E+00  0.6672E+01  0.6517E+01
     15.741  0.2144E+00  0.2773E+00  0.6708E+01  0.6563E+01
     15.909  0.1716E+00  0.4109E+00  0.6737E+01  0.6632E+01
     16.076  0.1489E+00  0.1342E+00  0.6762E+01  0.6654E+01
     16.243  0.4361E+00  0.5837E-01  0.6834E+01  0.6664E+01
     16.410  0.4223E+00  0.1045E+00  0.6905E+01  0.6681E+01
     16.577  0.1620E+00  0.1623E+00  0.6932E+01  0.6708E+01
     16.744  0.4110E-01  0.2205E+00  0.6939E+01  0.6745E+01
     16.911 -0.9386E-02  0.3528E+00  0.6937E+01  0.6804E+01
     17.079 -0.3387E-04  0.2755E+00  0.6937E+01  0.6850E+01
     17.246  0.1281E+00  0.2484E+00  0.6959E+01  0.6892E+01
     17.413  0.2965E+00  0.2098E+00  0.7008E+01  0.6927E+01
     17.580  0.2682E+00  0.6916E-01  0.7053E+01  0.6938E+01
     17.747  0.1161E+00 -0.1292E-01  0.7073E+01  0.6936E+01
     17.914  0.1705E+00  0.5949E-01  0.7101E+01  0.6946E+01
     18.082  0.2888E+00  0.2924E+00  0.7149E+01  0.6995E+01
     18.249  0.2077E+00  0.3259E+00  0.7184E+01  0.7050E+01
     18.416  0.2953E+00  0.1455E+00  0.7233E+01  0.7074E+01
     18.583  0.3158E+00  0.9732E-01  0.7286E+01  0.7090E+01
     18.750  0.2201E+00  0.2478E+00  0.7323E+01  0.7132E+01
     18.917  0.1246E+00  0.2477E+00  0.7344E+01  0.7173E+01
     19.084  0.2923E-01  0.3190E+00  0.7349E+01  0.7226E+01
     19.252  0.3020E-01  0.4106E+00  0.7354E+01  0.7295E+01
     19.419  0.3021E+00  0.1705E+00  0.7404E+01  0.7323E+01
     19.586  0.2564E+00  0.6331E-01  0.7447E+01  0.7334E+01
     19.753  0.8319E-01  0.7039E-01  0.7461E+01  0.7346E+01
     19.920  0.4258E-01  0.9778E-01  0.7468E+01  0.7362E+01
     20.087  0.9372E-01  0.3069E+00  0.7484E+01  0.7413E+01
     20.255  0.3208E+00  0.2502E+00  0.7537E+01  0.7455E+01
     20.422  0.2284E+00  0.8055E-01  0.7576E+01  0.7469E+01
     20.589  0.2827E-01  0.1473E-01  0.7580E+01  0.7471E+01
     20.756  0.4939E-01  0.1726E+00  0.7589E+01  0.7500E+01
     20.923  0.2108E+00  0.2871E+00  0.7624E+01  0.7548E+01
     21.090  0.2484E+00  0.1664E+00  0.7665E+01  0.7576E+01
     21.257  0.2237E+00  0.2038E-01  0.7703E+01  0.7579E+01
     21.425  0.3052E+00  0.5388E-01  0.7754E+01  0.7588E+01
     21.592  0.2264E+00  0.1822E+00  0.7792E+01  0.7619E+01
     21.759  0.2985E+00  0.2853E+00  0.7842E+01  0.7666E+01
     21.926  0.3701E+00  0.4089E+00  0.7903E+01  0.7735E+01
     22.093  0.3174E+00  0.2963E+00  0.7956E+01  0.7784E+01
     22.260  0.1543E+00  0.2559E+00  0.7982E+01  0.7827E+01
     22.428  0.1253E+00  0.3852E+00  0.8003E+01  0.7891E+01
     22.595  0.2702E+00  0.3493E+00  0.8048E+01  0.7950E+01
     22.762  0.3283E+00  0.2575E+00  0.8103E+01  0.7993E+01
     22.929  0.3726E+00  0.1347E+00  0.8166E+01  0.8015E+01
     23.096  0.3607E+00  0.2650E+00  0.8226E+01  0.8060E+01
     23.263  0.1351E+00  0.3332E+00  0.8248E+01  0.8115E+01
     23.430  0.9995E-01  0.3441E+00  0.8265E+01  0.8173E+01
     23.598  0.2006E+00  0.3305E+00  0.8299E+01  0.8228E+01
     23.765  0.2935E+00  0.1835E+00  0.8348E+01  0.8259E+01
     23.932  0.1809E+00  0.8510E-01  0.8378E+01  0.8273E+01
     24.099  0.1550E+00  0.1621E+00  0.8404E+01  0.8300E+01
     24.266  0.3348E+00  0.2050E+00  0.8460E+01  0.8334E+01
     24.433  0.4228E+00  0.3017E+00  0.8530E+01  0.8385E+01
     24.601  0.1828E+00  0.2885E+00  0.8561E+01  0.8433E+01
     24.768  0.2222E+00  0.2976E+00  0.8598E+01  0.8483E+01
     24.935  0.5470E+00  0.3011E+00  0.8690E+01  0.8533E+01
     25.102  0.3597E+00  0.2875E+00  0.8750E+01  0.8581E+01
     25.269  0.2296E+00  0.4625E+00  0.8788E+01  0.8659E+01
     25.436  0.3376E+00  0.2909E+00  0.8845E+01  0.8707E+01
     25.603  0.9036E-01  0.2481E+00  0.8860E+01  0.8749E+01
     25.771  0.2661E-02  0.3800E+00  0.8860E+01  0.8812E+01
     25.938  0.1143E+00  0.2347E+00  0.8879E+01  0.8851E+01
     26.105  0.1097E+00  0.1837E-01  0.8898E+01  0.8854E+01
     26.272  0.1525E+00  0.2877E-01  0.8923E+01  0.8859E+01
     26.439  0.3448E+00  0.1153E+00  0.8981E+01  0.8879E+01
     26.606  0.2760E+00  0.1203E+00  0.9027E+01  0.8899E+01
     26.774  0.1497E+00  0.3033E+00  0.9052E+01  0.8949E+01
     26.941  0.5565E-01  0.3310E+00  0.9061E+01  0.9005E+01
     27.108  0.9291E-02  0.2163E+00  0.9063E+01  0.9041E+01
     27.275  0.1364E+00  0.1194E+00  0.9085E+01  0.9061E+01
     27.442  0.2140E+00  0.1653E-01  0.9121E+01  0.9064E+01
     27.609  0.2452E+00  0.1382E+00  0.9162E+01  0.9087E+01
     27.776  0.2912E+00  0.1298E+00  0.9211E+01  0.9108E+01
     27.944  0.1518E+00  0.1110E+00  0.9236E+01  0.9127E+01
     28.111  0.5931E-01  0.3263E+00  0.9246E+01  0.9181E+01
     28.278  0.1727E+00  0.2504E+00  0.9275E+01  0.9223E+01
     28.445  0.1330E+00  0.1586E+00  0.9297E+01  0.9250E+01
     28.612  0.1255E+00  0.1041E+00  0.9318E+01  0.9267E+01
     28.779  0.3303E+00  0.1060E+00  0.9373E+01  0.9285E+01
     28.946  0.5879E+00  0.1935E+00  0.9472E+01  0.9317E+01
     29.114  0.4938E+00  0.2586E+00  0.9554E+01  0.9360E+01
     29.281  0.4171E+00  0.3005E+00  0.9624E+01  0.9411E+01
     29.448  0.1871E+00  0.6368E+00  0.9655E+01  0.9517E+01
     29.615  0.1363E+00  0.6086E+00  0.9678E+01  0.9619E+01
     29.782  0.1837E+00  0.2537E+00  0.9709E+01  0.9661E+01
     29.949  0.1214E+00  0.1551E+00  0.9729E+01  0.9687E+01
     30.117  0.1649E+00  0.1809E+00  0.9757E+01  0.9717E+01
     30.284  0.1200E+00  0.1511E+00  0.9777E+01  0.9743E+01
     30.451  0.2125E-01  0.8848E-01  0.9780E+01  0.9758E+01
     30.618  0.5457E-01  0.8971E-01  0.9789E+01  0.9773E+01
     30.785  0.1380E+00  0.6260E-01  0.9812E+01  0.9783E+01
     30.952  0.8167E-01  0.5171E-01  0.9826E+01  0.9792E+01
     31.119  0.8197E-01  0.1748E-02  0.9840E+01  0.9792E+01
     31.287  0.3319E+00  0.1287E+00  0.9895E+01  0.9813E+01
     31.454  0.6777E+00  0.3539E+00  0.1001E+02  0.9873E+01
     31.621  0.5867E+00  0.3902E+00  0.1011E+02  0.9938E+01
     31.788  0.2997E+00  0.2649E+00  0.1016E+02  0.9982E+01
     31.955  0.3003E+00  0.4008E+00  0.1021E+02  0.1005E+02
     32.122  0.5035E+00  0.3287E+00  0.1029E+02  0.1010E+02
     32.290  0.3344E+00  0.1606E+00  0.1035E+02  0.1013E+02
     32.457  0.1942E+00  0.6573E+00  0.1038E+02  0.1024E+02
     32.624  0.1712E+00  0.6333E+00  0.1041E+02  0.1035E+02
     32.791  0.2312E+00  0.1448E+00  0.1045E+02  0.1037E+02
     32.958  0.1945E+00  0.1545E+00  0.1048E+02  0.1040E+02
     33.125  0.2712E+00  0.1370E+00  0.1052E+02  0.1042E+02
     33.292  0.2570E+00  0.1918E+00  0.1057E+02  0.1045E+02
     33.460  0.2467E+00  0.3509E+00  0.1061E+02  0.1051E+02
     33.627  0.2771E+00  0.3987E+00  0.1065E+02  0.1058E+02
     33.794  0.9958E-01  0.1927E+00  0.1067E+02  0.1061E+02
     33.961  0.1223E+00  0.1808E+00  0.1069E+02  0.1064E+02
     34.128  0.9985E-01  0.1700E+00  0.1071E+02  0.1067E+02
     34.295  0.1481E+00  0.3688E-01  0.1073E+02  0.1067E+02
     34.463  0.3191E+00  0.9419E-01  0.1079E+02  0.1069E+02
     34.630  0.2662E+00  0.2673E+00  0.1083E+02  0.1073E+02
     34.797  0.2210E+00  0.2495E+00  0.1087E+02  0.1078E+02
     34.964  0.3057E+00  0.2356E+00  0.1092E+02  0.1082E+02
     35.131  0.5332E+00  0.4011E+00  0.1101E+02  0.1088E+02
     35.298  0.5464E+00  0.2777E+00  0.1110E+02  0.1093E+02
     35.465  0.2389E+00  0.2275E+00  0.1114E+02  0.1097E+02
     35.633  0.1993E+00  0.4152E+00  0.1117E+02  0.1104E+02
     35.800  0.2860E+00  0.5178E+00  0.1122E+02  0.1112E+02
     35.967  0.1497E+00  0.3682E+00  0.1125E+02  0.1118E+02
     36.134  0.2901E-01  0.2215E+00  0.1125E+02  0.1122E+02
     36.301  0.2592E+00  0.7999E-01  0.1129E+02  0.1123E+02
     36.468  0.5787E+00  0.7812E-01  0.1139E+02  0.1125E+02
     36.636  0.3887E+00  0.1654E+00  0.1146E+02  0.1128E+02
     36.803  0.2028E+00  0.3772E+00  0.1149E+02  0.1134E+02
     36.970  0.1315E+00  0.3320E+00  0.1151E+02  0.1139E+02
     37.137  0.1549E+00  0.3705E+00  0.1154E+02  0.1146E+02
     37.304  0.6103E-01  0.2412E+00  0.1155E+02  0.1150E+02
     37.471  0.1683E+00  0.2644E+00  0.1158E+02  0.1154E+02
     37.638  0.1881E+00  0.3557E+00  0.1161E+02  0.1160E+02
     37.806  0.1910E+00  0.9963E-01  0.1164E+02  0.1162E+02
     37.973  0.7299E-01  0.4034E-01  0.1165E+02  0.1162E+02
     38.140  0.9885E-01  0.8911E-01  0.1167E+02  0.1164E+02
     38.307  0.2090E+00  0.3243E-01  0.1170E+02  0.1164E+02
     38.474  0.1206E+00  0.7911E-01  0.1172E+02  0.1166E+02
     38.641  0.1636E+00  0.1248E+00  0.1175E+02  0.1168E+02
     38.808  0.1817E+00  0.1465E+00  0.1178E+02  0.1170E+02
     38.976  0.1184E-01  0.2254E+00  0.1178E+02  0.1174E+02
     39.143  0.1933E-01  0.2300E+00  0.1179E+02  0.1178E+02
     39.310  0.1138E+00  0.6828E-01  0.1181E+02  0.1179E+02
     39.477  0.1812E+00  0.8163E-01  0.1184E+02  0.1180E+02
     39.644  0.4661E-01  0.7943E-01  0.1184E+02  0.1182E+02
     39.811 -0.1748E-01  0.1097E+00  0.1184E+02  0.1183E+02
     39.979  0.8169E-01  0.5319E-01  0.1185E+02  0.1184E+02
     40.146  0.2312E+00  0.9289E-01  0.1189E+02  0.1186E+02
     40.313  0.9705E-01  0.1176E+00  0.1191E+02  0.1188E+02
     40.480 -0.3112E-03  0.1213E+00  0.1191E+02  0.1190E+02
     40.647  0.3048E-01  0.5685E-01  0.1191E+02  0.1191E+02
     40.814  0.9017E-01 -0.2038E-02  0.1193E+02  0.1191E+02
     40.981  0.6301E-01  0.2164E-01  0.1194E+02  0.1191E+02
     41.149  0.3544E-01  0.1930E-01  0.1195E+02  0.1192E+02
     41.316  0.8970E-01  0.6205E-01  0.1196E+02  0.1193E+02
     41.483  0.2704E-01  0.1414E+00  0.1196E+02  0.1195E+02
     41.650 -0.4258E-02  0.8735E-01  0.1196E+02  0.1196E+02
     41.817 -0.7253E-03  0.4257E-02  0.1196E+02  0.1196E+02
     41.984 -0.1855E-04 -0.3510E-02  0.1196E+02  0.1196E+02
     42.152 -0.1855E-03 -0.6594E-03  0.1196E+02  0.1196E+02
     42.319 -0.3052E-02 -0.9492E-03  0.1196E+02  0.1196E+02
     42.486  0.1730E-02  0.9027E-02  0.1196E+02  0.1197E+02
     42.653  0.8455E-01  0.3225E-01  0.1198E+02  0.1197E+02
     42.820  0.1152E+00  0.9839E-01  0.1200E+02  0.1199E+02
     42.987  0.2204E-01  0.7682E-01  0.1200E+02  0.1200E+02
     43.154 -0.4176E-02  0.3287E-02  0.1200E+02  0.1200E+02
     43.322 -0.7392E-03 -0.2816E-02  0.1200E+02  0.1200E+02
     43.489 -0.2269E-04 -0.2101E-03  0.1200E+02  0.1200E+02
     43.656 -0.1643E-06 -0.3248E-05  0.1200E+02  0.1200E+02
     43.823 -0.2866E-09 -0.1207E-07  0.1200E+02  0.1200E+02
     43.990 -0.1205E-12 -0.1094E-10  0.1200E+02  0.1200E+02
     44.157 -0.1594E-16 -0.2399E-14  0.1200E+02  0.1200E+02
     44.325  0.0000E+00  0.0000E+00  0.1200E+02  0.1200E+02
     44.492  0.0000E+00  0.0000E+00  0.1200E+02  0.1200E+02
     44.659  0.0000E+00  0.0000E+00  0.1200E+02  0.1200E+02
     44.826  0.0000E+00  0.0000E+00  0.1200E+02  0.1200E+02
     44.993  0.0000E+00  0.0000E+00  0.1200E+02  0.1200E+02
     45.160  0.0000E+00  0.0000E+00  0.1200E+02  0.1200E+02
