<?xml version="1.0" encoding="ISO-8859-1"?>
<modeling>
 <generator>
  <i name="program" type="string">vasp </i>
  <i name="version" type="string">5.4.4.18Apr17-6-g9f103f2a35  </i>
  <i name="subversion" type="string">(build Jul 01 2019 03:25:34) complex            parallel </i>
  <i name="platform" type="string">LinuxIFC </i>
  <i name="date" type="string">2020 07 08 </i>
  <i name="time" type="string">18:32:15 </i>
 </generator>
 <incar>
  <i type="string" name="SYSTEM"> bcc Fe</i>
  <i type="string" name="PREC">normal</i>
  <i type="int" name="ISPIN">     2</i>
  <i name="EDIFF">      0.00010000</i>
  <i name="ENCUT">    268.00000000</i>
  <v name="MAGMOM">      3.00000000</v>
  <v type="int" name="KPOINT_BSE">    -1     0     0     0</v>
 </incar>
 <structure name="primitive_cell" >
  <crystal>
   <varray name="basis" >
    <v>      -1.45000000       1.45000000       1.45000000 </v>
    <v>       1.45000000      -1.45000000       1.45000000 </v>
    <v>       1.45000000       1.45000000      -1.45000000 </v>
   </varray>
   <i name="volume">     12.19450000 </i>
   <varray name="rec_basis" >
    <v>       0.00000000       0.34482759       0.34482759 </v>
    <v>       0.34482759       0.00000000       0.34482759 </v>
    <v>       0.34482759       0.34482759       0.00000000 </v>
   </varray>
  </crystal>
  <varray name="positions" >
   <v>       0.00000000       0.00000000       0.00000000 </v>
  </varray>
 </structure>
 <varray name="primitive_index" >
  <v type="int" >        1 </v>
 </varray>
 <kpoints>
  <generation param="Monkhorst-Pack">
   <v type="int" name="divisions">      10       10       10 </v>
   <v name="usershift">      0.00000000       0.00000000       0.00000000 </v>
   <v name="genvec1">      0.10000000       0.00000000       0.00000000 </v>
   <v name="genvec2">      0.00000000       0.10000000       0.00000000 </v>
   <v name="genvec3">      0.00000000       0.00000000       0.10000000 </v>
   <v name="shift">      0.50000000       0.50000000       0.50000000 </v>
  </generation>
  <varray name="kpointlist" >
   <v>       0.05000000       0.05000000       0.05000000 </v>
   <v>       0.15000000       0.05000000       0.05000000 </v>
   <v>       0.25000000       0.05000000       0.05000000 </v>
   <v>       0.35000000       0.05000000       0.05000000 </v>
   <v>       0.45000000       0.05000000       0.05000000 </v>
   <v>      -0.05000000       0.05000000       0.05000000 </v>
   <v>       0.15000000       0.15000000       0.05000000 </v>
   <v>       0.25000000       0.15000000       0.05000000 </v>
   <v>       0.35000000       0.15000000       0.05000000 </v>
   <v>      -0.15000000       0.15000000       0.05000000 </v>
   <v>       0.25000000       0.25000000       0.05000000 </v>
   <v>       0.35000000       0.25000000       0.05000000 </v>
   <v>      -0.25000000       0.25000000       0.05000000 </v>
   <v>      -0.15000000       0.25000000       0.05000000 </v>
   <v>      -0.35000000       0.35000000       0.05000000 </v>
   <v>      -0.25000000       0.35000000       0.05000000 </v>
   <v>      -0.45000000       0.45000000       0.05000000 </v>
   <v>      -0.35000000       0.45000000       0.05000000 </v>
   <v>      -0.25000000       0.45000000       0.05000000 </v>
   <v>      -0.45000000      -0.45000000       0.05000000 </v>
   <v>      -0.35000000      -0.45000000       0.05000000 </v>
   <v>      -0.35000000      -0.35000000       0.05000000 </v>
   <v>       0.15000000       0.15000000       0.15000000 </v>
   <v>       0.25000000       0.15000000       0.15000000 </v>
   <v>       0.35000000       0.15000000       0.15000000 </v>
   <v>      -0.15000000       0.15000000       0.15000000 </v>
   <v>       0.25000000       0.25000000       0.15000000 </v>
   <v>      -0.25000000       0.25000000       0.15000000 </v>
   <v>      -0.35000000       0.35000000       0.15000000 </v>
   <v>      -0.25000000       0.35000000       0.15000000 </v>
   <v>      -0.45000000       0.45000000       0.15000000 </v>
   <v>      -0.35000000       0.45000000       0.15000000 </v>
   <v>      -0.45000000      -0.45000000       0.15000000 </v>
   <v>      -0.35000000      -0.45000000       0.15000000 </v>
   <v>       0.25000000       0.25000000       0.25000000 </v>
   <v>      -0.25000000       0.25000000       0.25000000 </v>
   <v>      -0.35000000       0.35000000       0.25000000 </v>
   <v>      -0.45000000       0.45000000       0.25000000 </v>
   <v>      -0.35000000       0.45000000       0.25000000 </v>
   <v>      -0.45000000      -0.45000000       0.25000000 </v>
   <v>      -0.35000000       0.35000000       0.35000000 </v>
   <v>      -0.45000000       0.45000000       0.35000000 </v>
   <v>      -0.45000000      -0.45000000       0.35000000 </v>
   <v>      -0.45000000       0.45000000       0.45000000 </v>
  </varray>
  <varray name="weights" >
   <v>       0.00800000 </v>
   <v>       0.02400000 </v>
   <v>       0.02400000 </v>
   <v>       0.02400000 </v>
   <v>       0.01200000 </v>
   <v>       0.00600000 </v>
   <v>       0.02400000 </v>
   <v>       0.04800000 </v>
   <v>       0.04800000 </v>
   <v>       0.02400000 </v>
   <v>       0.02400000 </v>
   <v>       0.02400000 </v>
   <v>       0.02400000 </v>
   <v>       0.02400000 </v>
   <v>       0.02400000 </v>
   <v>       0.04800000 </v>
   <v>       0.02400000 </v>
   <v>       0.04800000 </v>
   <v>       0.02400000 </v>
   <v>       0.02400000 </v>
   <v>       0.04800000 </v>
   <v>       0.00800000 </v>
   <v>       0.00800000 </v>
   <v>       0.02400000 </v>
   <v>       0.01200000 </v>
   <v>       0.00600000 </v>
   <v>       0.02400000 </v>
   <v>       0.02400000 </v>
   <v>       0.02400000 </v>
   <v>       0.02400000 </v>
   <v>       0.02400000 </v>
   <v>       0.04800000 </v>
   <v>       0.02400000 </v>
   <v>       0.02400000 </v>
   <v>       0.00200000 </v>
   <v>       0.00600000 </v>
   <v>       0.02400000 </v>
   <v>       0.02400000 </v>
   <v>       0.02400000 </v>
   <v>       0.02400000 </v>
   <v>       0.00600000 </v>
   <v>       0.02400000 </v>
   <v>       0.00800000 </v>
   <v>       0.00600000 </v>
  </varray>
 </kpoints>
 <parameters>
  <separator name="general" >
   <i type="string" name="SYSTEM">bcc Fe</i>
   <i type="logical" name="LCOMPAT"> F  </i>
  </separator>
  <separator name="electronic" >
   <i type="string" name="PREC">normal</i>
   <i name="ENMAX">    268.00000000</i>
   <i name="ENAUG">    511.36800000</i>
   <i name="EDIFF">      0.00010000</i>
   <i type="int" name="IALGO">    38</i>
   <i type="int" name="IWAVPR">    10</i>
   <i type="int" name="NBANDS">    12</i>
   <i name="NELECT">      8.00000000</i>
   <i type="int" name="TURBO">     0</i>
   <i type="int" name="IRESTART">     0</i>
   <i type="int" name="NREBOOT">     0</i>
   <i type="int" name="NMIN">     0</i>
   <i name="EREF">      0.00000000</i>
   <separator name="electronic smearing" >
    <i type="int" name="ISMEAR">     1</i>
    <i name="SIGMA">      0.20000000</i>
    <i name="KSPACING">      0.50000000</i>
    <i type="logical" name="KGAMMA"> T  </i>
   </separator>
   <separator name="electronic projectors" >
    <i type="logical" name="LREAL"> F  </i>
    <v name="ROPT">      0.00000000</v>
    <i type="int" name="LMAXPAW">  -100</i>
    <i type="int" name="LMAXMIX">     2</i>
    <i type="logical" name="NLSPLINE"> F  </i>
   </separator>
   <separator name="electronic startup" >
    <i type="int" name="ISTART">     0</i>
    <i type="int" name="ICHARG">     2</i>
    <i type="int" name="INIWAV">     1</i>
   </separator>
   <separator name="electronic spin" >
    <i type="int" name="ISPIN">     2</i>
    <i type="logical" name="LNONCOLLINEAR"> F  </i>
    <v name="MAGMOM">      3.00000000</v>
    <i name="NUPDOWN">     -1.00000000</i>
    <i type="logical" name="LSORBIT"> F  </i>
    <v name="SAXIS">      0.00000000      0.00000000      1.00000000</v>
    <i type="logical" name="LSPIRAL"> F  </i>
    <v name="QSPIRAL">      0.00000000      0.00000000      0.00000000</v>
    <i type="logical" name="LZEROZ"> F  </i>
   </separator>
   <separator name="electronic exchange-correlation" >
    <i type="logical" name="LASPH"> F  </i>
    <i type="logical" name="LMETAGGA"> F  </i>
   </separator>
   <separator name="electronic convergence" >
    <i type="int" name="NELM">    60</i>
    <i type="int" name="NELMDL">    -5</i>
    <i type="int" name="NELMIN">     2</i>
    <i name="ENINI">    268.00000000</i>
    <separator name="electronic convergence detail" >
     <i type="logical" name="LDIAG"> T  </i>
     <i type="logical" name="LSUBROT"> F  </i>
     <i name="WEIMIN">      0.00000000</i>
     <i name="EBREAK">      0.00000208</i>
     <i name="DEPER">      0.30000000</i>
     <i type="int" name="NRMM">     4</i>
     <i name="TIME">      0.40000000</i>
    </separator>
   </separator>
   <separator name="electronic mixer" >
    <i name="AMIX">      0.40000000</i>
    <i name="BMIX">      1.00000000</i>
    <i name="AMIN">      0.10000000</i>
    <i name="AMIX_MAG">      1.60000000</i>
    <i name="BMIX_MAG">      1.00000000</i>
    <separator name="electronic mixer details" >
     <i type="int" name="IMIX">     4</i>
     <i type="logical" name="MIXFIRST"> F  </i>
     <i type="int" name="MAXMIX">   -45</i>
     <i name="WC">    100.00000000</i>
     <i type="int" name="INIMIX">     1</i>
     <i type="int" name="MIXPRE">     1</i>
     <i type="int" name="MREMOVE">     5</i>
    </separator>
   </separator>
   <separator name="electronic dipolcorrection" >
    <i type="logical" name="LDIPOL"> F  </i>
    <i type="logical" name="LMONO"> F  </i>
    <i type="int" name="IDIPOL">     0</i>
    <i name="EPSILON">      1.00000000</i>
    <v name="DIPOL">   -100.00000000   -100.00000000   -100.00000000</v>
    <i name="EFIELD">      0.00000000</i>
   </separator>
  </separator>
  <separator name="grids" >
   <i type="int" name="NGX">    10</i>
   <i type="int" name="NGY">    10</i>
   <i type="int" name="NGZ">    10</i>
   <i type="int" name="NGXF">    20</i>
   <i type="int" name="NGYF">    20</i>
   <i type="int" name="NGZF">    20</i>
   <i type="logical" name="ADDGRID"> F  </i>
  </separator>
  <separator name="ionic" >
   <i type="int" name="NSW">     0</i>
   <i type="int" name="IBRION">    -1</i>
   <i type="int" name="MDALGO">     0</i>
   <i type="int" name="ISIF">     2</i>
   <i name="PSTRESS">      0.00000000</i>
   <i name="EDIFFG">      0.00100000</i>
   <i type="int" name="NFREE">     0</i>
   <i name="POTIM">      0.50000000</i>
   <i name="SMASS">     -3.00000000</i>
   <i name="SCALEE">      1.00000000</i>
  </separator>
  <separator name="ionic md" >
   <i name="TEBEG">      0.00010000</i>
   <i name="TEEND">      0.00010000</i>
   <i type="int" name="NBLOCK">     1</i>
   <i type="int" name="KBLOCK">     1</i>
   <i type="int" name="NPACO">   256</i>
   <i name="APACO">     16.00000000</i>
  </separator>
  <separator name="symmetry" >
   <i type="int" name="ISYM">     2</i>
   <i name="SYMPREC">      0.00001000</i>
  </separator>
  <separator name="dos" >
   <i type="int" name="LORBIT">     0</i>
   <v name="RWIGS">     -1.00000000</v>
   <i type="int" name="NEDOS">   301</i>
   <i name="EMIN">     10.00000000</i>
   <i name="EMAX">    -10.00000000</i>
   <i name="EFERMI">      0.00000000</i>
  </separator>
  <separator name="writing" >
   <i type="int" name="NWRITE">     2</i>
   <i type="logical" name="LWAVE"> T  </i>
   <i type="logical" name="LDOWNSAMPLE"> F  </i>
   <i type="logical" name="LCHARG"> T  </i>
   <i type="logical" name="LPARD"> F  </i>
   <i type="logical" name="LVTOT"> F  </i>
   <i type="logical" name="LVHAR"> F  </i>
   <i type="logical" name="LELF"> F  </i>
   <i type="logical" name="LOPTICS"> F  </i>
   <v name="STM">      0.00000000      0.00000000      0.00000000      0.00000000      0.00000000      0.00000000      0.00000000</v>
  </separator>
  <separator name="performance" >
   <i type="int" name="NPAR">     4</i>
   <i type="int" name="NSIM">     4</i>
   <i type="int" name="NBLK">    -1</i>
   <i type="logical" name="LPLANE"> T  </i>
   <i type="logical" name="LSCALAPACK"> T  </i>
   <i type="logical" name="LSCAAWARE"> F  </i>
   <i type="logical" name="LSCALU"> F  </i>
   <i type="logical" name="LASYNC"> F  </i>
   <i type="logical" name="LORBITALREAL"> F  </i>
  </separator>
  <separator name="miscellaneous" >
   <i type="int" name="IDIOT">     3</i>
   <i type="int" name="ISPECIAL">     0</i>
   <i type="logical" name="LMUSIC"> F  </i>
   <v name="POMASS">     55.84700000</v>
   <v name="DARWINR">      0.00000000</v>
   <v name="DARWINV">      1.00000000</v>
   <i type="logical" name="LCORR"> T  </i>
  </separator>
  <i type="logical" name="GGA_COMPAT"> T  </i>
  <i type="logical" name="LBERRY"> F  </i>
  <i type="int" name="ICORELEVEL">     0</i>
  <i type="logical" name="LDAU"> F  </i>
  <i type="int" name="I_CONSTRAINED_M">     0</i>
  <separator name="electronic exchange-correlation" >
   <i type="string" name="GGA">--</i>
   <i type="int" name="VOSKOWN">     0</i>
   <i type="logical" name="LHFCALC"> F  </i>
   <i type="string" name="PRECFOCK"></i>
   <i type="logical" name="LSYMGRAD"> F  </i>
   <i type="logical" name="LHFONE"> F  </i>
   <i type="logical" name="LRHFCALC"> F  </i>
   <i type="logical" name="LTHOMAS"> F  </i>
   <i type="logical" name="LMODELHF"> F  </i>
   <i name="ENCUT4O">     -1.00000000</i>
   <i type="int" name="EXXOEP">     0</i>
   <i type="int" name="FOURORBIT">     0</i>
   <i name="AEXX">      0.00000000</i>
   <i name="HFALPHA">      0.00000000</i>
   <i name="MCALPHA">      0.00000000</i>
   <i name="ALDAX">      1.00000000</i>
   <i name="AGGAX">      1.00000000</i>
   <i name="ALDAC">      1.00000000</i>
   <i name="AGGAC">      1.00000000</i>
   <i type="int" name="NKREDX">     1</i>
   <i type="int" name="NKREDY">     1</i>
   <i type="int" name="NKREDZ">     1</i>
   <i type="logical" name="SHIFTRED"> F  </i>
   <i type="logical" name="ODDONLY"> F  </i>
   <i type="logical" name="EVENONLY"> F  </i>
   <i type="int" name="LMAXFOCK">     0</i>
   <i type="int" name="NMAXFOCKAE">     0</i>
   <i type="logical" name="LFOCKAEDFT"> F  </i>
   <i name="HFSCREEN">      0.00000000</i>
   <i name="HFSCREENC">      0.00000000</i>
   <i type="int" name="NBANDSGWLOW">     0</i>
  </separator>
  <separator name="vdW DFT" >
   <i type="logical" name="LUSE_VDW"> F  </i>
   <i name="Zab_VDW">     -0.84910000</i>
   <i name="PARAM1">      0.12340000</i>
   <i name="PARAM2">      1.00000000</i>
   <i name="PARAM3">      0.00000000</i>
  </separator>
  <separator name="model GW" >
   <i type="int" name="MODEL_GW">     0</i>
   <i name="MODEL_EPS0">      7.31670000</i>
   <i name="MODEL_ALPHA">      1.00000000</i>
  </separator>
  <separator name="linear response parameters" >
   <i type="logical" name="LEPSILON"> F  </i>
   <i type="logical" name="LRPA"> F  </i>
   <i type="logical" name="LNABLA"> F  </i>
   <i type="logical" name="LVEL"> F  </i>
   <i type="int" name="KINTER">     0</i>
   <i name="CSHIFT">      0.10000000</i>
   <i name="OMEGAMAX">     -1.00000000</i>
   <i name="DEG_THRESHOLD">      0.00200000</i>
   <i name="RTIME">     -0.10000000</i>
   <i name="WPLASMAI">      0.00000000</i>
   <v name="DFIELD">      0.00000000      0.00000000      0.00000000</v>
   <v name="WPLASMA">      0.00000000      0.00000000      0.00000000      0.00000000      0.00000000      0.00000000      0.00000000      0.00000000      0.00000000</v>
  </separator>
  <separator name="orbital magnetization" >
   <i type="logical" name="NUCIND"> F  </i>
   <v name="MAGPOS">      0.00000000      0.00000000      0.00000000</v>
   <i type="logical" name="LNICSALL"> T  </i>
   <i type="logical" name="ORBITALMAG"> F  </i>
   <i type="logical" name="LMAGBLOCH"> F  </i>
   <i type="logical" name="LCHIMAG"> F  </i>
   <i type="logical" name="LGAUGE"> T  </i>
   <i type="int" name="MAGATOM">     0</i>
   <v name="MAGDIPOL">      0.00000000      0.00000000      0.00000000</v>
   <v name="AVECCONST">      0.00000000      0.00000000      0.00000000</v>
  </separator>
  <separator name="response functions" >
   <i type="logical" name="LADDER"> F  </i>
   <i type="logical" name="LRPAFORCE"> F  </i>
   <i type="logical" name="LFXC"> F  </i>
   <i type="logical" name="LHARTREE"> T  </i>
   <i type="int" name="IBSE">     0</i>
   <v type="int" name="KPOINT">    -1     0     0     0</v>
   <i type="logical" name="LTCTE"> F  </i>
   <i type="logical" name="LTETE"> F  </i>
   <i type="logical" name="LTRIPLET"> F  </i>
   <i type="logical" name="LFXCEPS"> F  </i>
   <i type="logical" name="LFXHEG"> F  </i>
   <i type="int" name="NATURALO">     2</i>
   <i type="logical" name="L2ORDER"> F  </i>
   <i type="logical" name="LMP2LT"> F  </i>
   <i type="logical" name="LUSEW"> F  </i>
   <i name="ENCUTGW">     -2.00000000</i>
   <i name="ENCUTGWSOFT">     -2.00000000</i>
   <i name="ENCUTLF">     -1.00000000</i>
   <i type="int" name="LMAXMP2">    -1</i>
   <i name="SCISSOR">      0.00000000</i>
   <i type="int" name="NOMEGA">     0</i>
   <i type="int" name="NOMEGAR">     0</i>
   <i type="int" name="NBANDSGW">    -1</i>
   <i type="int" name="NBANDSO">    -1</i>
   <i type="int" name="NBANDSV">    -1</i>
   <i type="int" name="NELM">     1</i>
   <i type="int" name="NELMHF">     1</i>
   <i type="int" name="DIM">     3</i>
   <i type="int" name="ANTIRES">     0</i>
   <i name="OMEGAMAX">    -30.00000000</i>
   <i name="OMEGAMIN">    -30.00000000</i>
   <i name="OMEGATL">   -200.00000000</i>
   <i type="int" name="OMEGAGRID">   140</i>
   <i name="CSHIFT">     -0.10000000</i>
   <i type="logical" name="SELFENERGY"> F  </i>
   <i type="logical" name="LSPECTRAL"> F  </i>
   <i type="logical" name="LSPECTRALGW"> F  </i>
   <i type="logical" name="LSINGLES"> F  </i>
   <i type="logical" name="LFERMIGW"> F  </i>
   <i type="logical" name="ODDONLYGW"> F  </i>
   <i type="logical" name="EVENONLYGW"> F  </i>
   <i type="int" name="NKREDLFX">     1</i>
   <i type="int" name="NKREDLFY">     1</i>
   <i type="int" name="NKREDLFZ">     1</i>
   <i type="int" name="MAXMEM">  2800</i>
   <i type="int" name="TELESCOPE">     0</i>
   <i type="int" name="TAUPAR">     1</i>
   <i type="int" name="OMEGAPAR">    -1</i>
   <i name="LAMBDA">      1.00000000</i>
  </separator>
  <separator name="External order field" >
   <i name="OFIELD_KAPPA">      0.00000000</i>
   <v name="OFIELD_K">      0.00000000      0.00000000      0.00000000</v>
   <i name="OFIELD_Q6_NEAR">      0.00000000</i>
   <i name="OFIELD_Q6_FAR">      0.00000000</i>
   <i name="OFIELD_A">      0.00000000</i>
  </separator>
 </parameters>
 <atominfo>
  <atoms>       1 </atoms>
  <types>       1 </types>
  <array name="atoms" >
   <dimension dim="1">ion</dimension>
   <field type="string">element</field>
   <field type="int">atomtype</field>
   <set>
    <rc><c>Fe</c><c>   1</c></rc>
   </set>
  </array>
  <array name="atomtypes" >
   <dimension dim="1">type</dimension>
   <field type="int">atomspertype</field>
   <field type="string">element</field>
   <field>mass</field>
   <field>valence</field>
   <field type="string">pseudopotential</field>
   <set>
    <rc><c>   1</c><c>Fe</c><c>     55.84700000</c><c>      8.00000000</c><c>  PAW_PBE Fe 06Sep2000                  </c></rc>
   </set>
  </array>
 </atominfo>
 <structure name="initialpos" >
  <crystal>
   <varray name="basis" >
    <v>      -1.45000000       1.45000000       1.45000000 </v>
    <v>       1.45000000      -1.45000000       1.45000000 </v>
    <v>       1.45000000       1.45000000      -1.45000000 </v>
   </varray>
   <i name="volume">     12.19450000 </i>
   <varray name="rec_basis" >
    <v>       0.00000000       0.34482759       0.34482759 </v>
    <v>       0.34482759       0.00000000       0.34482759 </v>
    <v>       0.34482759       0.34482759       0.00000000 </v>
   </varray>
  </crystal>
  <varray name="positions" >
   <v>       0.00000000       0.00000000       0.00000000 </v>
  </varray>
 </structure>
 <calculation>
  <scstep>
   <time name="dav">    0.12    0.13</time>
   <time name="total">    0.13    0.14</time>
   <energy>
    <i name="alphaZ">     56.67618681 </i>
    <i name="ewald">   -578.25309922 </i>
    <i name="hartreedc">   -116.99538681 </i>
    <i name="XCdc">      4.86880778 </i>
    <i name="pawpsdc">    553.75926685 </i>
    <i name="pawaedc">   -561.48528711 </i>
    <i name="eentropy">      0.00213719 </i>
    <i name="bandstr">     58.17840612 </i>
    <i name="atom">    594.28084496 </i>
    <i name="e_fr_energy">     11.03187657 </i>
    <i name="e_wo_entrp">     11.02973938 </i>
    <i name="e_0_energy">     11.03116418 </i>
   </energy>
  </scstep>
  <scstep>
   <time name="dav">    0.11    0.11</time>
   <time name="total">    0.11    0.11</time>
   <energy>
    <i name="e_fr_energy">     -8.79019566 </i>
    <i name="e_wo_entrp">     -8.79358429 </i>
    <i name="e_0_energy">     -8.79132521 </i>
   </energy>
  </scstep>
  <scstep>
   <time name="dav">    0.12    0.12</time>
   <time name="total">    0.12    0.12</time>
   <energy>
    <i name="e_fr_energy">     -9.12997970 </i>
    <i name="e_wo_entrp">     -9.13236678 </i>
    <i name="e_0_energy">     -9.13077539 </i>
   </energy>
  </scstep>
  <scstep>
   <time name="dav">    0.11    0.11</time>
   <time name="total">    0.11    0.12</time>
   <energy>
    <i name="e_fr_energy">     -9.13090453 </i>
    <i name="e_wo_entrp">     -9.13329041 </i>
    <i name="e_0_energy">     -9.13169982 </i>
   </energy>
  </scstep>
  <scstep>
   <time name="dav">    0.11    0.11</time>
   <time name="total">    0.11    0.11</time>
   <energy>
    <i name="e_fr_energy">     -9.13090930 </i>
    <i name="e_wo_entrp">     -9.13329519 </i>
    <i name="e_0_energy">     -9.13170459 </i>
   </energy>
  </scstep>
  <scstep>
   <time name="dav">    0.11    0.12</time>
   <time name="total">    0.12    0.13</time>
   <energy>
    <i name="e_fr_energy">     -8.30923973 </i>
    <i name="e_wo_entrp">     -8.30723380 </i>
    <i name="e_0_energy">     -8.30857108 </i>
   </energy>
  </scstep>
  <scstep>
   <time name="dav">    0.12    0.12</time>
   <time name="total">    0.12    0.13</time>
   <energy>
    <i name="e_fr_energy">     -8.22006979 </i>
    <i name="e_wo_entrp">     -8.22356717 </i>
    <i name="e_0_energy">     -8.22123558 </i>
   </energy>
  </scstep>
  <scstep>
   <time name="dav">    0.11    0.12</time>
   <time name="total">    0.12    0.13</time>
   <energy>
    <i name="e_fr_energy">     -8.21668547 </i>
    <i name="e_wo_entrp">     -8.21986773 </i>
    <i name="e_0_energy">     -8.21774622 </i>
   </energy>
  </scstep>
  <scstep>
   <time name="dav">    0.13    0.13</time>
   <time name="total">    0.14    0.14</time>
   <energy>
    <i name="e_fr_energy">     -8.21081614 </i>
    <i name="e_wo_entrp">     -8.21381468 </i>
    <i name="e_0_energy">     -8.21181566 </i>
   </energy>
  </scstep>
  <scstep>
   <time name="dav">    0.11    0.11</time>
   <time name="total">    0.12    0.12</time>
   <energy>
    <i name="e_fr_energy">     -8.21088337 </i>
    <i name="e_wo_entrp">     -8.21427278 </i>
    <i name="e_0_energy">     -8.21201317 </i>
   </energy>
  </scstep>
  <scstep>
   <time name="dav">    0.08    0.08</time>
   <time name="total">    0.09    0.09</time>
   <energy>
    <i name="alphaZ">     56.67618681 </i>
    <i name="ewald">   -578.25309922 </i>
    <i name="hartreedc">   -100.78855917 </i>
    <i name="XCdc">      4.31090114 </i>
    <i name="pawpsdc">    691.51253222 </i>
    <i name="pawaedc">   -700.36906643 </i>
    <i name="eentropy">      0.00344151 </i>
    <i name="bandstr">     24.41590577 </i>
    <i name="atom">    594.28084496 </i>
    <i name="e_fr_energy">     -8.21091240 </i>
    <i name="e_wo_entrp">     -8.21435391 </i>
    <i name="e_0_energy">     -8.21205957 </i>
   </energy>
  </scstep>
  <structure>
   <crystal>
    <varray name="basis" >
     <v>      -1.45000000       1.45000000       1.45000000 </v>
     <v>       1.45000000      -1.45000000       1.45000000 </v>
     <v>       1.45000000       1.45000000      -1.45000000 </v>
    </varray>
    <i name="volume">     12.19450000 </i>
    <varray name="rec_basis" >
     <v>       0.00000000       0.34482759       0.34482759 </v>
     <v>       0.34482759       0.00000000       0.34482759 </v>
     <v>       0.34482759       0.34482759       0.00000000 </v>
    </varray>
   </crystal>
   <varray name="positions" >
    <v>       0.00000000       0.00000000       0.00000000 </v>
   </varray>
  </structure>
  <varray name="forces" >
   <v>       0.00000000       0.00000000       0.00000000 </v>
  </varray>
  <varray name="stress" >
   <v>    -146.96768467       0.00000000      -0.00000000 </v>
   <v>       0.00000000    -146.96768467       0.00000000 </v>
   <v>       0.00000000       0.00000000    -146.96768467 </v>
  </varray>
  <energy>
   <i name="e_fr_energy">     -8.21091240 </i>
   <i name="e_wo_entrp">     -8.21205957 </i>
   <i name="e_0_energy">      0.00344151 </i>
  </energy>
  <time name="totalsc">    1.39    1.43</time>
  <eigenvalues>
   <array>
    <dimension dim="1">band</dimension>
    <dimension dim="2">kpoint</dimension>
    <dimension dim="3">spin</dimension>
    <field>eigene</field>
    <field>occ</field>
    <set>
     <set comment="spin 1">
      <set comment="kpoint 1">
       <r>   -2.3234    1.0000 </r>
       <r>    2.7863    1.0000 </r>
       <r>    2.7863    1.0000 </r>
       <r>    3.2525    1.0000 </r>
       <r>    4.0033    1.0000 </r>
       <r>    4.0033    1.0000 </r>
       <r>   26.8049    0.0000 </r>
       <r>   26.8049    0.0000 </r>
       <r>   29.9878    0.0000 </r>
       <r>   30.5003    0.0000 </r>
       <r>   34.3066    0.0000 </r>
       <r>   34.3066    0.0000 </r>
      </set>
      <set comment="kpoint 2">
       <r>   -1.2573    1.0000 </r>
       <r>    2.5228    1.0000 </r>
       <r>    2.6608    1.0000 </r>
       <r>    3.8545    1.0000 </r>
       <r>    3.9083    1.0000 </r>
       <r>    4.0697    1.0000 </r>
       <r>   22.5899    0.0000 </r>
       <r>   24.9034    0.0000 </r>
       <r>   27.2814    0.0000 </r>
       <r>   30.1661    0.0000 </r>
       <r>   33.8980    0.0000 </r>
       <r>   34.4355    0.0000 </r>
      </set>
      <set comment="kpoint 3">
       <r>    0.0683    1.0000 </r>
       <r>    2.2278    1.0000 </r>
       <r>    2.7357    1.0000 </r>
       <r>    3.9637    1.0000 </r>
       <r>    4.1461    1.0000 </r>
       <r>    4.7081    1.0108 </r>
       <r>   18.0281    0.0000 </r>
       <r>   23.2323    0.0000 </r>
       <r>   25.0050    0.0000 </r>
       <r>   29.6536    0.0000 </r>
       <r>   33.0354    0.0000 </r>
       <r>   36.3665    0.0000 </r>
      </set>
      <set comment="kpoint 4">
       <r>    0.6447    1.0000 </r>
       <r>    2.0045    1.0000 </r>
       <r>    3.7164    1.0000 </r>
       <r>    4.0939    1.0000 </r>
       <r>    4.1981    1.0000 </r>
       <r>    5.7740   -0.0000 </r>
       <r>   13.9886    0.0000 </r>
       <r>   22.0929    0.0000 </r>
       <r>   23.4660    0.0000 </r>
       <r>   29.2106    0.0000 </r>
       <r>   32.6966    0.0000 </r>
       <r>   38.6543    0.0000 </r>
      </set>
      <set comment="kpoint 5">
       <r>    0.6784    1.0000 </r>
       <r>    1.9216    1.0000 </r>
       <r>    4.1065    1.0000 </r>
       <r>    4.2209    1.0000 </r>
       <r>    4.4181    1.0000 </r>
       <r>    6.7383   -0.0000 </r>
       <r>   11.8787    0.0000 </r>
       <r>   21.6895    0.0000 </r>
       <r>   22.9018    0.0000 </r>
       <r>   29.0494    0.0000 </r>
       <r>   32.6357    0.0000 </r>
       <r>   38.6120    0.0000 </r>
      </set>
      <set comment="kpoint 6">
       <r>   -2.7061    1.0000 </r>
       <r>    2.8979    1.0000 </r>
       <r>    2.8980    1.0000 </r>
       <r>    2.9493    1.0000 </r>
       <r>    3.9690    1.0000 </r>
       <r>    4.0834    1.0000 </r>
       <r>   28.2219    0.0000 </r>
       <r>   29.1826    0.0000 </r>
       <r>   29.1826    0.0000 </r>
       <r>   32.3456    0.0000 </r>
       <r>   33.9227    0.0000 </r>
       <r>   33.9227    0.0000 </r>
      </set>
      <set comment="kpoint 7">
       <r>   -0.0449    1.0000 </r>
       <r>    2.3249    1.0000 </r>
       <r>    2.3472    1.0000 </r>
       <r>    3.9240    1.0000 </r>
       <r>    4.1483    1.0000 </r>
       <r>    4.7562    1.0202 </r>
       <r>   20.3595    0.0000 </r>
       <r>   21.1367    0.0000 </r>
       <r>   24.3057    0.0000 </r>
       <r>   31.4220    0.0000 </r>
       <r>   34.9418    0.0000 </r>
       <r>   36.3515    0.0000 </r>
      </set>
      <set comment="kpoint 8">
       <r>    0.9612    1.0000 </r>
       <r>    2.0651    1.0000 </r>
       <r>    2.5615    1.0000 </r>
       <r>    4.0123    1.0000 </r>
       <r>    4.2420    1.0000 </r>
       <r>    6.0490   -0.0000 </r>
       <r>   16.3040    0.0000 </r>
       <r>   19.3685    0.0000 </r>
       <r>   22.6515    0.0000 </r>
       <r>   31.5517    0.0000 </r>
       <r>   35.7334    0.0000 </r>
       <r>   37.0093    0.0000 </r>
      </set>
      <set comment="kpoint 9">
       <r>    1.0820    1.0000 </r>
       <r>    1.9421    1.0000 </r>
       <r>    3.2449    1.0000 </r>
       <r>    4.1142    1.0000 </r>
       <r>    4.3280    1.0000 </r>
       <r>    7.7923   -0.0000 </r>
       <r>   12.7563    0.0000 </r>
       <r>   18.5705    0.0000 </r>
       <r>   21.8073    0.0000 </r>
       <r>   31.3785    0.0000 </r>
       <r>   36.3150    0.0000 </r>
       <r>   37.4140    0.0000 </r>
      </set>
      <set comment="kpoint 10">
       <r>   -1.9534    1.0000 </r>
       <r>    2.7364    1.0000 </r>
       <r>    2.8744    1.0000 </r>
       <r>    3.3239    1.0000 </r>
       <r>    3.7929    1.0000 </r>
       <r>    4.1410    1.0000 </r>
       <r>   24.8652    0.0000 </r>
       <r>   27.5131    0.0000 </r>
       <r>   28.1449    0.0000 </r>
       <r>   31.5734    0.0000 </r>
       <r>   31.6750    0.0000 </r>
       <r>   32.6716    0.0000 </r>
      </set>
      <set comment="kpoint 11">
       <r>    1.4841    1.0000 </r>
       <r>    2.0020    1.0000 </r>
       <r>    2.5413    1.0000 </r>
       <r>    4.1044    1.0000 </r>
       <r>    4.3143    1.0000 </r>
       <r>    8.1120   -0.0000 </r>
       <r>   14.7727    0.0000 </r>
       <r>   15.6356    0.0000 </r>
       <r>   21.6157    0.0000 </r>
       <r>   32.8797    0.0000 </r>
       <r>   35.5544    0.0000 </r>
       <r>   41.2244    0.0000 </r>
      </set>
      <set comment="kpoint 12">
       <r>    1.5331    1.0000 </r>
       <r>    2.0393    1.0000 </r>
       <r>    2.6074    1.0000 </r>
       <r>    4.1886    1.0000 </r>
       <r>    4.3187    1.0000 </r>
       <r>   10.1868   -0.0000 </r>
       <r>   12.2566    0.0000 </r>
       <r>   14.9572    0.0000 </r>
       <r>   21.2878    0.0000 </r>
       <r>   33.3678    0.0000 </r>
       <r>   35.6230    0.0000 </r>
       <r>   40.8066    0.0000 </r>
      </set>
      <set comment="kpoint 13">
       <r>   -0.6606    1.0000 </r>
       <r>    2.4536    1.0000 </r>
       <r>    2.7909    1.0000 </r>
       <r>    3.7879    1.0000 </r>
       <r>    3.9903    1.0000 </r>
       <r>    4.2100    1.0000 </r>
       <r>   20.2529    0.0000 </r>
       <r>   25.4118    0.0000 </r>
       <r>   26.5371    0.0000 </r>
       <r>   29.7759    0.0000 </r>
       <r>   31.3650    0.0000 </r>
       <r>   33.5214    0.0000 </r>
      </set>
      <set comment="kpoint 14">
       <r>   -0.9311    1.0000 </r>
       <r>    2.6742    1.0000 </r>
       <r>    2.6810    1.0000 </r>
       <r>    3.6204    1.0000 </r>
       <r>    3.8254    1.0000 </r>
       <r>    4.2738    1.0000 </r>
       <r>   22.4926    0.0000 </r>
       <r>   23.5574    0.0000 </r>
       <r>   28.2688    0.0000 </r>
       <r>   28.8607    0.0000 </r>
       <r>   31.5536    0.0000 </r>
       <r>   34.6981    0.0000 </r>
      </set>
      <set comment="kpoint 15">
       <r>    0.3926    1.0000 </r>
       <r>    2.1831    1.0000 </r>
       <r>    3.2258    1.0000 </r>
       <r>    4.0056    1.0000 </r>
       <r>    4.4360    1.0000 </r>
       <r>    4.7320    1.0151 </r>
       <r>   15.8494    0.0000 </r>
       <r>   23.7837    0.0000 </r>
       <r>   24.8087    0.0000 </r>
       <r>   28.8418    0.0000 </r>
       <r>   31.2612    0.0000 </r>
       <r>   35.3186    0.0000 </r>
      </set>
      <set comment="kpoint 16">
       <r>    0.3224    1.0000 </r>
       <r>    2.3586    1.0000 </r>
       <r>    2.6457    1.0000 </r>
       <r>    3.7334    1.0000 </r>
       <r>    4.3278    1.0000 </r>
       <r>    4.8199    1.0336 </r>
       <r>   18.2958    0.0000 </r>
       <r>   21.3749    0.0000 </r>
       <r>   26.3771    0.0000 </r>
       <r>   28.7732    0.0000 </r>
       <r>   32.0643    0.0000 </r>
       <r>   35.2494    0.0000 </r>
      </set>
      <set comment="kpoint 17">
       <r>    0.6037    1.0000 </r>
       <r>    2.0204    1.0000 </r>
       <r>    3.8021    1.0000 </r>
       <r>    4.0619    1.0000 </r>
       <r>    5.2333    0.0324 </r>
       <r>    5.6934   -0.0001 </r>
       <r>   12.4703    0.0000 </r>
       <r>   22.9025    0.0000 </r>
       <r>   23.7019    0.0000 </r>
       <r>   28.4814    0.0000 </r>
       <r>   31.3461    0.0000 </r>
       <r>   36.6505    0.0000 </r>
      </set>
      <set comment="kpoint 18">
       <r>    0.8663    1.0000 </r>
       <r>    2.1788    1.0000 </r>
       <r>    2.9820    1.0000 </r>
       <r>    3.9442    1.0000 </r>
       <r>    4.6707    1.0059 </r>
       <r>    6.1953   -0.0000 </r>
       <r>   14.2044    0.0000 </r>
       <r>   20.1692    0.0000 </r>
       <r>   24.8529    0.0000 </r>
       <r>   28.9173    0.0000 </r>
       <r>   33.1985    0.0000 </r>
       <r>   35.0419    0.0000 </r>
      </set>
      <set comment="kpoint 19">
       <r>    1.1876    1.0000 </r>
       <r>    2.0554    1.0000 </r>
       <r>    2.6432    1.0000 </r>
       <r>    3.8455    1.0000 </r>
       <r>    4.4656    1.0000 </r>
       <r>    6.4058   -0.0000 </r>
       <r>   16.5471    0.0000 </r>
       <r>   17.2146    0.0000 </r>
       <r>   25.9306    0.0000 </r>
       <r>   28.6495    0.0000 </r>
       <r>   32.0093    0.0000 </r>
       <r>   39.4059    0.0000 </r>
      </set>
      <set comment="kpoint 20">
       <r>    0.8856    1.0000 </r>
       <r>    2.1197    1.0000 </r>
       <r>    3.2047    1.0000 </r>
       <r>    3.9693    1.0000 </r>
       <r>    4.9403    0.9737 </r>
       <r>    7.5052   -0.0000 </r>
       <r>   11.9462    0.0000 </r>
       <r>   19.7333    0.0000 </r>
       <r>   24.3179    0.0000 </r>
       <r>   28.9390    0.0000 </r>
       <r>   34.3591    0.0000 </r>
       <r>   34.4464    0.0000 </r>
      </set>
      <set comment="kpoint 21">
       <r>    1.4094    1.0000 </r>
       <r>    2.0844    1.0000 </r>
       <r>    2.5737    1.0000 </r>
       <r>    4.0442    1.0000 </r>
       <r>    4.5987    1.0014 </r>
       <r>    8.6674   -0.0000 </r>
       <r>   13.0622    0.0000 </r>
       <r>   16.1285    0.0000 </r>
       <r>   25.2826    0.0000 </r>
       <r>   29.2619    0.0000 </r>
       <r>   32.2652    0.0000 </r>
       <r>   38.2804    0.0000 </r>
      </set>
      <set comment="kpoint 22">
       <r>    1.8266    1.0000 </r>
       <r>    2.1078    1.0000 </r>
       <r>    2.1078    1.0000 </r>
       <r>    4.3522    1.0000 </r>
       <r>    4.3524    1.0000 </r>
       <r>   11.5275    0.0000 </r>
       <r>   11.5276    0.0000 </r>
       <r>   13.8717    0.0000 </r>
       <r>   25.3688    0.0000 </r>
       <r>   30.6872    0.0000 </r>
       <r>   30.6873    0.0000 </r>
       <r>   37.7106    0.0000 </r>
      </set>
      <set comment="kpoint 23">
       <r>    1.1438    1.0000 </r>
       <r>    2.0612    1.0000 </r>
       <r>    2.0612    1.0000 </r>
       <r>    4.1201    1.0000 </r>
       <r>    4.1201    1.0000 </r>
       <r>    6.0584   -0.0000 </r>
       <r>   18.7309    0.0000 </r>
       <r>   18.7309    0.0000 </r>
       <r>   20.0721    0.0000 </r>
       <r>   34.2612    0.0000 </r>
       <r>   37.8009    0.0000 </r>
       <r>   37.8009    0.0000 </r>
      </set>
      <set comment="kpoint 24">
       <r>    1.5749    1.0000 </r>
       <r>    1.9156    1.0000 </r>
       <r>    2.4702    1.0000 </r>
       <r>    4.1689    1.0000 </r>
       <r>    4.2152    1.0000 </r>
       <r>    7.9165   -0.0000 </r>
       <r>   14.8941    0.0000 </r>
       <r>   17.7178    0.0000 </r>
       <r>   18.4994    0.0000 </r>
       <r>   35.1895    0.0000 </r>
       <r>   38.6650    0.0000 </r>
       <r>   40.0431    0.0000 </r>
      </set>
      <set comment="kpoint 25">
       <r>    1.4991    1.0000 </r>
       <r>    1.8714    1.0000 </r>
       <r>    2.8829    1.0000 </r>
       <r>    4.2031    1.0000 </r>
       <r>    4.2405    1.0000 </r>
       <r>    9.7021   -0.0000 </r>
       <r>   12.2989    0.0000 </r>
       <r>   17.3740    0.0000 </r>
       <r>   18.0540    0.0000 </r>
       <r>   35.1776    0.0000 </r>
       <r>   39.1529    0.0000 </r>
       <r>   40.1870    0.0000 </r>
      </set>
      <set comment="kpoint 26">
       <r>   -1.2478    1.0000 </r>
       <r>    2.9630    1.0000 </r>
       <r>    2.9631    1.0000 </r>
       <r>    3.3332    1.0000 </r>
       <r>    3.3608    1.0000 </r>
       <r>    4.3315    1.0000 </r>
       <r>   24.5436    0.0000 </r>
       <r>   25.8720    0.0000 </r>
       <r>   25.8721    0.0000 </r>
       <r>   27.5036    0.0000 </r>
       <r>   34.1004    0.0000 </r>
       <r>   34.1004    0.0000 </r>
      </set>
      <set comment="kpoint 27">
       <r>    1.7650    1.0000 </r>
       <r>    2.0456    1.0000 </r>
       <r>    2.3824    1.0000 </r>
       <r>    4.2251    1.0000 </r>
       <r>    4.2473    1.0000 </r>
       <r>   10.4456   -0.0000 </r>
       <r>   13.6498    0.0000 </r>
       <r>   14.6757    0.0000 </r>
       <r>   17.4723    0.0000 </r>
       <r>   37.6766    0.0000 </r>
       <r>   39.3518    0.0000 </r>
       <r>   42.6768    0.0000 </r>
      </set>
      <set comment="kpoint 28">
       <r>   -0.0729    1.0000 </r>
       <r>    2.7019    1.0000 </r>
       <r>    2.8267    1.0000 </r>
       <r>    3.3805    1.0000 </r>
       <r>    3.9120    1.0000 </r>
       <r>    4.5874    1.0011 </r>
       <r>   20.8122    0.0000 </r>
       <r>   23.7303    0.0000 </r>
       <r>   24.1313    0.0000 </r>
       <r>   27.5025    0.0000 </r>
       <r>   33.4978    0.0000 </r>
       <r>   34.7713    0.0000 </r>
      </set>
      <set comment="kpoint 29">
       <r>    0.8457    1.0000 </r>
       <r>    2.4700    1.0000 </r>
       <r>    2.6038    1.0000 </r>
       <r>    3.7238    1.0000 </r>
       <r>    4.6637    1.0052 </r>
       <r>    5.4347   -0.0173 </r>
       <r>   16.3630    0.0000 </r>
       <r>   21.9934    0.0000 </r>
       <r>   22.9436    0.0000 </r>
       <r>   29.0619    0.0000 </r>
       <r>   32.4361    0.0000 </r>
       <r>   34.6059    0.0000 </r>
      </set>
      <set comment="kpoint 30">
       <r>    0.8857    1.0000 </r>
       <r>    2.2281    1.0000 </r>
       <r>    2.9472    1.0000 </r>
       <r>    3.5074    1.0000 </r>
       <r>    4.3736    1.0000 </r>
       <r>    5.4159   -0.0214 </r>
       <r>   18.8681    0.0000 </r>
       <r>   19.4244    0.0000 </r>
       <r>   24.9692    0.0000 </r>
       <r>   26.2472    0.0000 </r>
       <r>   33.0313    0.0000 </r>
       <r>   38.1020    0.0000 </r>
      </set>
      <set comment="kpoint 31">
       <r>    0.9857    1.0000 </r>
       <r>    2.4641    1.0000 </r>
       <r>    2.6519    1.0000 </r>
       <r>    3.7886    1.0000 </r>
       <r>    5.1838    0.1437 </r>
       <r>    7.3117   -0.0000 </r>
       <r>   12.7477    0.0000 </r>
       <r>   20.9726    0.0000 </r>
       <r>   22.2969    0.0000 </r>
       <r>   31.1022    0.0000 </r>
       <r>   31.8948    0.0000 </r>
       <r>   33.5723    0.0000 </r>
      </set>
      <set comment="kpoint 32">
       <r>    1.3197    1.0000 </r>
       <r>    2.0170    1.0000 </r>
       <r>    2.7725    1.0000 </r>
       <r>    3.8113    1.0000 </r>
       <r>    4.8051    1.0311 </r>
       <r>    7.3407   -0.0000 </r>
       <r>   14.8809    0.0000 </r>
       <r>   17.9538    0.0000 </r>
       <r>   24.3935    0.0000 </r>
       <r>   27.7262    0.0000 </r>
       <r>   32.0365    0.0000 </r>
       <r>   36.3891    0.0000 </r>
      </set>
      <set comment="kpoint 33">
       <r>    1.2885    1.0000 </r>
       <r>    2.1683    1.0000 </r>
       <r>    2.6055    1.0000 </r>
       <r>    3.8937    1.0000 </r>
       <r>    5.0397    0.7008 </r>
       <r>    9.2625   -0.0000 </r>
       <r>   12.2260    0.0000 </r>
       <r>   17.4922    0.0000 </r>
       <r>   24.0425    0.0000 </r>
       <r>   29.5424    0.0000 </r>
       <r>   30.7742    0.0000 </r>
       <r>   35.0532    0.0000 </r>
      </set>
      <set comment="kpoint 34">
       <r>    1.6923    1.0000 </r>
       <r>    1.7283    1.0000 </r>
       <r>    2.5338    1.0000 </r>
       <r>    4.2600    1.0000 </r>
       <r>    4.7264    1.0140 </r>
       <r>   10.0743   -0.0000 </r>
       <r>   13.4727    0.0000 </r>
       <r>   14.6058    0.0000 </r>
       <r>   26.4023    0.0000 </r>
       <r>   27.2539    0.0000 </r>
       <r>   30.0357    0.0000 </r>
       <r>   34.9635    0.0000 </r>
      </set>
      <set comment="kpoint 35">
       <r>    2.0808    1.0000 </r>
       <r>    2.0808    1.0000 </r>
       <r>    2.0810    1.0000 </r>
       <r>    4.2442    1.0000 </r>
       <r>    4.2442    1.0000 </r>
       <r>   13.2639    0.0000 </r>
       <r>   13.2639    0.0000 </r>
       <r>   13.2641    0.0000 </r>
       <r>   15.1119    0.0000 </r>
       <r>   42.7879    0.0000 </r>
       <r>   42.7880    0.0000 </r>
       <r>   42.7888    0.0000 </r>
      </set>
      <set comment="kpoint 36">
       <r>    0.7535    1.0000 </r>
       <r>    2.3612    1.0000 </r>
       <r>    3.3114    1.0000 </r>
       <r>    3.3115    1.0000 </r>
       <r>    3.9687    1.0000 </r>
       <r>    5.2251    0.0466 </r>
       <r>   21.3280    0.0000 </r>
       <r>   21.3280    0.0000 </r>
       <r>   22.0742    0.0000 </r>
       <r>   24.0926    0.0000 </r>
       <r>   37.6430    0.0000 </r>
       <r>   37.6430    0.0000 </r>
      </set>
      <set comment="kpoint 37">
       <r>    1.2514    1.0000 </r>
       <r>    1.8545    1.0000 </r>
       <r>    3.3442    1.0000 </r>
       <r>    3.6526    1.0000 </r>
       <r>    4.5698    1.0008 </r>
       <r>    6.6804   -0.0000 </r>
       <r>   17.3008    0.0000 </r>
       <r>   19.4428    0.0000 </r>
       <r>   21.9581    0.0000 </r>
       <r>   24.6444    0.0000 </r>
       <r>   35.2109    0.0000 </r>
       <r>   36.5707    0.0000 </r>
      </set>
      <set comment="kpoint 38">
       <r>    1.2594    1.0000 </r>
       <r>    1.7141    1.0000 </r>
       <r>    3.2691    1.0000 </r>
       <r>    3.8017    1.0000 </r>
       <r>    5.1058    0.4281 </r>
       <r>    9.1261   -0.0000 </r>
       <r>   13.4347    0.0000 </r>
       <r>   18.3519    0.0000 </r>
       <r>   21.6290    0.0000 </r>
       <r>   26.6475    0.0000 </r>
       <r>   31.7861    0.0000 </r>
       <r>   35.9350    0.0000 </r>
      </set>
      <set comment="kpoint 39">
       <r>    1.3451    1.0000 </r>
       <r>    1.4457    1.0000 </r>
       <r>    3.4121    1.0000 </r>
       <r>    4.1339    1.0000 </r>
       <r>    4.8549    1.0349 </r>
       <r>    8.9243   -0.0000 </r>
       <r>   15.7621    0.0000 </r>
       <r>   16.1974    0.0000 </r>
       <r>   22.8062    0.0000 </r>
       <r>   24.2618    0.0000 </r>
       <r>   31.3254    0.0000 </r>
       <r>   36.7235    0.0000 </r>
      </set>
      <set comment="kpoint 40">
       <r>    1.2570    1.0000 </r>
       <r>    1.3932    1.0000 </r>
       <r>    3.3625    1.0000 </r>
       <r>    4.3809    1.0000 </r>
       <r>    4.9950    0.8522 </r>
       <r>   11.4106    0.0000 </r>
       <r>   12.8698    0.0000 </r>
       <r>   15.5204    0.0000 </r>
       <r>   23.0258    0.0000 </r>
       <r>   25.3057    0.0000 </r>
       <r>   29.1226    0.0000 </r>
       <r>   36.5276    0.0000 </r>
      </set>
      <set comment="kpoint 41">
       <r>    1.1870    1.0000 </r>
       <r>    1.3671    1.0000 </r>
       <r>    4.0771    1.0000 </r>
       <r>    4.0773    1.0000 </r>
       <r>    4.6100    1.0018 </r>
       <r>    8.4843   -0.0000 </r>
       <r>   17.4126    0.0000 </r>
       <r>   17.4126    0.0000 </r>
       <r>   20.7346    0.0000 </r>
       <r>   22.4737    0.0000 </r>
       <r>   31.0927    0.0000 </r>
       <r>   40.0273    0.0000 </r>
      </set>
      <set comment="kpoint 42">
       <r>    1.0346    1.0000 </r>
       <r>    1.0823    1.0000 </r>
       <r>    4.2272    1.0000 </r>
       <r>    4.4005    1.0000 </r>
       <r>    5.0314    0.7318 </r>
       <r>   11.0806    0.0000 </r>
       <r>   14.5160    0.0000 </r>
       <r>   16.2162    0.0000 </r>
       <r>   20.9461    0.0000 </r>
       <r>   22.9921    0.0000 </r>
       <r>   27.7810    0.0000 </r>
       <r>   40.0577    0.0000 </r>
      </set>
      <set comment="kpoint 43">
       <r>    0.9218    1.0000 </r>
       <r>    0.9218    1.0000 </r>
       <r>    4.3190    1.0000 </r>
       <r>    4.9386    0.9763 </r>
       <r>    4.9389    0.9759 </r>
       <r>   13.6268    0.0000 </r>
       <r>   13.6268    0.0000 </r>
       <r>   14.3666    0.0000 </r>
       <r>   21.8744    0.0000 </r>
       <r>   21.8744    0.0000 </r>
       <r>   26.0910    0.0000 </r>
       <r>   40.6015    0.0000 </r>
      </set>
      <set comment="kpoint 44">
       <r>    0.7650    1.0000 </r>
       <r>    0.7653    1.0000 </r>
       <r>    4.9150    1.0055 </r>
       <r>    4.9152    1.0053 </r>
       <r>    5.0107    0.8038 </r>
       <r>   13.2454    0.0000 </r>
       <r>   14.9238    0.0000 </r>
       <r>   14.9238    0.0000 </r>
       <r>   20.1830    0.0000 </r>
       <r>   21.0316    0.0000 </r>
       <r>   25.0397    0.0000 </r>
       <r>   42.6132    0.0000 </r>
      </set>
     </set>
     <set comment="spin 2">
      <set comment="kpoint 1">
       <r>   -2.1560    1.0000 </r>
       <r>    4.9052    1.0143 </r>
       <r>    4.9052    1.0143 </r>
       <r>    5.4380   -0.0166 </r>
       <r>    6.8103   -0.0000 </r>
       <r>    6.8103   -0.0000 </r>
       <r>   26.9101    0.0000 </r>
       <r>   26.9101    0.0000 </r>
       <r>   29.6992    0.0000 </r>
       <r>   31.4172    0.0000 </r>
       <r>   34.6747    0.0000 </r>
       <r>   34.6747    0.0000 </r>
      </set>
      <set comment="kpoint 2">
       <r>   -1.0596    1.0000 </r>
       <r>    4.5764    1.0009 </r>
       <r>    4.7071    1.0106 </r>
       <r>    6.0907   -0.0000 </r>
       <r>    6.6461   -0.0000 </r>
       <r>    6.8954   -0.0000 </r>
       <r>   23.0702    0.0000 </r>
       <r>   25.1595    0.0000 </r>
       <r>   28.1026    0.0000 </r>
       <r>   30.0485    0.0000 </r>
       <r>   34.5470    0.0000 </r>
       <r>   34.7226    0.0000 </r>
      </set>
      <set comment="kpoint 3">
       <r>    0.4892    1.0000 </r>
       <r>    4.2094    1.0000 </r>
       <r>    4.4906    1.0001 </r>
       <r>    6.6525   -0.0000 </r>
       <r>    6.9741   -0.0000 </r>
       <r>    6.9997   -0.0000 </r>
       <r>   18.8162    0.0000 </r>
       <r>   23.5087    0.0000 </r>
       <r>   25.7449    0.0000 </r>
       <r>   29.7983    0.0000 </r>
       <r>   33.6270    0.0000 </r>
       <r>   36.6043    0.0000 </r>
      </set>
      <set comment="kpoint 4">
       <r>    1.7488    1.0000 </r>
       <r>    3.9343    1.0000 </r>
       <r>    4.8139    1.0327 </r>
       <r>    6.7516   -0.0000 </r>
       <r>    7.0817   -0.0000 </r>
       <r>    7.8571   -0.0000 </r>
       <r>   15.1089    0.0000 </r>
       <r>   22.3409    0.0000 </r>
       <r>   24.1351    0.0000 </r>
       <r>   29.5066    0.0000 </r>
       <r>   33.3005    0.0000 </r>
       <r>   38.7597    0.0000 </r>
      </set>
      <set comment="kpoint 5">
       <r>    2.0788    1.0000 </r>
       <r>    3.8329    1.0000 </r>
       <r>    5.3809   -0.0293 </r>
       <r>    6.7945   -0.0000 </r>
       <r>    7.1176   -0.0000 </r>
       <r>    8.3502   -0.0000 </r>
       <r>   13.3366    0.0000 </r>
       <r>   21.9211    0.0000 </r>
       <r>   23.5352    0.0000 </r>
       <r>   29.3945    0.0000 </r>
       <r>   33.2599    0.0000 </r>
       <r>   38.6299    0.0000 </r>
      </set>
      <set comment="kpoint 6">
       <r>   -2.5421    1.0000 </r>
       <r>    5.0427    0.6890 </r>
       <r>    5.0430    0.6881 </r>
       <r>    5.1089    0.4149 </r>
       <r>    6.7707   -0.0000 </r>
       <r>    6.9210   -0.0000 </r>
       <r>   28.0708    0.0000 </r>
       <r>   29.0174    0.0000 </r>
       <r>   29.0174    0.0000 </r>
       <r>   32.7369    0.0000 </r>
       <r>   34.7886    0.0000 </r>
       <r>   34.7888    0.0000 </r>
      </set>
      <set comment="kpoint 7">
       <r>    0.2525    1.0000 </r>
       <r>    4.2949    1.0000 </r>
       <r>    4.3004    1.0000 </r>
       <r>    6.6460   -0.0000 </r>
       <r>    6.9440   -0.0000 </r>
       <r>    7.0247   -0.0000 </r>
       <r>   20.9459    0.0000 </r>
       <r>   21.7162    0.0000 </r>
       <r>   24.9826    0.0000 </r>
       <r>   31.3085    0.0000 </r>
       <r>   35.3179    0.0000 </r>
       <r>   36.7914    0.0000 </r>
      </set>
      <set comment="kpoint 8">
       <r>    1.7375    1.0000 </r>
       <r>    3.9547    1.0000 </r>
       <r>    4.1703    1.0000 </r>
       <r>    6.7170   -0.0000 </r>
       <r>    7.0844   -0.0000 </r>
       <r>    8.1078   -0.0000 </r>
       <r>   17.1674    0.0000 </r>
       <r>   19.9812    0.0000 </r>
       <r>   23.2437    0.0000 </r>
       <r>   31.6119    0.0000 </r>
       <r>   36.0609    0.0000 </r>
       <r>   37.4187    0.0000 </r>
      </set>
      <set comment="kpoint 9">
       <r>    2.4731    1.0000 </r>
       <r>    3.7981    1.0000 </r>
       <r>    4.5489    1.0005 </r>
       <r>    6.8223   -0.0000 </r>
       <r>    7.1369   -0.0000 </r>
       <r>    9.3323   -0.0000 </r>
       <r>   13.9778    0.0000 </r>
       <r>   19.1761    0.0000 </r>
       <r>   22.3596    0.0000 </r>
       <r>   31.5426    0.0000 </r>
       <r>   36.7641    0.0000 </r>
       <r>   37.5566    0.0000 </r>
      </set>
      <set comment="kpoint 10">
       <r>   -1.7794    1.0000 </r>
       <r>    4.8394    1.0354 </r>
       <r>    4.9807    0.8913 </r>
       <r>    5.5219   -0.0045 </r>
       <r>    6.5213   -0.0000 </r>
       <r>    6.9880   -0.0000 </r>
       <r>   25.1541    0.0000 </r>
       <r>   27.5834    0.0000 </r>
       <r>   28.3650    0.0000 </r>
       <r>   31.9686    0.0000 </r>
       <r>   32.3609    0.0000 </r>
       <r>   33.1993    0.0000 </r>
      </set>
      <set comment="kpoint 11">
       <r>    2.8302    1.0000 </r>
       <r>    3.7341    1.0000 </r>
       <r>    4.0518    1.0000 </r>
       <r>    6.8203   -0.0000 </r>
       <r>    7.1164   -0.0000 </r>
       <r>    9.7401   -0.0000 </r>
       <r>   15.6989    0.0000 </r>
       <r>   16.4544    0.0000 </r>
       <r>   22.1918    0.0000 </r>
       <r>   32.9213    0.0000 </r>
       <r>   35.7492    0.0000 </r>
       <r>   41.5028    0.0000 </r>
      </set>
      <set comment="kpoint 12">
       <r>    3.1325    1.0000 </r>
       <r>    3.7428    1.0000 </r>
       <r>    4.0820    1.0000 </r>
       <r>    6.9198   -0.0000 </r>
       <r>    7.0851   -0.0000 </r>
       <r>   11.3872    0.0000 </r>
       <r>   13.4415    0.0000 </r>
       <r>   15.8049    0.0000 </r>
       <r>   21.8688    0.0000 </r>
       <r>   33.4492    0.0000 </r>
       <r>   35.6694    0.0000 </r>
       <r>   41.3361    0.0000 </r>
      </set>
      <set comment="kpoint 13">
       <r>   -0.3989    1.0000 </r>
       <r>    4.4904    1.0001 </r>
       <r>    4.7500    1.0188 </r>
       <r>    6.2718   -0.0000 </r>
       <r>    6.4277   -0.0000 </r>
       <r>    7.0568   -0.0000 </r>
       <r>   20.9124    0.0000 </r>
       <r>   25.5305    0.0000 </r>
       <r>   27.1204    0.0000 </r>
       <r>   30.2842    0.0000 </r>
       <r>   31.9115    0.0000 </r>
       <r>   33.7895    0.0000 </r>
      </set>
      <set comment="kpoint 14">
       <r>   -0.7136    1.0000 </r>
       <r>    4.7192    1.0127 </r>
       <r>    4.7571    1.0204 </r>
       <r>    6.0627   -0.0000 </r>
       <r>    6.2443   -0.0000 </r>
       <r>    7.1215   -0.0000 </r>
       <r>   22.9582    0.0000 </r>
       <r>   24.0868    0.0000 </r>
       <r>   28.4471    0.0000 </r>
       <r>   29.4556    0.0000 </r>
       <r>   31.9317    0.0000 </r>
       <r>   35.0838    0.0000 </r>
      </set>
      <set comment="kpoint 15">
       <r>    1.1370    1.0000 </r>
       <r>    4.1593    1.0000 </r>
       <r>    4.6906    1.0082 </r>
       <r>    6.5720   -0.0000 </r>
       <r>    7.1219   -0.0000 </r>
       <r>    7.1546   -0.0000 </r>
       <r>   16.8081    0.0000 </r>
       <r>   23.8859    0.0000 </r>
       <r>   25.4723    0.0000 </r>
       <r>   29.3323    0.0000 </r>
       <r>   31.8337    0.0000 </r>
       <r>   35.5701    0.0000 </r>
      </set>
      <set comment="kpoint 16">
       <r>    0.7846    1.0000 </r>
       <r>    4.3526    1.0000 </r>
       <r>    4.5250    1.0002 </r>
       <r>    6.2766   -0.0000 </r>
       <r>    6.8781   -0.0000 </r>
       <r>    7.3049   -0.0000 </r>
       <r>   19.0692    0.0000 </r>
       <r>   21.9351    0.0000 </r>
       <r>   26.7910    0.0000 </r>
       <r>   29.1397    0.0000 </r>
       <r>   32.4631    0.0000 </r>
       <r>   35.6595    0.0000 </r>
      </set>
      <set comment="kpoint 17">
       <r>    1.9340    1.0000 </r>
       <r>    3.9620    1.0000 </r>
       <r>    5.2833   -0.0221 </r>
       <r>    6.6856   -0.0000 </r>
       <r>    7.3971   -0.0000 </r>
       <r>    7.7101   -0.0000 </r>
       <r>   13.8239    0.0000 </r>
       <r>   22.9793    0.0000 </r>
       <r>   24.3226    0.0000 </r>
       <r>   29.0112    0.0000 </r>
       <r>   31.9701    0.0000 </r>
       <r>   36.7412    0.0000 </r>
      </set>
      <set comment="kpoint 18">
       <r>    2.0176    1.0000 </r>
       <r>    4.1128    1.0000 </r>
       <r>    4.5387    1.0004 </r>
       <r>    6.4968   -0.0000 </r>
       <r>    7.2406   -0.0000 </r>
       <r>    8.1416   -0.0000 </r>
       <r>   15.2846    0.0000 </r>
       <r>   20.7321    0.0000 </r>
       <r>   25.2148    0.0000 </r>
       <r>   29.3725    0.0000 </r>
       <r>   33.5118    0.0000 </r>
       <r>   35.4622    0.0000 </r>
      </set>
      <set comment="kpoint 19">
       <r>    2.1217    1.0000 </r>
       <r>    3.9540    1.0000 </r>
       <r>    4.4276    1.0000 </r>
       <r>    6.3700   -0.0000 </r>
       <r>    7.1208   -0.0000 </r>
       <r>    8.3841   -0.0000 </r>
       <r>   17.4138    0.0000 </r>
       <r>   17.9664    0.0000 </r>
       <r>   26.4110    0.0000 </r>
       <r>   28.8624    0.0000 </r>
       <r>   32.3903    0.0000 </r>
       <r>   39.7568    0.0000 </r>
      </set>
      <set comment="kpoint 20">
       <r>    2.3467    1.0000 </r>
       <r>    4.0484    1.0000 </r>
       <r>    4.7708    1.0235 </r>
       <r>    6.5638   -0.0000 </r>
       <r>    7.4176   -0.0000 </r>
       <r>    8.9046   -0.0000 </r>
       <r>   13.3571    0.0000 </r>
       <r>   20.2875    0.0000 </r>
       <r>   24.6513    0.0000 </r>
       <r>   29.4383    0.0000 </r>
       <r>   34.5314    0.0000 </r>
       <r>   34.8990    0.0000 </r>
      </set>
      <set comment="kpoint 21">
       <r>    2.9102    1.0000 </r>
       <r>    3.8940    1.0000 </r>
       <r>    4.2505    1.0000 </r>
       <r>    6.5909   -0.0000 </r>
       <r>    7.1613   -0.0000 </r>
       <r>   10.1073   -0.0000 </r>
       <r>   14.1919    0.0000 </r>
       <r>   16.9107    0.0000 </r>
       <r>   25.7454    0.0000 </r>
       <r>   29.5392    0.0000 </r>
       <r>   32.4499    0.0000 </r>
       <r>   39.0194    0.0000 </r>
      </set>
      <set comment="kpoint 22">
       <r>    3.5732    1.0000 </r>
       <r>    3.7909    1.0000 </r>
       <r>    3.7909    1.0000 </r>
       <r>    6.9012   -0.0000 </r>
       <r>    6.9014   -0.0000 </r>
       <r>   12.6640    0.0000 </r>
       <r>   12.6641    0.0000 </r>
       <r>   14.8530    0.0000 </r>
       <r>   25.9059    0.0000 </r>
       <r>   30.8452    0.0000 </r>
       <r>   30.8454    0.0000 </r>
       <r>   38.6553    0.0000 </r>
      </set>
      <set comment="kpoint 23">
       <r>    1.6412    1.0000 </r>
       <r>    3.9279    1.0000 </r>
       <r>    3.9279    1.0000 </r>
       <r>    6.9357   -0.0000 </r>
       <r>    6.9357   -0.0000 </r>
       <r>    8.1415   -0.0000 </r>
       <r>   19.3739    0.0000 </r>
       <r>   19.3739    0.0000 </r>
       <r>   20.8423    0.0000 </r>
       <r>   33.9799    0.0000 </r>
       <r>   38.0639    0.0000 </r>
       <r>   38.0639    0.0000 </r>
      </set>
      <set comment="kpoint 24">
       <r>    2.7977    1.0000 </r>
       <r>    3.7103    1.0000 </r>
       <r>    3.8935    1.0000 </r>
       <r>    6.9729   -0.0000 </r>
       <r>    7.0947   -0.0000 </r>
       <r>    9.5995   -0.0000 </r>
       <r>   15.8055    0.0000 </r>
       <r>   18.3795    0.0000 </r>
       <r>   19.2063    0.0000 </r>
       <r>   35.0840    0.0000 </r>
       <r>   38.9606    0.0000 </r>
       <r>   40.1090    0.0000 </r>
      </set>
      <set comment="kpoint 25">
       <r>    2.9944    1.0000 </r>
       <r>    3.6400    1.0000 </r>
       <r>    4.2276    1.0000 </r>
       <r>    7.0041   -0.0000 </r>
       <r>    7.1433   -0.0000 </r>
       <r>   10.9182    0.0000 </r>
       <r>   13.5306    0.0000 </r>
       <r>   18.0391    0.0000 </r>
       <r>   18.7442    0.0000 </r>
       <r>   35.1524    0.0000 </r>
       <r>   39.6136    0.0000 </r>
       <r>   40.2234    0.0000 </r>
      </set>
      <set comment="kpoint 26">
       <r>   -1.0524    1.0000 </r>
       <r>    5.0605    0.6181 </r>
       <r>    5.0607    0.6173 </r>
       <r>    5.5420   -0.0031 </r>
       <r>    5.9653   -0.0000 </r>
       <r>    7.1902   -0.0000 </r>
       <r>   24.7271    0.0000 </r>
       <r>   26.4018    0.0000 </r>
       <r>   26.4019    0.0000 </r>
       <r>   27.9382    0.0000 </r>
       <r>   34.4351    0.0000 </r>
       <r>   34.4351    0.0000 </r>
      </set>
      <set comment="kpoint 27">
       <r>    3.3759    1.0000 </r>
       <r>    3.6592    1.0000 </r>
       <r>    3.8154    1.0000 </r>
       <r>    7.0789   -0.0000 </r>
       <r>    7.1321   -0.0000 </r>
       <r>   11.6914    0.0000 </r>
       <r>   14.6039    0.0000 </r>
       <r>   15.5452    0.0000 </r>
       <r>   18.1661    0.0000 </r>
       <r>   37.5838    0.0000 </r>
       <r>   39.3694    0.0000 </r>
       <r>   42.7860    0.0000 </r>
      </set>
      <set comment="kpoint 28">
       <r>    0.2469    1.0000 </r>
       <r>    4.8424    1.0355 </r>
       <r>    4.8888    1.0251 </r>
       <r>    5.7513   -0.0000 </r>
       <r>    6.1832   -0.0000 </r>
       <r>    7.3501   -0.0000 </r>
       <r>   21.4549    0.0000 </r>
       <r>   24.3808    0.0000 </r>
       <r>   24.4702    0.0000 </r>
       <r>   27.9463    0.0000 </r>
       <r>   33.9347    0.0000 </r>
       <r>   35.1175    0.0000 </r>
      </set>
      <set comment="kpoint 29">
       <r>    1.6763    1.0000 </r>
       <r>    4.3736    1.0000 </r>
       <r>    4.6187    1.0022 </r>
       <r>    6.0938   -0.0000 </r>
       <r>    7.0417   -0.0000 </r>
       <r>    7.7080   -0.0000 </r>
       <r>   17.2680    0.0000 </r>
       <r>   22.6525    0.0000 </r>
       <r>   23.2886    0.0000 </r>
       <r>   29.4428    0.0000 </r>
       <r>   32.9212    0.0000 </r>
       <r>   35.0287    0.0000 </r>
      </set>
      <set comment="kpoint 30">
       <r>    1.5440    1.0000 </r>
       <r>    4.3413    1.0000 </r>
       <r>    4.9568    0.9449 </r>
       <r>    5.7950   -0.0000 </r>
       <r>    6.7667   -0.0000 </r>
       <r>    7.7423   -0.0000 </r>
       <r>   19.6326    0.0000 </r>
       <r>   20.1111    0.0000 </r>
       <r>   25.3733    0.0000 </r>
       <r>   26.7016    0.0000 </r>
       <r>   33.4895    0.0000 </r>
       <r>   38.4405    0.0000 </r>
      </set>
      <set comment="kpoint 31">
       <r>    2.4389    1.0000 </r>
       <r>    4.3430    1.0000 </r>
       <r>    4.4497    1.0000 </r>
       <r>    6.2453   -0.0000 </r>
       <r>    7.6533   -0.0000 </r>
       <r>    8.7547   -0.0000 </r>
       <r>   13.9942    0.0000 </r>
       <r>   21.5940    0.0000 </r>
       <r>   22.6447    0.0000 </r>
       <r>   31.3610    0.0000 </r>
       <r>   32.3993    0.0000 </r>
       <r>   34.0711    0.0000 </r>
      </set>
      <set comment="kpoint 32">
       <r>    2.6247    1.0000 </r>
       <r>    3.9002    1.0000 </r>
       <r>    4.7622    1.0216 </r>
       <r>    6.1530   -0.0000 </r>
       <r>    7.2465   -0.0000 </r>
       <r>    8.9989   -0.0000 </r>
       <r>   15.8465    0.0000 </r>
       <r>   18.6681    0.0000 </r>
       <r>   24.8038    0.0000 </r>
       <r>   28.1012    0.0000 </r>
       <r>   32.4985    0.0000 </r>
       <r>   37.0965    0.0000 </r>
      </set>
      <set comment="kpoint 33">
       <r>    2.9501    1.0000 </r>
       <r>    3.8937    1.0000 </r>
       <r>    4.5837    1.0010 </r>
       <r>    6.2624   -0.0000 </r>
       <r>    7.4924   -0.0000 </r>
       <r>   10.4375   -0.0000 </r>
       <r>   13.4808    0.0000 </r>
       <r>   18.1902    0.0000 </r>
       <r>   24.4499    0.0000 </r>
       <r>   29.7470    0.0000 </r>
       <r>   31.3394    0.0000 </r>
       <r>   35.8462    0.0000 </r>
      </set>
      <set comment="kpoint 34">
       <r>    3.3744    1.0000 </r>
       <r>    3.5581    1.0000 </r>
       <r>    4.4457    1.0000 </r>
       <r>    6.6252   -0.0000 </r>
       <r>    7.1510   -0.0000 </r>
       <r>   11.3078    0.0000 </r>
       <r>   14.4817    0.0000 </r>
       <r>   15.4675    0.0000 </r>
       <r>   26.7313    0.0000 </r>
       <r>   27.6225    0.0000 </r>
       <r>   30.5491    0.0000 </r>
       <r>   35.7937    0.0000 </r>
      </set>
      <set comment="kpoint 35">
       <r>    3.6489    1.0000 </r>
       <r>    3.6489    1.0000 </r>
       <r>    3.6491    1.0000 </r>
       <r>    7.1516   -0.0000 </r>
       <r>    7.1516   -0.0000 </r>
       <r>   14.2257    0.0000 </r>
       <r>   14.2257    0.0000 </r>
       <r>   14.2261    0.0000 </r>
       <r>   15.9064    0.0000 </r>
       <r>   42.5264    0.0000 </r>
       <r>   42.5264    0.0000 </r>
       <r>   42.5264    0.0000 </r>
      </set>
      <set comment="kpoint 36">
       <r>    1.3262    1.0000 </r>
       <r>    4.6715    1.0060 </r>
       <r>    5.3929   -0.0267 </r>
       <r>    5.3931   -0.0267 </r>
       <r>    6.2626   -0.0000 </r>
       <r>    7.6744   -0.0000 </r>
       <r>   22.0053    0.0000 </r>
       <r>   22.0053    0.0000 </r>
       <r>   22.6009    0.0000 </r>
       <r>   24.5624    0.0000 </r>
       <r>   37.9672    0.0000 </r>
       <r>   37.9672    0.0000 </r>
      </set>
      <set comment="kpoint 37">
       <r>    2.3797    1.0000 </r>
       <r>    3.9611    1.0000 </r>
       <r>    5.4336   -0.0175 </r>
       <r>    5.8275   -0.0000 </r>
       <r>    6.9358   -0.0000 </r>
       <r>    8.4726   -0.0000 </r>
       <r>   18.0910    0.0000 </r>
       <r>   20.0891    0.0000 </r>
       <r>   22.5425    0.0000 </r>
       <r>   25.1386    0.0000 </r>
       <r>   35.9022    0.0000 </r>
       <r>   37.0263    0.0000 </r>
      </set>
      <set comment="kpoint 38">
       <r>    2.9586    1.0000 </r>
       <r>    3.5472    1.0000 </r>
       <r>    5.3490   -0.0346 </r>
       <r>    6.0180   -0.0000 </r>
       <r>    7.5635   -0.0000 </r>
       <r>   10.3173   -0.0000 </r>
       <r>   14.4534    0.0000 </r>
       <r>   18.9397    0.0000 </r>
       <r>   22.2459    0.0000 </r>
       <r>   27.0178    0.0000 </r>
       <r>   32.6211    0.0000 </r>
       <r>   36.3940    0.0000 </r>
      </set>
      <set comment="kpoint 39">
       <r>    2.9284    1.0000 </r>
       <r>    3.4485    1.0000 </r>
       <r>    5.4880   -0.0081 </r>
       <r>    6.3638   -0.0000 </r>
       <r>    7.2632   -0.0000 </r>
       <r>   10.1741   -0.0000 </r>
       <r>   16.5709    0.0000 </r>
       <r>   16.8928    0.0000 </r>
       <r>   23.3706    0.0000 </r>
       <r>   24.7865    0.0000 </r>
       <r>   32.1255    0.0000 </r>
       <r>   37.1966    0.0000 </r>
      </set>
      <set comment="kpoint 40">
       <r>    3.1385    1.0000 </r>
       <r>    3.2224    1.0000 </r>
       <r>    5.3976   -0.0256 </r>
       <r>    6.6631   -0.0000 </r>
       <r>    7.4208   -0.0000 </r>
       <r>   12.3430    0.0000 </r>
       <r>   13.8365    0.0000 </r>
       <r>   16.2177    0.0000 </r>
       <r>   23.5811    0.0000 </r>
       <r>   25.7031    0.0000 </r>
       <r>   30.0748    0.0000 </r>
       <r>   37.0043    0.0000 </r>
      </set>
      <set comment="kpoint 41">
       <r>    2.7422    1.0000 </r>
       <r>    3.4240    1.0000 </r>
       <r>    6.2539   -0.0000 </r>
       <r>    6.2542   -0.0000 </r>
       <r>    6.9969   -0.0000 </r>
       <r>    9.7163   -0.0000 </r>
       <r>   17.9920    0.0000 </r>
       <r>   17.9921    0.0000 </r>
       <r>   21.5424    0.0000 </r>
       <r>   23.1248    0.0000 </r>
       <r>   31.8968    0.0000 </r>
       <r>   40.4261    0.0000 </r>
      </set>
      <set comment="kpoint 42">
       <r>    2.8578    1.0000 </r>
       <r>    3.0154    1.0000 </r>
       <r>    6.4608   -0.0000 </r>
       <r>    6.6370   -0.0000 </r>
       <r>    7.4780   -0.0000 </r>
       <r>   11.9316    0.0000 </r>
       <r>   15.1896    0.0000 </r>
       <r>   16.7027    0.0000 </r>
       <r>   21.7494    0.0000 </r>
       <r>   23.5981    0.0000 </r>
       <r>   28.7400    0.0000 </r>
       <r>   40.4368    0.0000 </r>
      </set>
      <set comment="kpoint 43">
       <r>    2.8184    1.0000 </r>
       <r>    2.8184    1.0000 </r>
       <r>    6.5499   -0.0000 </r>
       <r>    7.3443   -0.0000 </r>
       <r>    7.3448   -0.0000 </r>
       <r>   14.2430    0.0000 </r>
       <r>   14.2432    0.0000 </r>
       <r>   14.9199    0.0000 </r>
       <r>   22.5658    0.0000 </r>
       <r>   22.5659    0.0000 </r>
       <r>   27.1700    0.0000 </r>
       <r>   40.9679    0.0000 </r>
      </set>
      <set comment="kpoint 44">
       <r>    2.6465    1.0000 </r>
       <r>    2.6853    1.0000 </r>
       <r>    7.3132   -0.0000 </r>
       <r>    7.3136   -0.0000 </r>
       <r>    7.4588   -0.0000 </r>
       <r>   13.7431    0.0000 </r>
       <r>   15.2689    0.0000 </r>
       <r>   15.2692    0.0000 </r>
       <r>   21.1390    0.0000 </r>
       <r>   21.8536    0.0000 </r>
       <r>   26.1455    0.0000 </r>
       <r>   42.8809    0.0000 </r>
      </set>
     </set>
    </set>
   </array>
  </eigenvalues>
  <separator name="orbital magnetization" >
   <v name="MAGDIPOLOUT">      0.00000000      0.00000000      0.00000000</v>
  </separator>
  <dos>
   <i name="efermi">      5.08870269 </i>
   <total>
    <array>
     <dimension dim="1">gridpoints</dimension>
     <dimension dim="2">spin</dimension>
     <field>energy</field>
     <field>total</field>
     <field>integrated</field>
     <set>
      <set comment="spin 1">
       <r>    -4.9855     0.0000     0.0000 </r>
       <r>    -4.8183     0.0000     0.0000 </r>
       <r>    -4.6512     0.0000     0.0000 </r>
       <r>    -4.4840     0.0000     0.0000 </r>
       <r>    -4.3169    -0.0000    -0.0000 </r>
       <r>    -4.1497    -0.0000    -0.0000 </r>
       <r>    -3.9826    -0.0000    -0.0000 </r>
       <r>    -3.8154    -0.0000    -0.0000 </r>
       <r>    -3.6483    -0.0000    -0.0000 </r>
       <r>    -3.4811    -0.0000    -0.0000 </r>
       <r>    -3.3140    -0.0000    -0.0000 </r>
       <r>    -3.1468    -0.0001    -0.0000 </r>
       <r>    -2.9797    -0.0010    -0.0002 </r>
       <r>    -2.8125     0.0052     0.0007 </r>
       <r>    -2.6454     0.0217     0.0043 </r>
       <r>    -2.4782     0.0122     0.0063 </r>
       <r>    -2.3111     0.0227     0.0101 </r>
       <r>    -2.1439     0.0210     0.0136 </r>
       <r>    -1.9768     0.0608     0.0238 </r>
       <r>    -1.8096     0.0802     0.0372 </r>
       <r>    -1.6424     0.0067     0.0383 </r>
       <r>    -1.4753    -0.0075     0.0371 </r>
       <r>    -1.3081     0.0552     0.0463 </r>
       <r>    -1.1410     0.1087     0.0645 </r>
       <r>    -0.9738     0.0698     0.0761 </r>
       <r>    -0.8067     0.0898     0.0911 </r>
       <r>    -0.6395     0.0939     0.1068 </r>
       <r>    -0.4724     0.0559     0.1162 </r>
       <r>    -0.3052    -0.0105     0.1144 </r>
       <r>    -0.1381     0.0606     0.1245 </r>
       <r>     0.0291     0.2262     0.1624 </r>
       <r>     0.1962     0.1684     0.1905 </r>
       <r>     0.3634     0.2242     0.2280 </r>
       <r>     0.5305     0.2196     0.2647 </r>
       <r>     0.6977     0.2461     0.3058 </r>
       <r>     0.8648     0.5860     0.4038 </r>
       <r>     1.0320     0.8987     0.5540 </r>
       <r>     1.1991     0.7934     0.6866 </r>
       <r>     1.3663     0.9663     0.8481 </r>
       <r>     1.5335     0.8408     0.9887 </r>
       <r>     1.7006     0.4760     1.0682 </r>
       <r>     1.8678     0.5983     1.1682 </r>
       <r>     2.0349     1.3946     1.4014 </r>
       <r>     2.2021     1.6148     1.6713 </r>
       <r>     2.3692     0.9729     1.8339 </r>
       <r>     2.5364     1.3161     2.0539 </r>
       <r>     2.7035     1.8709     2.3666 </r>
       <r>     2.8707     1.3158     2.5866 </r>
       <r>     3.0378     0.5869     2.6847 </r>
       <r>     3.2050     0.4427     2.7587 </r>
       <r>     3.3721     0.8592     2.9023 </r>
       <r>     3.5393     0.5258     2.9902 </r>
       <r>     3.7064     0.6359     3.0965 </r>
       <r>     3.8736     1.6127     3.3660 </r>
       <r>     4.0407     2.1522     3.7258 </r>
       <r>     4.2079     2.5698     4.1553 </r>
       <r>     4.3750     2.2117     4.5250 </r>
       <r>     4.5422     1.0665     4.7033 </r>
       <r>     4.7094     0.9603     4.8638 </r>
       <r>     4.8765     1.0659     5.0420 </r>
       <r>     5.0437     0.7298     5.1639 </r>
       <r>     5.2108     0.4494     5.2391 </r>
       <r>     5.3780     0.2555     5.2818 </r>
       <r>     5.5451     0.1752     5.3111 </r>
       <r>     5.7123     0.1392     5.3343 </r>
       <r>     5.8794     0.1443     5.3585 </r>
       <r>     6.0466     0.1957     5.3912 </r>
       <r>     6.2137     0.3218     5.4449 </r>
       <r>     6.3809     0.1892     5.4766 </r>
       <r>     6.5480     0.0865     5.4910 </r>
       <r>     6.7152     0.1192     5.5110 </r>
       <r>     6.8823     0.0901     5.5260 </r>
       <r>     7.0495    -0.0104     5.5243 </r>
       <r>     7.2166     0.0471     5.5322 </r>
       <r>     7.3838     0.2793     5.5788 </r>
       <r>     7.5509     0.2148     5.6148 </r>
       <r>     7.7181     0.1072     5.6327 </r>
       <r>     7.8853     0.2302     5.6712 </r>
       <r>     8.0524     0.1770     5.7007 </r>
       <r>     8.2196     0.0906     5.7159 </r>
       <r>     8.3867     0.0135     5.7181 </r>
       <r>     8.5539     0.0531     5.7270 </r>
       <r>     8.7210     0.1846     5.7579 </r>
       <r>     8.8882     0.1378     5.7809 </r>
       <r>     9.0553     0.1126     5.7997 </r>
       <r>     9.2225     0.1533     5.8253 </r>
       <r>     9.3896     0.1059     5.8430 </r>
       <r>     9.5568     0.0128     5.8452 </r>
       <r>     9.7239     0.0332     5.8507 </r>
       <r>     9.8911     0.0268     5.8552 </r>
       <r>    10.0582     0.0755     5.8678 </r>
       <r>    10.2254     0.1599     5.8945 </r>
       <r>    10.3925     0.1048     5.9120 </r>
       <r>    10.5597     0.0838     5.9261 </r>
       <r>    10.7268     0.0139     5.9284 </r>
       <r>    10.8940    -0.0044     5.9277 </r>
       <r>    11.0612     0.0595     5.9376 </r>
       <r>    11.2283     0.0776     5.9506 </r>
       <r>    11.3955     0.0797     5.9639 </r>
       <r>    11.5626     0.1283     5.9853 </r>
       <r>    11.7298     0.0427     5.9925 </r>
       <r>    11.8969     0.0772     6.0054 </r>
       <r>    12.0641     0.1189     6.0253 </r>
       <r>    12.2312     0.1647     6.0528 </r>
       <r>    12.3984     0.2212     6.0898 </r>
       <r>    12.5655     0.1096     6.1081 </r>
       <r>    12.7327     0.2074     6.1427 </r>
       <r>    12.8998     0.3254     6.1971 </r>
       <r>    13.0670     0.2243     6.2346 </r>
       <r>    13.2341     0.1510     6.2599 </r>
       <r>    13.4013     0.1267     6.2810 </r>
       <r>    13.5684     0.2333     6.3200 </r>
       <r>    13.7356     0.1860     6.3511 </r>
       <r>    13.9027     0.0852     6.3653 </r>
       <r>    14.0699     0.1236     6.3860 </r>
       <r>    14.2371     0.1960     6.4188 </r>
       <r>    14.4042     0.1455     6.4431 </r>
       <r>    14.5714     0.1658     6.4708 </r>
       <r>    14.7385     0.2905     6.5194 </r>
       <r>    14.9057     0.4499     6.5946 </r>
       <r>    15.0728     0.3212     6.6483 </r>
       <r>    15.2400     0.0170     6.6511 </r>
       <r>    15.4071     0.0007     6.6512 </r>
       <r>    15.5743     0.1251     6.6721 </r>
       <r>    15.7414     0.2144     6.7080 </r>
       <r>    15.9086     0.1716     6.7366 </r>
       <r>    16.0757     0.1489     6.7615 </r>
       <r>    16.2429     0.4361     6.8344 </r>
       <r>    16.4100     0.4223     6.9050 </r>
       <r>    16.5772     0.1620     6.9321 </r>
       <r>    16.7443     0.0411     6.9390 </r>
       <r>    16.9115    -0.0094     6.9374 </r>
       <r>    17.0786    -0.0000     6.9374 </r>
       <r>    17.2458     0.1281     6.9588 </r>
       <r>    17.4130     0.2965     7.0084 </r>
       <r>    17.5801     0.2682     7.0532 </r>
       <r>    17.7473     0.1161     7.0726 </r>
       <r>    17.9144     0.1705     7.1011 </r>
       <r>    18.0816     0.2888     7.1494 </r>
       <r>    18.2487     0.2077     7.1841 </r>
       <r>    18.4159     0.2953     7.2335 </r>
       <r>    18.5830     0.3158     7.2863 </r>
       <r>    18.7502     0.2201     7.3230 </r>
       <r>    18.9173     0.1246     7.3439 </r>
       <r>    19.0845     0.0292     7.3488 </r>
       <r>    19.2516     0.0302     7.3538 </r>
       <r>    19.4188     0.3021     7.4043 </r>
       <r>    19.5859     0.2564     7.4472 </r>
       <r>    19.7531     0.0832     7.4611 </r>
       <r>    19.9202     0.0426     7.4682 </r>
       <r>    20.0874     0.0937     7.4838 </r>
       <r>    20.2545     0.3208     7.5375 </r>
       <r>    20.4217     0.2284     7.5756 </r>
       <r>    20.5889     0.0283     7.5804 </r>
       <r>    20.7560     0.0494     7.5886 </r>
       <r>    20.9232     0.2108     7.6239 </r>
       <r>    21.0903     0.2484     7.6654 </r>
       <r>    21.2575     0.2237     7.7028 </r>
       <r>    21.4246     0.3052     7.7538 </r>
       <r>    21.5918     0.2264     7.7916 </r>
       <r>    21.7589     0.2985     7.8415 </r>
       <r>    21.9261     0.3701     7.9034 </r>
       <r>    22.0932     0.3174     7.9564 </r>
       <r>    22.2604     0.1543     7.9822 </r>
       <r>    22.4275     0.1253     8.0032 </r>
       <r>    22.5947     0.2702     8.0483 </r>
       <r>    22.7618     0.3283     8.1032 </r>
       <r>    22.9290     0.3726     8.1655 </r>
       <r>    23.0961     0.3607     8.2258 </r>
       <r>    23.2633     0.1351     8.2484 </r>
       <r>    23.4305     0.0999     8.2651 </r>
       <r>    23.5976     0.2006     8.2986 </r>
       <r>    23.7648     0.2935     8.3477 </r>
       <r>    23.9319     0.1809     8.3779 </r>
       <r>    24.0991     0.1550     8.4038 </r>
       <r>    24.2662     0.3348     8.4598 </r>
       <r>    24.4334     0.4228     8.5305 </r>
       <r>    24.6005     0.1828     8.5610 </r>
       <r>    24.7677     0.2222     8.5981 </r>
       <r>    24.9348     0.5470     8.6896 </r>
       <r>    25.1020     0.3597     8.7497 </r>
       <r>    25.2691     0.2296     8.7881 </r>
       <r>    25.4363     0.3376     8.8445 </r>
       <r>    25.6034     0.0904     8.8596 </r>
       <r>    25.7706     0.0027     8.8601 </r>
       <r>    25.9377     0.1143     8.8792 </r>
       <r>    26.1049     0.1097     8.8975 </r>
       <r>    26.2720     0.1525     8.9230 </r>
       <r>    26.4392     0.3448     8.9806 </r>
       <r>    26.6064     0.2760     9.0268 </r>
       <r>    26.7735     0.1497     9.0518 </r>
       <r>    26.9407     0.0556     9.0611 </r>
       <r>    27.1078     0.0093     9.0626 </r>
       <r>    27.2750     0.1364     9.0855 </r>
       <r>    27.4421     0.2140     9.1212 </r>
       <r>    27.6093     0.2452     9.1622 </r>
       <r>    27.7764     0.2912     9.2109 </r>
       <r>    27.9436     0.1518     9.2363 </r>
       <r>    28.1107     0.0593     9.2462 </r>
       <r>    28.2779     0.1727     9.2750 </r>
       <r>    28.4450     0.1330     9.2973 </r>
       <r>    28.6122     0.1255     9.3182 </r>
       <r>    28.7793     0.3303     9.3735 </r>
       <r>    28.9465     0.5879     9.4717 </r>
       <r>    29.1136     0.4938     9.5543 </r>
       <r>    29.2808     0.4171     9.6240 </r>
       <r>    29.4479     0.1871     9.6553 </r>
       <r>    29.6151     0.1363     9.6780 </r>
       <r>    29.7823     0.1837     9.7087 </r>
       <r>    29.9494     0.1214     9.7290 </r>
       <r>    30.1166     0.1649     9.7566 </r>
       <r>    30.2837     0.1200     9.7766 </r>
       <r>    30.4509     0.0212     9.7802 </r>
       <r>    30.6180     0.0546     9.7893 </r>
       <r>    30.7852     0.1380     9.8124 </r>
       <r>    30.9523     0.0817     9.8260 </r>
       <r>    31.1195     0.0820     9.8397 </r>
       <r>    31.2866     0.3319     9.8952 </r>
       <r>    31.4538     0.6777    10.0085 </r>
       <r>    31.6209     0.5867    10.1066 </r>
       <r>    31.7881     0.2997    10.1567 </r>
       <r>    31.9552     0.3003    10.2069 </r>
       <r>    32.1224     0.5035    10.2910 </r>
       <r>    32.2895     0.3344    10.3469 </r>
       <r>    32.4567     0.1942    10.3794 </r>
       <r>    32.6238     0.1712    10.4080 </r>
       <r>    32.7910     0.2312    10.4466 </r>
       <r>    32.9582     0.1945    10.4791 </r>
       <r>    33.1253     0.2712    10.5245 </r>
       <r>    33.2925     0.2570    10.5674 </r>
       <r>    33.4596     0.2467    10.6087 </r>
       <r>    33.6268     0.2771    10.6550 </r>
       <r>    33.7939     0.0996    10.6716 </r>
       <r>    33.9611     0.1223    10.6921 </r>
       <r>    34.1282     0.0998    10.7088 </r>
       <r>    34.2954     0.1481    10.7335 </r>
       <r>    34.4625     0.3191    10.7869 </r>
       <r>    34.6297     0.2662    10.8314 </r>
       <r>    34.7968     0.2210    10.8683 </r>
       <r>    34.9640     0.3057    10.9194 </r>
       <r>    35.1311     0.5332    11.0085 </r>
       <r>    35.2983     0.5464    11.0999 </r>
       <r>    35.4654     0.2389    11.1398 </r>
       <r>    35.6326     0.1993    11.1731 </r>
       <r>    35.7997     0.2860    11.2209 </r>
       <r>    35.9669     0.1497    11.2459 </r>
       <r>    36.1341     0.0290    11.2508 </r>
       <r>    36.3012     0.2592    11.2941 </r>
       <r>    36.4684     0.5787    11.3908 </r>
       <r>    36.6355     0.3887    11.4558 </r>
       <r>    36.8027     0.2028    11.4897 </r>
       <r>    36.9698     0.1315    11.5117 </r>
       <r>    37.1370     0.1549    11.5376 </r>
       <r>    37.3041     0.0610    11.5478 </r>
       <r>    37.4713     0.1683    11.5759 </r>
       <r>    37.6384     0.1881    11.6074 </r>
       <r>    37.8056     0.1910    11.6393 </r>
       <r>    37.9727     0.0730    11.6515 </r>
       <r>    38.1399     0.0989    11.6680 </r>
       <r>    38.3070     0.2090    11.7030 </r>
       <r>    38.4742     0.1206    11.7231 </r>
       <r>    38.6413     0.1636    11.7505 </r>
       <r>    38.8085     0.1817    11.7808 </r>
       <r>    38.9756     0.0118    11.7828 </r>
       <r>    39.1428     0.0193    11.7860 </r>
       <r>    39.3100     0.1138    11.8051 </r>
       <r>    39.4771     0.1812    11.8354 </r>
       <r>    39.6443     0.0466    11.8432 </r>
       <r>    39.8114    -0.0175    11.8402 </r>
       <r>    39.9786     0.0817    11.8539 </r>
       <r>    40.1457     0.2312    11.8925 </r>
       <r>    40.3129     0.0971    11.9088 </r>
       <r>    40.4800    -0.0003    11.9087 </r>
       <r>    40.6472     0.0305    11.9138 </r>
       <r>    40.8143     0.0902    11.9289 </r>
       <r>    40.9815     0.0630    11.9394 </r>
       <r>    41.1486     0.0354    11.9453 </r>
       <r>    41.3158     0.0897    11.9603 </r>
       <r>    41.4829     0.0270    11.9648 </r>
       <r>    41.6501    -0.0043    11.9641 </r>
       <r>    41.8172    -0.0007    11.9640 </r>
       <r>    41.9844    -0.0000    11.9640 </r>
       <r>    42.1515    -0.0002    11.9640 </r>
       <r>    42.3187    -0.0031    11.9635 </r>
       <r>    42.4859     0.0017    11.9637 </r>
       <r>    42.6530     0.0846    11.9779 </r>
       <r>    42.8202     0.1152    11.9971 </r>
       <r>    42.9873     0.0220    12.0008 </r>
       <r>    43.1545    -0.0042    12.0001 </r>
       <r>    43.3216    -0.0007    12.0000 </r>
       <r>    43.4888    -0.0000    12.0000 </r>
       <r>    43.6559    -0.0000    12.0000 </r>
       <r>    43.8231    -0.0000    12.0000 </r>
       <r>    43.9902    -0.0000    12.0000 </r>
       <r>    44.1574    -0.0000    12.0000 </r>
       <r>    44.3245     0.0000    12.0000 </r>
       <r>    44.4917     0.0000    12.0000 </r>
       <r>    44.6588     0.0000    12.0000 </r>
       <r>    44.8260     0.0000    12.0000 </r>
       <r>    44.9931     0.0000    12.0000 </r>
       <r>    45.1603     0.0000    12.0000 </r>
      </set>
      <set comment="spin 2">
       <r>    -4.9855     0.0000     0.0000 </r>
       <r>    -4.8183     0.0000     0.0000 </r>
       <r>    -4.6512     0.0000     0.0000 </r>
       <r>    -4.4840     0.0000     0.0000 </r>
       <r>    -4.3169     0.0000     0.0000 </r>
       <r>    -4.1497    -0.0000    -0.0000 </r>
       <r>    -3.9826    -0.0000    -0.0000 </r>
       <r>    -3.8154    -0.0000    -0.0000 </r>
       <r>    -3.6483    -0.0000    -0.0000 </r>
       <r>    -3.4811    -0.0000    -0.0000 </r>
       <r>    -3.3140    -0.0000    -0.0000 </r>
       <r>    -3.1468    -0.0000    -0.0000 </r>
       <r>    -2.9797    -0.0001    -0.0000 </r>
       <r>    -2.8125    -0.0010    -0.0002 </r>
       <r>    -2.6454     0.0055     0.0007 </r>
       <r>    -2.4782     0.0218     0.0044 </r>
       <r>    -2.3111     0.0118     0.0063 </r>
       <r>    -2.1439     0.0228     0.0101 </r>
       <r>    -1.9768     0.0203     0.0135 </r>
       <r>    -1.8096     0.0574     0.0231 </r>
       <r>    -1.6424     0.0826     0.0369 </r>
       <r>    -1.4753     0.0093     0.0385 </r>
       <r>    -1.3081    -0.0088     0.0370 </r>
       <r>    -1.1410     0.0378     0.0433 </r>
       <r>    -0.9738     0.1112     0.0619 </r>
       <r>    -0.8067     0.0634     0.0725 </r>
       <r>    -0.6395     0.0827     0.0863 </r>
       <r>    -0.4724     0.0695     0.0979 </r>
       <r>    -0.3052     0.0879     0.1126 </r>
       <r>    -0.1381     0.0225     0.1164 </r>
       <r>     0.0291    -0.0113     0.1145 </r>
       <r>     0.1962     0.0860     0.1289 </r>
       <r>     0.3634     0.1911     0.1608 </r>
       <r>     0.5305     0.1144     0.1799 </r>
       <r>     0.6977     0.1011     0.1968 </r>
       <r>     0.8648     0.1770     0.2264 </r>
       <r>     1.0320     0.0832     0.2403 </r>
       <r>     1.1991     0.0828     0.2541 </r>
       <r>     1.3663     0.0523     0.2629 </r>
       <r>     1.5335     0.0826     0.2767 </r>
       <r>     1.7006     0.3294     0.3318 </r>
       <r>     1.8678     0.3847     0.3961 </r>
       <r>     2.0349     0.3314     0.4515 </r>
       <r>     2.2021     0.2674     0.4962 </r>
       <r>     2.3692     0.2503     0.5380 </r>
       <r>     2.5364     0.4424     0.6119 </r>
       <r>     2.7035     0.3827     0.6759 </r>
       <r>     2.8707     0.6255     0.7805 </r>
       <r>     3.0378     0.7883     0.9122 </r>
       <r>     3.2050     0.4227     0.9829 </r>
       <r>     3.3721     0.2957     1.0323 </r>
       <r>     3.5393     0.3975     1.0988 </r>
       <r>     3.7064     0.6156     1.2017 </r>
       <r>     3.8736     1.2654     1.4132 </r>
       <r>     4.0407     1.5326     1.6694 </r>
       <r>     4.2079     1.1489     1.8614 </r>
       <r>     4.3750     1.1995     2.0619 </r>
       <r>     4.5422     1.3901     2.2943 </r>
       <r>     4.7094     1.3198     2.5149 </r>
       <r>     4.8765     1.1196     2.7020 </r>
       <r>     5.0437     0.5893     2.8005 </r>
       <r>     5.2108     0.1757     2.8299 </r>
       <r>     5.3780     0.3784     2.8932 </r>
       <r>     5.5451     0.5301     2.9818 </r>
       <r>     5.7123     0.2435     3.0225 </r>
       <r>     5.8794     0.2395     3.0625 </r>
       <r>     6.0466     0.3756     3.1253 </r>
       <r>     6.2137     0.8764     3.2717 </r>
       <r>     6.3809     1.0005     3.4390 </r>
       <r>     6.5480     1.0330     3.6117 </r>
       <r>     6.7152     1.4512     3.8542 </r>
       <r>     6.8823     1.5052     4.1058 </r>
       <r>     7.0495     2.0811     4.4537 </r>
       <r>     7.2166     2.4388     4.8613 </r>
       <r>     7.3838     1.4486     5.1034 </r>
       <r>     7.5509     0.6913     5.2190 </r>
       <r>     7.7181     0.4757     5.2985 </r>
       <r>     7.8853     0.3135     5.3509 </r>
       <r>     8.0524     0.2075     5.3856 </r>
       <r>     8.2196     0.3890     5.4506 </r>
       <r>     8.3867     0.2559     5.4934 </r>
       <r>     8.5539     0.1667     5.5213 </r>
       <r>     8.7210     0.0775     5.5342 </r>
       <r>     8.8882     0.1781     5.5640 </r>
       <r>     9.0553     0.2605     5.6075 </r>
       <r>     9.2225     0.1280     5.6289 </r>
       <r>     9.3896     0.1643     5.6564 </r>
       <r>     9.5568     0.1359     5.6791 </r>
       <r>     9.7239     0.1593     5.7057 </r>
       <r>     9.8911     0.0963     5.7218 </r>
       <r>    10.0582     0.1096     5.7401 </r>
       <r>    10.2254     0.2861     5.7880 </r>
       <r>    10.3925     0.2208     5.8249 </r>
       <r>    10.5597     0.1100     5.8433 </r>
       <r>    10.7268     0.0083     5.8446 </r>
       <r>    10.8940     0.0241     5.8487 </r>
       <r>    11.0612     0.0331     5.8542 </r>
       <r>    11.2283     0.0413     5.8611 </r>
       <r>    11.3955     0.1620     5.8882 </r>
       <r>    11.5626     0.1076     5.9062 </r>
       <r>    11.7298     0.0812     5.9198 </r>
       <r>    11.8969     0.1040     5.9371 </r>
       <r>    12.0641     0.0783     5.9502 </r>
       <r>    12.2312     0.0285     5.9550 </r>
       <r>    12.3984     0.0833     5.9689 </r>
       <r>    12.5655     0.0601     5.9789 </r>
       <r>    12.7327     0.0577     5.9886 </r>
       <r>    12.8998     0.0231     5.9924 </r>
       <r>    13.0670    -0.0113     5.9905 </r>
       <r>    13.2341     0.0169     5.9934 </r>
       <r>    13.4013     0.2218     6.0304 </r>
       <r>    13.5684     0.2806     6.0773 </r>
       <r>    13.7356     0.1196     6.0973 </r>
       <r>    13.9027     0.2773     6.1437 </r>
       <r>    14.0699     0.3778     6.2068 </r>
       <r>    14.2371     0.3105     6.2587 </r>
       <r>    14.4042     0.2294     6.2971 </r>
       <r>    14.5714     0.2296     6.3355 </r>
       <r>    14.7385     0.1268     6.3567 </r>
       <r>    14.9057     0.0439     6.3640 </r>
       <r>    15.0728     0.0997     6.3807 </r>
       <r>    15.2400     0.2953     6.4300 </r>
       <r>    15.4071     0.3185     6.4833 </r>
       <r>    15.5743     0.1997     6.5167 </r>
       <r>    15.7414     0.2773     6.5630 </r>
       <r>    15.9086     0.4109     6.6317 </r>
       <r>    16.0757     0.1342     6.6541 </r>
       <r>    16.2429     0.0584     6.6639 </r>
       <r>    16.4100     0.1045     6.6813 </r>
       <r>    16.5772     0.1623     6.7085 </r>
       <r>    16.7443     0.2205     6.7453 </r>
       <r>    16.9115     0.3528     6.8043 </r>
       <r>    17.0786     0.2755     6.8503 </r>
       <r>    17.2458     0.2484     6.8919 </r>
       <r>    17.4130     0.2098     6.9269 </r>
       <r>    17.5801     0.0692     6.9385 </r>
       <r>    17.7473    -0.0129     6.9363 </r>
       <r>    17.9144     0.0595     6.9463 </r>
       <r>    18.0816     0.2924     6.9951 </r>
       <r>    18.2487     0.3259     7.0496 </r>
       <r>    18.4159     0.1455     7.0739 </r>
       <r>    18.5830     0.0973     7.0902 </r>
       <r>    18.7502     0.2478     7.1316 </r>
       <r>    18.9173     0.2477     7.1730 </r>
       <r>    19.0845     0.3190     7.2264 </r>
       <r>    19.2516     0.4106     7.2950 </r>
       <r>    19.4188     0.1705     7.3235 </r>
       <r>    19.5859     0.0633     7.3341 </r>
       <r>    19.7531     0.0704     7.3458 </r>
       <r>    19.9202     0.0978     7.3622 </r>
       <r>    20.0874     0.3069     7.4135 </r>
       <r>    20.2545     0.2502     7.4553 </r>
       <r>    20.4217     0.0806     7.4688 </r>
       <r>    20.5889     0.0147     7.4712 </r>
       <r>    20.7560     0.1726     7.5001 </r>
       <r>    20.9232     0.2871     7.5481 </r>
       <r>    21.0903     0.1664     7.5759 </r>
       <r>    21.2575     0.0204     7.5793 </r>
       <r>    21.4246     0.0539     7.5883 </r>
       <r>    21.5918     0.1822     7.6187 </r>
       <r>    21.7589     0.2853     7.6664 </r>
       <r>    21.9261     0.4089     7.7348 </r>
       <r>    22.0932     0.2963     7.7843 </r>
       <r>    22.2604     0.2559     7.8271 </r>
       <r>    22.4275     0.3852     7.8915 </r>
       <r>    22.5947     0.3493     7.9499 </r>
       <r>    22.7618     0.2575     7.9929 </r>
       <r>    22.9290     0.1347     8.0154 </r>
       <r>    23.0961     0.2650     8.0597 </r>
       <r>    23.2633     0.3332     8.1154 </r>
       <r>    23.4305     0.3441     8.1729 </r>
       <r>    23.5976     0.3305     8.2282 </r>
       <r>    23.7648     0.1835     8.2589 </r>
       <r>    23.9319     0.0851     8.2731 </r>
       <r>    24.0991     0.1621     8.3002 </r>
       <r>    24.2662     0.2050     8.3344 </r>
       <r>    24.4334     0.3017     8.3849 </r>
       <r>    24.6005     0.2885     8.4331 </r>
       <r>    24.7677     0.2976     8.4828 </r>
       <r>    24.9348     0.3011     8.5332 </r>
       <r>    25.1020     0.2875     8.5812 </r>
       <r>    25.2691     0.4625     8.6585 </r>
       <r>    25.4363     0.2909     8.7072 </r>
       <r>    25.6034     0.2481     8.7486 </r>
       <r>    25.7706     0.3800     8.8121 </r>
       <r>    25.9377     0.2347     8.8514 </r>
       <r>    26.1049     0.0184     8.8545 </r>
       <r>    26.2720     0.0288     8.8593 </r>
       <r>    26.4392     0.1153     8.8785 </r>
       <r>    26.6064     0.1203     8.8986 </r>
       <r>    26.7735     0.3033     8.9493 </r>
       <r>    26.9407     0.3310     9.0047 </r>
       <r>    27.1078     0.2163     9.0408 </r>
       <r>    27.2750     0.1194     9.0608 </r>
       <r>    27.4421     0.0165     9.0635 </r>
       <r>    27.6093     0.1382     9.0866 </r>
       <r>    27.7764     0.1298     9.1083 </r>
       <r>    27.9436     0.1110     9.1269 </r>
       <r>    28.1107     0.3263     9.1814 </r>
       <r>    28.2779     0.2504     9.2233 </r>
       <r>    28.4450     0.1586     9.2498 </r>
       <r>    28.6122     0.1041     9.2672 </r>
       <r>    28.7793     0.1060     9.2849 </r>
       <r>    28.9465     0.1935     9.3173 </r>
       <r>    29.1136     0.2586     9.3605 </r>
       <r>    29.2808     0.3005     9.4107 </r>
       <r>    29.4479     0.6368     9.5172 </r>
       <r>    29.6151     0.6086     9.6189 </r>
       <r>    29.7823     0.2537     9.6613 </r>
       <r>    29.9494     0.1551     9.6872 </r>
       <r>    30.1166     0.1809     9.7175 </r>
       <r>    30.2837     0.1511     9.7427 </r>
       <r>    30.4509     0.0885     9.7575 </r>
       <r>    30.6180     0.0897     9.7725 </r>
       <r>    30.7852     0.0626     9.7830 </r>
       <r>    30.9523     0.0517     9.7916 </r>
       <r>    31.1195     0.0017     9.7919 </r>
       <r>    31.2866     0.1287     9.8134 </r>
       <r>    31.4538     0.3539     9.8726 </r>
       <r>    31.6209     0.3902     9.9378 </r>
       <r>    31.7881     0.2649     9.9821 </r>
       <r>    31.9552     0.4008    10.0490 </r>
       <r>    32.1224     0.3287    10.1040 </r>
       <r>    32.2895     0.1606    10.1308 </r>
       <r>    32.4567     0.6573    10.2407 </r>
       <r>    32.6238     0.6333    10.3466 </r>
       <r>    32.7910     0.1448    10.3708 </r>
       <r>    32.9582     0.1545    10.3966 </r>
       <r>    33.1253     0.1370    10.4195 </r>
       <r>    33.2925     0.1918    10.4515 </r>
       <r>    33.4596     0.3509    10.5102 </r>
       <r>    33.6268     0.3987    10.5768 </r>
       <r>    33.7939     0.1927    10.6090 </r>
       <r>    33.9611     0.1808    10.6393 </r>
       <r>    34.1282     0.1700    10.6677 </r>
       <r>    34.2954     0.0369    10.6738 </r>
       <r>    34.4625     0.0942    10.6896 </r>
       <r>    34.6297     0.2673    10.7343 </r>
       <r>    34.7968     0.2495    10.7760 </r>
       <r>    34.9640     0.2356    10.8153 </r>
       <r>    35.1311     0.4011    10.8824 </r>
       <r>    35.2983     0.2777    10.9288 </r>
       <r>    35.4654     0.2275    10.9668 </r>
       <r>    35.6326     0.4152    11.0362 </r>
       <r>    35.7997     0.5178    11.1228 </r>
       <r>    35.9669     0.3682    11.1843 </r>
       <r>    36.1341     0.2215    11.2213 </r>
       <r>    36.3012     0.0800    11.2347 </r>
       <r>    36.4684     0.0781    11.2478 </r>
       <r>    36.6355     0.1654    11.2754 </r>
       <r>    36.8027     0.3772    11.3385 </r>
       <r>    36.9698     0.3320    11.3940 </r>
       <r>    37.1370     0.3705    11.4559 </r>
       <r>    37.3041     0.2412    11.4962 </r>
       <r>    37.4713     0.2644    11.5404 </r>
       <r>    37.6384     0.3557    11.5998 </r>
       <r>    37.8056     0.0996    11.6165 </r>
       <r>    37.9727     0.0403    11.6232 </r>
       <r>    38.1399     0.0891    11.6381 </r>
       <r>    38.3070     0.0324    11.6436 </r>
       <r>    38.4742     0.0791    11.6568 </r>
       <r>    38.6413     0.1248    11.6776 </r>
       <r>    38.8085     0.1465    11.7021 </r>
       <r>    38.9756     0.2254    11.7398 </r>
       <r>    39.1428     0.2300    11.7783 </r>
       <r>    39.3100     0.0683    11.7897 </r>
       <r>    39.4771     0.0816    11.8033 </r>
       <r>    39.6443     0.0794    11.8166 </r>
       <r>    39.8114     0.1097    11.8349 </r>
       <r>    39.9786     0.0532    11.8438 </r>
       <r>    40.1457     0.0929    11.8594 </r>
       <r>    40.3129     0.1176    11.8790 </r>
       <r>    40.4800     0.1213    11.8993 </r>
       <r>    40.6472     0.0569    11.9088 </r>
       <r>    40.8143    -0.0020    11.9085 </r>
       <r>    40.9815     0.0216    11.9121 </r>
       <r>    41.1486     0.0193    11.9153 </r>
       <r>    41.3158     0.0620    11.9257 </r>
       <r>    41.4829     0.1414    11.9493 </r>
       <r>    41.6501     0.0874    11.9639 </r>
       <r>    41.8172     0.0043    11.9646 </r>
       <r>    41.9844    -0.0035    11.9640 </r>
       <r>    42.1515    -0.0007    11.9639 </r>
       <r>    42.3187    -0.0009    11.9638 </r>
       <r>    42.4859     0.0090    11.9653 </r>
       <r>    42.6530     0.0322    11.9707 </r>
       <r>    42.8202     0.0984    11.9871 </r>
       <r>    42.9873     0.0768    12.0000 </r>
       <r>    43.1545     0.0033    12.0005 </r>
       <r>    43.3216    -0.0028    12.0000 </r>
       <r>    43.4888    -0.0002    12.0000 </r>
       <r>    43.6559    -0.0000    12.0000 </r>
       <r>    43.8231    -0.0000    12.0000 </r>
       <r>    43.9902    -0.0000    12.0000 </r>
       <r>    44.1574    -0.0000    12.0000 </r>
       <r>    44.3245     0.0000    12.0000 </r>
       <r>    44.4917     0.0000    12.0000 </r>
       <r>    44.6588     0.0000    12.0000 </r>
       <r>    44.8260     0.0000    12.0000 </r>
       <r>    44.9931     0.0000    12.0000 </r>
       <r>    45.1603     0.0000    12.0000 </r>
      </set>
     </set>
    </array>
   </total>
  </dos>
 </calculation>
 <structure name="finalpos" >
  <crystal>
   <varray name="basis" >
    <v>      -1.45000000       1.45000000       1.45000000 </v>
    <v>       1.45000000      -1.45000000       1.45000000 </v>
    <v>       1.45000000       1.45000000      -1.45000000 </v>
   </varray>
   <i name="volume">     12.19450000 </i>
   <varray name="rec_basis" >
    <v>       0.00000000       0.34482759       0.34482759 </v>
    <v>       0.34482759       0.00000000       0.34482759 </v>
    <v>       0.34482759       0.34482759       0.00000000 </v>
   </varray>
  </crystal>
  <varray name="positions" >
   <v>       0.00000000       0.00000000       0.00000000 </v>
  </varray>
 </structure>
</modeling>
