   1   1   1   0
  0.1529104E+02  0.2708235E-09  0.2708235E-09  0.2708235E-09  0.5000000E-15
  1.000000000000000E-004
  CAR 
 BCC W                                   
     30.89336669     -3.51812397 3001      8.38798006      1.00000000
     -3.518  0.0000E+00  0.0000E+00
     -3.507  0.0000E+00  0.0000E+00
     -3.495  0.0000E+00  0.0000E+00
     -3.484  0.0000E+00  0.0000E+00
     -3.472  0.0000E+00  0.0000E+00
     -3.461  0.0000E+00  0.0000E+00
     -3.449  0.0000E+00  0.0000E+00
     -3.438  0.0000E+00  0.0000E+00
     -3.426  0.0000E+00  0.0000E+00
     -3.415  0.0000E+00  0.0000E+00
     -3.403  0.0000E+00  0.0000E+00
     -3.392  0.0000E+00  0.0000E+00
     -3.380  0.0000E+00  0.0000E+00
     -3.369  0.0000E+00  0.0000E+00
     -3.358  0.0000E+00  0.0000E+00
     -3.346  0.0000E+00  0.0000E+00
     -3.335  0.0000E+00  0.0000E+00
     -3.323  0.0000E+00  0.0000E+00
     -3.312  0.0000E+00  0.0000E+00
     -3.300  0.0000E+00  0.0000E+00
     -3.289  0.0000E+00  0.0000E+00
     -3.277  0.0000E+00  0.0000E+00
     -3.266  0.0000E+00  0.0000E+00
     -3.254  0.0000E+00  0.0000E+00
     -3.243  0.0000E+00  0.0000E+00
     -3.231  0.0000E+00  0.0000E+00
     -3.220  0.0000E+00  0.0000E+00
     -3.208  0.0000E+00  0.0000E+00
     -3.197  0.0000E+00  0.0000E+00
     -3.185  0.0000E+00  0.0000E+00
     -3.174  0.0000E+00  0.0000E+00
     -3.163  0.0000E+00  0.0000E+00
     -3.151  0.0000E+00  0.0000E+00
     -3.140  0.0000E+00  0.0000E+00
     -3.128 -0.8537E-27 -0.9792E-29
     -3.117 -0.1273E-26 -0.2440E-28
     -3.105 -0.3138E-26 -0.6039E-28
     -3.094 -0.7963E-26 -0.1517E-27
     -3.082 -0.1910E-25 -0.3708E-27
     -3.071 -0.4659E-25 -0.9051E-27
     -3.059 -0.1117E-24 -0.2186E-26
     -3.048 -0.2661E-24 -0.5238E-26
     -3.036 -0.6303E-24 -0.1247E-25
     -3.025 -0.1483E-23 -0.2948E-25
     -3.013 -0.3467E-23 -0.6926E-25
     -3.002 -0.8051E-23 -0.1616E-24
     -2.990 -0.1857E-22 -0.3746E-24
     -2.979 -0.4255E-22 -0.8627E-24
     -2.968 -0.9684E-22 -0.1973E-23
     -2.956 -0.2189E-21 -0.4485E-23
     -2.945 -0.4916E-21 -0.1012E-22
     -2.933 -0.1097E-20 -0.2270E-22
     -2.922 -0.2430E-20 -0.5058E-22
     -2.910 -0.5349E-20 -0.1119E-21
     -2.899 -0.1170E-19 -0.2461E-21
     -2.887 -0.2540E-19 -0.5374E-21
     -2.876 -0.5480E-19 -0.1166E-20
     -2.864 -0.1174E-18 -0.2513E-20
     -2.853 -0.2500E-18 -0.5380E-20
     -2.841 -0.5285E-18 -0.1144E-19
     -2.830 -0.1110E-17 -0.2418E-19
     -2.818 -0.2316E-17 -0.5074E-19
     -2.807 -0.4799E-17 -0.1058E-18
     -2.795 -0.9880E-17 -0.2191E-18
     -2.784 -0.2020E-16 -0.4508E-18
     -2.773 -0.4103E-16 -0.9215E-18
     -2.761 -0.8277E-16 -0.1871E-17
     -2.750 -0.1659E-15 -0.3774E-17
     -2.738 -0.3302E-15 -0.7561E-17
     -2.727 -0.6528E-15 -0.1505E-16
     -2.715 -0.1282E-14 -0.2975E-16
     -2.704 -0.2501E-14 -0.5844E-16
     -2.692 -0.4556E-14 -0.1107E-15
     -2.681 -0.9037E-14 -0.2144E-15
     -2.669 -0.1725E-13 -0.4122E-15
     -2.658 -0.3289E-13 -0.7895E-15
     -2.646 -0.6193E-13 -0.1500E-14
     -2.635 -0.1157E-12 -0.2827E-14
     -2.623 -0.2154E-12 -0.5297E-14
     -2.612 -0.3979E-12 -0.9861E-14
     -2.600 -0.7295E-12 -0.1823E-13
     -2.589 -0.1330E-11 -0.3348E-13
     -2.578 -0.2406E-11 -0.6108E-13
     -2.566 -0.4325E-11 -0.1107E-12
     -2.555 -0.7723E-11 -0.1993E-12
     -2.543 -0.1369E-10 -0.3564E-12
     -2.532 -0.2412E-10 -0.6330E-12
     -2.520 -0.4219E-10 -0.1117E-11
     -2.509 -0.7330E-10 -0.1958E-11
     -2.497 -0.1265E-09 -0.3409E-11
     -2.486 -0.2168E-09 -0.5895E-11
     -2.474 -0.3689E-09 -0.1013E-10
     -2.463 -0.6237E-09 -0.1728E-10
     -2.451 -0.1047E-08 -0.2929E-10
     -2.440 -0.1746E-08 -0.4932E-10
     -2.428 -0.2891E-08 -0.8249E-10
     -2.417 -0.4755E-08 -0.1370E-09
     -2.405 -0.7767E-08 -0.2261E-09
     -2.394 -0.1260E-07 -0.3706E-09
     -2.383 -0.2030E-07 -0.6034E-09
     -2.371 -0.3247E-07 -0.9759E-09
     -2.360 -0.5158E-07 -0.1568E-08
     -2.348 -0.8139E-07 -0.2501E-08
     -2.337 -0.1275E-06 -0.3964E-08
     -2.325 -0.1984E-06 -0.6239E-08
     -2.314 -0.3065E-06 -0.9756E-08
     -2.302 -0.4703E-06 -0.1515E-07
     -2.291 -0.7165E-06 -0.2337E-07
     -2.279 -0.1084E-05 -0.3580E-07
     -2.268 -0.1628E-05 -0.5448E-07
     -2.256 -0.2429E-05 -0.8234E-07
     -2.245 -0.3597E-05 -0.1236E-06
     -2.233 -0.5290E-05 -0.1843E-06
     -2.222 -0.7723E-05 -0.2729E-06
     -2.210 -0.1120E-04 -0.4013E-06
     -2.199 -0.1611E-04 -0.5861E-06
     -2.188 -0.2302E-04 -0.8502E-06
     -2.176 -0.3266E-04 -0.1225E-05
     -2.165 -0.4599E-04 -0.1752E-05
     -2.153 -0.6429E-04 -0.2490E-05
     -2.142 -0.8921E-04 -0.3513E-05
     -2.130 -0.1229E-03 -0.4922E-05
     -2.119 -0.1680E-03 -0.6849E-05
     -2.107 -0.2279E-03 -0.9464E-05
     -2.096 -0.3070E-03 -0.1299E-04
     -2.084 -0.4103E-03 -0.1769E-04
     -2.073 -0.5441E-03 -0.2393E-04
     -2.061 -0.7160E-03 -0.3214E-04
     -2.050 -0.9348E-03 -0.4287E-04
     -2.038 -0.1211E-02 -0.5676E-04
     -2.027 -0.1556E-02 -0.7460E-04
     -2.015 -0.1983E-02 -0.9735E-04
     -2.004 -0.2506E-02 -0.1261E-03
     -1.993 -0.3141E-02 -0.1621E-03
     -1.981 -0.3904E-02 -0.2069E-03
     -1.970 -0.4809E-02 -0.2621E-03
     -1.958 -0.5870E-02 -0.3294E-03
     -1.947 -0.7100E-02 -0.4108E-03
     -1.935 -0.8507E-02 -0.5084E-03
     -1.924 -0.1009E-01 -0.6242E-03
     -1.912 -0.1185E-01 -0.7601E-03
     -1.901 -0.1377E-01 -0.9180E-03
     -1.889 -0.1581E-01 -0.1099E-02
     -1.878 -0.1795E-01 -0.1305E-02
     -1.866 -0.2011E-01 -0.1536E-02
     -1.855 -0.2222E-01 -0.1791E-02
     -1.843 -0.2418E-01 -0.2068E-02
     -1.832 -0.2585E-01 -0.2365E-02
     -1.820 -0.2710E-01 -0.2676E-02
     -1.809 -0.2775E-01 -0.2994E-02
     -1.798 -0.2759E-01 -0.3310E-02
     -1.786 -0.2643E-01 -0.3613E-02
     -1.775 -0.2402E-01 -0.3889E-02
     -1.763 -0.2012E-01 -0.4120E-02
     -1.752 -0.1449E-01 -0.4286E-02
     -1.740 -0.6886E-02 -0.4365E-02
     -1.729  0.2911E-02 -0.4331E-02
     -1.717  0.1510E-01 -0.4158E-02
     -1.706  0.2985E-01 -0.3816E-02
     -1.694  0.4726E-01 -0.3274E-02
     -1.683  0.6740E-01 -0.2501E-02
     -1.671  0.9026E-01 -0.1465E-02
     -1.660  0.1157E+00 -0.1378E-03
     -1.648  0.1437E+00  0.1510E-02
     -1.637  0.1738E+00  0.3504E-02
     -1.625  0.2058E+00  0.5865E-02
     -1.614  0.2393E+00  0.8610E-02
     -1.603  0.2738E+00  0.1175E-01
     -1.591  0.3088E+00  0.1529E-01
     -1.580  0.3436E+00  0.1923E-01
     -1.568  0.3778E+00  0.2357E-01
     -1.557  0.4106E+00  0.2828E-01
     -1.545  0.4416E+00  0.3334E-01
     -1.534  0.4700E+00  0.3873E-01
     -1.522  0.4956E+00  0.4442E-01
     -1.511  0.5178E+00  0.5036E-01
     -1.499  0.5362E+00  0.5651E-01
     -1.488  0.5508E+00  0.6283E-01
     -1.476  0.5612E+00  0.6926E-01
     -1.465  0.5675E+00  0.7577E-01
     -1.453  0.5697E+00  0.8231E-01
     -1.442  0.5681E+00  0.8882E-01
     -1.430  0.5628E+00  0.9528E-01
     -1.419  0.5542E+00  0.1016E+00
     -1.408  0.5427E+00  0.1079E+00
     -1.396  0.5288E+00  0.1139E+00
     -1.385  0.5127E+00  0.1198E+00
     -1.373  0.4951E+00  0.1255E+00
     -1.362  0.4763E+00  0.1310E+00
     -1.350  0.4568E+00  0.1362E+00
     -1.339  0.4370E+00  0.1412E+00
     -1.327  0.4171E+00  0.1460E+00
     -1.316  0.3976E+00  0.1505E+00
     -1.304  0.3785E+00  0.1549E+00
     -1.293  0.3601E+00  0.1590E+00
     -1.281  0.3426E+00  0.1630E+00
     -1.270  0.3260E+00  0.1667E+00
     -1.258  0.3104E+00  0.1703E+00
     -1.247  0.2959E+00  0.1736E+00
     -1.235  0.2825E+00  0.1769E+00
     -1.224  0.2702E+00  0.1800E+00
     -1.213  0.2589E+00  0.1830E+00
     -1.201  0.2487E+00  0.1858E+00
     -1.190  0.2396E+00  0.1886E+00
     -1.178  0.2315E+00  0.1912E+00
     -1.167  0.2245E+00  0.1938E+00
     -1.155  0.2184E+00  0.1963E+00
     -1.144  0.2134E+00  0.1987E+00
     -1.132  0.2093E+00  0.2011E+00
     -1.121  0.2060E+00  0.2035E+00
     -1.109  0.2036E+00  0.2058E+00
     -1.098  0.2020E+00  0.2082E+00
     -1.086  0.2010E+00  0.2105E+00
     -1.075  0.2005E+00  0.2128E+00
     -1.063  0.2005E+00  0.2151E+00
     -1.052  0.2008E+00  0.2174E+00
     -1.040  0.2012E+00  0.2197E+00
     -1.029  0.2017E+00  0.2220E+00
     -1.018  0.2021E+00  0.2243E+00
     -1.006  0.2023E+00  0.2266E+00
     -0.995  0.2022E+00  0.2289E+00
     -0.983  0.2017E+00  0.2313E+00
     -0.972  0.2009E+00  0.2336E+00
     -0.960  0.1997E+00  0.2359E+00
     -0.949  0.1981E+00  0.2381E+00
     -0.937  0.1962E+00  0.2404E+00
     -0.926  0.1940E+00  0.2426E+00
     -0.914  0.1916E+00  0.2448E+00
     -0.903  0.1891E+00  0.2470E+00
     -0.891  0.1866E+00  0.2491E+00
     -0.880  0.1842E+00  0.2512E+00
     -0.868  0.1820E+00  0.2533E+00
     -0.857  0.1800E+00  0.2554E+00
     -0.845  0.1783E+00  0.2574E+00
     -0.834  0.1769E+00  0.2594E+00
     -0.823  0.1758E+00  0.2615E+00
     -0.811  0.1749E+00  0.2635E+00
     -0.800  0.1742E+00  0.2655E+00
     -0.788  0.1737E+00  0.2675E+00
     -0.777  0.1730E+00  0.2694E+00
     -0.765  0.1723E+00  0.2714E+00
     -0.754  0.1713E+00  0.2734E+00
     -0.742  0.1700E+00  0.2753E+00
     -0.731  0.1682E+00  0.2773E+00
     -0.719  0.1659E+00  0.2792E+00
     -0.708  0.1630E+00  0.2810E+00
     -0.696  0.1596E+00  0.2829E+00
     -0.685  0.1557E+00  0.2847E+00
     -0.673  0.1514E+00  0.2864E+00
     -0.662  0.1467E+00  0.2881E+00
     -0.650  0.1419E+00  0.2897E+00
     -0.639  0.1370E+00  0.2913E+00
     -0.628  0.1324E+00  0.2928E+00
     -0.616  0.1281E+00  0.2943E+00
     -0.605  0.1245E+00  0.2957E+00
     -0.593  0.1216E+00  0.2971E+00
     -0.582  0.1197E+00  0.2985E+00
     -0.570  0.1188E+00  0.2998E+00
     -0.559  0.1192E+00  0.3012E+00
     -0.547  0.1208E+00  0.3026E+00
     -0.536  0.1237E+00  0.3040E+00
     -0.524  0.1279E+00  0.3055E+00
     -0.513  0.1331E+00  0.3070E+00
     -0.501  0.1393E+00  0.3086E+00
     -0.490  0.1464E+00  0.3103E+00
     -0.478  0.1540E+00  0.3120E+00
     -0.467  0.1620E+00  0.3139E+00
     -0.456  0.1700E+00  0.3158E+00
     -0.444  0.1778E+00  0.3179E+00
     -0.433  0.1851E+00  0.3200E+00
     -0.421  0.1916E+00  0.3222E+00
     -0.410  0.1971E+00  0.3245E+00
     -0.398  0.2013E+00  0.3268E+00
     -0.387  0.2041E+00  0.3291E+00
     -0.375  0.2053E+00  0.3315E+00
     -0.364  0.2047E+00  0.3338E+00
     -0.352  0.2025E+00  0.3361E+00
     -0.341  0.1985E+00  0.3384E+00
     -0.329  0.1928E+00  0.3406E+00
     -0.318  0.1855E+00  0.3427E+00
     -0.306  0.1768E+00  0.3448E+00
     -0.295  0.1670E+00  0.3467E+00
     -0.283  0.1561E+00  0.3485E+00
     -0.272  0.1445E+00  0.3501E+00
     -0.261  0.1325E+00  0.3517E+00
     -0.249  0.1204E+00  0.3530E+00
     -0.238  0.1085E+00  0.3543E+00
     -0.226  0.9710E-01  0.3554E+00
     -0.215  0.8646E-01  0.3564E+00
     -0.203  0.7686E-01  0.3573E+00
     -0.192  0.6853E-01  0.3581E+00
     -0.180  0.6170E-01  0.3588E+00
     -0.169  0.5650E-01  0.3594E+00
     -0.157  0.5307E-01  0.3600E+00
     -0.146  0.5148E-01  0.3606E+00
     -0.134  0.5175E-01  0.3612E+00
     -0.123  0.5387E-01  0.3618E+00
     -0.111  0.5776E-01  0.3625E+00
     -0.100  0.6332E-01  0.3632E+00
     -0.088  0.7040E-01  0.3640E+00
     -0.077  0.7881E-01  0.3649E+00
     -0.066  0.8835E-01  0.3659E+00
     -0.054  0.9877E-01  0.3671E+00
     -0.043  0.1098E+00  0.3683E+00
     -0.031  0.1213E+00  0.3697E+00
     -0.020  0.1328E+00  0.3712E+00
     -0.008  0.1442E+00  0.3729E+00
      0.003  0.1551E+00  0.3747E+00
      0.015  0.1654E+00  0.3766E+00
      0.026  0.1748E+00  0.3786E+00
      0.038  0.1831E+00  0.3807E+00
      0.049  0.1901E+00  0.3829E+00
      0.061  0.1958E+00  0.3851E+00
      0.072  0.2000E+00  0.3874E+00
      0.084  0.2027E+00  0.3897E+00
      0.095  0.2039E+00  0.3921E+00
      0.107  0.2035E+00  0.3944E+00
      0.118  0.2017E+00  0.3967E+00
      0.129  0.1986E+00  0.3990E+00
      0.141  0.1942E+00  0.4012E+00
      0.152  0.1888E+00  0.4034E+00
      0.164  0.1824E+00  0.4055E+00
      0.175  0.1754E+00  0.4075E+00
      0.187  0.1679E+00  0.4094E+00
      0.198  0.1600E+00  0.4113E+00
      0.210  0.1521E+00  0.4130E+00
      0.221  0.1441E+00  0.4146E+00
      0.233  0.1364E+00  0.4162E+00
      0.244  0.1289E+00  0.4177E+00
      0.256  0.1219E+00  0.4191E+00
      0.267  0.1153E+00  0.4204E+00
      0.279  0.1093E+00  0.4217E+00
      0.290  0.1037E+00  0.4229E+00
      0.302  0.9856E-01  0.4240E+00
      0.313  0.9388E-01  0.4251E+00
      0.324  0.8955E-01  0.4261E+00
      0.336  0.8552E-01  0.4271E+00
      0.347  0.8171E-01  0.4280E+00
      0.359  0.7805E-01  0.4289E+00
      0.370  0.7451E-01  0.4298E+00
      0.382  0.7104E-01  0.4306E+00
      0.393  0.6765E-01  0.4313E+00
      0.405  0.6436E-01  0.4321E+00
      0.416  0.6122E-01  0.4328E+00
      0.428  0.5833E-01  0.4335E+00
      0.439  0.5580E-01  0.4341E+00
      0.451  0.5377E-01  0.4347E+00
      0.462  0.5240E-01  0.4353E+00
      0.474  0.5186E-01  0.4359E+00
      0.485  0.5232E-01  0.4365E+00
      0.497  0.5394E-01  0.4371E+00
      0.508  0.5686E-01  0.4378E+00
      0.519  0.6120E-01  0.4385E+00
      0.531  0.6702E-01  0.4393E+00
      0.542  0.7437E-01  0.4401E+00
      0.554  0.8321E-01  0.4411E+00
      0.565  0.9346E-01  0.4421E+00
      0.577  0.1050E+00  0.4433E+00
      0.588  0.1176E+00  0.4447E+00
      0.600  0.1311E+00  0.4462E+00
      0.611  0.1451E+00  0.4479E+00
      0.623  0.1593E+00  0.4497E+00
      0.634  0.1733E+00  0.4517E+00
      0.646  0.1868E+00  0.4538E+00
      0.657  0.1994E+00  0.4561E+00
      0.669  0.2107E+00  0.4585E+00
      0.680  0.2204E+00  0.4610E+00
      0.692  0.2282E+00  0.4637E+00
      0.703  0.2339E+00  0.4663E+00
      0.714  0.2372E+00  0.4691E+00
      0.726  0.2380E+00  0.4718E+00
      0.737  0.2363E+00  0.4745E+00
      0.749  0.2321E+00  0.4772E+00
      0.760  0.2256E+00  0.4798E+00
      0.772  0.2169E+00  0.4822E+00
      0.783  0.2062E+00  0.4846E+00
      0.795  0.1938E+00  0.4868E+00
      0.806  0.1802E+00  0.4889E+00
      0.818  0.1655E+00  0.4908E+00
      0.829  0.1503E+00  0.4925E+00
      0.841  0.1349E+00  0.4941E+00
      0.852  0.1196E+00  0.4954E+00
      0.864  0.1049E+00  0.4966E+00
      0.875  0.9101E-01  0.4977E+00
      0.887  0.7829E-01  0.4986E+00
      0.898  0.6693E-01  0.4993E+00
      0.909  0.5712E-01  0.5000E+00
      0.921  0.4900E-01  0.5006E+00
      0.932  0.4262E-01  0.5011E+00
      0.944  0.3803E-01  0.5015E+00
      0.955  0.3517E-01  0.5019E+00
      0.967  0.3399E-01  0.5023E+00
      0.978  0.3437E-01  0.5027E+00
      0.990  0.3617E-01  0.5031E+00
      1.001  0.3923E-01  0.5035E+00
      1.013  0.4336E-01  0.5040E+00
      1.024  0.4839E-01  0.5046E+00
      1.036  0.5413E-01  0.5052E+00
      1.047  0.6042E-01  0.5059E+00
      1.059  0.6708E-01  0.5067E+00
      1.070  0.7398E-01  0.5075E+00
      1.082  0.8100E-01  0.5085E+00
      1.093  0.8805E-01  0.5095E+00
      1.104  0.9506E-01  0.5106E+00
      1.116  0.1020E+00  0.5117E+00
      1.127  0.1087E+00  0.5130E+00
      1.139  0.1154E+00  0.5143E+00
      1.150  0.1219E+00  0.5157E+00
      1.162  0.1283E+00  0.5172E+00
      1.173  0.1346E+00  0.5187E+00
      1.185  0.1408E+00  0.5203E+00
      1.196  0.1470E+00  0.5220E+00
      1.208  0.1530E+00  0.5238E+00
      1.219  0.1589E+00  0.5256E+00
      1.231  0.1646E+00  0.5275E+00
      1.242  0.1700E+00  0.5294E+00
      1.254  0.1751E+00  0.5314E+00
      1.265  0.1798E+00  0.5335E+00
      1.277  0.1839E+00  0.5356E+00
      1.288  0.1873E+00  0.5378E+00
      1.299  0.1899E+00  0.5399E+00
      1.311  0.1915E+00  0.5421E+00
      1.322  0.1921E+00  0.5443E+00
      1.334  0.1914E+00  0.5465E+00
      1.345  0.1895E+00  0.5487E+00
      1.357  0.1863E+00  0.5508E+00
      1.368  0.1819E+00  0.5529E+00
      1.380  0.1763E+00  0.5550E+00
      1.391  0.1696E+00  0.5569E+00
      1.403  0.1622E+00  0.5588E+00
      1.414  0.1542E+00  0.5605E+00
      1.426  0.1461E+00  0.5622E+00
      1.437  0.1381E+00  0.5638E+00
      1.449  0.1310E+00  0.5653E+00
      1.460  0.1251E+00  0.5667E+00
      1.472  0.1210E+00  0.5681E+00
      1.483  0.1194E+00  0.5695E+00
      1.494  0.1208E+00  0.5709E+00
      1.506  0.1260E+00  0.5723E+00
      1.517  0.1354E+00  0.5739E+00
      1.529  0.1495E+00  0.5756E+00
      1.540  0.1689E+00  0.5775E+00
      1.552  0.1939E+00  0.5797E+00
      1.563  0.2247E+00  0.5823E+00
      1.575  0.2613E+00  0.5853E+00
      1.586  0.3037E+00  0.5888E+00
      1.598  0.3516E+00  0.5928E+00
      1.609  0.4045E+00  0.5975E+00
      1.621  0.4620E+00  0.6028E+00
      1.632  0.5230E+00  0.6088E+00
      1.644  0.5868E+00  0.6155E+00
      1.655  0.6521E+00  0.6230E+00
      1.667  0.7177E+00  0.6312E+00
      1.678  0.7824E+00  0.6402E+00
      1.689  0.8447E+00  0.6499E+00
      1.701  0.9033E+00  0.6602E+00
      1.712  0.9570E+00  0.6712E+00
      1.724  0.1004E+01  0.6827E+00
      1.735  0.1045E+01  0.6947E+00
      1.747  0.1077E+01  0.7071E+00
      1.758  0.1100E+01  0.7197E+00
      1.770  0.1114E+01  0.7325E+00
      1.781  0.1119E+01  0.7453E+00
      1.793  0.1114E+01  0.7581E+00
      1.804  0.1102E+01  0.7707E+00
      1.816  0.1081E+01  0.7831E+00
      1.827  0.1053E+01  0.7952E+00
      1.839  0.1019E+01  0.8069E+00
      1.850  0.9817E+00  0.8181E+00
      1.862  0.9411E+00  0.8289E+00
      1.873  0.8993E+00  0.8393E+00
      1.884  0.8578E+00  0.8491E+00
      1.896  0.8184E+00  0.8585E+00
      1.907  0.7823E+00  0.8675E+00
      1.919  0.7510E+00  0.8761E+00
      1.930  0.7256E+00  0.8844E+00
      1.942  0.7069E+00  0.8925E+00
      1.953  0.6957E+00  0.9005E+00
      1.965  0.6923E+00  0.9084E+00
      1.976  0.6967E+00  0.9164E+00
      1.988  0.7087E+00  0.9245E+00
      1.999  0.7279E+00  0.9329E+00
      2.011  0.7536E+00  0.9415E+00
      2.022  0.7847E+00  0.9505E+00
      2.034  0.8203E+00  0.9599E+00
      2.045  0.8591E+00  0.9698E+00
      2.057  0.8997E+00  0.9801E+00
      2.068  0.9408E+00  0.9909E+00
      2.079  0.9811E+00  0.1002E+01
      2.091  0.1019E+01  0.1014E+01
      2.102  0.1054E+01  0.1026E+01
      2.114  0.1085E+01  0.1038E+01
      2.125  0.1111E+01  0.1051E+01
      2.137  0.1131E+01  0.1064E+01
      2.148  0.1145E+01  0.1077E+01
      2.160  0.1153E+01  0.1090E+01
      2.171  0.1154E+01  0.1104E+01
      2.183  0.1149E+01  0.1117E+01
      2.194  0.1139E+01  0.1130E+01
      2.206  0.1123E+01  0.1143E+01
      2.217  0.1103E+01  0.1156E+01
      2.229  0.1080E+01  0.1168E+01
      2.240  0.1053E+01  0.1180E+01
      2.252  0.1024E+01  0.1192E+01
      2.263  0.9932E+00  0.1203E+01
      2.274  0.9621E+00  0.1214E+01
      2.286  0.9310E+00  0.1225E+01
      2.297  0.9005E+00  0.1235E+01
      2.309  0.8711E+00  0.1245E+01
      2.320  0.8432E+00  0.1255E+01
      2.332  0.8170E+00  0.1264E+01
      2.343  0.7928E+00  0.1273E+01
      2.355  0.7706E+00  0.1282E+01
      2.366  0.7504E+00  0.1291E+01
      2.378  0.7322E+00  0.1299E+01
      2.389  0.7159E+00  0.1307E+01
      2.401  0.7013E+00  0.1315E+01
      2.412  0.6883E+00  0.1323E+01
      2.424  0.6767E+00  0.1331E+01
      2.435  0.6663E+00  0.1339E+01
      2.447  0.6571E+00  0.1346E+01
      2.458  0.6489E+00  0.1354E+01
      2.469  0.6416E+00  0.1361E+01
      2.481  0.6351E+00  0.1368E+01
      2.492  0.6293E+00  0.1376E+01
      2.504  0.6242E+00  0.1383E+01
      2.515  0.6198E+00  0.1390E+01
      2.527  0.6160E+00  0.1397E+01
      2.538  0.6128E+00  0.1404E+01
      2.550  0.6101E+00  0.1411E+01
      2.561  0.6078E+00  0.1418E+01
      2.573  0.6059E+00  0.1425E+01
      2.584  0.6042E+00  0.1432E+01
      2.596  0.6027E+00  0.1439E+01
      2.607  0.6011E+00  0.1446E+01
      2.619  0.5995E+00  0.1452E+01
      2.630  0.5976E+00  0.1459E+01
      2.642  0.5954E+00  0.1466E+01
      2.653  0.5926E+00  0.1473E+01
      2.664  0.5892E+00  0.1480E+01
      2.676  0.5851E+00  0.1486E+01
      2.687  0.5804E+00  0.1493E+01
      2.699  0.5749E+00  0.1500E+01
      2.710  0.5687E+00  0.1506E+01
      2.722  0.5620E+00  0.1513E+01
      2.733  0.5548E+00  0.1519E+01
      2.745  0.5473E+00  0.1525E+01
      2.756  0.5396E+00  0.1531E+01
      2.768  0.5321E+00  0.1538E+01
      2.779  0.5250E+00  0.1544E+01
      2.791  0.5185E+00  0.1549E+01
      2.802  0.5129E+00  0.1555E+01
      2.814  0.5085E+00  0.1561E+01
      2.825  0.5055E+00  0.1567E+01
      2.837  0.5041E+00  0.1573E+01
      2.848  0.5045E+00  0.1579E+01
      2.859  0.5069E+00  0.1584E+01
      2.871  0.5112E+00  0.1590E+01
      2.882  0.5175E+00  0.1596E+01
      2.894  0.5259E+00  0.1602E+01
      2.905  0.5360E+00  0.1608E+01
      2.917  0.5479E+00  0.1615E+01
      2.928  0.5611E+00  0.1621E+01
      2.940  0.5755E+00  0.1628E+01
      2.951  0.5908E+00  0.1634E+01
      2.963  0.6064E+00  0.1641E+01
      2.974  0.6220E+00  0.1649E+01
      2.986  0.6372E+00  0.1656E+01
      2.997  0.6516E+00  0.1663E+01
      3.009  0.6648E+00  0.1671E+01
      3.020  0.6763E+00  0.1679E+01
      3.032  0.6859E+00  0.1687E+01
      3.043  0.6932E+00  0.1695E+01
      3.054  0.6981E+00  0.1703E+01
      3.066  0.7003E+00  0.1711E+01
      3.077  0.6998E+00  0.1719E+01
      3.089  0.6965E+00  0.1727E+01
      3.100  0.6905E+00  0.1735E+01
      3.112  0.6820E+00  0.1742E+01
      3.123  0.6710E+00  0.1750E+01
      3.135  0.6578E+00  0.1758E+01
      3.146  0.6428E+00  0.1765E+01
      3.158  0.6262E+00  0.1772E+01
      3.169  0.6083E+00  0.1779E+01
      3.181  0.5895E+00  0.1786E+01
      3.192  0.5700E+00  0.1792E+01
      3.204  0.5504E+00  0.1799E+01
      3.215  0.5307E+00  0.1805E+01
      3.227  0.5114E+00  0.1811E+01
      3.238  0.4926E+00  0.1816E+01
      3.249  0.4745E+00  0.1822E+01
      3.261  0.4573E+00  0.1827E+01
      3.272  0.4411E+00  0.1832E+01
      3.284  0.4260E+00  0.1837E+01
      3.295  0.4120E+00  0.1842E+01
      3.307  0.3992E+00  0.1846E+01
      3.318  0.3876E+00  0.1851E+01
      3.330  0.3772E+00  0.1855E+01
      3.341  0.3679E+00  0.1859E+01
      3.353  0.3598E+00  0.1863E+01
      3.364  0.3529E+00  0.1867E+01
      3.376  0.3471E+00  0.1871E+01
      3.387  0.3425E+00  0.1875E+01
      3.399  0.3390E+00  0.1879E+01
      3.410  0.3367E+00  0.1883E+01
      3.422  0.3355E+00  0.1887E+01
      3.433  0.3355E+00  0.1891E+01
      3.444  0.3366E+00  0.1895E+01
      3.456  0.3388E+00  0.1899E+01
      3.467  0.3420E+00  0.1902E+01
      3.479  0.3461E+00  0.1906E+01
      3.490  0.3510E+00  0.1910E+01
      3.502  0.3566E+00  0.1915E+01
      3.513  0.3626E+00  0.1919E+01
      3.525  0.3690E+00  0.1923E+01
      3.536  0.3754E+00  0.1927E+01
      3.548  0.3816E+00  0.1932E+01
      3.559  0.3874E+00  0.1936E+01
      3.571  0.3926E+00  0.1941E+01
      3.582  0.3969E+00  0.1945E+01
      3.594  0.4001E+00  0.1950E+01
      3.605  0.4021E+00  0.1954E+01
      3.617  0.4028E+00  0.1959E+01
      3.628  0.4021E+00  0.1964E+01
      3.639  0.3998E+00  0.1968E+01
      3.651  0.3961E+00  0.1973E+01
      3.662  0.3910E+00  0.1977E+01
      3.674  0.3845E+00  0.1982E+01
      3.685  0.3767E+00  0.1986E+01
      3.697  0.3679E+00  0.1990E+01
      3.708  0.3582E+00  0.1994E+01
      3.720  0.3478E+00  0.1998E+01
      3.731  0.3367E+00  0.2002E+01
      3.743  0.3253E+00  0.2006E+01
      3.754  0.3135E+00  0.2009E+01
      3.766  0.3016E+00  0.2013E+01
      3.777  0.2897E+00  0.2016E+01
      3.789  0.2778E+00  0.2019E+01
      3.800  0.2659E+00  0.2022E+01
      3.812  0.2542E+00  0.2025E+01
      3.823  0.2425E+00  0.2028E+01
      3.834  0.2309E+00  0.2031E+01
      3.846  0.2195E+00  0.2033E+01
      3.857  0.2080E+00  0.2036E+01
      3.869  0.1967E+00  0.2038E+01
      3.880  0.1855E+00  0.2040E+01
      3.892  0.1743E+00  0.2042E+01
      3.903  0.1634E+00  0.2044E+01
      3.915  0.1527E+00  0.2046E+01
      3.926  0.1423E+00  0.2047E+01
      3.938  0.1324E+00  0.2049E+01
      3.949  0.1232E+00  0.2050E+01
      3.961  0.1146E+00  0.2052E+01
      3.972  0.1070E+00  0.2053E+01
      3.984  0.1003E+00  0.2054E+01
      3.995  0.9477E-01  0.2055E+01
      4.007  0.9044E-01  0.2056E+01
      4.018  0.8737E-01  0.2057E+01
      4.029  0.8560E-01  0.2058E+01
      4.041  0.8512E-01  0.2059E+01
      4.052  0.8591E-01  0.2060E+01
      4.064  0.8793E-01  0.2061E+01
      4.075  0.9112E-01  0.2062E+01
      4.087  0.9543E-01  0.2063E+01
      4.098  0.1008E+00  0.2064E+01
      4.110  0.1074E+00  0.2066E+01
      4.121  0.1150E+00  0.2067E+01
      4.133  0.1240E+00  0.2068E+01
      4.144  0.1345E+00  0.2070E+01
      4.156  0.1467E+00  0.2072E+01
      4.167  0.1611E+00  0.2073E+01
      4.179  0.1781E+00  0.2075E+01
      4.190  0.1983E+00  0.2078E+01
      4.202  0.2222E+00  0.2080E+01
      4.213  0.2505E+00  0.2083E+01
      4.224  0.2837E+00  0.2086E+01
      4.236  0.3225E+00  0.2090E+01
      4.247  0.3674E+00  0.2094E+01
      4.259  0.4187E+00  0.2099E+01
      4.270  0.4766E+00  0.2105E+01
      4.282  0.5413E+00  0.2111E+01
      4.293  0.6125E+00  0.2118E+01
      4.305  0.6898E+00  0.2126E+01
      4.316  0.7725E+00  0.2135E+01
      4.328  0.8598E+00  0.2144E+01
      4.339  0.9505E+00  0.2155E+01
      4.351  0.1043E+01  0.2167E+01
      4.362  0.1136E+01  0.2180E+01
      4.374  0.1229E+01  0.2194E+01
      4.385  0.1318E+01  0.2210E+01
      4.397  0.1404E+01  0.2226E+01
      4.408  0.1484E+01  0.2243E+01
      4.419  0.1556E+01  0.2261E+01
      4.431  0.1621E+01  0.2279E+01
      4.442  0.1676E+01  0.2298E+01
      4.454  0.1722E+01  0.2318E+01
      4.465  0.1758E+01  0.2338E+01
      4.477  0.1784E+01  0.2359E+01
      4.488  0.1801E+01  0.2379E+01
      4.500  0.1809E+01  0.2400E+01
      4.511  0.1809E+01  0.2421E+01
      4.523  0.1803E+01  0.2442E+01
      4.534  0.1792E+01  0.2462E+01
      4.546  0.1777E+01  0.2482E+01
      4.557  0.1759E+01  0.2503E+01
      4.569  0.1740E+01  0.2523E+01
      4.580  0.1720E+01  0.2542E+01
      4.592  0.1702E+01  0.2562E+01
      4.603  0.1685E+01  0.2581E+01
      4.614  0.1670E+01  0.2600E+01
      4.626  0.1658E+01  0.2619E+01
      4.637  0.1648E+01  0.2638E+01
      4.649  0.1640E+01  0.2657E+01
      4.660  0.1634E+01  0.2676E+01
      4.672  0.1630E+01  0.2694E+01
      4.683  0.1626E+01  0.2713E+01
      4.695  0.1622E+01  0.2732E+01
      4.706  0.1618E+01  0.2750E+01
      4.718  0.1613E+01  0.2769E+01
      4.729  0.1606E+01  0.2787E+01
      4.741  0.1596E+01  0.2806E+01
      4.752  0.1584E+01  0.2824E+01
      4.764  0.1570E+01  0.2842E+01
      4.775  0.1552E+01  0.2860E+01
      4.787  0.1532E+01  0.2877E+01
      4.798  0.1509E+01  0.2894E+01
      4.809  0.1485E+01  0.2911E+01
      4.821  0.1459E+01  0.2928E+01
      4.832  0.1431E+01  0.2945E+01
      4.844  0.1404E+01  0.2961E+01
      4.855  0.1377E+01  0.2976E+01
      4.867  0.1351E+01  0.2992E+01
      4.878  0.1326E+01  0.3007E+01
      4.890  0.1303E+01  0.3022E+01
      4.901  0.1283E+01  0.3037E+01
      4.913  0.1266E+01  0.3051E+01
      4.924  0.1251E+01  0.3066E+01
      4.936  0.1240E+01  0.3080E+01
      4.947  0.1232E+01  0.3094E+01
      4.959  0.1228E+01  0.3108E+01
      4.970  0.1227E+01  0.3122E+01
      4.982  0.1228E+01  0.3136E+01
      4.993  0.1233E+01  0.3150E+01
      5.004  0.1239E+01  0.3165E+01
      5.016  0.1247E+01  0.3179E+01
      5.027  0.1257E+01  0.3193E+01
      5.039  0.1267E+01  0.3208E+01
      5.050  0.1277E+01  0.3223E+01
      5.062  0.1287E+01  0.3237E+01
      5.073  0.1295E+01  0.3252E+01
      5.085  0.1302E+01  0.3267E+01
      5.096  0.1307E+01  0.3282E+01
      5.108  0.1309E+01  0.3297E+01
      5.119  0.1307E+01  0.3312E+01
      5.131  0.1303E+01  0.3327E+01
      5.142  0.1294E+01  0.3342E+01
      5.154  0.1282E+01  0.3357E+01
      5.165  0.1266E+01  0.3371E+01
      5.177  0.1246E+01  0.3385E+01
      5.188  0.1222E+01  0.3399E+01
      5.199  0.1195E+01  0.3413E+01
      5.211  0.1165E+01  0.3427E+01
      5.222  0.1132E+01  0.3440E+01
      5.234  0.1098E+01  0.3452E+01
      5.245  0.1062E+01  0.3464E+01
      5.257  0.1025E+01  0.3476E+01
      5.268  0.9888E+00  0.3487E+01
      5.280  0.9527E+00  0.3498E+01
      5.291  0.9178E+00  0.3509E+01
      5.303  0.8846E+00  0.3519E+01
      5.314  0.8535E+00  0.3529E+01
      5.326  0.8249E+00  0.3538E+01
      5.337  0.7991E+00  0.3547E+01
      5.349  0.7762E+00  0.3556E+01
      5.360  0.7563E+00  0.3565E+01
      5.372  0.7393E+00  0.3573E+01
      5.383  0.7250E+00  0.3582E+01
      5.394  0.7133E+00  0.3590E+01
      5.406  0.7037E+00  0.3598E+01
      5.417  0.6961E+00  0.3606E+01
      5.429  0.6900E+00  0.3614E+01
      5.440  0.6851E+00  0.3622E+01
      5.452  0.6810E+00  0.3630E+01
      5.463  0.6774E+00  0.3637E+01
      5.475  0.6740E+00  0.3645E+01
      5.486  0.6706E+00  0.3653E+01
      5.498  0.6670E+00  0.3660E+01
      5.509  0.6631E+00  0.3668E+01
      5.521  0.6589E+00  0.3676E+01
      5.532  0.6542E+00  0.3683E+01
      5.544  0.6492E+00  0.3691E+01
      5.555  0.6439E+00  0.3698E+01
      5.567  0.6384E+00  0.3705E+01
      5.578  0.6325E+00  0.3713E+01
      5.589  0.6266E+00  0.3720E+01
      5.601  0.6204E+00  0.3727E+01
      5.612  0.6142E+00  0.3734E+01
      5.624  0.6077E+00  0.3741E+01
      5.635  0.6009E+00  0.3748E+01
      5.647  0.5939E+00  0.3755E+01
      5.658  0.5863E+00  0.3761E+01
      5.670  0.5782E+00  0.3768E+01
      5.681  0.5694E+00  0.3774E+01
      5.693  0.5598E+00  0.3781E+01
      5.704  0.5492E+00  0.3787E+01
      5.716  0.5377E+00  0.3793E+01
      5.727  0.5251E+00  0.3799E+01
      5.739  0.5116E+00  0.3805E+01
      5.750  0.4972E+00  0.3811E+01
      5.762  0.4820E+00  0.3816E+01
      5.773  0.4662E+00  0.3822E+01
      5.784  0.4500E+00  0.3827E+01
      5.796  0.4337E+00  0.3832E+01
      5.807  0.4175E+00  0.3837E+01
      5.819  0.4018E+00  0.3841E+01
      5.830  0.3868E+00  0.3846E+01
      5.842  0.3728E+00  0.3850E+01
      5.853  0.3602E+00  0.3854E+01
      5.865  0.3491E+00  0.3858E+01
      5.876  0.3397E+00  0.3862E+01
      5.888  0.3323E+00  0.3866E+01
      5.899  0.3268E+00  0.3870E+01
      5.911  0.3233E+00  0.3873E+01
      5.922  0.3219E+00  0.3877E+01
      5.934  0.3225E+00  0.3881E+01
      5.945  0.3251E+00  0.3884E+01