    1    1    1    1
  0.1529104E+02  0.2708235E-09  0.2708235E-09  0.2708235E-09  0.5000000E-15
  1.000000000000000E-004
  CAR 
 BCC W                                   
      6    100      8
 
  0.0000000E+00  0.0000000E+00  0.0000000E+00  0.1000000E-01
    1       -1.518124   1.000000
    2        6.882334   1.000000
    3        6.882334   1.000000
    4        6.882555   1.000000
    5       10.512509  -0.000000
    6       10.512509  -0.000000
    7       23.606887   0.000000
    8       23.606890   0.000000
 
  0.2631579E-01 -0.2631579E-01  0.2631579E-01  0.1000000E-01
    1       -1.449147   1.000000
    2        6.875281   1.000000
    3        6.875427   1.000000
    4        6.914975   1.000000
    5       10.401519  -0.000000
    6       10.550827  -0.000000
    7       23.726751   0.000000
    8       23.729045   0.000000
 
  0.5263158E-01 -0.5263158E-01  0.5263158E-01  0.1000000E-01
    1       -1.244439   1.000000
    2        6.861491   1.000000
    3        6.861631   1.000000
    4        7.012853   1.000000
    5       10.085080  -0.000000
    6       10.668334  -0.000000
    7       24.081921   0.000000
    8       24.082452   0.000000
 
  0.7894737E-01 -0.7894737E-01  0.7894737E-01  0.1000000E-01
    1       -0.911030   1.000000
    2        6.844827   1.000000
    3        6.844957   1.000000
    4        7.175657   1.000000
    5        9.605404  -0.000000
    6       10.845841  -0.000000
    7       24.617525   0.000000
    8       24.658315   0.000000
 
  0.1052632E+00 -0.1052632E+00  0.1052632E+00  0.1000000E-01
    1       -0.460778   1.000000
    2        6.836686   1.000000
    3        6.836816   1.000000
    4        7.399175   1.000000
    5        9.004144  -0.000059
    6       11.071547  -0.000000
    7       25.273354   0.000000
    8       25.429563   0.000000
 
  0.1315789E+00 -0.1315789E+00  0.1315789E+00  0.1000000E-01
    1        0.089408   1.000000
    2        6.859125   1.000000
    3        6.859246   1.000000
    4        7.691348   1.000005
    5        8.333362   0.721832
    6       11.330387  -0.000000
    7       25.998898   0.000000
    8       26.362104   0.000000
 
  0.1578947E+00 -0.1578947E+00  0.1578947E+00  0.1000000E-01
    1        0.716542   1.000000
    2        6.923448   1.000000
    3        6.923569   1.000000
    4        7.627711   1.000001
    5        8.032234   1.015262
    6       11.578558  -0.000000
    7       25.760676   0.000000
    8       26.747516   0.000000
 
  0.1842105E+00 -0.1842105E+00  0.1842105E+00  0.1000000E-01
    1        1.390368   1.000000
    2        6.916837   1.000000
    3        7.044844   1.000000
    4        7.044966   1.000000
    5        8.427224   0.337439
    6       11.776761  -0.000000
    7       24.549053   0.000000
    8       27.490272   0.000000
 
  0.2105263E+00 -0.2105263E+00  0.2105263E+00  0.1000000E-01
    1        2.070557   1.000000
    2        6.221570   1.000000
    3        7.234337   1.000000
    4        7.234461   1.000000
    5        8.871425  -0.001663
    6       11.887187  -0.000000
    7       23.742870   0.000000
    8       28.208384   0.000000
 
  0.2368421E+00 -0.2368421E+00  0.2368421E+00  0.1000000E-01
    1        2.703279   1.000000
    2        5.557216   1.000000
    3        7.499174   1.000000
    4        7.499300   1.000000
    5        9.358449  -0.000000
    6       11.897844  -0.000000
    7       23.389512   0.000000
    8       28.893367   0.000000
 
  0.2631579E+00 -0.2631579E+00  0.2631579E+00  0.1000000E-01
    1        3.220218   1.000000
    2        4.935030   1.000000
    3        7.847109   1.000443
    4        7.847239   1.000444
    5        9.880650  -0.000000
    6       11.885691  -0.000000
    7       23.480193   0.000000
    8       28.043358   0.000000
 
  0.2894737E+00 -0.2894737E+00  0.2894737E+00  0.1000000E-01
    1        3.549253   1.000000
    2        4.363366   1.000000
    3        8.283334   0.882590
    4        8.283458   0.882262
    5       10.430313  -0.000000
    6       11.959927  -0.000000
    7       23.947057   0.000000
    8       26.720114   0.000000
 
  0.3157895E+00 -0.3157895E+00  0.3157895E+00  0.1000000E-01
    1        3.645298   1.000000
    2        3.848481   1.000000
    3        8.804481  -0.006069
    4        8.804612  -0.006055
    5       10.989556  -0.000000
    6       12.230499  -0.000000
    7       24.684140   0.000000
    8       25.269425   0.000000
 
  0.3421053E+00 -0.3421053E+00  0.3421053E+00  0.1000000E-01
    1        3.394148   1.000000
    2        3.524636   1.000000
    3        9.409300  -0.000000
    4        9.409442  -0.000000
    5       11.546017  -0.000000
    6       12.743937  -0.000000
    7       23.790118   0.000000
    8       23.790256   0.000000
 
  0.3684211E+00 -0.3684211E+00  0.3684211E+00  0.1000000E-01
    1        3.005427   1.000000
    2        3.253804   1.000000
    3       10.098829  -0.000000
    4       10.098980  -0.000000
    5       12.080738  -0.000000
    6       13.464226  -0.000000
    7       22.330513   0.000000
    8       22.330640   0.000000
 
  0.3947368E+00 -0.3947368E+00  0.3947368E+00  0.1000000E-01
    1        2.684209   1.000000
    2        2.919967   1.000000
    3       10.859454  -0.000000
    4       10.859618  -0.000000
    5       12.571329  -0.000000
    6       14.324257   0.000000
    7       20.916846   0.000000
    8       20.916959   0.000000
 
  0.4210526E+00 -0.4210526E+00  0.4210526E+00  0.1000000E-01
    1        2.432585   1.000000
    2        2.596571   1.000000
    3       11.679145  -0.000000
    4       11.679327  -0.000000
    5       12.992644  -0.000000
    6       15.239138   0.000000
    7       19.583562   0.000000
    8       19.583656   0.000000
 
  0.4473684E+00 -0.4473684E+00  0.4473684E+00  0.1000000E-01
    1        2.251923   1.000000
    2        2.334183   1.000000
    3       12.515215  -0.000000
    4       12.515423  -0.000000
    5       13.318593  -0.000000
    6       16.098012   0.000000
    7       18.376413   0.000000
    8       18.376480   0.000000
 
  0.4736842E+00 -0.4736842E+00  0.4736842E+00  0.1000000E-01
    1        2.143161   1.000000
    2        2.165076   1.000000
    3       13.255184  -0.000000
    4       13.255430  -0.000000
    5       13.525497  -0.000000
    6       16.746609   0.000000
    7       17.412228   0.000000
    8       17.412256   0.000000
 
  0.5000000E+00 -0.5000000E+00  0.5000000E+00  0.1000000E-01
    1        2.106844   1.000000
    2        2.106844   1.000000
    3       13.596401  -0.000000
    4       13.596401  -0.000000
    5       13.596812  -0.000000
    6       16.996040   0.000000
    7       16.996040   0.000000
    8       16.996040   0.000000
 
  0.5000000E+00 -0.5000000E+00  0.5000000E+00  0.1000000E-01
    1        2.106844   1.000000
    2        2.106844   1.000000
    3       13.596401  -0.000000
    4       13.596401  -0.000000
    5       13.596812  -0.000000
    6       16.996040   0.000000
    7       16.996040   0.000000
    8       16.996040   0.000000
 
  0.4736842E+00 -0.4736842E+00  0.5000000E+00  0.1000000E-01
    1        2.127740   1.000000
    2        2.133382   1.000000
    3       13.376625  -0.000000
    4       13.412291  -0.000000
    5       13.603284  -0.000000
    6       16.991686   0.000000
    7       17.093105   0.000000
    8       17.210926   0.000000
 
  0.4473684E+00 -0.4473684E+00  0.5000000E+00  0.1000000E-01
    1        2.189607   1.000000
    2        2.212832   1.000000
    3       12.835975  -0.000000
    4       12.930675  -0.000000
    5       13.622953  -0.000000
    6       16.977523   0.000000
    7       17.324650   0.000000
    8       17.736917   0.000000
 
  0.4210526E+00 -0.4210526E+00  0.5000000E+00  0.1000000E-01
    1        2.289889   1.000000
    2        2.344721   1.000000
    3       12.144760  -0.000000
    4       12.277852  -0.000000
    5       13.655267  -0.000000
    6       16.950155   0.000000
    7       17.595870   0.000000
    8       18.403625   0.000000
 
  0.3947368E+00 -0.3947368E+00  0.5000000E+00  0.1000000E-01
    1        2.423896   1.000000
    2        2.528316   1.000000
    3       11.396065  -0.000000
    4       11.548781  -0.000000
    5       13.699548  -0.000000
    6       16.904081   0.000000
    7       17.855669   0.000000
    8       19.118291   0.000000
 
  0.3684211E+00 -0.3684211E+00  0.5000000E+00  0.1000000E-01
    1        2.584042   1.000000
    2        2.762522   1.000000
    3       10.633874  -0.000000
    4       10.805219  -0.000000
    5       13.754818  -0.000000
    6       16.831939   0.000000
    7       18.089913   0.000000
    8       19.837852   0.000000
 
  0.3421053E+00 -0.3421053E+00  0.5000000E+00  0.1000000E-01
    1        2.758773   1.000000
    2        3.046045   1.000000
    3        9.881438  -0.000000
    4       10.094279  -0.000000
    5       13.819853  -0.000000
    6       16.724939   0.000000
    7       18.302250   0.000000
    8       20.540980   0.000000
 
  0.3157895E+00 -0.3157895E+00  0.5000000E+00  0.1000000E-01
    1        2.930579   1.000000
    2        3.376978   1.000000
    3        9.153007  -0.000000
    4        9.447318  -0.000000
    5       13.893175   0.000000
    6       16.573124   0.000000
    7       18.493765   0.000000
    8       21.216571   0.000000
 
  0.2894737E+00 -0.2894737E+00  0.5000000E+00  0.1000000E-01
    1        3.075403   1.000000
    2        3.753442   1.000000
    3        8.458410   0.221484
    4        8.905863  -0.000769
    5       13.973040   0.000000
    6       16.367624   0.000000
    7       18.672138   0.000000
    8       21.858854   0.000000
 
  0.2631579E+00 -0.2631579E+00  0.5000000E+00  0.1000000E-01
    1        3.163298   1.000000
    2        4.173041   1.000000
    3        7.805136   1.000150
    4        8.508000   0.079941
    5       14.057502   0.000000
    6       16.101110   0.000000
    7       18.840765   0.000000
    8       22.465066   0.000000
 
  0.2368421E+00 -0.2368421E+00  0.5000000E+00  0.1000000E-01
    1        3.166275   1.000000
    2        4.632735   1.000000
    3        7.196959   1.000000
    4        8.283626   0.881820
    5       14.147671   0.000000
    6       15.769914   0.000000
    7       18.996903   0.000000
    8       23.031778   0.000000
 
  0.2105263E+00 -0.2105263E+00  0.5000000E+00  0.1000000E-01
    1        3.073079   1.000000
    2        5.129147   1.000000
    3        6.641800   1.000000
    4        8.249340   0.957477
    5       14.233786   0.000000
    6       15.372076   0.000000
    7       19.148063   0.000000
    8       23.561429   0.000000
 
  0.1842105E+00 -0.1842105E+00  0.5000000E+00  0.1000000E-01
    1        2.897628   1.000000
    2        5.658683   1.000000
    3        6.143012   1.000000
    4        8.386784   0.505060
    5       14.317728   0.000000
    6       14.912962   0.000000
    7       19.290099   0.000000
    8       24.051333   0.000000
 
  0.1578947E+00 -0.1578947E+00  0.5000000E+00  0.1000000E-01
    1        2.671833   1.000000
    2        5.703949   1.000000
    3        6.214692   1.000000
    4        8.657612  -0.033485
    5       14.396844   0.000000
    6       14.399085   0.000000
    7       19.420398   0.000000
    8       23.901430   0.000000
 
  0.1315789E+00 -0.1315789E+00  0.5000000E+00  0.1000000E-01
    1        2.430780   1.000000
    2        5.326899   1.000000
    3        6.793970   1.000000
    4        9.014262  -0.000044
    5       13.841065  -0.000000
    6       14.470094   0.000000
    7       19.538539   0.000000
    8       22.993195   0.000000
 
  0.1052632E+00 -0.1052632E+00  0.5000000E+00  0.1000000E-01
    1        2.203127   1.000000
    2        5.015190   1.000000
    3        7.386405   1.000000
    4        9.410145  -0.000000
    5       13.257947  -0.000000
    6       14.531791   0.000000
    7       19.642029   0.000000
    8       22.154963   0.000000
 
  0.7894737E-01 -0.7894737E-01  0.5000000E+00  0.1000000E-01
    1        2.009148   1.000000
    2        4.770598   1.000000
    3        7.977881   1.006768
    4        9.798003  -0.000000
    5       12.671221  -0.000000
    6       14.582526   0.000000
    7       19.727512   0.000000
    8       21.424998   0.000000
 
  0.5263158E-01 -0.5263158E-01  0.5000000E+00  0.1000000E-01
    1        1.862445   1.000000
    2        4.594655   1.000000
    3        8.536729   0.025776
    4       10.127218  -0.000000
    5       12.108458  -0.000000
    6       14.619701   0.000000
    7       19.797406   0.000000
    8       20.845255   0.000000
 
  0.2631579E-01 -0.2631579E-01  0.5000000E+00  0.1000000E-01
    1        1.771420   1.000000
    2        4.488662   1.000000
    3        8.992790  -0.000082
    4       10.351066  -0.000000
    5       11.648672  -0.000000
    6       14.642556   0.000000
    7       19.853010   0.000000
    8       20.459026   0.000000
 
  0.0000000E+00  0.0000000E+00  0.5000000E+00  0.1000000E-01
    1        1.740422   1.000000
    2        4.453257   1.000000
    3        9.187534  -0.000000
    4       10.430714  -0.000000
    5       11.450133  -0.000000
    6       14.650269   0.000000
    7       19.877757   0.000000
    8       20.316382   0.000000
 
  0.0000000E+00  0.0000000E+00  0.5000000E+00  0.1000000E-01
    1        1.740422   1.000000
    2        4.453257   1.000000
    3        9.187534  -0.000000
    4       10.430714  -0.000000
    5       11.450133  -0.000000
    6       14.650269   0.000000
    7       19.877757   0.000000
    8       20.316382   0.000000
 
  0.1315789E-01  0.1315789E-01  0.4868421E+00  0.1000000E-01
    1        1.758323   1.000000
    2        4.452047   1.000000
    3        9.153516  -0.000000
    4       10.437531  -0.000000
    5       11.451343  -0.000000
    6       14.692227   0.000000
    7       19.844014   0.000000
    8       20.337004   0.000000
 
  0.2631579E-01  0.2631579E-01  0.4736842E+00  0.1000000E-01
    1        1.811820   1.000000
    2        4.448592   1.000000
    3        9.054796  -0.000013
    4       10.457905  -0.000000
    5       11.454945  -0.000000
    6       14.814760   0.000000
    7       19.744482   0.000000
    8       20.398234   0.000000
 
  0.3947368E-01  0.3947368E-01  0.4605263E+00  0.1000000E-01
    1        1.900280   1.000000
    2        4.443445   1.000000
    3        8.900185  -0.000878
    4       10.491576  -0.000000
    5       11.460857  -0.000000
    6       15.009004   0.000000
    7       19.583974   0.000000
    8       20.498075   0.000000
 
  0.5263158E-01  0.5263158E-01  0.4473684E+00  0.1000000E-01
    1        2.022626   1.000000
    2        4.437501   1.000000
    3        8.701256  -0.024622
    4       10.538105  -0.000000
    5       11.468938  -0.000000
    6       15.263270   0.000000
    7       19.369578   0.000000
    8       20.633111   0.000000
 
  0.6578947E-01  0.6578947E-01  0.4342105E+00  0.1000000E-01
    1        2.177307   1.000000
    2        4.431903   1.000000
    3        8.469797   0.183834
    4       10.596854  -0.000000
    5       11.478983  -0.000000
    6       15.565600   0.000000
    7       19.109663   0.000000
    8       20.798503   0.000000
 
  0.7894737E-01  0.7894737E-01  0.4210526E+00  0.1000000E-01
    1        2.362272   1.000000
    2        4.428031   1.000000
    3        8.216287   1.003530
    4       10.666948  -0.000000
    5       11.490745  -0.000000
    6       15.905298   0.000000
    7       18.813002   0.000000
    8       20.987836   0.000000
 
  0.9210526E-01  0.9210526E-01  0.4078947E+00  0.1000000E-01
    1        2.574848   1.000000
    2        4.425939   1.000000
    3        7.948912   1.004046
    4       10.747354  -0.000000
    5       11.502082  -0.000000
    6       16.268943   0.000000
    7       18.487856   0.000000
    8       21.194115   0.000000
 
  0.1052632E+00  0.1052632E+00  0.3947368E+00  0.1000000E-01
    1        2.811774   1.000000
    2        4.429312   1.000000
    3        7.675334   1.000003
    4       10.836266  -0.000000
    5       11.515985  -0.000000
    6       16.657643   0.000000
    7       18.142912   0.000000
    8       21.404628   0.000000
 
  0.1184211E+00  0.1184211E+00  0.3815789E+00  0.1000000E-01
    1        3.069099   1.000000
    2        4.439147   1.000000
    3        7.400581   1.000000
    4       10.932178  -0.000000
    5       11.530572  -0.000000
    6       17.061673   0.000000
    7       17.785879   0.000000
    8       21.609017   0.000000
 
  0.1315789E+00  0.1315789E+00  0.3684211E+00  0.1000000E-01
    1        3.342576   1.000000
    2        4.457049   1.000000
    3        7.128745   1.000000
    4       11.028337  -0.000000
    5       11.550171  -0.000000
    6       17.426157   0.000000
    7       17.475365   0.000000
    8       21.793981   0.000000
 
  0.1447368E+00  0.1447368E+00  0.3552632E+00  0.1000000E-01
    1        3.625162   1.000000
    2        4.484479   1.000000
    3        6.863248   1.000000
    4       11.129904  -0.000000
    5       11.564912  -0.000000
    6       17.067043   0.000000
    7       17.896272   0.000000
    8       21.945434   0.000000
 
  0.1578947E+00  0.1578947E+00  0.3421053E+00  0.1000000E-01
    1        3.910526   1.000000
    2        4.522843   1.000000
    3        6.606640   1.000000
    4       11.230346  -0.000000
    5       11.579155  -0.000000
    6       16.718725   0.000000
    7       18.320117   0.000000
    8       22.049868   0.000000
 
  0.1710526E+00  0.1710526E+00  0.3289474E+00  0.1000000E-01
    1        4.190503   1.000000
    2        4.573426   1.000000
    3        6.360948   1.000000
    4       11.326263  -0.000000
    5       11.592511  -0.000000
    6       16.389511   0.000000
    7       18.743610   0.000000
    8       22.096077   0.000000
 
  0.1842105E+00  0.1842105E+00  0.3157895E+00  0.1000000E-01
    1        4.455650   1.000000
    2        4.637323   1.000000
    3        6.127780   1.000000
    4       11.414014  -0.000000
    5       11.604617  -0.000000
    6       16.088334   0.000000
    7       19.163456   0.000000
    8       21.990898   0.000000
 
  0.1973684E+00  0.1973684E+00  0.3026316E+00  0.1000000E-01
    1        4.695372   1.000000
    2        4.715444   1.000000
    3        5.908408   1.000000
    4       11.490147  -0.000000
    5       11.615152  -0.000000
    6       15.824535   0.000000
    7       19.576213   0.000000
    8       21.674974   0.000000
 
  0.2105263E+00  0.2105263E+00  0.2894737E+00  0.1000000E-01
    1        4.808607   1.000000
    2        4.898394   1.000000
    3        5.703763   1.000000
    4       11.551785  -0.000000
    5       11.623835  -0.000000
    6       15.607412   0.000000
    7       19.978048   0.000000
    8       21.417133   0.000000
 
  0.2236842E+00  0.2236842E+00  0.2763158E+00  0.1000000E-01
    1        4.918217   1.000000
    2        5.054368   1.000000
    3        5.515305   1.000000
    4       11.598849  -0.000000
    5       11.637398  -0.000000
    6       15.445517   0.000000
    7       20.367314   0.000000
    8       21.229789   0.000000
 
  0.2368421E+00  0.2368421E+00  0.2631579E+00  0.1000000E-01
    1        5.045041   1.000000
    2        5.152546   1.000000
    3        5.343153   1.000000
    4       11.634656  -0.000000
    5       11.642092  -0.000000
    6       15.345419   0.000000
    7       20.737265   0.000000
    8       21.115033   0.000000
 
  0.2500000E+00  0.2500000E+00  0.2500000E+00  0.1000000E-01
    1        5.185822   1.000000
    2        5.185822   1.000000
    3        5.185931   1.000000
    4       11.643268  -0.000000
    5       11.643268  -0.000000
    6       15.311551   0.000000
    7       21.075182   0.000000
    8       21.075387   0.000000
 
  0.2500000E+00  0.2500000E+00  0.2500000E+00  0.1000000E-01
    1        5.185822   1.000000
    2        5.185822   1.000000
    3        5.185931   1.000000
    4       11.643268  -0.000000
    5       11.643268  -0.000000
    6       15.311551   0.000000
    7       21.075182   0.000000
    8       21.075314   0.000000
 
  0.2368421E+00  0.2368421E+00  0.2368421E+00  0.1000000E-01
    1        5.038750   1.000000
    2        5.038750   1.000000
    3        5.420426   1.000000
    4       11.622306  -0.000000
    5       11.622306  -0.000000
    6       15.424930   0.000000
    7       20.419414   0.000000
    8       21.402455   0.000000
 
  0.2236842E+00  0.2236842E+00  0.2236842E+00  0.1000000E-01
    1        4.903843   1.000000
    2        4.903843   1.000000
    3        5.497178   1.000000
    4       11.578633  -0.000000
    5       11.578633  -0.000000
    6       15.800761   0.000000
    7       19.728823   0.000000
    8       21.734533   0.000000
 
  0.2105263E+00  0.2105263E+00  0.2105263E+00  0.1000000E-01
    1        4.792744   1.000000
    2        4.792744   1.000000
    3        5.390070   1.000000
    4       11.499521  -0.000000
    5       11.499521  -0.000000
    6       16.456516   0.000000
    7       18.967371   0.000000
    8       22.073840   0.000000
 
  0.1973684E+00  0.1973684E+00  0.1973684E+00  0.1000000E-01
    1        4.717358   1.000000
    2        4.717358   1.000000
    3        5.115172   1.000000
    4       11.403162  -0.000000
    5       11.403162  -0.000000
    6       17.292763   0.000000
    7       18.218714   0.000000
    8       22.435397   0.000000
 
  0.1842105E+00  0.1842105E+00  0.1842105E+00  0.1000000E-01
    1        4.683520   1.000000
    2        4.683520   1.000000
    3        4.707093   1.000000
    4       11.283691  -0.000000
    5       11.283691  -0.000000
    6       17.008586   0.000000
    7       18.736143   0.000000
    8       22.822309   0.000000
 
  0.1710526E+00  0.1710526E+00  0.1710526E+00  0.1000000E-01
    1        4.205979   1.000000
    2        4.696627   1.000000
    3        4.696627   1.000000
    4       11.144532  -0.000000
    5       11.144532  -0.000000
    6       16.016224   0.000000
    7       20.077262   0.000000
    8       23.243451   0.000000
 
  0.1578947E+00  0.1578947E+00  0.1578947E+00  0.1000000E-01
    1        3.645945   1.000000
    2        4.759789   1.000000
    3        4.759789   1.000000
    4       10.990830  -0.000000
    5       10.990830  -0.000000
    6       14.940539   0.000000
    7       21.601680   0.000000
    8       23.703400   0.000000
 
  0.1447368E+00  0.1447368E+00  0.1447368E+00  0.1000000E-01
    1        3.053034   1.000000
    2        4.874657   1.000000
    3        4.874657   1.000000
    4       10.831429  -0.000000
    5       10.831429  -0.000000
    6       13.843683  -0.000000
    7       23.245006   0.000000
    8       24.201990   0.000000
 
  0.1315789E+00  0.1315789E+00  0.1315789E+00  0.1000000E-01
    1        2.446723   1.000000
    2        5.036667   1.000000
    3        5.036667   1.000000
    4       10.670065  -0.000000
    5       10.670065  -0.000000
    6       12.756511  -0.000000
    7       24.721030   0.000000
    8       24.721072   0.000000
 
  0.1184211E+00  0.1184211E+00  0.1184211E+00  0.1000000E-01
    1        1.842018   1.000000
    2        5.242167   1.000000
    3        5.242167   1.000000
    4       10.519112  -0.000000
    5       10.519112  -0.000000
    6       11.713628  -0.000000
    7       25.234794   0.000000
    8       25.234794   0.000000
 
  0.1052632E+00  0.1052632E+00  0.1052632E+00  0.1000000E-01
    1        1.251483   1.000000
    2        5.482402   1.000000
    3        5.482402   1.000000
    4       10.388772  -0.000000
    5       10.388772  -0.000000
    6       10.740417  -0.000000
    7       25.635409   0.000000
    8       25.687535   0.000000
 
  0.9210526E-01  0.9210526E-01  0.9210526E-01  0.1000000E-01
    1        0.687021   1.000000
    2        5.744782   1.000000
    3        5.744782   1.000000
    4        9.853932  -0.000000
    5       10.292954  -0.000000
    6       10.292954  -0.000000
    7       25.160130   0.000000
    8       25.986322   0.000000
 
  0.7894737E-01  0.7894737E-01  0.7894737E-01  0.1000000E-01
    1        0.160600   1.000000
    2        6.012795   1.000000
    3        6.012795   1.000000
    4        9.073510  -0.000007
    5       10.234048  -0.000000
    6       10.234048  -0.000000
    7       24.748367   0.000000
    8       26.007152   0.000000
 
  0.6578947E-01  0.6578947E-01  0.6578947E-01  0.1000000E-01
    1       -0.315250   1.000000
    2        6.267652   1.000000
    3        6.267652   1.000000
    4        8.406858   0.420512
    5       10.223119  -0.000000
    6       10.223119  -0.000000
    7       24.399909   0.000000
    8       25.703014   0.000000
 
  0.5263158E-01  0.5263158E-01  0.5263158E-01  0.1000000E-01
    1       -0.727597   1.000000
    2        6.487800   1.000000
    3        6.487800   1.000000
    4        7.858311   1.000582
    5       10.257291  -0.000000
    6       10.257291  -0.000000
    7       24.113996   0.000000
    8       25.172027   0.000000
 
  0.3947368E-01  0.3947368E-01  0.3947368E-01  0.1000000E-01
    1       -1.063897   1.000000
    2        6.665143   1.000000
    3        6.665143   1.000000
    4        7.433167   1.000000
    5       10.331515  -0.000000
    6       10.331515  -0.000000
    7       23.892183   0.000000
    8       24.582420   0.000000
 
  0.2631579E-01  0.2631579E-01  0.2631579E-01  0.1000000E-01
    1       -1.313129   1.000000
    2        6.786631   1.000000
    3        6.786631   1.000000
    4        7.130785   1.000000
    5       10.417454  -0.000000
    6       10.417454  -0.000000
    7       23.733659   0.000000
    8       24.069261   0.000000
 
  0.1315789E-01  0.1315789E-01  0.1315789E-01  0.1000000E-01
    1       -1.466418   1.000000
    2        6.858603   1.000000
    3        6.858603   1.000000
    4        6.943178   1.000000
    5       10.485722  -0.000000
    6       10.485722  -0.000000
    7       23.638762   0.000000
    8       23.726587   0.000000
 
  0.0000000E+00  0.0000000E+00  0.0000000E+00  0.1000000E-01
    1       -1.518124   1.000000
    2        6.882334   1.000000
    3        6.882334   1.000000
    4        6.882555   1.000000
    5       10.512509  -0.000000
    6       10.512509  -0.000000
    7       23.606888   0.000000
    8       23.606890   0.000000
 
  0.0000000E+00  0.0000000E+00  0.0000000E+00  0.1000000E-01
    1       -1.518124   1.000000
    2        6.882334   1.000000
    3        6.882334   1.000000
    4        6.882555   1.000000
    5       10.512509  -0.000000
    6       10.512509  -0.000000
    7       23.606887   0.000000
    8       23.606890   0.000000
 
  0.0000000E+00  0.0000000E+00  0.2631579E-01  0.1000000E-01
    1       -1.483621   1.000000
    2        6.860686   1.000000
    3        6.878596   1.000000
    4        6.916840   1.000000
    5       10.475837  -0.000000
    6       10.512931  -0.000000
    7       23.638233   0.000000
    8       23.667873   0.000000
 
  0.0000000E+00  0.0000000E+00  0.5263158E-01  0.1000000E-01
    1       -1.380834   1.000000
    2        6.796948   1.000000
    3        6.865559   1.000000
    4        7.019648   1.000000
    5       10.373558  -0.000000
    6       10.514610  -0.000000
    7       23.728705   0.000000
    8       23.845742   0.000000
 
  0.0000000E+00  0.0000000E+00  0.7894737E-01  0.1000000E-01
    1       -1.212246   1.000000
    2        6.695400   1.000000
    3        6.842453   1.000000
    4        7.193780   1.000000
    5       10.227734  -0.000000
    6       10.521906  -0.000000
    7       23.869617   0.000000
    8       24.140122   0.000000
 
  0.0000000E+00  0.0000000E+00  0.1052632E+00  0.1000000E-01
    1       -0.982192   1.000000
    2        6.559840   1.000000
    3        6.794832   1.000000
    4        7.434069   1.000000
    5       10.067188  -0.000000
    6       10.529648  -0.000000
    7       24.041998   0.000000
    8       24.543340   0.000000
 
  0.0000000E+00  0.0000000E+00  0.1315789E+00  0.1000000E-01
    1       -0.697184   1.000000
    2        6.397108   1.000000
    3        6.721823   1.000000
    4        7.734247   1.000019
    5        9.920323  -0.000000
    6       10.543342  -0.000000
    7       24.216576   0.000000
    8       25.048194   0.000000
 
  0.0000000E+00  0.0000000E+00  0.1578947E+00  0.1000000E-01
    1       -0.366301   1.000000
    2        6.216554   1.000000
    3        6.623654   1.000000
    4        8.098212   1.029860
    5        9.814743  -0.000000
    6       10.568684  -0.000000
    7       24.350025   0.000000
    8       25.648916   0.000000
 
  0.0000000E+00  0.0000000E+00  0.1842105E+00  0.1000000E-01
    1       -0.002135   1.000000
    2        6.020934   1.000000
    3        6.508496   1.000000
    4        8.520230   0.054390
    5        9.764231  -0.000000
    6       10.601205  -0.000000
    7       24.384479   0.000000
    8       26.235876   0.000000
 
  0.0000000E+00  0.0000000E+00  0.2105263E+00  0.1000000E-01
    1        0.378403   1.000000
    2        5.819363   1.000000
    3        6.397121   1.000000
    4        8.997802  -0.000071
    5        9.770140  -0.000000
    6       10.641027  -0.000000
    7       24.267211   0.000000
    8       26.232066   0.000000
 
  0.0000000E+00  0.0000000E+00  0.2368421E+00  0.1000000E-01
    1        0.753569   1.000000
    2        5.621414   1.000000
    3        6.320295   1.000000
    4        9.527378  -0.000000
    5        9.834194  -0.000000
    6       10.700797  -0.000000
    7       23.986926   0.000000
    8       25.879080   0.000000
 
  0.0000000E+00  0.0000000E+00  0.2631579E+00  0.1000000E-01
    1        1.096845   1.000000
    2        5.424769   1.000000
    3        6.308881   1.000000
    4        9.931179  -0.000000
    5       10.100190  -0.000000
    6       10.770769  -0.000000
    7       23.571747   0.000000
    8       25.262461   0.000000
 