       N       E                     dE             d eps       ncg     rms          rms(c)
DAV:   1    -0.103615300378E+02   -0.10362E+02   -0.17983E+03  2144   0.284E+02
DAV:   2    -0.149346438805E+02   -0.45731E+01   -0.40049E+01  1808   0.497E+01
DAV:   3    -0.149610671612E+02   -0.26423E-01   -0.25725E-01  2024   0.363E+00
DAV:   4    -0.149610913508E+02   -0.24190E-04   -0.24191E-04  1968   0.810E-02
DAV:   5    -0.149610913770E+02   -0.26186E-07   -0.26284E-07  1688   0.227E-03
DAV:   6    -0.149610913780E+02   -0.10141E-08   -0.16234E-09  1216   0.144E-04
   1 F= -.14961091E+02 E0= -.14960311E+02  d E =-.234161E-02
