 vasp.5.4.4.18Apr17-6-g9f103f2a35 (build Jul 01 2019 03:25:34) complex          
  
 executed on             LinuxIFC date 2020.07.08  21:25:56
 running on    4 total cores
 distrk:  each k-point on    4 cores,    1 groups
 distr:  one band on NCORES_PER_BAND=   1 cores,    4 groups


--------------------------------------------------------------------------------------------------------


 INCAR:
 POTCAR:   PAW W 19Jan2001                        
 POTCAR:   PAW W 19Jan2001                        
   VRHFIN =W: 5p6s5d                                                            
   LEXCH  = CA                                                                  
   EATOM  =   206.5370 eV,   15.1800 Ry                                         
                                                                                
   TITEL  = PAW W 19Jan2001                                                     
   LULTRA =        F    use ultrasoft PP ?                                      
   IUNSCR =        1    unscreen: 0-lin 1-nonlin 2-no                           
   RPACOR =    2.330    partial core radius                                     
   POMASS =  183.850; ZVAL   =    6.000    mass and valenz                      
   RCORE  =    2.750    outmost cutoff radius                                   
   RWIGS  =    2.750; RWIGS  =    1.455    wigner-seitz radius (au A)           
   ENMAX  =  223.126; ENMIN  =  167.344 eV                                      
   RCLOC  =    2.147    cutoff for local pot                                    
   LCOR   =        T    correct aug charges                                     
   LPAW   =        T    paw PP                                                  
   EAUG   =  373.438                                                            
   DEXC   =    -.048                                                            
   RMAX   =    3.087    core radius for proj-oper                               
   RAUG   =    1.300    factor for augmentation sphere                          
   RDEP   =    2.886    radius for radial grids                                 
   QCUT   =   -4.050; QGAM   =    8.099    optimization parameters              
                                                                                
   Description                                                                  
     l     E      TYP  RCUT    TYP  RCUT                                        
     2   .000     23  2.500                                                     
     2   .000     23  2.500                                                     
     0   .000     23  2.500                                                     
     0   .000     23  2.500                                                     
     1   .200     23  2.750                                                     
     1  2.000     23  2.750                                                     
     3   .000      7   .000                                                     
  local pseudopotential read in
  partial core-charges read in
  atomic valenz-charges read in
  non local Contribution for L=           2  read in
    real space projection operators read in
  non local Contribution for L=           2  read in
    real space projection operators read in
  non local Contribution for L=           0  read in
    real space projection operators read in
  non local Contribution for L=           0  read in
    real space projection operators read in
  non local Contribution for L=           1  read in
    real space projection operators read in
  non local Contribution for L=           1  read in
    real space projection operators read in
    PAW grid and wavefunctions read in
 
   number of l-projection  operators is LMAX  =           6
   number of lm-projection operators is LMMAX =          18
 
 PAW W 19Jan2001                        :
 energy of atom  1       EATOM= -206.5370
 kinetic energy error for atom=    0.0291 (will be added to EATOM!!)
 
 
 POSCAR: W bulk bcc                              
  positions in direct lattice
  No initial velocities read in
 exchange correlation table for  LEXCH =        2
   RHO(1)=    0.500       N(1)  =     2000
   RHO(2)=  100.500       N(2)  =     4000
 


--------------------------------------------------------------------------------------------------------


 ion  position               nearest neighbor table
   1  0.000  0.000  0.000-
 
  LATTYP: Found a body centered cubic cell.
 ALAT       =     3.1272000000
  
  Lattice vectors:
  
 A1 = (  -1.5636000000,   1.5636000000,   1.5636000000)
 A2 = (   1.5636000000,  -1.5636000000,   1.5636000000)
 A3 = (   1.5636000000,   1.5636000000,  -1.5636000000)


Analysis of symmetry for initial positions (statically):
=====================================================================
 Subroutine PRICEL returns:
 Original cell was already a primitive cell.
 

 Routine SETGRP: Setting up the symmetry group for a 
 body centered cubic supercell.


 Subroutine GETGRP returns: Found 48 space group operations
 (whereof 48 operations were pure point group operations)
 out of a pool of 48 trial point group operations.


The static configuration has the point symmetry O_h .


Analysis of symmetry for dynamics (positions and initial velocities):
=====================================================================
 Subroutine PRICEL returns:
 Original cell was already a primitive cell.
 

 Routine SETGRP: Setting up the symmetry group for a 
 body centered cubic supercell.


 Subroutine GETGRP returns: Found 48 space group operations
 (whereof 48 operations were pure point group operations)
 out of a pool of 48 trial point group operations.


The dynamic configuration has the point symmetry O_h .


 Subroutine INISYM returns: Found 48 space group operations
 (whereof 48 operations are pure point group operations),
 and found     1 'primitive' translations

 
 
 KPOINTS: K-points along high symmetry lines for b
  interpolating k-points between supplied coordinates
  k-points in cartesian coordinates
Space group operators:
 irot       det(A)        alpha          n_x          n_y          n_z        tau_x        tau_y        tau_z
    1     1.000000     0.000000     1.000000     0.000000     0.000000     0.000000     0.000000     0.000000
    2    -1.000000     0.000000     1.000000     0.000000     0.000000     0.000000     0.000000     0.000000
    3     1.000000   120.000000    -0.577350    -0.577350    -0.577350     0.000000     0.000000     0.000000
    4    -1.000000   120.000000    -0.577350    -0.577350    -0.577350     0.000000     0.000000     0.000000
    5     1.000000   120.000000     0.577350     0.577350     0.577350     0.000000     0.000000     0.000000
    6    -1.000000   120.000000     0.577350     0.577350     0.577350     0.000000     0.000000     0.000000
    7     1.000000    90.000000     0.000000     0.000000    -1.000000     0.000000     0.000000     0.000000
    8    -1.000000    90.000000     0.000000     0.000000    -1.000000     0.000000     0.000000     0.000000
    9     1.000000   180.000000     0.000000     0.707107     0.707107     0.000000     0.000000     0.000000
   10    -1.000000   180.000000     0.000000     0.707107     0.707107     0.000000     0.000000     0.000000
   11     1.000000    90.000000     0.000000     1.000000     0.000000     0.000000     0.000000     0.000000
   12    -1.000000    90.000000     0.000000     1.000000     0.000000     0.000000     0.000000     0.000000
   13     1.000000   180.000000     0.000000     0.000000     1.000000     0.000000     0.000000     0.000000
   14    -1.000000   180.000000     0.000000     0.000000     1.000000     0.000000     0.000000     0.000000
   15     1.000000   120.000000    -0.577350     0.577350     0.577350     0.000000     0.000000     0.000000
   16    -1.000000   120.000000    -0.577350     0.577350     0.577350     0.000000     0.000000     0.000000
   17     1.000000   120.000000    -0.577350     0.577350    -0.577350     0.000000     0.000000     0.000000
   18    -1.000000   120.000000    -0.577350     0.577350    -0.577350     0.000000     0.000000     0.000000
   19     1.000000    90.000000     0.000000     0.000000     1.000000     0.000000     0.000000     0.000000
   20    -1.000000    90.000000     0.000000     0.000000     1.000000     0.000000     0.000000     0.000000
   21     1.000000    90.000000    -1.000000     0.000000     0.000000     0.000000     0.000000     0.000000
   22    -1.000000    90.000000    -1.000000     0.000000     0.000000     0.000000     0.000000     0.000000
   23     1.000000   180.000000     0.707107     0.000000     0.707107     0.000000     0.000000     0.000000
   24    -1.000000   180.000000     0.707107     0.000000     0.707107     0.000000     0.000000     0.000000
   25     1.000000   120.000000     0.577350    -0.577350     0.577350     0.000000     0.000000     0.000000
   26    -1.000000   120.000000     0.577350    -0.577350     0.577350     0.000000     0.000000     0.000000
   27     1.000000   120.000000    -0.577350    -0.577350     0.577350     0.000000     0.000000     0.000000
   28    -1.000000   120.000000    -0.577350    -0.577350     0.577350     0.000000     0.000000     0.000000
   29     1.000000   180.000000     1.000000     0.000000     0.000000     0.000000     0.000000     0.000000
   30    -1.000000   180.000000     1.000000     0.000000     0.000000     0.000000     0.000000     0.000000
   31     1.000000    90.000000     0.000000    -1.000000     0.000000     0.000000     0.000000     0.000000
   32    -1.000000    90.000000     0.000000    -1.000000     0.000000     0.000000     0.000000     0.000000
   33     1.000000   180.000000     0.707107     0.707107     0.000000     0.000000     0.000000     0.000000
   34    -1.000000   180.000000     0.707107     0.707107     0.000000     0.000000     0.000000     0.000000
   35     1.000000    90.000000     1.000000     0.000000     0.000000     0.000000     0.000000     0.000000
   36    -1.000000    90.000000     1.000000     0.000000     0.000000     0.000000     0.000000     0.000000
   37     1.000000   120.000000     0.577350    -0.577350    -0.577350     0.000000     0.000000     0.000000
   38    -1.000000   120.000000     0.577350    -0.577350    -0.577350     0.000000     0.000000     0.000000
   39     1.000000   180.000000     0.000000     1.000000     0.000000     0.000000     0.000000     0.000000
   40    -1.000000   180.000000     0.000000     1.000000     0.000000     0.000000     0.000000     0.000000
   41     1.000000   120.000000     0.577350     0.577350    -0.577350     0.000000     0.000000     0.000000
   42    -1.000000   120.000000     0.577350     0.577350    -0.577350     0.000000     0.000000     0.000000
   43     1.000000   180.000000     0.000000    -0.707107     0.707107     0.000000     0.000000     0.000000
   44    -1.000000   180.000000     0.000000    -0.707107     0.707107     0.000000     0.000000     0.000000
   45     1.000000   180.000000     0.707107    -0.707107     0.000000     0.000000     0.000000     0.000000
   46    -1.000000   180.000000     0.707107    -0.707107     0.000000     0.000000     0.000000     0.000000
   47     1.000000   180.000000     0.707107     0.000000    -0.707107     0.000000     0.000000     0.000000
   48    -1.000000   180.000000     0.707107     0.000000    -0.707107     0.000000     0.000000     0.000000


--------------------------------------------------------------------------------------------------------




 Dimension of arrays:
   k-points           NKPTS =    100   k-points in BZ     NKDIM =    100   number of bands    NBANDS=      8
   number of dos      NEDOS =   3001   number of ions     NIONS =      1
   non local maximal  LDIM  =      6   non local SUM 2l+1 LMDIM =     18
   total plane-waves  NPLWV =   1000
   max r-space proj   IRMAX =      1   max aug-charges    IRDMAX=   3932
   dimension x,y,z NGX =    10 NGY =   10 NGZ =   10
   dimension x,y,z NGXF=    20 NGYF=   20 NGZF=   20
   support grid    NGXF=    20 NGYF=   20 NGZF=   20
   ions per type =               1
   NGX,Y,Z   is equivalent  to a cutoff of   6.14,  6.14,  6.14 a.u.
   NGXF,Y,Z  is equivalent  to a cutoff of  12.28, 12.28, 12.28 a.u.

 SYSTEM =  BCC W                                   
 POSCAR =  W bulk bcc                              

 Startparameter for this run:
   NWRITE =      2    write-flag & timer
   PREC   = normal    normal or accurate (medium, high low for compatibility)
   ISTART =      0    job   : 0-new  1-cont  2-samecut
   ICHARG =     11    charge: 1-file 2-atom 10-const
   ISPIN  =      1    spin polarized calculation?
   LNONCOLLINEAR =      F non collinear calculations
   LSORBIT =      F    spin-orbit coupling
   INIWAV =      1    electr: 0-lowe 1-rand  2-diag
   LASPH  =      F    aspherical Exc in radial PAW
   METAGGA=      F    non-selfconsistent MetaGGA calc.

 Electronic Relaxation 1
   ENCUT  =  224.0 eV  16.46 Ry    4.06 a.u.   3.30  3.30  3.30*2*pi/ulx,y,z
   ENINI  =  224.0     initial cutoff
   ENAUG  =  373.4 eV  augmentation charge cutoff
   NELM   =     60;   NELMIN=  2; NELMDL= -5     # of ELM steps 
   EDIFF  = 0.1E-03   stopping-criterion for ELM
   LREAL  =      F    real-space projection
   NLSPLINE    = F    spline interpolate recip. space projectors
   LCOMPAT=      F    compatible to vasp.4.4
   GGA_COMPAT  = T    GGA compatible to vasp.4.4-vasp.4.6
   LMAXPAW     = -100 max onsite density
   LMAXMIX     =    2 max onsite mixed and CHGCAR
   VOSKOWN=      0    Vosko Wilk Nusair interpolation
   ROPT   =    0.00000
 Ionic relaxation
   EDIFFG = 0.1E-02   stopping-criterion for IOM
   NSW    =      0    number of steps for IOM
   NBLOCK =      1;   KBLOCK =      1    inner block; outer block 
   IBRION =     -1    ionic relax: 0-MD 1-quasi-New 2-CG
   NFREE  =      0    steps in history (QN), initial steepest desc. (CG)
   ISIF   =      2    stress and relaxation
   IWAVPR =     10    prediction:  0-non 1-charg 2-wave 3-comb
   ISYM   =      2    0-nonsym 1-usesym 2-fastsym
   LCORR  =      T    Harris-Foulkes like correction to forces

   POTIM  = 0.5000    time-step for ionic-motion
   TEIN   =    0.0    initial temperature
   TEBEG  =    0.0;   TEEND  =   0.0 temperature during run
   SMASS  =  -3.00    Nose mass-parameter (am)
   estimated Nose-frequenzy (Omega)   =  0.10E-29 period in steps =****** mass=  -0.168E-27a.u.
   SCALEE = 1.0000    scale energy and forces
   NPACO  =    256;   APACO  = 16.0  distance and # of slots for P.C.
   PSTRESS=    0.0 pullay stress

  Mass of Ions in am
   POMASS = 183.85
  Ionic Valenz
   ZVAL   =   6.00
  Atomic Wigner-Seitz radii
   RWIGS  =   1.46
  virtual crystal weights 
   VCA    =   1.00
   NELECT =       6.0000    total number of electrons
   NUPDOWN=      -1.0000    fix difference up-down

 DOS related values:
   EMIN   =  10.00;   EMAX   =-10.00  energy-range for DOS
   EFERMI =   0.00
   ISMEAR =     1;   SIGMA  =   0.20  broadening in eV -4-tet -1-fermi 0-gaus

 Electronic relaxation 2 (details)
   IALGO  =     38    algorithm
   LDIAG  =      T    sub-space diagonalisation (order eigenvalues)
   LSUBROT=      F    optimize rotation matrix (better conditioning)
   TURBO    =      0    0=normal 1=particle mesh
   IRESTART =      0    0=no restart 2=restart with 2 vectors
   NREBOOT  =      0    no. of reboots
   NMIN     =      0    reboot dimension
   EREF     =   0.00    reference energy to select bands
   IMIX   =      4    mixing-type and parameters
     AMIX     =   0.40;   BMIX     =  1.00
     AMIX_MAG =   1.60;   BMIX_MAG =  1.00
     AMIN     =   0.10
     WC   =   100.;   INIMIX=   1;  MIXPRE=   1;  MAXMIX= -45

 Intra band minimization:
   WEIMIN = 0.0000     energy-eigenvalue tresh-hold
   EBREAK =  0.31E-05  absolut break condition
   DEPER  =   0.30     relativ break condition  

   TIME   =   0.40     timestep for ELM

  volume/ion in A,a.u.               =      15.29       103.19
  Fermi-wavevector in a.u.,A,eV,Ry     =   1.198523  2.264879 19.544179  1.436457
  Thomas-Fermi vector in A             =   2.334409
 
 Write flags
   LWAVE        =      T    write WAVECAR
   LDOWNSAMPLE  =      F    k-point downsampling of WAVECAR
   LCHARG       =      F    write CHGCAR
   LVTOT        =      F    write LOCPOT, total local potential
   LVHAR        =      F    write LOCPOT, Hartree potential only
   LELF         =      F    write electronic localiz. function (ELF)
   LORBIT       =      0    0 simple, 1 ext, 2 COOP (PROOUT), +10 PAW based schemes


 Dipole corrections
   LMONO  =      F    monopole corrections only (constant potential shift)
   LDIPOL =      F    correct potential (dipole corrections)
   IDIPOL =      0    1-x, 2-y, 3-z, 4-all directions 
   EPSILON=  1.0000000 bulk dielectric constant

 Exchange correlation treatment:
   GGA     =    --    GGA type
   LEXCH   =     2    internal setting for exchange type
   VOSKOWN=      0    Vosko Wilk Nusair interpolation
   LHFCALC =     F    Hartree Fock is set to
   LHFONE  =     F    Hartree Fock one center treatment
   AEXX    =    0.0000 exact exchange contribution

 Linear response parameters
   LEPSILON=     F    determine dielectric tensor
   LRPA    =     F    only Hartree local field effects (RPA)
   LNABLA  =     F    use nabla operator in PAW spheres
   LVEL    =     F    velocity operator in full k-point grid
   LINTERFAST=   F  fast interpolation
   KINTER  =     0    interpolate to denser k-point grid
   CSHIFT  =0.1000    complex shift for real part using Kramers Kronig
   OMEGAMAX=  -1.0    maximum frequency
   DEG_THRESHOLD= 0.2000000E-02 threshold for treating states as degnerate
   RTIME   =   -0.100 relaxation time in fs
  (WPLASMAI=    0.000 imaginary part of plasma frequency in eV, 0.658/RTIME)
   DFIELD  = 0.0000000 0.0000000 0.0000000 field for delta impulse in time
 
 Orbital magnetization related:
   ORBITALMAG=     F  switch on orbital magnetization
   LCHIMAG   =     F  perturbation theory with respect to B field
   DQ        =  0.001000  dq finite difference perturbation B field
   LLRAUG    =     F  two centre corrections for induced B field



--------------------------------------------------------------------------------------------------------


 Static calculation
 charge density and potential remain constant during run
 non-spin polarized calculation
 Variant of blocked Davidson
 Davidson routine will perform the subspace rotation
 perform sub-space diagonalisation
    after iterative eigenvector-optimisation
 no mixing
 using additional bands            5
 reciprocal scheme for non local part
 use partial core corrections
 calculate Harris-corrections to forces 
   (improved forces if not selfconsistent)
 use of overlap-Matrix (Vanderbilt PP)
 Methfessel and Paxton  Order N= 1 SIGMA  =   0.20


--------------------------------------------------------------------------------------------------------


  energy-cutoff  :      224.00
  volume of cell :       15.29
      direct lattice vectors                 reciprocal lattice vectors
    -1.563600000  1.563600000  1.563600000     0.000000000  0.319774878  0.319774878
     1.563600000 -1.563600000  1.563600000     0.319774878  0.000000000  0.319774878
     1.563600000  1.563600000 -1.563600000     0.319774878  0.319774878  0.000000000

  length of vectors
     2.708234643  2.708234643  2.708234643     0.452229970  0.452229970  0.452229970


 
 k-points in units of 2pi/SCALE and weight: K-points along high symmetry lines for b
   0.00000000  0.00000000  0.00000000       0.010
   0.00000000  0.05263158  0.00000000       0.010
   0.00000000  0.10526316  0.00000000       0.010
   0.00000000  0.15789474  0.00000000       0.010
   0.00000000  0.21052632  0.00000000       0.010
   0.00000000  0.26315789  0.00000000       0.010
   0.00000000  0.31578947  0.00000000       0.010
   0.00000000  0.36842105  0.00000000       0.010
   0.00000000  0.42105263  0.00000000       0.010
   0.00000000  0.47368421  0.00000000       0.010
   0.00000000  0.52631579  0.00000000       0.010
   0.00000000  0.57894737  0.00000000       0.010
   0.00000000  0.63157895  0.00000000       0.010
   0.00000000  0.68421053  0.00000000       0.010
   0.00000000  0.73684211  0.00000000       0.010
   0.00000000  0.78947368  0.00000000       0.010
   0.00000000  0.84210526  0.00000000       0.010
   0.00000000  0.89473684  0.00000000       0.010
   0.00000000  0.94736842  0.00000000       0.010
   0.00000000  1.00000000  0.00000000       0.010
   0.00000000  1.00000000  0.00000000       0.010
   0.02631579  0.97368421  0.00000000       0.010
   0.05263158  0.94736842  0.00000000       0.010
   0.07894737  0.92105263  0.00000000       0.010
   0.10526316  0.89473684  0.00000000       0.010
   0.13157895  0.86842105  0.00000000       0.010
   0.15789474  0.84210526  0.00000000       0.010
   0.18421053  0.81578947  0.00000000       0.010
   0.21052632  0.78947368  0.00000000       0.010
   0.23684211  0.76315789  0.00000000       0.010
   0.26315789  0.73684211  0.00000000       0.010
   0.28947368  0.71052632  0.00000000       0.010
   0.31578947  0.68421053  0.00000000       0.010
   0.34210526  0.65789474  0.00000000       0.010
   0.36842105  0.63157895  0.00000000       0.010
   0.39473684  0.60526316  0.00000000       0.010
   0.42105263  0.57894737  0.00000000       0.010
   0.44736842  0.55263158  0.00000000       0.010
   0.47368421  0.52631579  0.00000000       0.010
   0.50000000  0.50000000  0.00000000       0.010
   0.50000000  0.50000000  0.00000000       0.010
   0.50000000  0.50000000  0.02631579       0.010
   0.50000000  0.50000000  0.05263158       0.010
   0.50000000  0.50000000  0.07894737       0.010
   0.50000000  0.50000000  0.10526316       0.010
   0.50000000  0.50000000  0.13157895       0.010
   0.50000000  0.50000000  0.15789474       0.010
   0.50000000  0.50000000  0.18421053       0.010
   0.50000000  0.50000000  0.21052632       0.010
   0.50000000  0.50000000  0.23684211       0.010
   0.50000000  0.50000000  0.26315789       0.010
   0.50000000  0.50000000  0.28947368       0.010
   0.50000000  0.50000000  0.31578947       0.010
   0.50000000  0.50000000  0.34210526       0.010
   0.50000000  0.50000000  0.36842105       0.010
   0.50000000  0.50000000  0.39473684       0.010
   0.50000000  0.50000000  0.42105263       0.010
   0.50000000  0.50000000  0.44736842       0.010
   0.50000000  0.50000000  0.47368421       0.010
   0.50000000  0.50000000  0.50000000       0.010
   0.50000000  0.50000000  0.50000000       0.010
   0.47368421  0.47368421  0.47368421       0.010
   0.44736842  0.44736842  0.44736842       0.010
   0.42105263  0.42105263  0.42105263       0.010
   0.39473684  0.39473684  0.39473684       0.010
   0.36842105  0.36842105  0.36842105       0.010
   0.34210526  0.34210526  0.34210526       0.010
   0.31578947  0.31578947  0.31578947       0.010
   0.28947368  0.28947368  0.28947368       0.010
   0.26315789  0.26315789  0.26315789       0.010
   0.23684211  0.23684211  0.23684211       0.010
   0.21052632  0.21052632  0.21052632       0.010
   0.18421053  0.18421053  0.18421053       0.010
   0.15789474  0.15789474  0.15789474       0.010
   0.13157895  0.13157895  0.13157895       0.010
   0.10526316  0.10526316  0.10526316       0.010
   0.07894737  0.07894737  0.07894737       0.010
   0.05263158  0.05263158  0.05263158       0.010
   0.02631579  0.02631579  0.02631579       0.010
   0.00000000  0.00000000  0.00000000       0.010
   0.00000000  0.00000000  0.00000000       0.010
   0.02631579  0.02631579  0.00000000       0.010
   0.05263158  0.05263158  0.00000000       0.010
   0.07894737  0.07894737  0.00000000       0.010
   0.10526316  0.10526316  0.00000000       0.010
   0.13157895  0.13157895  0.00000000       0.010
   0.15789474  0.15789474  0.00000000       0.010
   0.18421053  0.18421053  0.00000000       0.010
   0.21052632  0.21052632  0.00000000       0.010
   0.23684211  0.23684211  0.00000000       0.010
   0.26315789  0.26315789  0.00000000       0.010
   0.28947368  0.28947368  0.00000000       0.010
   0.31578947  0.31578947  0.00000000       0.010
   0.34210526  0.34210526  0.00000000       0.010
   0.36842105  0.36842105  0.00000000       0.010
   0.39473684  0.39473684  0.00000000       0.010
   0.42105263  0.42105263  0.00000000       0.010
   0.44736842  0.44736842  0.00000000       0.010
   0.47368421  0.47368421  0.00000000       0.010
   0.50000000  0.50000000  0.00000000       0.010
 
 k-points in reciprocal lattice and weights: K-points along high symmetry lines for b
   0.00000000  0.00000000  0.00000000       0.010
   0.02631579 -0.02631579  0.02631579       0.010
   0.05263158 -0.05263158  0.05263158       0.010
   0.07894737 -0.07894737  0.07894737       0.010
   0.10526316 -0.10526316  0.10526316       0.010
   0.13157895 -0.13157895  0.13157895       0.010
   0.15789474 -0.15789474  0.15789474       0.010
   0.18421053 -0.18421053  0.18421053       0.010
   0.21052632 -0.21052632  0.21052632       0.010
   0.23684211 -0.23684211  0.23684211       0.010
   0.26315789 -0.26315789  0.26315789       0.010
   0.28947368 -0.28947368  0.28947368       0.010
   0.31578947 -0.31578947  0.31578947       0.010
   0.34210526 -0.34210526  0.34210526       0.010
   0.36842105 -0.36842105  0.36842105       0.010
   0.39473684 -0.39473684  0.39473684       0.010
   0.42105263 -0.42105263  0.42105263       0.010
   0.44736842 -0.44736842  0.44736842       0.010
   0.47368421 -0.47368421  0.47368421       0.010
   0.50000000 -0.50000000  0.50000000       0.010
   0.50000000 -0.50000000  0.50000000       0.010
   0.47368421 -0.47368421  0.50000000       0.010
   0.44736842 -0.44736842  0.50000000       0.010
   0.42105263 -0.42105263  0.50000000       0.010
   0.39473684 -0.39473684  0.50000000       0.010
   0.36842105 -0.36842105  0.50000000       0.010
   0.34210526 -0.34210526  0.50000000       0.010
   0.31578947 -0.31578947  0.50000000       0.010
   0.28947368 -0.28947368  0.50000000       0.010
   0.26315789 -0.26315789  0.50000000       0.010
   0.23684211 -0.23684211  0.50000000       0.010
   0.21052632 -0.21052632  0.50000000       0.010
   0.18421053 -0.18421053  0.50000000       0.010
   0.15789474 -0.15789474  0.50000000       0.010
   0.13157895 -0.13157895  0.50000000       0.010
   0.10526316 -0.10526316  0.50000000       0.010
   0.07894737 -0.07894737  0.50000000       0.010
   0.05263158 -0.05263158  0.50000000       0.010
   0.02631579 -0.02631579  0.50000000       0.010
   0.00000000  0.00000000  0.50000000       0.010
   0.00000000  0.00000000  0.50000000       0.010
   0.01315789  0.01315789  0.48684211       0.010
   0.02631579  0.02631579  0.47368421       0.010
   0.03947368  0.03947368  0.46052632       0.010
   0.05263158  0.05263158  0.44736842       0.010
   0.06578947  0.06578947  0.43421053       0.010
   0.07894737  0.07894737  0.42105263       0.010
   0.09210526  0.09210526  0.40789474       0.010
   0.10526316  0.10526316  0.39473684       0.010
   0.11842105  0.11842105  0.38157895       0.010
   0.13157895  0.13157895  0.36842105       0.010
   0.14473684  0.14473684  0.35526316       0.010
   0.15789474  0.15789474  0.34210526       0.010
   0.17105263  0.17105263  0.32894737       0.010
   0.18421053  0.18421053  0.31578947       0.010
   0.19736842  0.19736842  0.30263158       0.010
   0.21052632  0.21052632  0.28947368       0.010
   0.22368421  0.22368421  0.27631579       0.010
   0.23684211  0.23684211  0.26315789       0.010
   0.25000000  0.25000000  0.25000000       0.010
   0.25000000  0.25000000  0.25000000       0.010
   0.23684211  0.23684211  0.23684211       0.010
   0.22368421  0.22368421  0.22368421       0.010
   0.21052632  0.21052632  0.21052632       0.010
   0.19736842  0.19736842  0.19736842       0.010
   0.18421053  0.18421053  0.18421053       0.010
   0.17105263  0.17105263  0.17105263       0.010
   0.15789474  0.15789474  0.15789474       0.010
   0.14473684  0.14473684  0.14473684       0.010
   0.13157895  0.13157895  0.13157895       0.010
   0.11842105  0.11842105  0.11842105       0.010
   0.10526316  0.10526316  0.10526316       0.010
   0.09210526  0.09210526  0.09210526       0.010
   0.07894737  0.07894737  0.07894737       0.010
   0.06578947  0.06578947  0.06578947       0.010
   0.05263158  0.05263158  0.05263158       0.010
   0.03947368  0.03947368  0.03947368       0.010
   0.02631579  0.02631579  0.02631579       0.010
   0.01315789  0.01315789  0.01315789       0.010
   0.00000000  0.00000000  0.00000000       0.010
   0.00000000  0.00000000  0.00000000       0.010
   0.00000000  0.00000000  0.02631579       0.010
   0.00000000  0.00000000  0.05263158       0.010
   0.00000000  0.00000000  0.07894737       0.010
   0.00000000  0.00000000  0.10526316       0.010
   0.00000000  0.00000000  0.13157895       0.010
   0.00000000  0.00000000  0.15789474       0.010
   0.00000000  0.00000000  0.18421053       0.010
   0.00000000  0.00000000  0.21052632       0.010
   0.00000000  0.00000000  0.23684211       0.010
   0.00000000  0.00000000  0.26315789       0.010
   0.00000000  0.00000000  0.28947368       0.010
   0.00000000  0.00000000  0.31578947       0.010
   0.00000000  0.00000000  0.34210526       0.010
   0.00000000  0.00000000  0.36842105       0.010
   0.00000000  0.00000000  0.39473684       0.010
   0.00000000  0.00000000  0.42105263       0.010
   0.00000000  0.00000000  0.44736842       0.010
   0.00000000  0.00000000  0.47368421       0.010
   0.00000000  0.00000000  0.50000000       0.010
 
 position of ions in fractional coordinates (direct lattice) 
   0.00000000  0.00000000  0.00000000
 
 position of ions in cartesian coordinates  (Angst):
   0.00000000  0.00000000  0.00000000
 


--------------------------------------------------------------------------------------------------------


 k-point  1 :   0.0000 0.0000 0.0000  plane waves:     135
 k-point  2 :   0.0263-0.0263 0.0263  plane waves:     135
 k-point  3 :   0.0526-0.0526 0.0526  plane waves:     127
 k-point  4 :   0.0789-0.0789 0.0789  plane waves:     119
 k-point  5 :   0.1053-0.1053 0.1053  plane waves:     120
 k-point  6 :   0.1316-0.1316 0.1316  plane waves:     112
 k-point  7 :   0.1579-0.1579 0.1579  plane waves:     112
 k-point  8 :   0.1842-0.1842 0.1842  plane waves:     112
 k-point  9 :   0.2105-0.2105 0.2105  plane waves:     112
 k-point 10 :   0.2368-0.2368 0.2368  plane waves:     116
 k-point 11 :   0.2632-0.2632 0.2632  plane waves:     116
 k-point 12 :   0.2895-0.2895 0.2895  plane waves:     112
 k-point 13 :   0.3158-0.3158 0.3158  plane waves:     112
 k-point 14 :   0.3421-0.3421 0.3421  plane waves:     112
 k-point 15 :   0.3684-0.3684 0.3684  plane waves:     112
 k-point 16 :   0.3947-0.3947 0.3947  plane waves:     116
 k-point 17 :   0.4211-0.4211 0.4211  plane waves:     116
 k-point 18 :   0.4474-0.4474 0.4474  plane waves:     116
 k-point 19 :   0.4737-0.4737 0.4737  plane waves:     116
 k-point 20 :   0.5000-0.5000 0.5000  plane waves:     116
 k-point 21 :   0.5000-0.5000 0.5000  plane waves:     116
 k-point 22 :   0.4737-0.4737 0.5000  plane waves:     116
 k-point 23 :   0.4474-0.4474 0.5000  plane waves:     116
 k-point 24 :   0.4211-0.4211 0.5000  plane waves:     116
 k-point 25 :   0.3947-0.3947 0.5000  plane waves:     116
 k-point 26 :   0.3684-0.3684 0.5000  plane waves:     116
 k-point 27 :   0.3421-0.3421 0.5000  plane waves:     114
 k-point 28 :   0.3158-0.3158 0.5000  plane waves:     114
 k-point 29 :   0.2895-0.2895 0.5000  plane waves:     114
 k-point 30 :   0.2632-0.2632 0.5000  plane waves:     114
 k-point 31 :   0.2368-0.2368 0.5000  plane waves:     116
 k-point 32 :   0.2105-0.2105 0.5000  plane waves:     116
 k-point 33 :   0.1842-0.1842 0.5000  plane waves:     116
 k-point 34 :   0.1579-0.1579 0.5000  plane waves:     118
 k-point 35 :   0.1316-0.1316 0.5000  plane waves:     118
 k-point 36 :   0.1053-0.1053 0.5000  plane waves:     118
 k-point 37 :   0.0789-0.0789 0.5000  plane waves:     116
 k-point 38 :   0.0526-0.0526 0.5000  plane waves:     116
 k-point 39 :   0.0263-0.0263 0.5000  plane waves:     116
 k-point 40 :   0.0000 0.0000 0.5000  plane waves:     118
 k-point 41 :   0.0000 0.0000 0.5000  plane waves:     118
 k-point 42 :   0.0132 0.0132 0.4868  plane waves:     118
 k-point 43 :   0.0263 0.0263 0.4737  plane waves:     118
 k-point 44 :   0.0395 0.0395 0.4605  plane waves:     118
 k-point 45 :   0.0526 0.0526 0.4474  plane waves:     118
 k-point 46 :   0.0658 0.0658 0.4342  plane waves:     118
 k-point 47 :   0.0789 0.0789 0.4211  plane waves:     118
 k-point 48 :   0.0921 0.0921 0.4079  plane waves:     120
 k-point 49 :   0.1053 0.1053 0.3947  plane waves:     120
 k-point 50 :   0.1184 0.1184 0.3816  plane waves:     120
 k-point 51 :   0.1316 0.1316 0.3684  plane waves:     118
 k-point 52 :   0.1447 0.1447 0.3553  plane waves:     118
 k-point 53 :   0.1579 0.1579 0.3421  plane waves:     118
 k-point 54 :   0.1711 0.1711 0.3289  plane waves:     118
 k-point 55 :   0.1842 0.1842 0.3158  plane waves:     118
 k-point 56 :   0.1974 0.1974 0.3026  plane waves:     118
 k-point 57 :   0.2105 0.2105 0.2895  plane waves:     118
 k-point 58 :   0.2237 0.2237 0.2763  plane waves:     112
 k-point 59 :   0.2368 0.2368 0.2632  plane waves:     104
 k-point 60 :   0.2500 0.2500 0.2500  plane waves:     104
 k-point 61 :   0.2500 0.2500 0.2500  plane waves:     104
 k-point 62 :   0.2368 0.2368 0.2368  plane waves:     110
 k-point 63 :   0.2237 0.2237 0.2237  plane waves:     113
 k-point 64 :   0.2105 0.2105 0.2105  plane waves:     125
 k-point 65 :   0.1974 0.1974 0.1974  plane waves:     125
 k-point 66 :   0.1842 0.1842 0.1842  plane waves:     125
 k-point 67 :   0.1711 0.1711 0.1711  plane waves:     125
 k-point 68 :   0.1579 0.1579 0.1579  plane waves:     125
 k-point 69 :   0.1447 0.1447 0.1447  plane waves:     119
 k-point 70 :   0.1316 0.1316 0.1316  plane waves:     119
 k-point 71 :   0.1184 0.1184 0.1184  plane waves:     119
 k-point 72 :   0.1053 0.1053 0.1053  plane waves:     119
 k-point 73 :   0.0921 0.0921 0.0921  plane waves:     117
 k-point 74 :   0.0789 0.0789 0.0789  plane waves:     117
 k-point 75 :   0.0658 0.0658 0.0658  plane waves:     117
 k-point 76 :   0.0526 0.0526 0.0526  plane waves:     123
 k-point 77 :   0.0395 0.0395 0.0395  plane waves:     123
 k-point 78 :   0.0263 0.0263 0.0263  plane waves:     129
 k-point 79 :   0.0132 0.0132 0.0132  plane waves:     135
 k-point 80 :   0.0000 0.0000 0.0000  plane waves:     135
 k-point 81 :   0.0000 0.0000 0.0000  plane waves:     135
 k-point 82 :   0.0000 0.0000 0.0263  plane waves:     135
 k-point 83 :   0.0000 0.0000 0.0526  plane waves:     135
 k-point 84 :   0.0000 0.0000 0.0789  plane waves:     127
 k-point 85 :   0.0000 0.0000 0.1053  plane waves:     123
 k-point 86 :   0.0000 0.0000 0.1316  plane waves:     123
 k-point 87 :   0.0000 0.0000 0.1579  plane waves:     119
 k-point 88 :   0.0000 0.0000 0.1842  plane waves:     119
 k-point 89 :   0.0000 0.0000 0.2105  plane waves:     121
 k-point 90 :   0.0000 0.0000 0.2368  plane waves:     113
 k-point 91 :   0.0000 0.0000 0.2632  plane waves:     113
 k-point 92 :   0.0000 0.0000 0.2895  plane waves:     113
 k-point 93 :   0.0000 0.0000 0.3158  plane waves:     112
 k-point 94 :   0.0000 0.0000 0.3421  plane waves:     112
 k-point 95 :   0.0000 0.0000 0.3684  plane waves:     112
 k-point 96 :   0.0000 0.0000 0.3947  plane waves:     116
 k-point 97 :   0.0000 0.0000 0.4211  plane waves:     116
 k-point 98 :   0.0000 0.0000 0.4474  plane waves:     116
 k-point 99 :   0.0000 0.0000 0.4737  plane waves:     116
 k-point ** :   0.0000 0.0000 0.5000  plane waves:     118

 maximum and minimum number of plane-waves per node :       135      104

 maximum number of plane-waves:       135
 maximum index in each direction: 
   IXMAX=    3   IYMAX=    3   IZMAX=    3
   IXMIN=   -3   IYMIN=   -3   IZMIN=   -3


 serial   3D FFT for wavefunctions
 parallel 3D FFT for charge:
    minimum data exchange during FFTs selected (reduces bandwidth)


 total amount of memory used by VASP MPI-rank0    32808. kBytes
=======================================================================

   base      :      30000. kBytes
   nonl-proj :       1960. kBytes
   fftplans  :        142. kBytes
   grid      :        192. kBytes
   one-center:         15. kBytes
   wavefun   :        499. kBytes
 
     INWAV:  cpu time    0.0000: real time    0.0000
 initial charge density was supplied:
 number of electron       5.9999974 magnetization 
 keeping initial charge density in first step


--------------------------------------------------------------------------------------------------------


 Maximum index for augmentation-charges          933 (set IRDMAX)


--------------------------------------------------------------------------------------------------------


 First call to EWALD:  gamma=   0.714
 Maximum number of real-space cells 3x 3x 3
 Maximum number of reciprocal cells 3x 3x 3

    FEWALD:  cpu time    0.0009: real time    0.0009


--------------------------------------- Iteration      1(   1)  ---------------------------------------


    POTLOK:  cpu time    0.0012: real time    0.0087
    SETDIJ:  cpu time    0.0012: real time    0.0012
     EDDAV:  cpu time    0.0713: real time    0.0827
       DOS:  cpu time    0.0029: real time    0.0034
    --------------------------------------------
      LOOP:  cpu time    0.0767: real time    0.0961

 eigenvalue-minimisations  :  2144
 total energy-change (2. order) :-0.1036153E+02  (-0.1798296E+03)
 number of electron       5.9999974 magnetization 
 augmentation part        5.9999974 magnetization 

 Free energy of the ion-electron system (eV)
  ---------------------------------------------------
  alpha Z        PSCENC =        45.64970707
  Ewald energy   TEWEN  =      -301.63576621
  -Hartree energ DENC   =        -2.13254737
  -exchange      EXHF   =         0.00000000
  -V(xc)+E(xc)   XCENC  =       -46.81589530
  PAW double counting   =       248.67490937     -192.59125594
  entropy T*S    EENTRO =        -0.00115980
  eigenvalues    EBANDS =        31.98261980
  atomic energy  EATOM  =       206.50785835
  Solvation  Ediel_sol  =         0.00000000
  ---------------------------------------------------
  free energy    TOTEN  =       -10.36153004 eV

  energy without entropy =      -10.36037024  energy(sigma->0) =      -10.36114344


--------------------------------------------------------------------------------------------------------




--------------------------------------- Iteration      1(   2)  ---------------------------------------


     EDDAV:  cpu time    0.0578: real time    0.0580
       DOS:  cpu time    0.0034: real time    0.0034
    --------------------------------------------
      LOOP:  cpu time    0.0611: real time    0.0613

 eigenvalue-minimisations  :  1808
 total energy-change (2. order) :-0.4573114E+01  (-0.4004851E+01)
 number of electron       5.9999974 magnetization 
 augmentation part        5.9999974 magnetization 

 Free energy of the ion-electron system (eV)
  ---------------------------------------------------
  alpha Z        PSCENC =        45.64970707
  Ewald energy   TEWEN  =      -301.63576621
  -Hartree energ DENC   =        -2.13254737
  -exchange      EXHF   =         0.00000000
  -V(xc)+E(xc)   XCENC  =       -46.81589530
  PAW double counting   =       248.67490937     -192.59125594
  entropy T*S    EENTRO =        -0.00210849
  eigenvalues    EBANDS =        27.41045464
  atomic energy  EATOM  =       206.50785835
  Solvation  Ediel_sol  =         0.00000000
  ---------------------------------------------------
  free energy    TOTEN  =       -14.93464388 eV

  energy without entropy =      -14.93253539  energy(sigma->0) =      -14.93394105


--------------------------------------------------------------------------------------------------------




--------------------------------------- Iteration      1(   3)  ---------------------------------------


     EDDAV:  cpu time    0.0662: real time    0.0665
       DOS:  cpu time    0.0035: real time    0.0034
    --------------------------------------------
      LOOP:  cpu time    0.0697: real time    0.0699

 eigenvalue-minimisations  :  2024
 total energy-change (2. order) :-0.2642328E-01  (-0.2572521E-01)
 number of electron       5.9999974 magnetization 
 augmentation part        5.9999974 magnetization 

 Free energy of the ion-electron system (eV)
  ---------------------------------------------------
  alpha Z        PSCENC =        45.64970707
  Ewald energy   TEWEN  =      -301.63576621
  -Hartree energ DENC   =        -2.13254737
  -exchange      EXHF   =         0.00000000
  -V(xc)+E(xc)   XCENC  =       -46.81589530
  PAW double counting   =       248.67490937     -192.59125594
  entropy T*S    EENTRO =        -0.00234171
  eigenvalues    EBANDS =        27.38426459
  atomic energy  EATOM  =       206.50785835
  Solvation  Ediel_sol  =         0.00000000
  ---------------------------------------------------
  free energy    TOTEN  =       -14.96106716 eV

  energy without entropy =      -14.95872545  energy(sigma->0) =      -14.96028659


--------------------------------------------------------------------------------------------------------




--------------------------------------- Iteration      1(   4)  ---------------------------------------


     EDDAV:  cpu time    0.0646: real time    0.0649
       DOS:  cpu time    0.0033: real time    0.0033
    --------------------------------------------
      LOOP:  cpu time    0.0678: real time    0.0682

 eigenvalue-minimisations  :  1968
 total energy-change (2. order) :-0.2418958E-04  (-0.2419059E-04)
 number of electron       5.9999974 magnetization 
 augmentation part        5.9999974 magnetization 

 Free energy of the ion-electron system (eV)
  ---------------------------------------------------
  alpha Z        PSCENC =        45.64970707
  Ewald energy   TEWEN  =      -301.63576621
  -Hartree energ DENC   =        -2.13254737
  -exchange      EXHF   =         0.00000000
  -V(xc)+E(xc)   XCENC  =       -46.81589530
  PAW double counting   =       248.67490937     -192.59125594
  entropy T*S    EENTRO =        -0.00234161
  eigenvalues    EBANDS =        27.38424029
  atomic energy  EATOM  =       206.50785835
  Solvation  Ediel_sol  =         0.00000000
  ---------------------------------------------------
  free energy    TOTEN  =       -14.96109135 eV

  energy without entropy =      -14.95874975  energy(sigma->0) =      -14.96031082


--------------------------------------------------------------------------------------------------------




--------------------------------------- Iteration      1(   5)  ---------------------------------------


     EDDAV:  cpu time    0.0547: real time    0.0549
       DOS:  cpu time    0.0033: real time    0.0034
    --------------------------------------------
      LOOP:  cpu time    0.0580: real time    0.0583

 eigenvalue-minimisations  :  1688
 total energy-change (2. order) :-0.2618634E-07  (-0.2628419E-07)
 number of electron       5.9999974 magnetization 
 augmentation part        5.9999974 magnetization 

 Free energy of the ion-electron system (eV)
  ---------------------------------------------------
  alpha Z        PSCENC =        45.64970707
  Ewald energy   TEWEN  =      -301.63576621
  -Hartree energ DENC   =        -2.13254737
  -exchange      EXHF   =         0.00000000
  -V(xc)+E(xc)   XCENC  =       -46.81589530
  PAW double counting   =       248.67490937     -192.59125594
  entropy T*S    EENTRO =        -0.00234161
  eigenvalues    EBANDS =        27.38424027
  atomic energy  EATOM  =       206.50785835
  Solvation  Ediel_sol  =         0.00000000
  ---------------------------------------------------
  free energy    TOTEN  =       -14.96109138 eV

  energy without entropy =      -14.95874977  energy(sigma->0) =      -14.96031084


--------------------------------------------------------------------------------------------------------




--------------------------------------- Iteration      1(   6)  ---------------------------------------


     EDDAV:  cpu time    0.0424: real time    0.0427
       DOS:  cpu time    0.0034: real time    0.0034
    --------------------------------------------
      LOOP:  cpu time    0.0458: real time    0.0460

 eigenvalue-minimisations  :  1216
 total energy-change (2. order) :-0.1014143E-08  (-0.1623448E-09)
 number of electron       5.9999974 magnetization 
 augmentation part        5.9999974 magnetization 

 Free energy of the ion-electron system (eV)
  ---------------------------------------------------
  alpha Z        PSCENC =        45.64970707
  Ewald energy   TEWEN  =      -301.63576621
  -Hartree energ DENC   =        -2.13254737
  -exchange      EXHF   =         0.00000000
  -V(xc)+E(xc)   XCENC  =       -46.81589530
  PAW double counting   =       248.67490937     -192.59125594
  entropy T*S    EENTRO =        -0.00234161
  eigenvalues    EBANDS =        27.38424027
  atomic energy  EATOM  =       206.50785835
  Solvation  Ediel_sol  =         0.00000000
  ---------------------------------------------------
  free energy    TOTEN  =       -14.96109138 eV

  energy without entropy =      -14.95874977  energy(sigma->0) =      -14.96031084


--------------------------------------------------------------------------------------------------------




 average (electrostatic) potential at core
  the test charge radii are     1.1823
  (the norm of the test charge is              1.0000)
       1 -37.6864
 
 
 
 E-fermi :   8.3880     XC(G=0): -13.4257     alpha+bet :-15.2558


 k-point     1 :       0.0000    0.0000    0.0000
  band No.  band energies     occupation 
      1      -1.5181      2.00000
      2       6.8823      2.00000
      3       6.8823      2.00000
      4       6.8826      2.00000
      5      10.5125     -0.00000
      6      10.5125     -0.00000
      7      23.6069      0.00000
      8      23.6069      0.00000

 k-point     2 :       0.0263   -0.0263    0.0263
  band No.  band energies     occupation 
      1      -1.4491      2.00000
      2       6.8753      2.00000
      3       6.8754      2.00000
      4       6.9150      2.00000
      5      10.4015     -0.00000
      6      10.5508     -0.00000
      7      23.7268      0.00000
      8      23.7290      0.00000

 k-point     3 :       0.0526   -0.0526    0.0526
  band No.  band energies     occupation 
      1      -1.2444      2.00000
      2       6.8615      2.00000
      3       6.8616      2.00000
      4       7.0129      2.00000
      5      10.0851     -0.00000
      6      10.6683     -0.00000
      7      24.0819      0.00000
      8      24.0825      0.00000

 k-point     4 :       0.0789   -0.0789    0.0789
  band No.  band energies     occupation 
      1      -0.9110      2.00000
      2       6.8448      2.00000
      3       6.8450      2.00000
      4       7.1757      2.00000
      5       9.6054     -0.00000
      6      10.8458     -0.00000
      7      24.6175      0.00000
      8      24.6583      0.00000

 k-point     5 :       0.1053   -0.1053    0.1053
  band No.  band energies     occupation 
      1      -0.4608      2.00000
      2       6.8367      2.00000
      3       6.8368      2.00000
      4       7.3992      2.00000
      5       9.0041     -0.00012
      6      11.0715     -0.00000
      7      25.2734      0.00000
      8      25.4296      0.00000

 k-point     6 :       0.1316   -0.1316    0.1316
  band No.  band energies     occupation 
      1       0.0894      2.00000
      2       6.8591      2.00000
      3       6.8592      2.00000
      4       7.6913      2.00001
      5       8.3334      1.44366
      6      11.3304     -0.00000
      7      25.9989      0.00000
      8      26.3621      0.00000

 k-point     7 :       0.1579   -0.1579    0.1579
  band No.  band energies     occupation 
      1       0.7165      2.00000
      2       6.9234      2.00000
      3       6.9236      2.00000
      4       7.6277      2.00000
      5       8.0322      2.03052
      6      11.5786     -0.00000
      7      25.7607      0.00000
      8      26.7475      0.00000

 k-point     8 :       0.1842   -0.1842    0.1842
  band No.  band energies     occupation 
      1       1.3904      2.00000
      2       6.9168      2.00000
      3       7.0448      2.00000
      4       7.0450      2.00000
      5       8.4272      0.67488
      6      11.7768     -0.00000
      7      24.5491      0.00000
      8      27.4903      0.00000

 k-point     9 :       0.2105   -0.2105    0.2105
  band No.  band energies     occupation 
      1       2.0706      2.00000
      2       6.2216      2.00000
      3       7.2343      2.00000
      4       7.2345      2.00000
      5       8.8714     -0.00333
      6      11.8872     -0.00000
      7      23.7429      0.00000
      8      28.2084      0.00000

 k-point    10 :       0.2368   -0.2368    0.2368
  band No.  band energies     occupation 
      1       2.7033      2.00000
      2       5.5572      2.00000
      3       7.4992      2.00000
      4       7.4993      2.00000
      5       9.3584     -0.00000
      6      11.8978     -0.00000
      7      23.3895      0.00000
      8      28.8934      0.00000

 k-point    11 :       0.2632   -0.2632    0.2632
  band No.  band energies     occupation 
      1       3.2202      2.00000
      2       4.9350      2.00000
      3       7.8471      2.00089
      4       7.8472      2.00089
      5       9.8807     -0.00000
      6      11.8857     -0.00000
      7      23.4802      0.00000
      8      28.0434      0.00000

 k-point    12 :       0.2895   -0.2895    0.2895
  band No.  band energies     occupation 
      1       3.5493      2.00000
      2       4.3634      2.00000
      3       8.2833      1.76518
      4       8.2835      1.76452
      5      10.4303     -0.00000
      6      11.9599     -0.00000
      7      23.9471      0.00000
      8      26.7201      0.00000

 k-point    13 :       0.3158   -0.3158    0.3158
  band No.  band energies     occupation 
      1       3.6453      2.00000
      2       3.8485      2.00000
      3       8.8045     -0.01214
      4       8.8046     -0.01211
      5      10.9896     -0.00000
      6      12.2305     -0.00000
      7      24.6841      0.00000
      8      25.2694      0.00000

 k-point    14 :       0.3421   -0.3421    0.3421
  band No.  band energies     occupation 
      1       3.3941      2.00000
      2       3.5246      2.00000
      3       9.4093     -0.00000
      4       9.4094     -0.00000
      5      11.5460     -0.00000
      6      12.7439     -0.00000
      7      23.7901      0.00000
      8      23.7903      0.00000

 k-point    15 :       0.3684   -0.3684    0.3684
  band No.  band energies     occupation 
      1       3.0054      2.00000
      2       3.2538      2.00000
      3      10.0988     -0.00000
      4      10.0990     -0.00000
      5      12.0807     -0.00000
      6      13.4642     -0.00000
      7      22.3305      0.00000
      8      22.3306      0.00000

 k-point    16 :       0.3947   -0.3947    0.3947
  band No.  band energies     occupation 
      1       2.6842      2.00000
      2       2.9200      2.00000
      3      10.8595     -0.00000
      4      10.8596     -0.00000
      5      12.5713     -0.00000
      6      14.3243      0.00000
      7      20.9168      0.00000
      8      20.9170      0.00000

 k-point    17 :       0.4211   -0.4211    0.4211
  band No.  band energies     occupation 
      1       2.4326      2.00000
      2       2.5966      2.00000
      3      11.6791     -0.00000
      4      11.6793     -0.00000
      5      12.9926     -0.00000
      6      15.2391      0.00000
      7      19.5836      0.00000
      8      19.5837      0.00000

 k-point    18 :       0.4474   -0.4474    0.4474
  band No.  band energies     occupation 
      1       2.2519      2.00000
      2       2.3342      2.00000
      3      12.5152     -0.00000
      4      12.5154     -0.00000
      5      13.3186     -0.00000
      6      16.0980      0.00000
      7      18.3764      0.00000
      8      18.3765      0.00000

 k-point    19 :       0.4737   -0.4737    0.4737
  band No.  band energies     occupation 
      1       2.1432      2.00000
      2       2.1651      2.00000
      3      13.2552     -0.00000
      4      13.2554     -0.00000
      5      13.5255     -0.00000
      6      16.7466      0.00000
      7      17.4122      0.00000
      8      17.4123      0.00000

 k-point    20 :       0.5000   -0.5000    0.5000
  band No.  band energies     occupation 
      1       2.1068      2.00000
      2       2.1068      2.00000
      3      13.5964     -0.00000
      4      13.5964     -0.00000
      5      13.5968     -0.00000
      6      16.9960      0.00000
      7      16.9960      0.00000
      8      16.9960      0.00000

 k-point    21 :       0.5000   -0.5000    0.5000
  band No.  band energies     occupation 
      1       2.1068      2.00000
      2       2.1068      2.00000
      3      13.5964     -0.00000
      4      13.5964     -0.00000
      5      13.5968     -0.00000
      6      16.9960      0.00000
      7      16.9960      0.00000
      8      16.9960      0.00000

 k-point    22 :       0.4737   -0.4737    0.5000
  band No.  band energies     occupation 
      1       2.1277      2.00000
      2       2.1334      2.00000
      3      13.3766     -0.00000
      4      13.4123     -0.00000
      5      13.6033     -0.00000
      6      16.9917      0.00000
      7      17.0931      0.00000
      8      17.2109      0.00000

 k-point    23 :       0.4474   -0.4474    0.5000
  band No.  band energies     occupation 
      1       2.1896      2.00000
      2       2.2128      2.00000
      3      12.8360     -0.00000
      4      12.9307     -0.00000
      5      13.6230     -0.00000
      6      16.9775      0.00000
      7      17.3246      0.00000
      8      17.7369      0.00000

 k-point    24 :       0.4211   -0.4211    0.5000
  band No.  band energies     occupation 
      1       2.2899      2.00000
      2       2.3447      2.00000
      3      12.1448     -0.00000
      4      12.2779     -0.00000
      5      13.6553     -0.00000
      6      16.9502      0.00000
      7      17.5959      0.00000
      8      18.4036      0.00000

 k-point    25 :       0.3947   -0.3947    0.5000
  band No.  band energies     occupation 
      1       2.4239      2.00000
      2       2.5283      2.00000
      3      11.3961     -0.00000
      4      11.5488     -0.00000
      5      13.6995     -0.00000
      6      16.9041      0.00000
      7      17.8557      0.00000
      8      19.1183      0.00000

 k-point    26 :       0.3684   -0.3684    0.5000
  band No.  band energies     occupation 
      1       2.5840      2.00000
      2       2.7625      2.00000
      3      10.6339     -0.00000
      4      10.8052     -0.00000
      5      13.7548     -0.00000
      6      16.8319      0.00000
      7      18.0899      0.00000
      8      19.8379      0.00000

 k-point    27 :       0.3421   -0.3421    0.5000
  band No.  band energies     occupation 
      1       2.7588      2.00000
      2       3.0460      2.00000
      3       9.8814     -0.00000
      4      10.0943     -0.00000
      5      13.8199     -0.00000
      6      16.7249      0.00000
      7      18.3022      0.00000
      8      20.5410      0.00000

 k-point    28 :       0.3158   -0.3158    0.5000
  band No.  band energies     occupation 
      1       2.9306      2.00000
      2       3.3770      2.00000
      3       9.1530     -0.00000
      4       9.4473     -0.00000
      5      13.8932      0.00000
      6      16.5731      0.00000
      7      18.4938      0.00000
      8      21.2166      0.00000

 k-point    29 :       0.2895   -0.2895    0.5000
  band No.  band energies     occupation 
      1       3.0754      2.00000
      2       3.7534      2.00000
      3       8.4584      0.44297
      4       8.9059     -0.00154
      5      13.9730      0.00000
      6      16.3676      0.00000
      7      18.6721      0.00000
      8      21.8589      0.00000

 k-point    30 :       0.2632   -0.2632    0.5000
  band No.  band energies     occupation 
      1       3.1633      2.00000
      2       4.1730      2.00000
      3       7.8051      2.00030
      4       8.5080      0.15988
      5      14.0575      0.00000
      6      16.1011      0.00000
      7      18.8408      0.00000
      8      22.4651      0.00000

 k-point    31 :       0.2368   -0.2368    0.5000
  band No.  band energies     occupation 
      1       3.1663      2.00000
      2       4.6327      2.00000
      3       7.1970      2.00000
      4       8.2836      1.76364
      5      14.1477      0.00000
      6      15.7699      0.00000
      7      18.9969      0.00000
      8      23.0318      0.00000

 k-point    32 :       0.2105   -0.2105    0.5000
  band No.  band energies     occupation 
      1       3.0731      2.00000
      2       5.1291      2.00000
      3       6.6418      2.00000
      4       8.2493      1.91495
      5      14.2338      0.00000
      6      15.3721      0.00000
      7      19.1481      0.00000
      8      23.5614      0.00000

 k-point    33 :       0.1842   -0.1842    0.5000
  band No.  band energies     occupation 
      1       2.8976      2.00000
      2       5.6587      2.00000
      3       6.1430      2.00000
      4       8.3868      1.01012
      5      14.3177      0.00000
      6      14.9130      0.00000
      7      19.2901      0.00000
      8      24.0513      0.00000

 k-point    34 :       0.1579   -0.1579    0.5000
  band No.  band energies     occupation 
      1       2.6718      2.00000
      2       5.7039      2.00000
      3       6.2147      2.00000
      4       8.6576     -0.06697
      5      14.3968      0.00000
      6      14.3991      0.00000
      7      19.4204      0.00000
      8      23.9014      0.00000

 k-point    35 :       0.1316   -0.1316    0.5000
  band No.  band energies     occupation 
      1       2.4308      2.00000
      2       5.3269      2.00000
      3       6.7940      2.00000
      4       9.0143     -0.00009
      5      13.8411     -0.00000
      6      14.4701      0.00000
      7      19.5385      0.00000
      8      22.9932      0.00000

 k-point    36 :       0.1053   -0.1053    0.5000
  band No.  band energies     occupation 
      1       2.2031      2.00000
      2       5.0152      2.00000
      3       7.3864      2.00000
      4       9.4101     -0.00000
      5      13.2579     -0.00000
      6      14.5318      0.00000
      7      19.6420      0.00000
      8      22.1550      0.00000

 k-point    37 :       0.0789   -0.0789    0.5000
  band No.  band energies     occupation 
      1       2.0091      2.00000
      2       4.7706      2.00000
      3       7.9779      2.01354
      4       9.7980     -0.00000
      5      12.6712     -0.00000
      6      14.5825      0.00000
      7      19.7275      0.00000
      8      21.4250      0.00000

 k-point    38 :       0.0526   -0.0526    0.5000
  band No.  band energies     occupation 
      1       1.8624      2.00000
      2       4.5947      2.00000
      3       8.5367      0.05155
      4      10.1272     -0.00000
      5      12.1085     -0.00000
      6      14.6197      0.00000
      7      19.7974      0.00000
      8      20.8453      0.00000

 k-point    39 :       0.0263   -0.0263    0.5000
  band No.  band energies     occupation 
      1       1.7714      2.00000
      2       4.4887      2.00000
      3       8.9928     -0.00016
      4      10.3511     -0.00000
      5      11.6487     -0.00000
      6      14.6426      0.00000
      7      19.8530      0.00000
      8      20.4590      0.00000

 k-point    40 :       0.0000    0.0000    0.5000
  band No.  band energies     occupation 
      1       1.7404      2.00000
      2       4.4533      2.00000
      3       9.1875     -0.00000
      4      10.4307     -0.00000
      5      11.4501     -0.00000
      6      14.6503      0.00000
      7      19.8778      0.00000
      8      20.3164      0.00000

 k-point    41 :       0.0000    0.0000    0.5000
  band No.  band energies     occupation 
      1       1.7404      2.00000
      2       4.4533      2.00000
      3       9.1875     -0.00000
      4      10.4307     -0.00000
      5      11.4501     -0.00000
      6      14.6503      0.00000
      7      19.8778      0.00000
      8      20.3164      0.00000

 k-point    42 :       0.0132    0.0132    0.4868
  band No.  band energies     occupation 
      1       1.7583      2.00000
      2       4.4520      2.00000
      3       9.1535     -0.00000
      4      10.4375     -0.00000
      5      11.4513     -0.00000
      6      14.6922      0.00000
      7      19.8440      0.00000
      8      20.3370      0.00000

 k-point    43 :       0.0263    0.0263    0.4737
  band No.  band energies     occupation 
      1       1.8118      2.00000
      2       4.4486      2.00000
      3       9.0548     -0.00003
      4      10.4579     -0.00000
      5      11.4549     -0.00000
      6      14.8148      0.00000
      7      19.7445      0.00000
      8      20.3982      0.00000

 k-point    44 :       0.0395    0.0395    0.4605
  band No.  band energies     occupation 
      1       1.9003      2.00000
      2       4.4434      2.00000
      3       8.9002     -0.00176
      4      10.4916     -0.00000
      5      11.4609     -0.00000
      6      15.0090      0.00000
      7      19.5840      0.00000
      8      20.4981      0.00000

 k-point    45 :       0.0526    0.0526    0.4474
  band No.  band energies     occupation 
      1       2.0226      2.00000
      2       4.4375      2.00000
      3       8.7013     -0.04924
      4      10.5381     -0.00000
      5      11.4689     -0.00000
      6      15.2633      0.00000
      7      19.3696      0.00000
      8      20.6331      0.00000

 k-point    46 :       0.0658    0.0658    0.4342
  band No.  band energies     occupation 
      1       2.1773      2.00000
      2       4.4319      2.00000
      3       8.4698      0.36767
      4      10.5969     -0.00000
      5      11.4790     -0.00000
      6      15.5656      0.00000
      7      19.1097      0.00000
      8      20.7985      0.00000

 k-point    47 :       0.0789    0.0789    0.4211
  band No.  band energies     occupation 
      1       2.3623      2.00000
      2       4.4280      2.00000
      3       8.2163      2.00706
      4      10.6669     -0.00000
      5      11.4907     -0.00000
      6      15.9053      0.00000
      7      18.8130      0.00000
      8      20.9878      0.00000

 k-point    48 :       0.0921    0.0921    0.4079
  band No.  band energies     occupation 
      1       2.5748      2.00000
      2       4.4259      2.00000
      3       7.9489      2.00809
      4      10.7474     -0.00000
      5      11.5021     -0.00000
      6      16.2689      0.00000
      7      18.4879      0.00000
      8      21.1941      0.00000

 k-point    49 :       0.1053    0.1053    0.3947
  band No.  band energies     occupation 
      1       2.8118      2.00000
      2       4.4293      2.00000
      3       7.6753      2.00001
      4      10.8363     -0.00000
      5      11.5160     -0.00000
      6      16.6576      0.00000
      7      18.1429      0.00000
      8      21.4046      0.00000

 k-point    50 :       0.1184    0.1184    0.3816
  band No.  band energies     occupation 
      1       3.0691      2.00000
      2       4.4391      2.00000
      3       7.4006      2.00000
      4      10.9322     -0.00000
      5      11.5306     -0.00000
      6      17.0617      0.00000
      7      17.7859      0.00000
      8      21.6090      0.00000

 k-point    51 :       0.1316    0.1316    0.3684
  band No.  band energies     occupation 
      1       3.3426      2.00000
      2       4.4570      2.00000
      3       7.1287      2.00000
      4      11.0283     -0.00000
      5      11.5502     -0.00000
      6      17.4262      0.00000
      7      17.4754      0.00000
      8      21.7940      0.00000

 k-point    52 :       0.1447    0.1447    0.3553
  band No.  band energies     occupation 
      1       3.6252      2.00000
      2       4.4845      2.00000
      3       6.8632      2.00000
      4      11.1299     -0.00000
      5      11.5649     -0.00000
      6      17.0670      0.00000
      7      17.8963      0.00000
      8      21.9454      0.00000

 k-point    53 :       0.1579    0.1579    0.3421
  band No.  band energies     occupation 
      1       3.9105      2.00000
      2       4.5228      2.00000
      3       6.6066      2.00000
      4      11.2303     -0.00000
      5      11.5792     -0.00000
      6      16.7187      0.00000
      7      18.3201      0.00000
      8      22.0499      0.00000

 k-point    54 :       0.1711    0.1711    0.3289
  band No.  band energies     occupation 
      1       4.1905      2.00000
      2       4.5734      2.00000
      3       6.3609      2.00000
      4      11.3263     -0.00000
      5      11.5925     -0.00000
      6      16.3895      0.00000
      7      18.7436      0.00000
      8      22.0961      0.00000

 k-point    55 :       0.1842    0.1842    0.3158
  band No.  band energies     occupation 
      1       4.4557      2.00000
      2       4.6373      2.00000
      3       6.1278      2.00000
      4      11.4140     -0.00000
      5      11.6046     -0.00000
      6      16.0883      0.00000
      7      19.1635      0.00000
      8      21.9909      0.00000

 k-point    56 :       0.1974    0.1974    0.3026
  band No.  band energies     occupation 
      1       4.6954      2.00000
      2       4.7154      2.00000
      3       5.9084      2.00000
      4      11.4901     -0.00000
      5      11.6152     -0.00000
      6      15.8245      0.00000
      7      19.5762      0.00000
      8      21.6750      0.00000

 k-point    57 :       0.2105    0.2105    0.2895
  band No.  band energies     occupation 
      1       4.8086      2.00000
      2       4.8984      2.00000
      3       5.7038      2.00000
      4      11.5518     -0.00000
      5      11.6238     -0.00000
      6      15.6074      0.00000
      7      19.9780      0.00000
      8      21.4171      0.00000

 k-point    58 :       0.2237    0.2237    0.2763
  band No.  band energies     occupation 
      1       4.9182      2.00000
      2       5.0544      2.00000
      3       5.5153      2.00000
      4      11.5988     -0.00000
      5      11.6374     -0.00000
      6      15.4455      0.00000
      7      20.3673      0.00000
      8      21.2298      0.00000

 k-point    59 :       0.2368    0.2368    0.2632
  band No.  band energies     occupation 
      1       5.0450      2.00000
      2       5.1525      2.00000
      3       5.3432      2.00000
      4      11.6347     -0.00000
      5      11.6421     -0.00000
      6      15.3454      0.00000
      7      20.7373      0.00000
      8      21.1150      0.00000

 k-point    60 :       0.2500    0.2500    0.2500
  band No.  band energies     occupation 
      1       5.1858      2.00000
      2       5.1858      2.00000
      3       5.1859      2.00000
      4      11.6433     -0.00000
      5      11.6433     -0.00000
      6      15.3116      0.00000
      7      21.0752      0.00000
      8      21.0754      0.00000

 k-point    61 :       0.2500    0.2500    0.2500
  band No.  band energies     occupation 
      1       5.1858      2.00000
      2       5.1858      2.00000
      3       5.1859      2.00000
      4      11.6433     -0.00000
      5      11.6433     -0.00000
      6      15.3116      0.00000
      7      21.0752      0.00000
      8      21.0753      0.00000

 k-point    62 :       0.2368    0.2368    0.2368
  band No.  band energies     occupation 
      1       5.0388      2.00000
      2       5.0388      2.00000
      3       5.4204      2.00000
      4      11.6223     -0.00000
      5      11.6223     -0.00000
      6      15.4249      0.00000
      7      20.4194      0.00000
      8      21.4025      0.00000

 k-point    63 :       0.2237    0.2237    0.2237
  band No.  band energies     occupation 
      1       4.9038      2.00000
      2       4.9038      2.00000
      3       5.4972      2.00000
      4      11.5786     -0.00000
      5      11.5786     -0.00000
      6      15.8008      0.00000
      7      19.7288      0.00000
      8      21.7345      0.00000

 k-point    64 :       0.2105    0.2105    0.2105
  band No.  band energies     occupation 
      1       4.7927      2.00000
      2       4.7927      2.00000
      3       5.3901      2.00000
      4      11.4995     -0.00000
      5      11.4995     -0.00000
      6      16.4565      0.00000
      7      18.9674      0.00000
      8      22.0738      0.00000

 k-point    65 :       0.1974    0.1974    0.1974
  band No.  band energies     occupation 
      1       4.7174      2.00000
      2       4.7174      2.00000
      3       5.1152      2.00000
      4      11.4032     -0.00000
      5      11.4032     -0.00000
      6      17.2928      0.00000
      7      18.2187      0.00000
      8      22.4354      0.00000

 k-point    66 :       0.1842    0.1842    0.1842
  band No.  band energies     occupation 
      1       4.6835      2.00000
      2       4.6835      2.00000
      3       4.7071      2.00000
      4      11.2837     -0.00000
      5      11.2837     -0.00000
      6      17.0086      0.00000
      7      18.7361      0.00000
      8      22.8223      0.00000

 k-point    67 :       0.1711    0.1711    0.1711
  band No.  band energies     occupation 
      1       4.2060      2.00000
      2       4.6966      2.00000
      3       4.6966      2.00000
      4      11.1445     -0.00000
      5      11.1445     -0.00000
      6      16.0162      0.00000
      7      20.0773      0.00000
      8      23.2435      0.00000

 k-point    68 :       0.1579    0.1579    0.1579
  band No.  band energies     occupation 
      1       3.6459      2.00000
      2       4.7598      2.00000
      3       4.7598      2.00000
      4      10.9908     -0.00000
      5      10.9908     -0.00000
      6      14.9405      0.00000
      7      21.6017      0.00000
      8      23.7034      0.00000

 k-point    69 :       0.1447    0.1447    0.1447
  band No.  band energies     occupation 
      1       3.0530      2.00000
      2       4.8747      2.00000
      3       4.8747      2.00000
      4      10.8314     -0.00000
      5      10.8314     -0.00000
      6      13.8437     -0.00000
      7      23.2450      0.00000
      8      24.2020      0.00000

 k-point    70 :       0.1316    0.1316    0.1316
  band No.  band energies     occupation 
      1       2.4467      2.00000
      2       5.0367      2.00000
      3       5.0367      2.00000
      4      10.6701     -0.00000
      5      10.6701     -0.00000
      6      12.7565     -0.00000
      7      24.7210      0.00000
      8      24.7211      0.00000

 k-point    71 :       0.1184    0.1184    0.1184
  band No.  band energies     occupation 
      1       1.8420      2.00000
      2       5.2422      2.00000
      3       5.2422      2.00000
      4      10.5191     -0.00000
      5      10.5191     -0.00000
      6      11.7136     -0.00000
      7      25.2348      0.00000
      8      25.2348      0.00000

 k-point    72 :       0.1053    0.1053    0.1053
  band No.  band energies     occupation 
      1       1.2515      2.00000
      2       5.4824      2.00000
      3       5.4824      2.00000
      4      10.3888     -0.00000
      5      10.3888     -0.00000
      6      10.7404     -0.00000
      7      25.6354      0.00000
      8      25.6875      0.00000

 k-point    73 :       0.0921    0.0921    0.0921
  band No.  band energies     occupation 
      1       0.6870      2.00000
      2       5.7448      2.00000
      3       5.7448      2.00000
      4       9.8539     -0.00000
      5      10.2930     -0.00000
      6      10.2930     -0.00000
      7      25.1601      0.00000
      8      25.9863      0.00000

 k-point    74 :       0.0789    0.0789    0.0789
  band No.  band energies     occupation 
      1       0.1606      2.00000
      2       6.0128      2.00000
      3       6.0128      2.00000
      4       9.0735     -0.00001
      5      10.2340     -0.00000
      6      10.2340     -0.00000
      7      24.7484      0.00000
      8      26.0072      0.00000

 k-point    75 :       0.0658    0.0658    0.0658
  band No.  band energies     occupation 
      1      -0.3153      2.00000
      2       6.2677      2.00000
      3       6.2677      2.00000
      4       8.4069      0.84102
      5      10.2231     -0.00000
      6      10.2231     -0.00000
      7      24.3999      0.00000
      8      25.7030      0.00000

 k-point    76 :       0.0526    0.0526    0.0526
  band No.  band energies     occupation 
      1      -0.7276      2.00000
      2       6.4878      2.00000
      3       6.4878      2.00000
      4       7.8583      2.00116
      5      10.2573     -0.00000
      6      10.2573     -0.00000
      7      24.1140      0.00000
      8      25.1720      0.00000

 k-point    77 :       0.0395    0.0395    0.0395
  band No.  band energies     occupation 
      1      -1.0639      2.00000
      2       6.6651      2.00000
      3       6.6651      2.00000
      4       7.4332      2.00000
      5      10.3315     -0.00000
      6      10.3315     -0.00000
      7      23.8922      0.00000
      8      24.5824      0.00000

 k-point    78 :       0.0263    0.0263    0.0263
  band No.  band energies     occupation 
      1      -1.3131      2.00000
      2       6.7866      2.00000
      3       6.7866      2.00000
      4       7.1308      2.00000
      5      10.4175     -0.00000
      6      10.4175     -0.00000
      7      23.7337      0.00000
      8      24.0693      0.00000

 k-point    79 :       0.0132    0.0132    0.0132
  band No.  band energies     occupation 
      1      -1.4664      2.00000
      2       6.8586      2.00000
      3       6.8586      2.00000
      4       6.9432      2.00000
      5      10.4857     -0.00000
      6      10.4857     -0.00000
      7      23.6388      0.00000
      8      23.7266      0.00000

 k-point    80 :       0.0000    0.0000    0.0000
  band No.  band energies     occupation 
      1      -1.5181      2.00000
      2       6.8823      2.00000
      3       6.8823      2.00000
      4       6.8826      2.00000
      5      10.5125     -0.00000
      6      10.5125     -0.00000
      7      23.6069      0.00000
      8      23.6069      0.00000

 k-point    81 :       0.0000    0.0000    0.0000
  band No.  band energies     occupation 
      1      -1.5181      2.00000
      2       6.8823      2.00000
      3       6.8823      2.00000
      4       6.8826      2.00000
      5      10.5125     -0.00000
      6      10.5125     -0.00000
      7      23.6069      0.00000
      8      23.6069      0.00000

 k-point    82 :       0.0000    0.0000    0.0263
  band No.  band energies     occupation 
      1      -1.4836      2.00000
      2       6.8607      2.00000
      3       6.8786      2.00000
      4       6.9168      2.00000
      5      10.4758     -0.00000
      6      10.5129     -0.00000
      7      23.6382      0.00000
      8      23.6679      0.00000

 k-point    83 :       0.0000    0.0000    0.0526
  band No.  band energies     occupation 
      1      -1.3808      2.00000
      2       6.7969      2.00000
      3       6.8656      2.00000
      4       7.0196      2.00000
      5      10.3736     -0.00000
      6      10.5146     -0.00000
      7      23.7287      0.00000
      8      23.8457      0.00000

 k-point    84 :       0.0000    0.0000    0.0789
  band No.  band energies     occupation 
      1      -1.2122      2.00000
      2       6.6954      2.00000
      3       6.8425      2.00000
      4       7.1938      2.00000
      5      10.2277     -0.00000
      6      10.5219     -0.00000
      7      23.8696      0.00000
      8      24.1401      0.00000

 k-point    85 :       0.0000    0.0000    0.1053
  band No.  band energies     occupation 
      1      -0.9822      2.00000
      2       6.5598      2.00000
      3       6.7948      2.00000
      4       7.4341      2.00000
      5      10.0672     -0.00000
      6      10.5296     -0.00000
      7      24.0420      0.00000
      8      24.5433      0.00000

 k-point    86 :       0.0000    0.0000    0.1316
  band No.  band energies     occupation 
      1      -0.6972      2.00000
      2       6.3971      2.00000
      3       6.7218      2.00000
      4       7.7342      2.00004
      5       9.9203     -0.00000
      6      10.5433     -0.00000
      7      24.2166      0.00000
      8      25.0482      0.00000

 k-point    87 :       0.0000    0.0000    0.1579
  band No.  band energies     occupation 
      1      -0.3663      2.00000
      2       6.2166      2.00000
      3       6.6237      2.00000
      4       8.0982      2.05972
      5       9.8147     -0.00000
      6      10.5687     -0.00000
      7      24.3500      0.00000
      8      25.6489      0.00000

 k-point    88 :       0.0000    0.0000    0.1842
  band No.  band energies     occupation 
      1      -0.0021      2.00000
      2       6.0209      2.00000
      3       6.5085      2.00000
      4       8.5202      0.10878
      5       9.7642     -0.00000
      6      10.6012     -0.00000
      7      24.3845      0.00000
      8      26.2359      0.00000

 k-point    89 :       0.0000    0.0000    0.2105
  band No.  band energies     occupation 
      1       0.3784      2.00000
      2       5.8194      2.00000
      3       6.3971      2.00000
      4       8.9978     -0.00014
      5       9.7701     -0.00000
      6      10.6410     -0.00000
      7      24.2672      0.00000
      8      26.2321      0.00000

 k-point    90 :       0.0000    0.0000    0.2368
  band No.  band energies     occupation 
      1       0.7536      2.00000
      2       5.6214      2.00000
      3       6.3203      2.00000
      4       9.5274     -0.00000
      5       9.8342     -0.00000
      6      10.7008     -0.00000
      7      23.9869      0.00000
      8      25.8791      0.00000

 k-point    91 :       0.0000    0.0000    0.2632
  band No.  band energies     occupation 
      1       1.0968      2.00000
      2       5.4248      2.00000
      3       6.3089      2.00000
      4       9.9312     -0.00000
      5      10.1002     -0.00000
      6      10.7708     -0.00000
      7      23.5717      0.00000
      8      25.2625      0.00000

 k-point    92 :       0.0000    0.0000    0.2895
  band No.  band energies     occupation 
      1       1.3818      2.00000
      2       5.2382      2.00000
      3       6.3960      2.00000
      4      10.0538     -0.00000
      5      10.7098     -0.00000
      6      10.8531     -0.00000
      7      23.0764      0.00000
      8      24.5032      0.00000

 k-point    93 :       0.0000    0.0000    0.3158
  band No.  band energies     occupation 
      1       1.5895      2.00000
      2       5.0656      2.00000
      3       6.5999      2.00000
      4      10.1883     -0.00000
      5      10.9458     -0.00000
      6      11.3490     -0.00000
      7      22.5515      0.00000
      8      23.6861      0.00000

 k-point    94 :       0.0000    0.0000    0.3421
  band No.  band energies     occupation 
      1       1.7170      2.00000
      2       4.9103      2.00000
      3       6.9205      2.00000
      4      10.3190     -0.00000
      5      11.0456     -0.00000
      6      11.9979     -0.00000
      7      22.0353      0.00000
      8      22.8654      0.00000

 k-point    95 :       0.0000    0.0000    0.3684
  band No.  band energies     occupation 
      1       1.7772      2.00000
      2       4.7748      2.00000
      3       7.3345      2.00000
      4      10.4313     -0.00000
      5      11.1479     -0.00000
      6      12.6421     -0.00000
      7      21.5561      0.00000
      8      22.0809      0.00000

 k-point    96 :       0.0000    0.0000    0.3947
  band No.  band energies     occupation 
      1       1.7913      2.00000
      2       4.6610      2.00000
      3       7.8040      2.00029
      4      10.5097     -0.00000
      5      11.2377     -0.00000
      6      13.2541     -0.00000
      7      21.1339      0.00000
      8      21.3650      0.00000

 k-point    97 :       0.0000    0.0000    0.4211
  band No.  band energies     occupation 
      1       1.7806      2.00000
      2       4.5710      2.00000
      3       8.2854      1.75437
      4      10.5413     -0.00000
      5      11.3239     -0.00000
      6      13.8053     -0.00000
      7      20.7545      0.00000
      8      20.7875      0.00000

 k-point    98 :       0.0000    0.0000    0.4474
  band No.  band energies     occupation 
      1       1.7619      2.00000
      2       4.5059      2.00000
      3       8.7258     -0.03807
      4      10.5204     -0.00000
      5      11.3923     -0.00000
      6      14.2518      0.00000
      7      20.2828      0.00000
      8      20.5296      0.00000

 k-point    99 :       0.0000    0.0000    0.4737
  band No.  band energies     occupation 
      1       1.7464      2.00000
      2       4.4664      2.00000
      3       9.0575     -0.00002
      4      10.4646     -0.00000
      5      11.4367     -0.00000
      6      14.5466      0.00000
      7      19.9833      0.00000
      8      20.3703      0.00000

 k-point   100 :       0.0000    0.0000    0.5000
  band No.  band energies     occupation 
      1       1.7404      2.00000
      2       4.4533      2.00000
      3       9.1875     -0.00000
      4      10.4307     -0.00000
      5      11.4501     -0.00000
      6      14.6503      0.00000
      7      19.8778      0.00000
      8      20.3164      0.00000


--------------------------------------------------------------------------------------------------------


 soft charge-density along one line, spin component           1
         0         1         2         3         4         5         6         7         8         9
 total charge-density along one line
 
 pseudopotential strength for first ion, spin component:           1
 -6.755   0.000   0.000   0.000   0.000   0.000   0.000   0.000   0.000   0.000   0.132   0.000   0.000   0.000   0.000   0.000
  0.000   0.000  -6.755   0.000  -0.000   0.000   0.000   0.000   0.000   0.000   0.000   0.000   0.132   0.000  -0.000   0.000
  0.000   0.000  -0.000   0.000  -6.748   0.000  -0.000   0.000  -0.000   0.000   0.000   0.000  -0.000   0.000   0.132   0.000
  0.000   0.000   0.000   0.000  -0.000   0.000  -6.755   0.000  -0.000   0.000   0.000   0.000   0.000   0.000  -0.000   0.000
  0.000   0.000   0.000   0.000  -0.000   0.000  -0.000   0.000  -6.748   0.000   0.000   0.000   0.000   0.000  -0.000   0.000
  0.132   0.000   0.000   0.000   0.000   0.000   0.000   0.000   0.000   0.000   0.084   0.000  -0.000   0.000  -0.000   0.000
  0.000   0.000   0.132   0.000  -0.000   0.000   0.000   0.000   0.000   0.000  -0.000   0.000   0.084   0.000   0.000   0.000
  0.000   0.000  -0.000   0.000   0.132   0.000  -0.000   0.000  -0.000   0.000  -0.000   0.000   0.000   0.000   0.084   0.000
  0.000   0.000   0.000   0.000  -0.000   0.000   0.132   0.000  -0.000   0.000  -0.000   0.000  -0.000   0.000   0.000   0.000
  0.000   0.000   0.000   0.000  -0.000   0.000  -0.000   0.000   0.132   0.000  -0.000   0.000  -0.000   0.000   0.000   0.000
 -0.000   0.000  -0.000   0.000  -0.000   0.000  -0.000   0.000   0.000   0.000  -0.000   0.000  -0.000   0.000   0.000   0.000
  0.000   0.000   0.000   0.000   0.000   0.000   0.000   0.000  -0.000   0.000   0.000   0.000   0.000   0.000  -0.000   0.000
 -0.000   0.000  -0.000   0.000  -0.000   0.000   0.000   0.000  -0.000   0.000  -0.000   0.000   0.000   0.000  -0.000   0.000
  0.000   0.000   0.000   0.000   0.000   0.000  -0.000   0.000   0.000   0.000  -0.000   0.000   0.000   0.000   0.000   0.000
  0.000   0.000   0.000   0.000   0.000   0.000   0.000   0.000  -0.000   0.000   0.000   0.000  -0.000   0.000   0.000   0.000
  0.000   0.000   0.000   0.000   0.000   0.000  -0.000   0.000   0.000   0.000   0.000   0.000  -0.000   0.000   0.000   0.000
 -0.000   0.000  -0.000   0.000  -0.000   0.000  -0.000   0.000  -0.000   0.000   0.000   0.000  -0.000   0.000  -0.000   0.000
 -0.000   0.000  -0.000   0.000  -0.000   0.000  -0.000   0.000   0.000   0.000  -0.000   0.000   0.000   0.000  -0.000   0.000
 total augmentation occupancy for first ion, spin component:           1
  1.000   0.000   0.000   0.000   0.000   0.000   0.000   0.000   0.000   0.000   0.000   0.000   0.000   0.000   0.000   0.000
  0.000   1.000   0.000   0.000   0.000   0.000   0.000   0.000   0.000   0.000   0.000   0.000   0.000   0.000   0.000   0.000
  0.000   0.000   1.000   0.000   0.000   0.000   0.000   0.000   0.000   0.000   0.000   0.000   0.000   0.000   0.000   0.000
  0.000   0.000   0.000   1.000   0.000   0.000   0.000   0.000   0.000   0.000   0.000   0.000   0.000   0.000   0.000   0.000
  0.000   0.000   0.000   0.000   1.000   0.000   0.000   0.000   0.000   0.000   0.000   0.000   0.000   0.000   0.000   0.000
  0.000   0.000   0.000   0.000   0.000   0.000   0.000   0.000   0.000   0.000   0.000   0.000   0.000   0.000   0.000   0.000
  0.000   0.000   0.000   0.000   0.000   0.000   0.000   0.000   0.000   0.000   0.000   0.000   0.000   0.000   0.000   0.000
  0.000   0.000   0.000   0.000   0.000   0.000   0.000   0.000   0.000   0.000   0.000   0.000   0.000   0.000   0.000   0.000
  0.000   0.000   0.000   0.000   0.000   0.000   0.000   0.000   0.000   0.000   0.000   0.000   0.000   0.000   0.000   0.000
  0.000   0.000   0.000   0.000   0.000   0.000   0.000   0.000   0.000   0.000   0.000   0.000   0.000   0.000   0.000   0.000
  0.000   0.000   0.000   0.000   0.000   0.000   0.000   0.000   0.000   0.000   1.000   0.000   0.000   0.000   0.000   0.000
  0.000   0.000   0.000   0.000   0.000   0.000   0.000   0.000   0.000   0.000   0.000   0.000   0.000   0.000   0.000   0.000
  0.000   0.000   0.000   0.000   0.000   0.000   0.000   0.000   0.000   0.000   0.000   0.000   0.000   0.000   0.000   0.000
  0.000   0.000   0.000   0.000   0.000   0.000   0.000   0.000   0.000   0.000   0.000   0.000   0.000   0.000   0.000   0.000
  0.000   0.000   0.000   0.000   0.000   0.000   0.000   0.000   0.000   0.000   0.000   0.000   0.000   0.000   0.000   0.000
  0.000   0.000   0.000   0.000   0.000   0.000   0.000   0.000   0.000   0.000   0.000   0.000   0.000   0.000   0.000   0.000
  0.000   0.000   0.000   0.000   0.000   0.000   0.000   0.000   0.000   0.000   0.000   0.000   0.000   0.000   0.000   0.000
  0.000   0.000   0.000   0.000   0.000   0.000   0.000   0.000   0.000   0.000   0.000   0.000   0.000   0.000   0.000   0.000


------------------------ aborting loop because EDIFF is reached ----------------------------------------


    CHARGE:  cpu time    0.0023: real time    0.0023
    FORLOC:  cpu time    0.0001: real time    0.0001
    FORNL :  cpu time    0.0042: real time    0.0042
    STRESS:  cpu time    0.0279: real time    0.0280
    FORCOR:  cpu time    0.0003: real time    0.0004
    FORHAR:  cpu time    0.0004: real time    0.0003
    OFIELD:  cpu time    0.0000: real time    0.0000

  FORCE on cell =-STRESS in cart. coord.  units (eV):
  Direction    XX          YY          ZZ          XY          YZ          ZX
  --------------------------------------------------------------------------------------
  Alpha Z    45.64971    45.64971    45.64971
  Ewald    -100.54525  -100.54525  -100.54525    -0.00000    -0.00000    -0.00000
  Hartree     1.07539     1.07539     1.07539    -0.00000    -0.00000    -0.00000
  E(xc)     -27.49842   -27.49842   -27.49842    -0.00000    -0.00000    -0.00000
  Local      10.33838    10.33838    10.33838    -0.00015    -0.00015    -0.00015
  n-local   -16.91889   -17.54104   -14.69607    -2.94741    -0.65695    -0.65698
  augment     5.48178     5.48178     5.48178     0.00001     0.00001     0.00001
  Kinetic    80.08486    79.00334    87.31230     2.63263     0.71129     0.71130
  Fock        0.00000     0.00000     0.00000     0.00000     0.00000     0.00000
  -------------------------------------------------------------------------------------
  Total       0.24974     0.24974     0.24974     0.00000     0.00000     0.00000
  in kB      26.16788    26.16788    26.16788     0.00000     0.00000     0.00000
  external pressure =       26.17 kB  Pullay stress =        0.00 kB


 VOLUME and BASIS-vectors are now :
 -----------------------------------------------------------------------------
  energy-cutoff  :      224.00
  volume of cell :       15.29
      direct lattice vectors                 reciprocal lattice vectors
    -1.563600000  1.563600000  1.563600000     0.000000000  0.319774878  0.319774878
     1.563600000 -1.563600000  1.563600000     0.319774878  0.000000000  0.319774878
     1.563600000  1.563600000 -1.563600000     0.319774878  0.319774878  0.000000000

  length of vectors
     2.708234643  2.708234643  2.708234643     0.452229970  0.452229970  0.452229970


 FORCES acting on ions
    electron-ion (+dipol)            ewald-force                    non-local-force                 convergence-correction
 -----------------------------------------------------------------------------------------------
   0.586E-14 0.591E-14 0.703E-14   -.981E-16 -.437E-15 0.141E-14   0.000E+00 -.496E-23 0.116E-22   0.559E-15 0.252E-15 -.591E-16
 -----------------------------------------------------------------------------------------------
   0.586E-14 0.591E-14 0.703E-14   -.981E-16 -.437E-15 0.141E-14   0.000E+00 -.496E-23 0.116E-22   0.559E-15 0.252E-15 -.591E-16
 
 
 POSITION                                       TOTAL-FORCE (eV/Angst)
 -----------------------------------------------------------------------------------
      0.00000      0.00000      0.00000         0.000000     -0.000000      0.000000
 -----------------------------------------------------------------------------------
    total drift:                                0.000000      0.000000      0.000000


--------------------------------------------------------------------------------------------------------



  FREE ENERGIE OF THE ION-ELECTRON SYSTEM (eV)
  ---------------------------------------------------
  free  energy   TOTEN  =       -14.96109138 eV

  energy  without entropy=      -14.95874977  energy(sigma->0) =      -14.96031084
 


--------------------------------------------------------------------------------------------------------


    POTLOK:  cpu time    0.0019: real time    0.0026


--------------------------------------------------------------------------------------------------------


 writing wavefunctions
     LOOP+:  cpu time    0.4391: real time    0.4642
    4ORBIT:  cpu time    0.0000: real time    0.0000

volume of typ            1:    84.4 %
 
total charge     
 
# of ion       s       p       d       tot
------------------------------------------
    1        0.528   0.373   3.838   4.739
 
orbital moment (x)
 
# of ion     s             p             d             tot
-----------------------------------------------------------------
    1     0.000000E+00  0.105206E-08 -0.200636E-08 -0.954298E-09
 
orbital moment (y)
 
# of ion     s             p             d             tot
-----------------------------------------------------------------
    1     0.000000E+00 -0.761209E-09  0.602639E-08  0.526518E-08
 
orbital moment (z)
 
# of ion     s             p             d             tot
-----------------------------------------------------------------
    1     0.000000E+00 -0.175106E-07 -0.167199E-09 -0.176778E-07
 

 total amount of memory used by VASP MPI-rank0    32808. kBytes
=======================================================================

   base      :      30000. kBytes
   nonl-proj :       1960. kBytes
   fftplans  :        142. kBytes
   grid      :        192. kBytes
   one-center:         15. kBytes
   wavefun   :        499. kBytes
 
  
  
 General timing and accounting informations for this job:
 ========================================================
  
                  Total CPU time used (sec):        0.820
                            User time (sec):        0.550
                          System time (sec):        0.270
                         Elapsed time (sec):        1.210
  
                   Maximum memory used (kb):       60076.
                   Average memory used (kb):           0.
  
                          Minor page faults:         7596
                          Major page faults:           72
                 Voluntary context switches:         1018
