PROCAR new format
# of k-points:  100         # of bands:    8         # of ions:    1

 k-point     1 :    0.00000000 0.00000000 0.00000000     weight = 0.01000000

band     1 # energy   -1.51812397 # occ.  2.00000000
 
ion      s      p      d    tot
    1  0.624  0.000  0.000  0.624
 
band     2 # energy    6.88233432 # occ.  2.00000000
 
ion      s      p      d    tot
    1  0.000  0.000  0.928  0.928
 
band     3 # energy    6.88233432 # occ.  2.00000000
 
ion      s      p      d    tot
    1  0.000  0.000  0.928  0.928
 
band     4 # energy    6.88255476 # occ.  2.00000000
 
ion      s      p      d    tot
    1  0.000  0.000  0.928  0.928
 
band     5 # energy   10.51250935 # occ. -0.00000000
 
ion      s      p      d    tot
    1  0.000  0.000  0.873  0.873
 
band     6 # energy   10.51250935 # occ. -0.00000000
 
ion      s      p      d    tot
    1  0.000  0.000  0.873  0.873
 
band     7 # energy   23.60688722 # occ.  0.00000000
 
ion      s      p      d    tot
    1  0.000  0.000  0.000  0.000
 
band     8 # energy   23.60688990 # occ.  0.00000000
 
ion      s      p      d    tot
    1  0.000  0.000  0.000  0.000
 

 k-point     2 :    0.02631579-0.02631579 0.02631579     weight = 0.01000000

band     1 # energy   -1.44914745 # occ.  2.00000000
 
ion      s      p      d    tot
    1  0.621  0.003  0.000  0.624
 
band     2 # energy    6.87528102 # occ.  2.00000000
 
ion      s      p      d    tot
    1  0.000  0.001  0.925  0.926
 
band     3 # energy    6.87542725 # occ.  2.00000000
 
ion      s      p      d    tot
    1  0.000  0.001  0.925  0.926
 
band     4 # energy    6.91497463 # occ.  2.00000000
 
ion      s      p      d    tot
    1  0.000  0.000  0.928  0.928
 
band     5 # energy   10.40151934 # occ. -0.00000000
 
ion      s      p      d    tot
    1  0.000  0.000  0.866  0.866
 
band     6 # energy   10.55082749 # occ. -0.00000000
 
ion      s      p      d    tot
    1  0.000  0.000  0.874  0.875
 
band     7 # energy   23.72675134 # occ.  0.00000000
 
ion      s      p      d    tot
    1  0.000  0.000  0.003  0.003
 
band     8 # energy   23.72904473 # occ.  0.00000000
 
ion      s      p      d    tot
    1  0.000  0.000  0.009  0.009
 

 k-point     3 :    0.05263158-0.05263158 0.05263158     weight = 0.01000000

band     1 # energy   -1.24443901 # occ.  2.00000000
 
ion      s      p      d    tot
    1  0.612  0.012  0.000  0.624
 
band     2 # energy    6.86149064 # occ.  2.00000000
 
ion      s      p      d    tot
    1  0.000  0.004  0.917  0.920
 
band     3 # energy    6.86163094 # occ.  2.00000000
 
ion      s      p      d    tot
    1  0.000  0.004  0.917  0.920
 
band     4 # energy    7.01285292 # occ.  2.00000000
 
ion      s      p      d    tot
    1  0.000  0.000  0.926  0.926
 
band     5 # energy   10.08507966 # occ. -0.00000000
 
ion      s      p      d    tot
    1  0.000  0.000  0.847  0.847
 
band     6 # energy   10.66833430 # occ. -0.00000000
 
ion      s      p      d    tot
    1  0.000  0.000  0.879  0.879
 
band     7 # energy   24.08192148 # occ.  0.00000000
 
ion      s      p      d    tot
    1  0.000  0.000  0.045  0.045
 
band     8 # energy   24.08245185 # occ.  0.00000000
 
ion      s      p      d    tot
    1  0.000  0.000  0.011  0.011
 

 k-point     4 :    0.07894737-0.07894737 0.07894737     weight = 0.01000000

band     1 # energy   -0.91103013 # occ.  2.00000000
 
ion      s      p      d    tot
    1  0.597  0.026  0.001  0.625
 
band     2 # energy    6.84482719 # occ.  2.00000000
 
ion      s      p      d    tot
    1  0.000  0.008  0.904  0.912
 
band     3 # energy    6.84495653 # occ.  2.00000000
 
ion      s      p      d    tot
    1  0.000  0.008  0.904  0.912
 
band     4 # energy    7.17565727 # occ.  2.00000000
 
ion      s      p      d    tot
    1  0.000  0.000  0.923  0.923
 
band     5 # energy    9.60540366 # occ. -0.00000000
 
ion      s      p      d    tot
    1  0.000  0.000  0.822  0.822
 
band     6 # energy   10.84584091 # occ. -0.00000000
 
ion      s      p      d    tot
    1  0.001  0.001  0.885  0.887
 
band     7 # energy   24.61752490 # occ.  0.00000000
 
ion      s      p      d    tot
    1  0.000  0.000  0.096  0.096
 
band     8 # energy   24.65831456 # occ.  0.00000000
 
ion      s      p      d    tot
    1  0.000  0.000  0.025  0.025
 

 k-point     5 :    0.10526316-0.10526316 0.10526316     weight = 0.01000000

band     1 # energy   -0.46077751 # occ.  2.00000000
 
ion      s      p      d    tot
    1  0.576  0.046  0.004  0.626
 
band     2 # energy    6.83668574 # occ.  2.00000000
 
ion      s      p      d    tot
    1  0.000  0.014  0.888  0.901
 
band     3 # energy    6.83681599 # occ.  2.00000000
 
ion      s      p      d    tot
    1  0.000  0.014  0.888  0.901
 
band     4 # energy    7.39917490 # occ.  2.00000000
 
ion      s      p      d    tot
    1  0.000  0.000  0.919  0.919
 
band     5 # energy    9.00414393 # occ. -0.00011803
 
ion      s      p      d    tot
    1  0.000  0.000  0.796  0.796
 
band     6 # energy   11.07154721 # occ. -0.00000000
 
ion      s      p      d    tot
    1  0.003  0.001  0.893  0.898
 
band     7 # energy   25.27335423 # occ.  0.00000000
 
ion      s      p      d    tot
    1  0.000  0.000  0.153  0.153
 
band     8 # energy   25.42956304 # occ.  0.00000000
 
ion      s      p      d    tot
    1  0.000  0.000  0.043  0.043
 

 k-point     6 :    0.13157895-0.13157895 0.13157895     weight = 0.01000000

band     1 # energy    0.08940816 # occ.  2.00000000
 
ion      s      p      d    tot
    1  0.548  0.069  0.011  0.628
 
band     2 # energy    6.85912536 # occ.  2.00000000
 
ion      s      p      d    tot
    1  0.000  0.021  0.870  0.890
 
band     3 # energy    6.85924564 # occ.  2.00000000
 
ion      s      p      d    tot
    1  0.000  0.021  0.870  0.890
 
band     4 # energy    7.69134825 # occ.  2.00000974
 
ion      s      p      d    tot
    1  0.000  0.000  0.915  0.915
 
band     5 # energy    8.33336152 # occ.  1.44366304
 
ion      s      p      d    tot
    1  0.000  0.000  0.774  0.774
 
band     6 # energy   11.33038683 # occ. -0.00000000
 
ion      s      p      d    tot
    1  0.008  0.002  0.900  0.911
 
band     7 # energy   25.99889750 # occ.  0.00000000
 
ion      s      p      d    tot
    1  0.000  0.000  0.213  0.213
 
band     8 # energy   26.36210363 # occ.  0.00000000
 
ion      s      p      d    tot
    1  0.000  0.001  0.068  0.069
 

 k-point     7 :    0.15789474-0.15789474 0.15789474     weight = 0.01000000

band     1 # energy    0.71654183 # occ.  2.00000000
 
ion      s      p      d    tot
    1  0.511  0.096  0.023  0.629
 
band     2 # energy    6.92344799 # occ.  2.00000000
 
ion      s      p      d    tot
    1  0.000  0.029  0.850  0.879
 
band     3 # energy    6.92356919 # occ.  2.00000000
 
ion      s      p      d    tot
    1  0.000  0.029  0.850  0.879
 
band     4 # energy    7.62771072 # occ.  2.00000106
 
ion      s      p      d    tot
    1  0.000  0.000  0.757  0.757
 
band     5 # energy    8.03223391 # occ.  2.03052479
 
ion      s      p      d    tot
    1  0.000  0.000  0.911  0.911
 
band     6 # energy   11.57855786 # occ. -0.00000000
 
ion      s      p      d    tot
    1  0.018  0.004  0.902  0.924
 
band     7 # energy   25.76067603 # occ.  0.00000000
 
ion      s      p      d    tot
    1  0.079  0.171  0.010  0.260
 
band     8 # energy   26.74751567 # occ.  0.00000000
 
ion      s      p      d    tot
    1  0.000  0.000  0.272  0.272
 

 k-point     8 :    0.18421053-0.18421053 0.18421053     weight = 0.01000000

band     1 # energy    1.39036798 # occ.  2.00000000
 
ion      s      p      d    tot
    1  0.465  0.123  0.044  0.632
 
band     2 # energy    6.91683724 # occ.  2.00000000
 
ion      s      p      d    tot
    1  0.000  0.000  0.744  0.744
 
band     3 # energy    7.04484383 # occ.  2.00000000
 
ion      s      p      d    tot
    1  0.000  0.039  0.830  0.869
 
band     4 # energy    7.04496622 # occ.  2.00000000
 
ion      s      p      d    tot
    1  0.000  0.039  0.830  0.869
 
band     5 # energy    8.42722363 # occ.  0.67487798
 
ion      s      p      d    tot
    1  0.000  0.000  0.906  0.906
 
band     6 # energy   11.77676094 # occ. -0.00000000
 
ion      s      p      d    tot
    1  0.037  0.006  0.890  0.933
 
band     7 # energy   24.54905275 # occ.  0.00000000
 
ion      s      p      d    tot
    1  0.092  0.159  0.000  0.251
 
band     8 # energy   27.49027189 # occ.  0.00000000
 
ion      s      p      d    tot
    1  0.000  0.000  0.328  0.328
 

 k-point     9 :    0.21052632-0.21052632 0.21052632     weight = 0.01000000

band     1 # energy    2.07055663 # occ.  2.00000000
 
ion      s      p      d    tot
    1  0.408  0.149  0.080  0.637
 
band     2 # energy    6.22156974 # occ.  2.00000000
 
ion      s      p      d    tot
    1  0.000  0.000  0.736  0.736
 
band     3 # energy    7.23433715 # occ.  2.00000000
 
ion      s      p      d    tot
    1  0.000  0.049  0.810  0.859
 
band     4 # energy    7.23446115 # occ.  2.00000000
 
ion      s      p      d    tot
    1  0.000  0.049  0.810  0.859
 
band     5 # energy    8.87142524 # occ. -0.00332546
 
ion      s      p      d    tot
    1  0.000  0.000  0.902  0.902
 
band     6 # energy   11.88718694 # occ. -0.00000000
 
ion      s      p      d    tot
    1  0.068  0.010  0.851  0.929
 
band     7 # energy   23.74286993 # occ.  0.00000000
 
ion      s      p      d    tot
    1  0.099  0.148  0.008  0.255
 
band     8 # energy   28.20838382 # occ.  0.00000000
 
ion      s      p      d    tot
    1  0.000  0.000  0.380  0.380
 

 k-point    10 :    0.23684211-0.23684211 0.23684211     weight = 0.01000000

band     1 # energy    2.70327853 # occ.  2.00000000
 
ion      s      p      d    tot
    1  0.339  0.169  0.137  0.645
 
band     2 # energy    5.55721590 # occ.  2.00000000
 
ion      s      p      d    tot
    1  0.000  0.000  0.730  0.730
 
band     3 # energy    7.49917374 # occ.  2.00000001
 
ion      s      p      d    tot
    1  0.000  0.060  0.791  0.851
 
band     4 # energy    7.49929996 # occ.  2.00000001
 
ion      s      p      d    tot
    1  0.000  0.060  0.791  0.851
 
band     5 # energy    9.35844933 # occ. -0.00000000
 
ion      s      p      d    tot
    1  0.000  0.000  0.899  0.899
 
band     6 # energy   11.89784396 # occ. -0.00000000
 
ion      s      p      d    tot
    1  0.114  0.019  0.773  0.907
 
band     7 # energy   23.38951152 # occ.  0.00000000
 
ion      s      p      d    tot
    1  0.102  0.141  0.037  0.280
 
band     8 # energy   28.89336669 # occ.  0.00000000
 
ion      s      p      d    tot
    1  0.000  0.002  0.425  0.426
 

 k-point    11 :    0.26315789-0.26315789 0.26315789     weight = 0.01000000

band     1 # energy    3.22021815 # occ.  2.00000000
 
ion      s      p      d    tot
    1  0.259  0.178  0.220  0.657
 
band     2 # energy    4.93503023 # occ.  2.00000000
 
ion      s      p      d    tot
    1  0.000  0.000  0.728  0.728
 
band     3 # energy    7.84710949 # occ.  2.00088585
 
ion      s      p      d    tot
    1  0.000  0.071  0.772  0.843
 
band     4 # energy    7.84723873 # occ.  2.00088868
 
ion      s      p      d    tot
    1  0.000  0.071  0.772  0.843
 
band     5 # energy    9.88065003 # occ. -0.00000000
 
ion      s      p      d    tot
    1  0.000  0.000  0.897  0.897
 
band     6 # energy   11.88569114 # occ. -0.00000000
 
ion      s      p      d    tot
    1  0.172  0.038  0.657  0.866
 
band     7 # energy   23.48019252 # occ.  0.00000000
 
ion      s      p      d    tot
    1  0.101  0.139  0.083  0.323
 
band     8 # energy   28.04335784 # occ.  0.00000000
 
ion      s      p      d    tot
    1  0.000  0.346  0.322  0.668
 

 k-point    12 :    0.28947368-0.28947368 0.28947368     weight = 0.01000000

band     1 # energy    3.54925321 # occ.  2.00000000
 
ion      s      p      d    tot
    1  0.176  0.171  0.326  0.674
 
band     2 # energy    4.36336606 # occ.  2.00000000
 
ion      s      p      d    tot
    1  0.000  0.000  0.728  0.728
 
band     3 # energy    8.28333353 # occ.  1.76518033
 
ion      s      p      d    tot
    1  0.000  0.083  0.754  0.837
 
band     4 # energy    8.28345803 # occ.  1.76452487
 
ion      s      p      d    tot
    1  0.000  0.083  0.754  0.837
 
band     5 # energy   10.43031263 # occ. -0.00000000
 
ion      s      p      d    tot
    1  0.000  0.000  0.897  0.897
 
band     6 # energy   11.95992706 # occ. -0.00000000
 
ion      s      p      d    tot
    1  0.231  0.071  0.513  0.814
 
band     7 # energy   23.94705717 # occ.  0.00000000
 
ion      s      p      d    tot
    1  0.103  0.141  0.135  0.379
 
band     8 # energy   26.72011414 # occ.  0.00000000
 
ion      s      p      d    tot
    1  0.000  0.391  0.312  0.703
 

 k-point    13 :    0.31578947-0.31578947 0.31578947     weight = 0.01000000

band     1 # energy    3.64529846 # occ.  2.00000000
 
ion      s      p      d    tot
    1  0.103  0.148  0.442  0.693
 
band     2 # energy    3.84848091 # occ.  2.00000000
 
ion      s      p      d    tot
    1  0.000  0.000  0.729  0.729
 
band     3 # energy    8.80448096 # occ. -0.01213724
 
ion      s      p      d    tot
    1  0.000  0.094  0.738  0.832
 
band     4 # energy    8.80461153 # occ. -0.01210994
 
ion      s      p      d    tot
    1  0.000  0.094  0.738  0.832
 
band     5 # energy   10.98955622 # occ. -0.00000000
 
ion      s      p      d    tot
    1  0.000  0.000  0.899  0.899
 
band     6 # energy   12.23049936 # occ. -0.00000000
 
ion      s      p      d    tot
    1  0.273  0.120  0.366  0.759
 
band     7 # energy   24.68414012 # occ.  0.00000000
 
ion      s      p      d    tot
    1  0.113  0.149  0.181  0.443
 
band     8 # energy   25.26942531 # occ.  0.00000000
 
ion      s      p      d    tot
    1  0.000  0.408  0.300  0.709
 

 k-point    14 :    0.34210526-0.34210526 0.34210526     weight = 0.01000000

band     1 # energy    3.39414834 # occ.  2.00000000
 
ion      s      p      d    tot
    1  0.000  0.000  0.731  0.731
 
band     2 # energy    3.52463615 # occ.  2.00000000
 
ion      s      p      d    tot
    1  0.052  0.114  0.543  0.709
 
band     3 # energy    9.40930025 # occ. -0.00000000
 
ion      s      p      d    tot
    1  0.000  0.103  0.726  0.829
 
band     4 # energy    9.40944184 # occ. -0.00000000
 
ion      s      p      d    tot
    1  0.000  0.103  0.726  0.829
 
band     5 # energy   11.54601680 # occ. -0.00000000
 
ion      s      p      d    tot
    1  0.000  0.000  0.903  0.903
 
band     6 # energy   12.74393738 # occ. -0.00000000
 
ion      s      p      d    tot
    1  0.288  0.181  0.241  0.711
 
band     7 # energy   23.79011817 # occ.  0.00000000
 
ion      s      p      d    tot
    1  0.000  0.415  0.288  0.704
 
band     8 # energy   23.79025634 # occ.  0.00000000
 
ion      s      p      d    tot
    1  0.000  0.415  0.288  0.704
 

 k-point    15 :    0.36842105-0.36842105 0.36842105     weight = 0.01000000

band     1 # energy    3.00542697 # occ.  2.00000000
 
ion      s      p      d    tot
    1  0.000  0.000  0.733  0.733
 
band     2 # energy    3.25380388 # occ.  2.00000000
 
ion      s      p      d    tot
    1  0.023  0.080  0.618  0.722
 
band     3 # energy   10.09882863 # occ. -0.00000000
 
ion      s      p      d    tot
    1  0.000  0.110  0.719  0.829
 
band     4 # energy   10.09897987 # occ. -0.00000000
 
ion      s      p      d    tot
    1  0.000  0.110  0.719  0.829
 
band     5 # energy   12.08073794 # occ. -0.00000000
 
ion      s      p      d    tot
    1  0.000  0.000  0.910  0.910
 
band     6 # energy   13.46422575 # occ. -0.00000000
 
ion      s      p      d    tot
    1  0.273  0.247  0.150  0.669
 
band     7 # energy   22.33051312 # occ.  0.00000000
 
ion      s      p      d    tot
    1  0.000  0.419  0.275  0.694
 
band     8 # energy   22.33063984 # occ.  0.00000000
 
ion      s      p      d    tot
    1  0.000  0.419  0.275  0.694
 

 k-point    16 :    0.39473684-0.39473684 0.39473684     weight = 0.01000000

band     1 # energy    2.68420855 # occ.  2.00000000
 
ion      s      p      d    tot
    1  0.000  0.000  0.735  0.735
 
band     2 # energy    2.91996720 # occ.  2.00000000
 
ion      s      p      d    tot
    1  0.008  0.051  0.670  0.730
 
band     3 # energy   10.85945390 # occ. -0.00000000
 
ion      s      p      d    tot
    1  0.000  0.113  0.721  0.834
 
band     4 # energy   10.85961844 # occ. -0.00000000
 
ion      s      p      d    tot
    1  0.000  0.113  0.721  0.834
 
band     5 # energy   12.57132948 # occ. -0.00000000
 
ion      s      p      d    tot
    1  0.000  0.000  0.919  0.919
 
band     6 # energy   14.32425676 # occ.  0.00000000
 
ion      s      p      d    tot
    1  0.233  0.314  0.088  0.635
 
band     7 # energy   20.91684617 # occ.  0.00000000
 
ion      s      p      d    tot
    1  0.000  0.424  0.255  0.679
 
band     8 # energy   20.91695910 # occ.  0.00000000
 
ion      s      p      d    tot
    1  0.000  0.424  0.255  0.679
 

 k-point    17 :    0.42105263-0.42105263 0.42105263     weight = 0.01000000

band     1 # energy    2.43258509 # occ.  2.00000000
 
ion      s      p      d    tot
    1  0.000  0.000  0.737  0.737
 
band     2 # energy    2.59657053 # occ.  2.00000000
 
ion      s      p      d    tot
    1  0.002  0.028  0.704  0.735
 
band     3 # energy   11.67914535 # occ. -0.00000000
 
ion      s      p      d    tot
    1  0.000  0.107  0.738  0.845
 
band     4 # energy   11.67932745 # occ. -0.00000000
 
ion      s      p      d    tot
    1  0.000  0.107  0.738  0.845
 
band     5 # energy   12.99264394 # occ. -0.00000000
 
ion      s      p      d    tot
    1  0.000  0.000  0.928  0.928
 
band     6 # energy   15.23913839 # occ.  0.00000000
 
ion      s      p      d    tot
    1  0.174  0.384  0.048  0.606
 
band     7 # energy   19.58356221 # occ.  0.00000000
 
ion      s      p      d    tot
    1  0.000  0.435  0.225  0.660
 
band     8 # energy   19.58365580 # occ.  0.00000000
 
ion      s      p      d    tot
    1  0.000  0.435  0.225  0.660
 

 k-point    18 :    0.44736842-0.44736842 0.44736842     weight = 0.01000000

band     1 # energy    2.25192322 # occ.  2.00000000
 
ion      s      p      d    tot
    1  0.000  0.000  0.739  0.739
 
band     2 # energy    2.33418315 # occ.  2.00000000
 
ion      s      p      d    tot
    1  0.000  0.012  0.725  0.738
 
band     3 # energy   12.51521497 # occ. -0.00000000
 
ion      s      p      d    tot
    1  0.000  0.086  0.784  0.869
 
band     4 # energy   12.51542298 # occ. -0.00000000
 
ion      s      p      d    tot
    1  0.000  0.086  0.784  0.869
 
band     5 # energy   13.31859276 # occ. -0.00000000
 
ion      s      p      d    tot
    1  0.000  0.000  0.937  0.937
 
band     6 # energy   16.09801242 # occ.  0.00000000
 
ion      s      p      d    tot
    1  0.102  0.456  0.021  0.579
 
band     7 # energy   18.37641300 # occ.  0.00000000
 
ion      s      p      d    tot
    1  0.000  0.460  0.170  0.630
 
band     8 # energy   18.37647966 # occ.  0.00000000
 
ion      s      p      d    tot
    1  0.000  0.460  0.170  0.630
 

 k-point    19 :    0.47368421-0.47368421 0.47368421     weight = 0.01000000

band     1 # energy    2.14316130 # occ.  2.00000000
 
ion      s      p      d    tot
    1  0.000  0.000  0.740  0.740
 
band     2 # energy    2.16507596 # occ.  2.00000000
 
ion      s      p      d    tot
    1  0.000  0.003  0.737  0.740
 
band     3 # energy   13.25518409 # occ. -0.00000000
 
ion      s      p      d    tot
    1  0.000  0.040  0.872  0.912
 
band     4 # energy   13.25543013 # occ. -0.00000000
 
ion      s      p      d    tot
    1  0.000  0.040  0.872  0.912
 
band     5 # energy   13.52549701 # occ. -0.00000000
 
ion      s      p      d    tot
    1  0.000  0.000  0.943  0.943
 
band     6 # energy   16.74660888 # occ.  0.00000000
 
ion      s      p      d    tot
    1  0.032  0.520  0.006  0.557
 
band     7 # energy   17.41222794 # occ.  0.00000000
 
ion      s      p      d    tot
    1  0.000  0.508  0.075  0.583
 
band     8 # energy   17.41225590 # occ.  0.00000000
 
ion      s      p      d    tot
    1  0.000  0.508  0.075  0.583
 

 k-point    20 :    0.50000000-0.50000000 0.50000000     weight = 0.01000000

band     1 # energy    2.10684404 # occ.  2.00000000
 
ion      s      p      d    tot
    1  0.000  0.000  0.740  0.740
 
band     2 # energy    2.10684404 # occ.  2.00000000
 
ion      s      p      d    tot
    1  0.000  0.000  0.740  0.740
 
band     3 # energy   13.59640086 # occ. -0.00000000
 
ion      s      p      d    tot
    1  0.000  0.000  0.946  0.946
 
band     4 # energy   13.59640090 # occ. -0.00000000
 
ion      s      p      d    tot
    1  0.000  0.000  0.946  0.946
 
band     5 # energy   13.59681223 # occ. -0.00000000
 
ion      s      p      d    tot
    1  0.000  0.000  0.946  0.946
 
band     6 # energy   16.99603993 # occ.  0.00000000
 
ion      s      p      d    tot
    1  0.000  0.548  0.000  0.548
 
band     7 # energy   16.99604045 # occ.  0.00000000
 
ion      s      p      d    tot
    1  0.000  0.548  0.000  0.548
 
band     8 # energy   16.99604046 # occ.  0.00000000
 
ion      s      p      d    tot
    1  0.000  0.548  0.000  0.548
 

 k-point    21 :    0.50000000-0.50000000 0.50000000     weight = 0.01000000

band     1 # energy    2.10684404 # occ.  2.00000000
 
ion      s      p      d    tot
    1  0.000  0.000  0.740  0.740
 
band     2 # energy    2.10684404 # occ.  2.00000000
 
ion      s      p      d    tot
    1  0.000  0.000  0.740  0.740
 
band     3 # energy   13.59640086 # occ. -0.00000000
 
ion      s      p      d    tot
    1  0.000  0.000  0.946  0.946
 
band     4 # energy   13.59640109 # occ. -0.00000000
 
ion      s      p      d    tot
    1  0.000  0.000  0.946  0.946
 
band     5 # energy   13.59681228 # occ. -0.00000000
 
ion      s      p      d    tot
    1  0.000  0.000  0.946  0.946
 
band     6 # energy   16.99603993 # occ.  0.00000000
 
ion      s      p      d    tot
    1  0.000  0.548  0.000  0.548
 
band     7 # energy   16.99604045 # occ.  0.00000000
 
ion      s      p      d    tot
    1  0.000  0.548  0.000  0.548
 
band     8 # energy   16.99604046 # occ.  0.00000000
 
ion      s      p      d    tot
    1  0.000  0.548  0.000  0.548
 

 k-point    22 :    0.47368421-0.47368421 0.50000000     weight = 0.01000000

band     1 # energy    2.12773985 # occ.  2.00000000
 
ion      s      p      d    tot
    1  0.000  0.000  0.740  0.740
 
band     2 # energy    2.13338244 # occ.  2.00000000
 
ion      s      p      d    tot
    1  0.000  0.001  0.739  0.740
 
band     3 # energy   13.37662549 # occ. -0.00000000
 
ion      s      p      d    tot
    1  0.000  0.022  0.903  0.925
 
band     4 # energy   13.41229101 # occ. -0.00000000
 
ion      s      p      d    tot
    1  0.000  0.024  0.901  0.925
 
band     5 # energy   13.60328428 # occ. -0.00000000
 
ion      s      p      d    tot
    1  0.000  0.000  0.946  0.946
 
band     6 # energy   16.99168570 # occ.  0.00000000
 
ion      s      p      d    tot
    1  0.000  0.548  0.002  0.550
 
band     7 # energy   17.09310496 # occ.  0.00000000
 
ion      s      p      d    tot
    1  0.017  0.509  0.047  0.572
 
band     8 # energy   17.21092597 # occ.  0.00000000
 
ion      s      p      d    tot
    1  0.000  0.525  0.042  0.568
 

 k-point    23 :    0.44736842-0.44736842 0.50000000     weight = 0.01000000

band     1 # energy    2.18960732 # occ.  2.00000000
 
ion      s      p      d    tot
    1  0.000  0.002  0.738  0.740
 
band     2 # energy    2.21283214 # occ.  2.00000000
 
ion      s      p      d    tot
    1  0.000  0.005  0.735  0.739
 
band     3 # energy   12.83597515 # occ. -0.00000000
 
ion      s      p      d    tot
    1  0.000  0.057  0.834  0.892
 
band     4 # energy   12.93067456 # occ. -0.00000000
 
ion      s      p      d    tot
    1  0.005  0.067  0.812  0.885
 
band     5 # energy   13.62295324 # occ. -0.00000000
 
ion      s      p      d    tot
    1  0.000  0.000  0.946  0.946
 
band     6 # energy   16.97752346 # occ.  0.00000000
 
ion      s      p      d    tot
    1  0.000  0.547  0.009  0.556
 
band     7 # energy   17.32464972 # occ.  0.00000000
 
ion      s      p      d    tot
    1  0.058  0.424  0.139  0.622
 
band     8 # energy   17.73691697 # occ.  0.00000000
 
ion      s      p      d    tot
    1  0.000  0.490  0.110  0.600
 

 k-point    24 :    0.42105263-0.42105263 0.50000000     weight = 0.01000000

band     1 # energy    2.28988929 # occ.  2.00000000
 
ion      s      p      d    tot
    1  0.000  0.004  0.735  0.739
 
band     2 # energy    2.34472127 # occ.  2.00000000
 
ion      s      p      d    tot
    1  0.000  0.010  0.728  0.738
 
band     3 # energy   12.14475980 # occ. -0.00000000
 
ion      s      p      d    tot
    1  0.000  0.079  0.789  0.867
 
band     4 # energy   12.27785151 # occ. -0.00000000
 
ion      s      p      d    tot
    1  0.017  0.099  0.733  0.849
 
band     5 # energy   13.65526680 # occ. -0.00000000
 
ion      s      p      d    tot
    1  0.000  0.000  0.946  0.946
 
band     6 # energy   16.95015533 # occ.  0.00000000
 
ion      s      p      d    tot
    1  0.000  0.546  0.020  0.566
 
band     7 # energy   17.59586995 # occ.  0.00000000
 
ion      s      p      d    tot
    1  0.112  0.335  0.224  0.671
 
band     8 # energy   18.40362536 # occ.  0.00000000
 
ion      s      p      d    tot
    1  0.000  0.467  0.154  0.621
 

 k-point    25 :    0.39473684-0.39473684 0.50000000     weight = 0.01000000

band     1 # energy    2.42389554 # occ.  2.00000000
 
ion      s      p      d    tot
    1  0.001  0.007  0.730  0.737
 
band     2 # energy    2.52831635 # occ.  2.00000000
 
ion      s      p      d    tot
    1  0.000  0.018  0.718  0.736
 
band     3 # energy   11.39606452 # occ. -0.00000000
 
ion      s      p      d    tot
    1  0.000  0.087  0.765  0.852
 
band     4 # energy   11.54878127 # occ. -0.00000000
 
ion      s      p      d    tot
    1  0.035  0.113  0.675  0.823
 
band     5 # energy   13.69954786 # occ. -0.00000000
 
ion      s      p      d    tot
    1  0.000  0.000  0.947  0.947
 
band     6 # energy   16.90408112 # occ.  0.00000000
 
ion      s      p      d    tot
    1  0.000  0.543  0.036  0.579
 
band     7 # energy   17.85566891 # occ.  0.00000000
 
ion      s      p      d    tot
    1  0.166  0.258  0.287  0.710
 
band     8 # energy   19.11829116 # occ.  0.00000000
 
ion      s      p      d    tot
    1  0.000  0.455  0.176  0.631
 

 k-point    26 :    0.36842105-0.36842105 0.50000000     weight = 0.01000000

band     1 # energy    2.58404207 # occ.  2.00000000
 
ion      s      p      d    tot
    1  0.001  0.011  0.724  0.736
 
band     2 # energy    2.76252215 # occ.  2.00000000
 
ion      s      p      d    tot
    1  0.000  0.029  0.705  0.734
 
band     3 # energy   10.63387394 # occ. -0.00000000
 
ion      s      p      d    tot
    1  0.000  0.088  0.756  0.844
 
band     4 # energy   10.80521884 # occ. -0.00000000
 
ion      s      p      d    tot
    1  0.055  0.113  0.638  0.806
 
band     5 # energy   13.75481828 # occ. -0.00000000
 
ion      s      p      d    tot
    1  0.000  0.000  0.948  0.948
 
band     6 # energy   16.83193912 # occ.  0.00000000
 
ion      s      p      d    tot
    1  0.000  0.539  0.057  0.596
 
band     7 # energy   18.08991299 # occ.  0.00000000
 
ion      s      p      d    tot
    1  0.214  0.195  0.332  0.741
 
band     8 # energy   19.83785197 # occ.  0.00000000
 
ion      s      p      d    tot
    1  0.000  0.451  0.182  0.633
 

 k-point    27 :    0.34210526-0.34210526 0.50000000     weight = 0.01000000

band     1 # energy    2.75877331 # occ.  2.00000000
 
ion      s      p      d    tot
    1  0.003  0.016  0.715  0.735
 
band     2 # energy    3.04604498 # occ.  2.00000000
 
ion      s      p      d    tot
    1  0.000  0.042  0.690  0.731
 
band     3 # energy    9.88143779 # occ. -0.00000000
 
ion      s      p      d    tot
    1  0.000  0.084  0.757  0.840
 
band     4 # energy   10.09427901 # occ. -0.00000000
 
ion      s      p      d    tot
    1  0.075  0.104  0.616  0.795
 
band     5 # energy   13.81985346 # occ. -0.00000000
 
ion      s      p      d    tot
    1  0.000  0.000  0.949  0.949
 
band     6 # energy   16.72493891 # occ.  0.00000000
 
ion      s      p      d    tot
    1  0.000  0.532  0.084  0.617
 
band     7 # energy   18.30224973 # occ.  0.00000000
 
ion      s      p      d    tot
    1  0.255  0.146  0.364  0.765
 
band     8 # energy   20.54097963 # occ.  0.00000000
 
ion      s      p      d    tot
    1  0.000  0.452  0.178  0.630
 

 k-point    28 :    0.31578947-0.31578947 0.50000000     weight = 0.01000000

band     1 # energy    2.93057946 # occ.  2.00000000
 
ion      s      p      d    tot
    1  0.008  0.022  0.704  0.733
 
band     2 # energy    3.37697798 # occ.  2.00000000
 
ion      s      p      d    tot
    1  0.000  0.057  0.672  0.728
 
band     3 # energy    9.15300724 # occ. -0.00000089
 
ion      s      p      d    tot
    1  0.000  0.077  0.763  0.840
 
band     4 # energy    9.44731766 # occ. -0.00000000
 
ion      s      p      d    tot
    1  0.093  0.089  0.608  0.789
 
band     5 # energy   13.89317453 # occ.  0.00000000
 
ion      s      p      d    tot
    1  0.000  0.000  0.951  0.951
 
band     6 # energy   16.57312420 # occ.  0.00000000
 
ion      s      p      d    tot
    1  0.000  0.523  0.117  0.640
 
band     7 # energy   18.49376534 # occ.  0.00000000
 
ion      s      p      d    tot
    1  0.289  0.108  0.387  0.784
 
band     8 # energy   21.21657134 # occ.  0.00000000
 
ion      s      p      d    tot
    1  0.000  0.454  0.168  0.622
 

 k-point    29 :    0.28947368-0.28947368 0.50000000     weight = 0.01000000

band     1 # energy    3.07540261 # occ.  2.00000000
 