<?xml version="1.0" encoding="ISO-8859-1"?>
<modeling>
 <generator>
  <i name="program" type="string">vasp </i>
  <i name="version" type="string">5.4.4.18Apr17-6-g9f103f2a35  </i>
  <i name="subversion" type="string">(build Jul 01 2019 03:25:34) complex            parallel </i>
  <i name="platform" type="string">LinuxIFC </i>
  <i name="date" type="string">2020 07 08 </i>
  <i name="time" type="string">21:25:56 </i>
 </generator>
 <incar>
  <i type="string" name="SYSTEM"> BCC W</i>
  <i type="string" name="PREC">normal</i>
  <i type="int" name="ICHARG">    11</i>
  <i name="EDIFF">      0.00010000</i>
  <i name="ENCUT">    224.00000000</i>
  <i type="int" name="NEDOS">  3001</i>
  <v name="RWIGS">      1.45500000</v>
  <i type="logical" name="LCHARG"> F  </i>
  <v type="int" name="KPOINT_BSE">    -1     0     0     0</v>
 </incar>
 <structure name="primitive_cell" >
  <crystal>
   <varray name="basis" >
    <v>      -1.56360000       1.56360000       1.56360000 </v>
    <v>       1.56360000      -1.56360000       1.56360000 </v>
    <v>       1.56360000       1.56360000      -1.56360000 </v>
   </varray>
   <i name="volume">     15.29103832 </i>
   <varray name="rec_basis" >
    <v>       0.00000000       0.31977488       0.31977488 </v>
    <v>       0.31977488       0.00000000       0.31977488 </v>
    <v>       0.31977488       0.31977488       0.00000000 </v>
   </varray>
  </crystal>
  <varray name="positions" >
   <v>       0.00000000       0.00000000       0.00000000 </v>
  </varray>
 </structure>
 <varray name="primitive_index" >
  <v type="int" >        1 </v>
 </varray>
 <kpoints>
  <generation param="listgenerated">
   <i name="divisions" type="int">      20 </i>
   <v>       0.00000000       0.00000000       0.00000000 </v>
   <v>       0.50000000      -0.50000000       0.50000000 </v>
   <v>       0.00000000       0.00000000       0.50000000 </v>
   <v>       0.25000000       0.25000000       0.25000000 </v>
   <v>       0.00000000       0.00000000       0.00000000 </v>
   <v>       0.00000000       0.00000000       0.50000000 </v>
  </generation>
  <varray name="kpointlist" >
   <v>       0.00000000       0.00000000       0.00000000 </v>
   <v>       0.02631579      -0.02631579       0.02631579 </v>
   <v>       0.05263158      -0.05263158       0.05263158 </v>
   <v>       0.07894737      -0.07894737       0.07894737 </v>
   <v>       0.10526316      -0.10526316       0.10526316 </v>
   <v>       0.13157895      -0.13157895       0.13157895 </v>
   <v>       0.15789474      -0.15789474       0.15789474 </v>
   <v>       0.18421053      -0.18421053       0.18421053 </v>
   <v>       0.21052632      -0.21052632       0.21052632 </v>
   <v>       0.23684211      -0.23684211       0.23684211 </v>
   <v>       0.26315789      -0.26315789       0.26315789 </v>
   <v>       0.28947368      -0.28947368       0.28947368 </v>
   <v>       0.31578947      -0.31578947       0.31578947 </v>
   <v>       0.34210526      -0.34210526       0.34210526 </v>
   <v>       0.36842105      -0.36842105       0.36842105 </v>
   <v>       0.39473684      -0.39473684       0.39473684 </v>
   <v>       0.42105263      -0.42105263       0.42105263 </v>
   <v>       0.44736842      -0.44736842       0.44736842 </v>
   <v>       0.47368421      -0.47368421       0.47368421 </v>
   <v>       0.50000000      -0.50000000       0.50000000 </v>
   <v>       0.50000000      -0.50000000       0.50000000 </v>
   <v>       0.47368421      -0.47368421       0.50000000 </v>
   <v>       0.44736842      -0.44736842       0.50000000 </v>
   <v>       0.42105263      -0.42105263       0.50000000 </v>
   <v>       0.39473684      -0.39473684       0.50000000 </v>
   <v>       0.36842105      -0.36842105       0.50000000 </v>
   <v>       0.34210526      -0.34210526       0.50000000 </v>
   <v>       0.31578947      -0.31578947       0.50000000 </v>
   <v>       0.28947368      -0.28947368       0.50000000 </v>
   <v>       0.26315789      -0.26315789       0.50000000 </v>
   <v>       0.23684211      -0.23684211       0.50000000 </v>
   <v>       0.21052632      -0.21052632       0.50000000 </v>
   <v>       0.18421053      -0.18421053       0.50000000 </v>
   <v>       0.15789474      -0.15789474       0.50000000 </v>
   <v>       0.13157895      -0.13157895       0.50000000 </v>
   <v>       0.10526316      -0.10526316       0.50000000 </v>
   <v>       0.07894737      -0.07894737       0.50000000 </v>
   <v>       0.05263158      -0.05263158       0.50000000 </v>
   <v>       0.02631579      -0.02631579       0.50000000 </v>
   <v>       0.00000000       0.00000000       0.50000000 </v>
   <v>       0.00000000       0.00000000       0.50000000 </v>
   <v>       0.01315789       0.01315789       0.48684211 </v>
   <v>       0.02631579       0.02631579       0.47368421 </v>
   <v>       0.03947368       0.03947368       0.46052632 </v>
   <v>       0.05263158       0.05263158       0.44736842 </v>
   <v>       0.06578947       0.06578947       0.43421053 </v>
   <v>       0.07894737       0.07894737       0.42105263 </v>
   <v>       0.09210526       0.09210526       0.40789474 </v>
   <v>       0.10526316       0.10526316       0.39473684 </v>
   <v>       0.11842105       0.11842105       0.38157895 </v>
   <v>       0.13157895       0.13157895       0.36842105 </v>
   <v>       0.14473684       0.14473684       0.35526316 </v>
   <v>       0.15789474       0.15789474       0.34210526 </v>
   <v>       0.17105263       0.17105263       0.32894737 </v>
   <v>       0.18421053       0.18421053       0.31578947 </v>
   <v>       0.19736842       0.19736842       0.30263158 </v>
   <v>       0.21052632       0.21052632       0.28947368 </v>
   <v>       0.22368421       0.22368421       0.27631579 </v>
   <v>       0.23684211       0.23684211       0.26315789 </v>
   <v>       0.25000000       0.25000000       0.25000000 </v>
   <v>       0.25000000       0.25000000       0.25000000 </v>
   <v>       0.23684211       0.23684211       0.23684211 </v>
   <v>       0.22368421       0.22368421       0.22368421 </v>
   <v>       0.21052632       0.21052632       0.21052632 </v>
   <v>       0.19736842       0.19736842       0.19736842 </v>
   <v>       0.18421053       0.18421053       0.18421053 </v>
   <v>       0.17105263       0.17105263       0.17105263 </v>
   <v>       0.15789474       0.15789474       0.15789474 </v>
   <v>       0.14473684       0.14473684       0.14473684 </v>
   <v>       0.13157895       0.13157895       0.13157895 </v>
   <v>       0.11842105       0.11842105       0.11842105 </v>
   <v>       0.10526316       0.10526316       0.10526316 </v>
   <v>       0.09210526       0.09210526       0.09210526 </v>
   <v>       0.07894737       0.07894737       0.07894737 </v>
   <v>       0.06578947       0.06578947       0.06578947 </v>
   <v>       0.05263158       0.05263158       0.05263158 </v>
   <v>       0.03947368       0.03947368       0.03947368 </v>
   <v>       0.02631579       0.02631579       0.02631579 </v>
   <v>       0.01315789       0.01315789       0.01315789 </v>
   <v>       0.00000000       0.00000000       0.00000000 </v>
   <v>       0.00000000       0.00000000       0.00000000 </v>
   <v>       0.00000000       0.00000000       0.02631579 </v>
   <v>       0.00000000       0.00000000       0.05263158 </v>
   <v>       0.00000000       0.00000000       0.07894737 </v>
   <v>       0.00000000       0.00000000       0.10526316 </v>
   <v>       0.00000000       0.00000000       0.13157895 </v>
   <v>       0.00000000       0.00000000       0.15789474 </v>
   <v>       0.00000000       0.00000000       0.18421053 </v>
   <v>       0.00000000       0.00000000       0.21052632 </v>
   <v>       0.00000000       0.00000000       0.23684211 </v>
   <v>       0.00000000       0.00000000       0.26315789 </v>
   <v>       0.00000000       0.00000000       0.28947368 </v>
   <v>       0.00000000       0.00000000       0.31578947 </v>
   <v>       0.00000000       0.00000000       0.34210526 </v>
   <v>       0.00000000       0.00000000       0.36842105 </v>
   <v>       0.00000000       0.00000000       0.39473684 </v>
   <v>       0.00000000       0.00000000       0.42105263 </v>
   <v>       0.00000000       0.00000000       0.44736842 </v>
   <v>       0.00000000       0.00000000       0.47368421 </v>
   <v>       0.00000000       0.00000000       0.50000000 </v>
  </varray>
  <varray name="weights" >
   <v>       0.01000000 </v>
   <v>       0.01000000 </v>
   <v>       0.01000000 </v>
   <v>       0.01000000 </v>
   <v>       0.01000000 </v>
   <v>       0.01000000 </v>
   <v>       0.01000000 </v>
   <v>       0.01000000 </v>
   <v>       0.01000000 </v>
   <v>       0.01000000 </v>
   <v>       0.01000000 </v>
   <v>       0.01000000 </v>
   <v>       0.01000000 </v>
   <v>       0.01000000 </v>
   <v>       0.01000000 </v>
   <v>       0.01000000 </v>
   <v>       0.01000000 </v>
   <v>       0.01000000 </v>
   <v>       0.01000000 </v>
   <v>       0.01000000 </v>
   <v>       0.01000000 </v>
   <v>       0.01000000 </v>
   <v>       0.01000000 </v>
   <v>       0.01000000 </v>
   <v>       0.01000000 </v>
   <v>       0.01000000 </v>
   <v>       0.01000000 </v>
   <v>       0.01000000 </v>
   <v>       0.01000000 </v>
   <v>       0.01000000 </v>
   <v>       0.01000000 </v>
   <v>       0.01000000 </v>
   <v>       0.01000000 </v>
   <v>       0.01000000 </v>
   <v>       0.01000000 </v>
   <v>       0.01000000 </v>
   <v>       0.01000000 </v>
   <v>       0.01000000 </v>
   <v>       0.01000000 </v>
   <v>       0.01000000 </v>
   <v>       0.01000000 </v>
   <v>       0.01000000 </v>
   <v>       0.01000000 </v>
   <v>       0.01000000 </v>
   <v>       0.01000000 </v>
   <v>       0.01000000 </v>
   <v>       0.01000000 </v>
   <v>       0.01000000 </v>
   <v>       0.01000000 </v>
   <v>       0.01000000 </v>
   <v>       0.01000000 </v>
   <v>       0.01000000 </v>
   <v>       0.01000000 </v>
   <v>       0.01000000 </v>
   <v>       0.01000000 </v>
   <v>       0.01000000 </v>
   <v>       0.01000000 </v>
   <v>       0.01000000 </v>
   <v>       0.01000000 </v>
   <v>       0.01000000 </v>
   <v>       0.01000000 </v>
   <v>       0.01000000 </v>
   <v>       0.01000000 </v>
   <v>       0.01000000 </v>
   <v>       0.01000000 </v>
   <v>       0.01000000 </v>
   <v>       0.01000000 </v>
   <v>       0.01000000 </v>
   <v>       0.01000000 </v>
   <v>       0.01000000 </v>
   <v>       0.01000000 </v>
   <v>       0.01000000 </v>
   <v>       0.01000000 </v>
   <v>       0.01000000 </v>
   <v>       0.01000000 </v>
   <v>       0.01000000 </v>
   <v>       0.01000000 </v>
   <v>       0.01000000 </v>
   <v>       0.01000000 </v>
   <v>       0.01000000 </v>
   <v>       0.01000000 </v>
   <v>       0.01000000 </v>
   <v>       0.01000000 </v>
   <v>       0.01000000 </v>
   <v>       0.01000000 </v>
   <v>       0.01000000 </v>
   <v>       0.01000000 </v>
   <v>       0.01000000 </v>
   <v>       0.01000000 </v>
   <v>       0.01000000 </v>
   <v>       0.01000000 </v>
   <v>       0.01000000 </v>
   <v>       0.01000000 </v>
   <v>       0.01000000 </v>
   <v>       0.01000000 </v>
   <v>       0.01000000 </v>
   <v>       0.01000000 </v>
   <v>       0.01000000 </v>
   <v>       0.01000000 </v>
   <v>       0.01000000 </v>
  </varray>
 </kpoints>
 <parameters>
  <separator name="general" >
   <i type="string" name="SYSTEM">BCC W</i>
   <i type="logical" name="LCOMPAT"> F  </i>
  </separator>
  <separator name="electronic" >
   <i type="string" name="PREC">normal</i>
   <i name="ENMAX">    224.00000000</i>
   <i name="ENAUG">    373.43800000</i>
   <i name="EDIFF">      0.00010000</i>
   <i type="int" name="IALGO">    38</i>
   <i type="int" name="IWAVPR">    10</i>
   <i type="int" name="NBANDS">     8</i>
   <i name="NELECT">      6.00000000</i>
   <i type="int" name="TURBO">     0</i>
   <i type="int" name="IRESTART">     0</i>
   <i type="int" name="NREBOOT">     0</i>
   <i type="int" name="NMIN">     0</i>
   <i name="EREF">      0.00000000</i>
   <separator name="electronic smearing" >
    <i type="int" name="ISMEAR">     1</i>
    <i name="SIGMA">      0.20000000</i>
    <i name="KSPACING">      0.50000000</i>
    <i type="logical" name="KGAMMA"> T  </i>
   </separator>
   <separator name="electronic projectors" >
    <i type="logical" name="LREAL"> F  </i>
    <v name="ROPT">      0.00000000</v>
    <i type="int" name="LMAXPAW">  -100</i>
    <i type="int" name="LMAXMIX">     2</i>
    <i type="logical" name="NLSPLINE"> F  </i>
   </separator>
   <separator name="electronic startup" >
    <i type="int" name="ISTART">     0</i>
    <i type="int" name="ICHARG">    11</i>
    <i type="int" name="INIWAV">     1</i>
   </separator>
   <separator name="electronic spin" >
    <i type="int" name="ISPIN">     1</i>
    <i type="logical" name="LNONCOLLINEAR"> F  </i>
    <v name="MAGMOM">      1.00000000</v>
    <i name="NUPDOWN">     -1.00000000</i>
    <i type="logical" name="LSORBIT"> F  </i>
    <v name="SAXIS">      0.00000000      0.00000000      1.00000000</v>
    <i type="logical" name="LSPIRAL"> F  </i>
    <v name="QSPIRAL">      0.00000000      0.00000000      0.00000000</v>
    <i type="logical" name="LZEROZ"> F  </i>
   </separator>
   <separator name="electronic exchange-correlation" >
    <i type="logical" name="LASPH"> F  </i>
    <i type="logical" name="LMETAGGA"> F  </i>
   </separator>
   <separator name="electronic convergence" >
    <i type="int" name="NELM">    60</i>
    <i type="int" name="NELMDL">    -5</i>
    <i type="int" name="NELMIN">     2</i>
    <i name="ENINI">    224.00000000</i>
    <separator name="electronic convergence detail" >
     <i type="logical" name="LDIAG"> T  </i>
     <i type="logical" name="LSUBROT"> F  </i>
     <i name="WEIMIN">      0.00000000</i>
     <i name="EBREAK">      0.00000313</i>
     <i name="DEPER">      0.30000000</i>
     <i type="int" name="NRMM">     4</i>
     <i name="TIME">      0.40000000</i>
    </separator>
   </separator>
   <separator name="electronic mixer" >
    <i name="AMIX">      0.40000000</i>
    <i name="BMIX">      1.00000000</i>
    <i name="AMIN">      0.10000000</i>
    <i name="AMIX_MAG">      1.60000000</i>
    <i name="BMIX_MAG">      1.00000000</i>
    <separator name="electronic mixer details" >
     <i type="int" name="IMIX">     4</i>
     <i type="logical" name="MIXFIRST"> F  </i>
     <i type="int" name="MAXMIX">   -45</i>
     <i name="WC">    100.00000000</i>
     <i type="int" name="INIMIX">     1</i>
     <i type="int" name="MIXPRE">     1</i>
     <i type="int" name="MREMOVE">     5</i>
    </separator>
   </separator>
   <separator name="electronic dipolcorrection" >
    <i type="logical" name="LDIPOL"> F  </i>
    <i type="logical" name="LMONO"> F  </i>
    <i type="int" name="IDIPOL">     0</i>
    <i name="EPSILON">      1.00000000</i>
    <v name="DIPOL">   -100.00000000   -100.00000000   -100.00000000</v>
    <i name="EFIELD">      0.00000000</i>
   </separator>
  </separator>
  <separator name="grids" >
   <i type="int" name="NGX">    10</i>
   <i type="int" name="NGY">    10</i>
   <i type="int" name="NGZ">    10</i>
   <i type="int" name="NGXF">    20</i>
   <i type="int" name="NGYF">    20</i>
   <i type="int" name="NGZF">    20</i>
   <i type="logical" name="ADDGRID"> F  </i>
  </separator>
  <separator name="ionic" >
   <i type="int" name="NSW">     0</i>
   <i type="int" name="IBRION">    -1</i>
   <i type="int" name="MDALGO">     0</i>
   <i type="int" name="ISIF">     2</i>
   <i name="PSTRESS">      0.00000000</i>
   <i name="EDIFFG">      0.00100000</i>
   <i type="int" name="NFREE">     0</i>
   <i name="POTIM">      0.50000000</i>
   <i name="SMASS">     -3.00000000</i>
   <i name="SCALEE">      1.00000000</i>
  </separator>
  <separator name="ionic md" >
   <i name="TEBEG">      0.00010000</i>
   <i name="TEEND">      0.00010000</i>
   <i type="int" name="NBLOCK">     1</i>
   <i type="int" name="KBLOCK">     1</i>
   <i type="int" name="NPACO">   256</i>
   <i name="APACO">     16.00000000</i>
  </separator>
  <separator name="symmetry" >
   <i type="int" name="ISYM">     2</i>
   <i name="SYMPREC">      0.00001000</i>
  </separator>
  <separator name="dos" >
   <i type="int" name="LORBIT">     0</i>
   <v name="RWIGS">      1.45500000</v>
   <i type="int" name="NEDOS">  3001</i>
   <i name="EMIN">     10.00000000</i>
   <i name="EMAX">    -10.00000000</i>
   <i name="EFERMI">      0.00000000</i>
  </separator>
  <separator name="writing" >
   <i type="int" name="NWRITE">     2</i>
   <i type="logical" name="LWAVE"> T  </i>
   <i type="logical" name="LDOWNSAMPLE"> F  </i>
   <i type="logical" name="LCHARG"> F  </i>
   <i type="logical" name="LPARD"> F  </i>
   <i type="logical" name="LVTOT"> F  </i>
   <i type="logical" name="LVHAR"> F  </i>
   <i type="logical" name="LELF"> F  </i>
   <i type="logical" name="LOPTICS"> F  </i>
   <v name="STM">      0.00000000      0.00000000      0.00000000      0.00000000      0.00000000      0.00000000      0.00000000</v>
  </separator>
  <separator name="performance" >
   <i type="int" name="NPAR">     4</i>
   <i type="int" name="NSIM">     4</i>
   <i type="int" name="NBLK">    -1</i>
   <i type="logical" name="LPLANE"> T  </i>
   <i type="logical" name="LSCALAPACK"> T  </i>
   <i type="logical" name="LSCAAWARE"> F  </i>
   <i type="logical" name="LSCALU"> F  </i>
   <i type="logical" name="LASYNC"> F  </i>
   <i type="logical" name="LORBITALREAL"> F  </i>
  </separator>
  <separator name="miscellaneous" >
   <i type="int" name="IDIOT">     3</i>
   <i type="int" name="ISPECIAL">     0</i>
   <i type="logical" name="LMUSIC"> F  </i>
   <v name="POMASS">    183.85000000</v>
   <v name="DARWINR">      0.00000000</v>
   <v name="DARWINV">      1.00000000</v>
   <i type="logical" name="LCORR"> T  </i>
  </separator>
  <i type="logical" name="GGA_COMPAT"> T  </i>
  <i type="logical" name="LBERRY"> F  </i>
  <i type="int" name="ICORELEVEL">     0</i>
  <i type="logical" name="LDAU"> F  </i>
  <i type="int" name="I_CONSTRAINED_M">     0</i>
  <separator name="electronic exchange-correlation" >
   <i type="string" name="GGA">--</i>
   <i type="int" name="VOSKOWN">     0</i>
   <i type="logical" name="LHFCALC"> F  </i>
   <i type="string" name="PRECFOCK"></i>
   <i type="logical" name="LSYMGRAD"> F  </i>
   <i type="logical" name="LHFONE"> F  </i>
   <i type="logical" name="LRHFCALC"> F  </i>
   <i type="logical" name="LTHOMAS"> F  </i>
   <i type="logical" name="LMODELHF"> F  </i>
   <i name="ENCUT4O">     -1.00000000</i>
   <i type="int" name="EXXOEP">     0</i>
   <i type="int" name="FOURORBIT">     0</i>
   <i name="AEXX">      0.00000000</i>
   <i name="HFALPHA">      0.00000000</i>
   <i name="MCALPHA">      0.00000000</i>
   <i name="ALDAX">      1.00000000</i>
   <i name="AGGAX">      1.00000000</i>
   <i name="ALDAC">      1.00000000</i>
   <i name="AGGAC">      1.00000000</i>
   <i type="int" name="NKREDX">     1</i>
   <i type="int" name="NKREDY">     1</i>
   <i type="int" name="NKREDZ">     1</i>
   <i type="logical" name="SHIFTRED"> F  </i>
   <i type="logical" name="ODDONLY"> F  </i>
   <i type="logical" name="EVENONLY"> F  </i>
   <i type="int" name="LMAXFOCK">     0</i>
   <i type="int" name="NMAXFOCKAE">     0</i>
   <i type="logical" name="LFOCKAEDFT"> F  </i>
   <i name="HFSCREEN">      0.00000000</i>
   <i name="HFSCREENC">      0.00000000</i>
   <i type="int" name="NBANDSGWLOW">     0</i>
  </separator>
  <separator name="vdW DFT" >
   <i type="logical" name="LUSE_VDW"> F  </i>
   <i name="Zab_VDW">     -0.84910000</i>
   <i name="PARAM1">      0.12340000</i>
   <i name="PARAM2">      1.00000000</i>
   <i name="PARAM3">      0.00000000</i>
  </separator>
  <separator name="model GW" >
   <i type="int" name="MODEL_GW">     0</i>
   <i name="MODEL_EPS0">      9.17462299</i>
   <i name="MODEL_ALPHA">      1.00000000</i>
  </separator>
  <separator name="linear response parameters" >
   <i type="logical" name="LEPSILON"> F  </i>
   <i type="logical" name="LRPA"> F  </i>
   <i type="logical" name="LNABLA"> F  </i>
   <i type="logical" name="LVEL"> F  </i>
   <i type="int" name="KINTER">     0</i>
   <i name="CSHIFT">      0.10000000</i>
   <i name="OMEGAMAX">     -1.00000000</i>
   <i name="DEG_THRESHOLD">      0.00200000</i>
   <i name="RTIME">     -0.10000000</i>
   <i name="WPLASMAI">      0.00000000</i>
   <v name="DFIELD">      0.00000000      0.00000000      0.00000000</v>
   <v name="WPLASMA">      0.00000000      0.00000000      0.00000000      0.00000000      0.00000000      0.00000000      0.00000000      0.00000000      0.00000000</v>
  </separator>
  <separator name="orbital magnetization" >
   <i type="logical" name="NUCIND"> F  </i>
   <v name="MAGPOS">      0.00000000      0.00000000      0.00000000</v>
   <i type="logical" name="LNICSALL"> T  </i>
   <i type="logical" name="ORBITALMAG"> F  </i>
   <i type="logical" name="LMAGBLOCH"> F  </i>
   <i type="logical" name="LCHIMAG"> F  </i>
   <i type="logical" name="LGAUGE"> T  </i>
   <i type="int" name="MAGATOM">     0</i>
   <v name="MAGDIPOL">      0.00000000      0.00000000      0.00000000</v>
   <v name="AVECCONST">      0.00000000      0.00000000      0.00000000</v>
  </separator>
  <separator name="response functions" >
   <i type="logical" name="LADDER"> F  </i>
   <i type="logical" name="LRPAFORCE"> F  </i>
   <i type="logical" name="LFXC"> F  </i>
   <i type="logical" name="LHARTREE"> T  </i>
   <i type="int" name="IBSE">     0</i>
   <v type="int" name="KPOINT">    -1     0     0     0</v>
   <i type="logical" name="LTCTE"> F  </i>
   <i type="logical" name="LTETE"> F  </i>
   <i type="logical" name="LTRIPLET"> F  </i>
   <i type="logical" name="LFXCEPS"> F  </i>
   <i type="logical" name="LFXHEG"> F  </i>
   <i type="int" name="NATURALO">     2</i>
   <i type="logical" name="L2ORDER"> F  </i>
   <i type="logical" name="LMP2LT"> F  </i>
   <i type="logical" name="LUSEW"> F  </i>
   <i name="ENCUTGW">     -2.00000000</i>
   <i name="ENCUTGWSOFT">     -2.00000000</i>
   <i name="ENCUTLF">     -1.00000000</i>
   <i type="int" name="LMAXMP2">    -1</i>
   <i name="SCISSOR">      0.00000000</i>
   <i type="int" name="NOMEGA">     0</i>
   <i type="int" name="NOMEGAR">     0</i>
   <i type="int" name="NBANDSGW">    -1</i>
   <i type="int" name="NBANDSO">    -1</i>
   <i type="int" name="NBANDSV">    -1</i>
   <i type="int" name="NELM">     1</i>
   <i type="int" name="NELMHF">     1</i>
   <i type="int" name="DIM">     3</i>
   <i type="int" name="ANTIRES">     0</i>
   <i name="OMEGAMAX">    -30.00000000</i>
   <i name="OMEGAMIN">    -30.00000000</i>
   <i name="OMEGATL">   -200.00000000</i>
   <i type="int" name="OMEGAGRID">   140</i>
   <i name="CSHIFT">     -0.10000000</i>
   <i type="logical" name="SELFENERGY"> F  </i>
   <i type="logical" name="LSPECTRAL"> F  </i>
   <i type="logical" name="LSPECTRALGW"> F  </i>
   <i type="logical" name="LSINGLES"> F  </i>
   <i type="logical" name="LFERMIGW"> F  </i>
   <i type="logical" name="ODDONLYGW"> F  </i>
   <i type="logical" name="EVENONLYGW"> F  </i>
   <i type="int" name="NKREDLFX">     1</i>
   <i type="int" name="NKREDLFY">     1</i>
   <i type="int" name="NKREDLFZ">     1</i>
   <i type="int" name="MAXMEM">  2800</i>
   <i type="int" name="TELESCOPE">     0</i>
   <i type="int" name="TAUPAR">     1</i>
   <i type="int" name="OMEGAPAR">    -1</i>
   <i name="LAMBDA">      1.00000000</i>
  </separator>
  <separator name="External order field" >
   <i name="OFIELD_KAPPA">      0.00000000</i>
   <v name="OFIELD_K">      0.00000000      0.00000000      0.00000000</v>
   <i name="OFIELD_Q6_NEAR">      0.00000000</i>
   <i name="OFIELD_Q6_FAR">      0.00000000</i>
   <i name="OFIELD_A">      0.00000000</i>
  </separator>
 </parameters>
 <atominfo>
  <atoms>       1 </atoms>
  <types>       1 </types>
  <array name="atoms" >
   <dimension dim="1">ion</dimension>
   <field type="string">element</field>
   <field type="int">atomtype</field>
   <set>
    <rc><c>W </c><c>   1</c></rc>
   </set>
  </array>
  <array name="atomtypes" >
   <dimension dim="1">type</dimension>
   <field type="int">atomspertype</field>
   <field type="string">element</field>
   <field>mass</field>
   <field>valence</field>
   <field type="string">pseudopotential</field>
   <set>
    <rc><c>   1</c><c>W </c><c>    183.85000000</c><c>      6.00000000</c><c> PAW W 19Jan2001                        </c></rc>
   </set>
  </array>
 </atominfo>
 <structure name="initialpos" >
  <crystal>
   <varray name="basis" >
    <v>      -1.56360000       1.56360000       1.56360000 </v>
    <v>       1.56360000      -1.56360000       1.56360000 </v>
    <v>       1.56360000       1.56360000      -1.56360000 </v>
   </varray>
   <i name="volume">     15.29103832 </i>
   <varray name="rec_basis" >
    <v>       0.00000000       0.31977488       0.31977488 </v>
    <v>       0.31977488       0.00000000       0.31977488 </v>
    <v>       0.31977488       0.31977488       0.00000000 </v>
   </varray>
  </crystal>
  <varray name="positions" >
   <v>       0.00000000       0.00000000       0.00000000 </v>
  </varray>
 </structure>
 <calculation>
  <scstep>
   <time name="dav">    0.07    0.08</time>
   <time name="total">    0.08    0.10</time>
   <energy>
    <i name="alphaZ">     45.64970707 </i>
    <i name="ewald">   -301.63576621 </i>
    <i name="hartreedc">     -2.13254737 </i>
    <i name="XCdc">    -46.81589530 </i>
    <i name="pawpsdc">    248.67490937 </i>
    <i name="pawaedc">   -192.59125594 </i>
    <i name="eentropy">     -0.00115980 </i>
    <i name="bandstr">     31.98261980 </i>
    <i name="atom">    206.50785835 </i>
    <i name="e_fr_energy">    -10.36153004 </i>
    <i name="e_wo_entrp">    -10.36037024 </i>
    <i name="e_0_energy">    -10.36114344 </i>
   </energy>
  </scstep>
  <scstep>
   <time name="dav">    0.06    0.06</time>
   <time name="total">    0.06    0.06</time>
   <energy>
    <i name="e_fr_energy">    -14.93464388 </i>
    <i name="e_wo_entrp">    -14.93253539 </i>
    <i name="e_0_energy">    -14.93394105 </i>
   </energy>
  </scstep>
  <scstep>
   <time name="dav">    0.07    0.07</time>
   <time name="total">    0.07    0.07</time>
   <energy>
    <i name="e_fr_energy">    -14.96106716 </i>
    <i name="e_wo_entrp">    -14.95872545 </i>
    <i name="e_0_energy">    -14.96028659 </i>
   </energy>
  </scstep>
  <scstep>
   <time name="dav">    0.06    0.06</time>
   <time name="total">    0.07    0.07</time>
   <energy>
    <i name="e_fr_energy">    -14.96109135 </i>
    <i name="e_wo_entrp">    -14.95874975 </i>
    <i name="e_0_energy">    -14.96031082 </i>
   </energy>
  </scstep>
  <scstep>
   <time name="dav">    0.05    0.05</time>
   <time name="total">    0.06    0.06</time>
   <energy>
    <i name="e_fr_energy">    -14.96109138 </i>
    <i name="e_wo_entrp">    -14.95874977 </i>
    <i name="e_0_energy">    -14.96031084 </i>
   </energy>
  </scstep>
  <scstep>
   <time name="dav">    0.04    0.04</time>
   <time name="total">    0.05    0.05</time>
   <energy>
    <i name="alphaZ">     45.64970707 </i>
    <i name="ewald">   -301.63576621 </i>
    <i name="hartreedc">     -2.13254737 </i>
    <i name="XCdc">    -46.81589530 </i>
    <i name="pawpsdc">    248.67490937 </i>
    <i name="pawaedc">   -192.59125594 </i>
    <i name="eentropy">     -0.00234161 </i>
    <i name="bandstr">     27.38424027 </i>
    <i name="atom">    206.50785835 </i>
    <i name="e_fr_energy">    -14.96109138 </i>
    <i name="e_wo_entrp">    -14.95874977 </i>
    <i name="e_0_energy">    -14.96031084 </i>
   </energy>
  </scstep>
  <structure>
   <crystal>
    <varray name="basis" >
     <v>      -1.56360000       1.56360000       1.56360000 </v>
     <v>       1.56360000      -1.56360000       1.56360000 </v>
     <v>       1.56360000       1.56360000      -1.56360000 </v>
    </varray>
    <i name="volume">     15.29103832 </i>
    <varray name="rec_basis" >
     <v>       0.00000000       0.31977488       0.31977488 </v>
     <v>       0.31977488       0.00000000       0.31977488 </v>
     <v>       0.31977488       0.31977488       0.00000000 </v>
    </varray>
   </crystal>
   <varray name="positions" >
    <v>       0.00000000       0.00000000       0.00000000 </v>
   </varray>
  </structure>
  <varray name="forces" >
   <v>       0.00000000      -0.00000000       0.00000000 </v>
  </varray>
  <varray name="stress" >
   <v>      26.16788468       0.00000000       0.00000000 </v>
   <v>       0.00000000      26.16788468      -0.00000000 </v>
   <v>       0.00000000       0.00000000      26.16788468 </v>
  </varray>
  <energy>
   <i name="e_fr_energy">    -14.96109138 </i>
   <i name="e_wo_entrp">    -14.96031084 </i>
   <i name="e_0_energy">     -0.00234161 </i>
  </energy>
  <time name="totalsc">    0.44    0.46</time>
  <eigenvalues>
   <array>
    <dimension dim="1">band</dimension>
    <dimension dim="2">kpoint</dimension>
    <dimension dim="3">spin</dimension>
    <field>eigene</field>
    <field>occ</field>
    <set>
     <set comment="spin 1">
      <set comment="kpoint 1">
       <r>   -1.5181    1.0000 </r>
       <r>    6.8823    1.0000 </r>
       <r>    6.8823    1.0000 </r>
       <r>    6.8826    1.0000 </r>
       <r>   10.5125   -0.0000 </r>
       <r>   10.5125   -0.0000 </r>
       <r>   23.6069    0.0000 </r>
       <r>   23.6069    0.0000 </r>
      </set>
      <set comment="kpoint 2">
       <r>   -1.4491    1.0000 </r>
       <r>    6.8753    1.0000 </r>
       <r>    6.8754    1.0000 </r>
       <r>    6.9150    1.0000 </r>
       <r>   10.4015   -0.0000 </r>
       <r>   10.5508   -0.0000 </r>
       <r>   23.7268    0.0000 </r>
       <r>   23.7290    0.0000 </r>
      </set>
      <set comment="kpoint 3">
       <r>   -1.2444    1.0000 </r>
       <r>    6.8615    1.0000 </r>
       <r>    6.8616    1.0000 </r>
       <r>    7.0129    1.0000 </r>
       <r>   10.0851   -0.0000 </r>
       <r>   10.6683   -0.0000 </r>
       <r>   24.0819    0.0000 </r>
       <r>   24.0825    0.0000 </r>
      </set>
      <set comment="kpoint 4">
       <r>   -0.9110    1.0000 </r>
       <r>    6.8448    1.0000 </r>
       <r>    6.8450    1.0000 </r>
       <r>    7.1757    1.0000 </r>
       <r>    9.6054   -0.0000 </r>
       <r>   10.8458   -0.0000 </r>
       <r>   24.6175    0.0000 </r>
       <r>   24.6583    0.0000 </r>
      </set>
      <set comment="kpoint 5">
       <r>   -0.4608    1.0000 </r>
       <r>    6.8367    1.0000 </r>
       <r>    6.8368    1.0000 </r>
       <r>    7.3992    1.0000 </r>
       <r>    9.0041   -0.0001 </r>
       <r>   11.0715   -0.0000 </r>
       <r>   25.2734    0.0000 </r>
       <r>   25.4296    0.0000 </r>
      </set>
      <set comment="kpoint 6">
       <r>    0.0894    1.0000 </r>
       <r>    6.8591    1.0000 </r>
       <r>    6.8592    1.0000 </r>
       <r>    7.6913    1.0000 </r>
       <r>    8.3334    0.7218 </r>
       <r>   11.3304   -0.0000 </r>
       <r>   25.9989    0.0000 </r>
       <r>   26.3621    0.0000 </r>
      </set>
      <set comment="kpoint 7">
       <r>    0.7165    1.0000 </r>
       <r>    6.9234    1.0000 </r>
       <r>    6.9236    1.0000 </r>
       <r>    7.6277    1.0000 </r>
       <r>    8.0322    1.0153 </r>
       <r>   11.5786   -0.0000 </r>
       <r>   25.7607    0.0000 </r>
       <r>   26.7475    0.0000 </r>
      </set>
      <set comment="kpoint 8">
       <r>    1.3904    1.0000 </r>
       <r>    6.9168    1.0000 </r>
       <r>    7.0448    1.0000 </r>
       <r>    7.0450    1.0000 </r>
       <r>    8.4272    0.3374 </r>
       <r>   11.7768   -0.0000 </r>
       <r>   24.5491    0.0000 </r>
       <r>   27.4903    0.0000 </r>
      </set>
      <set comment="kpoint 9">
       <r>    2.0706    1.0000 </r>
       <r>    6.2216    1.0000 </r>
       <r>    7.2343    1.0000 </r>
       <r>    7.2345    1.0000 </r>
       <r>    8.8714   -0.0017 </r>
       <r>   11.8872   -0.0000 </r>
       <r>   23.7429    0.0000 </r>
       <r>   28.2084    0.0000 </r>
      </set>
      <set comment="kpoint 10">
       <r>    2.7033    1.0000 </r>
       <r>    5.5572    1.0000 </r>
       <r>    7.4992    1.0000 </r>
       <r>    7.4993    1.0000 </r>
       <r>    9.3584   -0.0000 </r>
       <r>   11.8978   -0.0000 </r>
       <r>   23.3895    0.0000 </r>
       <r>   28.8934    0.0000 </r>
      </set>
      <set comment="kpoint 11">
       <r>    3.2202    1.0000 </r>
       <r>    4.9350    1.0000 </r>
       <r>    7.8471    1.0004 </r>
       <r>    7.8472    1.0004 </r>
       <r>    9.8807   -0.0000 </r>
       <r>   11.8857   -0.0000 </r>
       <r>   23.4802    0.0000 </r>
       <r>   28.0434    0.0000 </r>
      </set>
      <set comment="kpoint 12">
       <r>    3.5493    1.0000 </r>
       <r>    4.3634    1.0000 </r>
       <r>    8.2833    0.8826 </r>
       <r>    8.2835    0.8823 </r>
       <r>   10.4303   -0.0000 </r>
       <r>   11.9599   -0.0000 </r>
       <r>   23.9471    0.0000 </r>
       <r>   26.7201    0.0000 </r>
      </set>
      <set comment="kpoint 13">
       <r>    3.6453    1.0000 </r>
       <r>    3.8485    1.0000 </r>
       <r>    8.8045   -0.0061 </r>
       <r>    8.8046   -0.0061 </r>
       <r>   10.9896   -0.0000 </r>
       <r>   12.2305   -0.0000 </r>
       <r>   24.6841    0.0000 </r>
       <r>   25.2694    0.0000 </r>
      </set>
      <set comment="kpoint 14">
       <r>    3.3941    1.0000 </r>
       <r>    3.5246    1.0000 </r>
       <r>    9.4093   -0.0000 </r>
       <r>    9.4094   -0.0000 </r>
       <r>   11.5460   -0.0000 </r>
       <r>   12.7439   -0.0000 </r>
       <r>   23.7901    0.0000 </r>
       <r>   23.7903    0.0000 </r>
      </set>
      <set comment="kpoint 15">
       <r>    3.0054    1.0000 </r>
       <r>    3.2538    1.0000 </r>
       <r>   10.0988   -0.0000 </r>
       <r>   10.0990   -0.0000 </r>
       <r>   12.0807   -0.0000 </r>
       <r>   13.4642   -0.0000 </r>
       <r>   22.3305    0.0000 </r>
       <r>   22.3306    0.0000 </r>
      </set>
      <set comment="kpoint 16">
       <r>    2.6842    1.0000 </r>
       <r>    2.9200    1.0000 </r>
       <r>   10.8595   -0.0000 </r>
       <r>   10.8596   -0.0000 </r>
       <r>   12.5713   -0.0000 </r>
       <r>   14.3243    0.0000 </r>
       <r>   20.9168    0.0000 </r>
       <r>   20.9170    0.0000 </r>
      </set>
      <set comment="kpoint 17">
       <r>    2.4326    1.0000 </r>
       <r>    2.5966    1.0000 </r>
       <r>   11.6791   -0.0000 </r>
       <r>   11.6793   -0.0000 </r>
       <r>   12.9926   -0.0000 </r>
       <r>   15.2391    0.0000 </r>
       <r>   19.5836    0.0000 </r>
       <r>   19.5837    0.0000 </r>
      </set>
      <set comment="kpoint 18">
       <r>    2.2519    1.0000 </r>
       <r>    2.3342    1.0000 </r>
       <r>   12.5152   -0.0000 </r>
       <r>   12.5154   -0.0000 </r>
       <r>   13.3186   -0.0000 </r>
       <r>   16.0980    0.0000 </r>
       <r>   18.3764    0.0000 </r>
       <r>   18.3765    0.0000 </r>
      </set>
      <set comment="kpoint 19">
       <r>    2.1432    1.0000 </r>
       <r>    2.1651    1.0000 </r>
       <r>   13.2552   -0.0000 </r>
       <r>   13.2554   -0.0000 </r>
       <r>   13.5255   -0.0000 </r>
       <r>   16.7466    0.0000 </r>
       <r>   17.4122    0.0000 </r>
       <r>   17.4123    0.0000 </r>
      </set>
      <set comment="kpoint 20">
       <r>    2.1068    1.0000 </r>
       <r>    2.1068    1.0000 </r>
       <r>   13.5964   -0.0000 </r>
       <r>   13.5964   -0.0000 </r>
       <r>   13.5968   -0.0000 </r>
       <r>   16.9960    0.0000 </r>
       <r>   16.9960    0.0000 </r>
       <r>   16.9960    0.0000 </r>
      </set>
      <set comment="kpoint 21">
       <r>    2.1068    1.0000 </r>
       <r>    2.1068    1.0000 </r>
       <r>   13.5964   -0.0000 </r>
       <r>   13.5964   -0.0000 </r>
       <r>   13.5968   -0.0000 </r>
       <r>   16.9960    0.0000 </r>
       <r>   16.9960    0.0000 </r>
       <r>   16.9960    0.0000 </r>
      </set>
      <set comment="kpoint 22">
       <r>    2.1277    1.0000 </r>
       <r>    2.1334    1.0000 </r>
       <r>   13.3766   -0.0000 </r>
       <r>   13.4123   -0.0000 </r>
       <r>   13.6033   -0.0000 </r>
       <r>   16.9917    0.0000 </r>
       <r>   17.0931    0.0000 </r>
       <r>   17.2109    0.0000 </r>
      </set>
      <set comment="kpoint 23">
       <r>    2.1896    1.0000 </r>
       <r>    2.2128    1.0000 </r>
       <r>   12.8360   -0.0000 </r>
       <r>   12.9307   -0.0000 </r>
       <r>   13.6230   -0.0000 </r>
       <r>   16.9775    0.0000 </r>
       <r>   17.3246    0.0000 </r>
       <r>   17.7369    0.0000 </r>
      </set>
      <set comment="kpoint 24">
       <r>    2.2899    1.0000 </r>
       <r>    2.3447    1.0000 </r>
       <r>   12.1448   -0.0000 </r>
       <r>   12.2779   -0.0000 </r>
       <r>   13.6553   -0.0000 </r>
       <r>   16.9502    0.0000 </r>
       <r>   17.5959    0.0000 </r>
       <r>   18.4036    0.0000 </r>
      </set>
      <set comment="kpoint 25">
       <r>    2.4239    1.0000 </r>
       <r>    2.5283    1.0000 </r>
       <r>   11.3961   -0.0000 </r>
       <r>   11.5488   -0.0000 </r>
       <r>   13.6995   -0.0000 </r>
       <r>   16.9041    0.0000 </r>
       <r>   17.8557    0.0000 </r>
       <r>   19.1183    0.0000 </r>
      </set>
      <set comment="kpoint 26">
       <r>    2.5840    1.0000 </r>
       <r>    2.7625    1.0000 </r>
       <r>   10.6339   -0.0000 </r>
       <r>   10.8052   -0.0000 </r>
       <r>   13.7548   -0.0000 </r>
       <r>   16.8319    0.0000 </r>
       <r>   18.0899    0.0000 </r>
       <r>   19.8379    0.0000 </r>
      </set>
      <set comment="kpoint 27">
       <r>    2.7588    1.0000 </r>
       <r>    3.0460    1.0000 </r>
       <r>    9.8814   -0.0000 </r>
       <r>   10.0943   -0.0000 </r>
       <r>   13.8199   -0.0000 </r>
       <r>   16.7249    0.0000 </r>
       <r>   18.3022    0.0000 </r>
       <r>   20.5410    0.0000 </r>
      </set>
      <set comment="kpoint 28">
       <r>    2.9306    1.0000 </r>
       <r>    3.3770    1.0000 </r>
       <r>    9.1530   -0.0000 </r>
       <r>    9.4473   -0.0000 </r>
       <r>   13.8932    0.0000 </r>
       <r>   16.5731    0.0000 </r>
       <r>   18.4938    0.0000 </r>
       <r>   21.2166    0.0000 </r>
      </set>
      <set comment="kpoint 29">
       <r>    3.0754    1.0000 </r>
       <r>    3.7534    1.0000 </r>
       <r>    8.4584    0.2215 </r>
       <r>    8.9059   -0.0008 </r>
       <r>   13.9730    0.0000 </r>
       <r>   16.3676    0.0000 </r>
       <r>   18.6721    0.0000 </r>
       <r>   21.8589    0.0000 </r>
      </set>
      <set comment="kpoint 30">
       <r>    3.1633    1.0000 </r>
       <r>    4.1730    1.0000 </r>
       <r>    7.8051    1.0001 </r>
       <r>    8.5080    0.0799 </r>
       <r>   14.0575    0.0000 </r>
       <r>   16.1011    0.0000 </r>
       <r>   18.8408    0.0000 </r>
       <r>   22.4651    0.0000 </r>
      </set>
      <set comment="kpoint 31">
       <r>    3.1663    1.0000 </r>
       <r>    4.6327    1.0000 </r>
       <r>    7.1970    1.0000 </r>
       <r>    8.2836    0.8818 </r>
       <r>   14.1477    0.0000 </r>
       <r>   15.7699    0.0000 </r>
       <r>   18.9969    0.0000 </r>
       <r>   23.0318    0.0000 </r>
      </set>
      <set comment="kpoint 32">
       <r>    3.0731    1.0000 </r>
       <r>    5.1291    1.0000 </r>
       <r>    6.6418    1.0000 </r>
       <r>    8.2493    0.9575 </r>
       <r>   14.2338    0.0000 </r>
       <r>   15.3721    0.0000 </r>
       <r>   19.1481    0.0000 </r>
       <r>   23.5614    0.0000 </r>
      </set>
      <set comment="kpoint 33">
       <r>    2.8976    1.0000 </r>
       <r>    5.6587    1.0000 </r>
       <r>    6.1430    1.0000 </r>
       <r>    8.3868    0.5051 </r>
       <r>   14.3177    0.0000 </r>
       <r>   14.9130    0.0000 </r>
       <r>   19.2901    0.0000 </r>
       <r>   24.0513    0.0000 </r>
      </set>
      <set comment="kpoint 34">
       <r>    2.6718    1.0000 </r>
       <r>    5.7039    1.0000 </r>
       <r>    6.2147    1.0000 </r>
       <r>    8.6576   -0.0335 </r>
       <r>   14.3968    0.0000 </r>
       <r>   14.3991    0.0000 </r>
       <r>   19.4204    0.0000 </r>
       <r>   23.9014    0.0000 </r>
      </set>
      <set comment="kpoint 35">
       <r>    2.4308    1.0000 </r>
       <r>    5.3269    1.0000 </r>
       <r>    6.7940    1.0000 </r>
       <r>    9.0143   -0.0000 </r>
       <r>   13.8411   -0.0000 </r>
       <r>   14.4701    0.0000 </r>
       <r>   19.5385    0.0000 </r>
       <r>   22.9932    0.0000 </r>
      </set>
      <set comment="kpoint 36">
       <r>    2.2031    1.0000 </r>
       <r>    5.0152    1.0000 </r>
       <r>    7.3864    1.0000 </r>
       <r>    9.4101   -0.0000 </r>
       <r>   13.2579   -0.0000 </r>
       <r>   14.5318    0.0000 </r>
       <r>   19.6420    0.0000 </r>
       <r>   22.1550    0.0000 </r>
      </set>
      <set comment="kpoint 37">
       <r>    2.0091    1.0000 </r>
       <r>    4.7706    1.0000 </r>
       <r>    7.9779    1.0068 </r>
       <r>    9.7980   -0.0000 </r>
       <r>   12.6712   -0.0000 </r>
       <r>   14.5825    0.0000 </r>
       <r>   19.7275    0.0000 </r>
       <r>   21.4250    0.0000 </r>
      </set>
      <set comment="kpoint 38">
       <r>    1.8624    1.0000 </r>
       <r>    4.5947    1.0000 </r>
       <r>    8.5367    0.0258 </r>
       <r>   10.1272   -0.0000 </r>
       <r>   12.1085   -0.0000 </r>
       <r>   14.6197    0.0000 </r>
       <r>   19.7974    0.0000 </r>
       <r>   20.8453    0.0000 </r>
      </set>
      <set comment="kpoint 39">
       <r>    1.7714    1.0000 </r>
       <r>    4.4887    1.0000 </r>
       <r>    8.9928   -0.0001 </r>
       <r>   10.3511   -0.0000 </r>
       <r>   11.6487   -0.0000 </r>
       <r>   14.6426    0.0000 </r>
       <r>   19.8530    0.0000 </r>
       <r>   20.4590    0.0000 </r>
      </set>
      <set comment="kpoint 40">
       <r>    1.7404    1.0000 </r>
       <r>    4.4533    1.0000 </r>
       <r>    9.1875   -0.0000 </r>
       <r>   10.4307   -0.0000 </r>
       <r>   11.4501   -0.0000 </r>
       <r>   14.6503    0.0000 </r>
       <r>   19.8778    0.0000 </r>
       <r>   20.3164    0.0000 </r>
      </set>
      <set comment="kpoint 41">
       <r>    1.7404    1.0000 </r>
       <r>    4.4533    1.0000 </r>
       <r>    9.1875   -0.0000 </r>
       <r>   10.4307   -0.0000 </r>
       <r>   11.4501   -0.0000 </r>
       <r>   14.6503    0.0000 </r>
       <r>   19.8778    0.0000 </r>
       <r>   20.3164    0.0000 </r>
      </set>
      <set comment="kpoint 42">
       <r>    1.7583    1.0000 </r>
       <r>    4.4520    1.0000 </r>
       <r>    9.1535   -0.0000 </r>
       <r>   10.4375   -0.0000 </r>
       <r>   11.4513   -0.0000 </r>
       <r>   14.6922    0.0000 </r>
       <r>   19.8440    0.0000 </r>
       <r>   20.3370    0.0000 </r>
      </set>
      <set comment="kpoint 43">
       <r>    1.8118    1.0000 </r>
       <r>    4.4486    1.0000 </r>
       <r>    9.0548   -0.0000 </r>
       <r>   10.4579   -0.0000 </r>
       <r>   11.4549   -0.0000 </r>
       <r>   14.8148    0.0000 </r>
       <r>   19.7445    0.0000 </r>
       <r>   20.3982    0.0000 </r>
      </set>
      <set comment="kpoint 44">
       <r>    1.9003    1.0000 </r>
       <r>    4.4434    1.0000 </r>
       <r>    8.9002   -0.0009 </r>
       <r>   10.4916   -0.0000 </r>
       <r>   11.4609   -0.0000 </r>
       <r>   15.0090    0.0000 </r>
       <r>   19.5840    0.0000 </r>
       <r>   20.4981    0.0000 </r>
      </set>
      <set comment="kpoint 45">
       <r>    2.0226    1.0000 </r>
       <r>    4.4375    1.0000 </r>
       <r>    8.7013   -0.0246 </r>
       <r>   10.5381   -0.0000 </r>
       <r>   11.4689   -0.0000 </r>
       <r>   15.2633    0.0000 </r>
       <r>   19.3696    0.0000 </r>
       <r>   20.6331    0.0000 </r>
      </set>
      <set comment="kpoint 46">
       <r>    2.1773    1.0000 </r>
       <r>    4.4319    1.0000 </r>
       <r>    8.4698    0.1838 </r>
       <r>   10.5969   -0.0000 </r>
       <r>   11.4790   -0.0000 </r>
       <r>   15.5656    0.0000 </r>
       <r>   19.1097    0.0000 </r>
       <r>   20.7985    0.0000 </r>
      </set>
      <set comment="kpoint 47">
       <r>    2.3623    1.0000 </r>
       <r>    4.4280    1.0000 </r>
       <r>    8.2163    1.0035 </r>
       <r>   10.6669   -0.0000 </r>
       <r>   11.4907   -0.0000 </r>
       <r>   15.9053    0.0000 </r>
       <r>   18.8130    0.0000 </r>
       <r>   20.9878    0.0000 </r>
      </set>
      <set comment="kpoint 48">
       <r>    2.5748    1.0000 </r>
       <r>    4.4259    1.0000 </r>
       <r>    7.9489    1.0040 </r>
       <r>   10.7474   -0.0000 </r>
       <r>   11.5021   -0.0000 </r>
       <r>   16.2689    0.0000 </r>
       <r>   18.4879    0.0000 </r>
       <r>   21.1941    0.0000 </r>
      </set>
      <set comment="kpoint 49">
       <r>    2.8118    1.0000 </r>
       <r>    4.4293    1.0000 </r>
       <r>    7.6753    1.0000 </r>
       <r>   10.8363   -0.0000 </r>
       <r>   11.5160   -0.0000 </r>
       <r>   16.6576    0.0000 </r>
       <r>   18.1429    0.0000 </r>
       <r>   21.4046    0.0000 </r>
      </set>
      <set comment="kpoint 50">
       <r>    3.0691    1.0000 </r>
       <r>    4.4391    1.0000 </r>
       <r>    7.4006    1.0000 </r>
       <r>   10.9322   -0.0000 </r>
       <r>   11.5306   -0.0000 </r>
       <r>   17.0617    0.0000 </r>
       <r>   17.7859    0.0000 </r>
       <r>   21.6090    0.0000 </r>
      </set>
      <set comment="kpoint 51">
       <r>    3.3426    1.0000 </r>
       <r>    4.4570    1.0000 </r>
       <r>    7.1287    1.0000 </r>
       <r>   11.0283   -0.0000 </r>
       <r>   11.5502   -0.0000 </r>
       <r>   17.4262    0.0000 </r>
       <r>   17.4754    0.0000 </r>
       <r>   21.7940    0.0000 </r>
      </set>
      <set comment="kpoint 52">
       <r>    3.6252    1.0000 </r>
       <r>    4.4845    1.0000 </r>
       <r>    6.8632    1.0000 </r>
       <r>   11.1299   -0.0000 </r>
       <r>   11.5649   -0.0000 </r>
       <r>   17.0670    0.0000 </r>
       <r>   17.8963    0.0000 </r>
       <r>   21.9454    0.0000 </r>
      </set>
      <set comment="kpoint 53">
       <r>    3.9105    1.0000 </r>
       <r>    4.5228    1.0000 </r>
       <r>    6.6066    1.0000 </r>
       <r>   11.2303   -0.0000 </r>
       <r>   11.5792   -0.0000 </r>
       <r>   16.7187    0.0000 </r>
       <r>   18.3201    0.0000 </r>
       <r>   22.0499    0.0000 </r>
      </set>
      <set comment="kpoint 54">
       <r>    4.1905    1.0000 </r>
       <r>    4.5734    1.0000 </r>
       <r>    6.3609    1.0000 </r>
       <r>   11.3263   -0.0000 </r>
       <r>   11.5925   -0.0000 </r>
       <r>   16.3895    0.0000 </r>
       <r>   18.7436    0.0000 </r>
       <r>   22.0961    0.0000 </r>
      </set>
      <set comment="kpoint 55">
       <r>    4.4557    1.0000 </r>
       <r>    4.6373    1.0000 </r>
       <r>    6.1278    1.0000 </r>
       <r>   11.4140   -0.0000 </r>
       <r>   11.6046   -0.0000 </r>
       <r>   16.0883    0.0000 </r>
       <r>   19.1635    0.0000 </r>
       <r>   21.9909    0.0000 </r>
      </set>
      <set comment="kpoint 56">
       <r>    4.6954    1.0000 </r>
       <r>    4.7154    1.0000 </r>
       <r>    5.9084    1.0000 </r>
       <r>   11.4901   -0.0000 </r>
       <r>   11.6152   -0.0000 </r>
       <r>   15.8245    0.0000 </r>
       <r>   19.5762    0.0000 </r>
       <r>   21.6750    0.0000 </r>
      </set>
      <set comment="kpoint 57">
       <r>    4.8086    1.0000 </r>
       <r>    4.8984    1.0000 </r>
       <r>    5.7038    1.0000 </r>
       <r>   11.5518   -0.0000 </r>
       <r>   11.6238   -0.0000 </r>
       <r>   15.6074    0.0000 </r>
       <r>   19.9780    0.0000 </r>
       <r>   21.4171    0.0000 </r>
      </set>
      <set comment="kpoint 58">
       <r>    4.9182    1.0000 </r>
       <r>    5.0544    1.0000 </r>
       <r>    5.5153    1.0000 </r>
       <r>   11.5988   -0.0000 </r>
       <r>   11.6374   -0.0000 </r>
       <r>   15.4455    0.0000 </r>
       <r>   20.3673    0.0000 </r>
       <r>   21.2298    0.0000 </r>
      </set>
      <set comment="kpoint 59">
       <r>    5.0450    1.0000 </r>
       <r>    5.1525    1.0000 </r>
       <r>    5.3432    1.0000 </r>
       <r>   11.6347   -0.0000 </r>
       <r>   11.6421   -0.0000 </r>
       <r>   15.3454    0.0000 </r>
       <r>   20.7373    0.0000 </r>
       <r>   21.1150    0.0000 </r>
      </set>
      <set comment="kpoint 60">
       <r>    5.1858    1.0000 </r>
       <r>    5.1858    1.0000 </r>
       <r>    5.1859    1.0000 </r>
       <r>   11.6433   -0.0000 </r>
       <r>   11.6433   -0.0000 </r>
       <r>   15.3116    0.0000 </r>
       <r>   21.0752    0.0000 </r>
       <r>   21.0754    0.0000 </r>
      </set>
      <set comment="kpoint 61">
       <r>    5.1858    1.0000 </r>
       <r>    5.1858    1.0000 </r>
       <r>    5.1859    1.0000 </r>
       <r>   11.6433   -0.0000 </r>
       <r>   11.6433   -0.0000 </r>
       <r>   15.3116    0.0000 </r>
       <r>   21.0752    0.0000 </r>
       <r>   21.0753    0.0000 </r>
      </set>
      <set comment="kpoint 62">
       <r>    5.0388    1.0000 </r>
       <r>    5.0388    1.0000 </r>
       <r>    5.4204    1.0000 </r>
       <r>   11.6223   -0.0000 </r>
       <r>   11.6223   -0.0000 </r>
       <r>   15.4249    0.0000 </r>
       <r>   20.4194    0.0000 </r>
       <r>   21.4025    0.0000 </r>
      </set>
      <set comment="kpoint 63">
       <r>    4.9038    1.0000 </r>
       <r>    4.9038    1.0000 </r>
       <r>    5.4972    1.0000 </r>
       <r>   11.5786   -0.0000 </r>
       <r>   11.5786   -0.0000 </r>
       <r>   15.8008    0.0000 </r>
       <r>   19.7288    0.0000 </r>
       <r>   21.7345    0.0000 </r>
      </set>
      <set comment="kpoint 64">
       <r>    4.7927    1.0000 </r>
       <r>    4.7927    1.0000 </r>
       <r>    5.3901    1.0000 </r>
       <r>   11.4995   -0.0000 </r>
       <r>   11.4995   -0.0000 </r>
       <r>   16.4565    0.0000 </r>
       <r>   18.9674    0.0000 </r>
       <r>   22.0738    0.0000 </r>
      </set>
      <set comment="kpoint 65">
       <r>    4.7174    1.0000 </r>
       <r>    4.7174    1.0000 </r>
       <r>    5.1152    1.0000 </r>
       <r>   11.4032   -0.0000 </r>
       <r>   11.4032   -0.0000 </r>
       <r>   17.2928    0.0000 </r>
       <r>   18.2187    0.0000 </r>
       <r>   22.4354    0.0000 </r>
      </set>
      <set comment="kpoint 66">
       <r>    4.6835    1.0000 </r>
       <r>    4.6835    1.0000 </r>
       <r>    4.7071    1.0000 </r>
       <r>   11.2837   -0.0000 </r>
       <r>   11.2837   -0.0000 </r>
       <r>   17.0086    0.0000 </r>
       <r>   18.7361    0.0000 </r>
       <r>   22.8223    0.0000 </r>
      </set>
      <set comment="kpoint 67">
       <r>    4.2060    1.0000 </r>
       <r>    4.6966    1.0000 </r>
       <r>    4.6966    1.0000 </r>
       <r>   11.1445   -0.0000 </r>
       <r>   11.1445   -0.0000 </r>
       <r>   16.0162    0.0000 </r>
       <r>   20.0773    0.0000 </r>
       <r>   23.2435    0.0000 </r>
      </set>
      <set comment="kpoint 68">
       <r>    3.6459    1.0000 </r>
       <r>    4.7598    1.0000 </r>
       <r>    4.7598    1.0000 </r>
       <r>   10.9908   -0.0000 </r>
       <r>   10.9908   -0.0000 </r>
       <r>   14.9405    0.0000 </r>
       <r>   21.6017    0.0000 </r>
       <r>   23.7034    0.0000 </r>
      </set>
      <set comment="kpoint 69">
       <r>    3.0530    1.0000 </r>
       <r>    4.8747    1.0000 </r>
       <r>    4.8747    1.0000 </r>
       <r>   10.8314   -0.0000 </r>
       <r>   10.8314   -0.0000 </r>
       <r>   13.8437   -0.0000 </r>
       <r>   23.2450    0.0000 </r>
       <r>   24.2020    0.0000 </r>
      </set>
      <set comment="kpoint 70">
       <r>    2.4467    1.0000 </r>
       <r>    5.0367    1.0000 </r>
       <r>    5.0367    1.0000 </r>
       <r>   10.6701   -0.0000 </r>
       <r>   10.6701   -0.0000 </r>
       <r>   12.7565   -0.0000 </r>
       <r>   24.7210    0.0000 </r>
       <r>   24.7211    0.0000 </r>
      </set>
      <set comment="kpoint 71">
       <r>    1.8420    1.0000 </r>
       <r>    5.2422    1.0000 </r>
       <r>    5.2422    1.0000 </r>
       <r>   10.5191   -0.0000 </r>
       <r>   10.5191   -0.0000 </r>
       <r>   11.7136   -0.0000 </r>
       <r>   25.2348    0.0000 </r>
       <r>   25.2348    0.0000 </r>
      </set>
      <set comment="kpoint 72">
       <r>    1.2515    1.0000 </r>
       <r>    5.4824    1.0000 </r>
       <r>    5.4824    1.0000 </r>
       <r>   10.3888   -0.0000 </r>
       <r>   10.3888   -0.0000 </r>
       <r>   10.7404   -0.0000 </r>
       <r>   25.6354    0.0000 </r>
       <r>   25.6875    0.0000 </r>
      </set>
      <set comment="kpoint 73">
       <r>    0.6870    1.0000 </r>
       <r>    5.7448    1.0000 </r>
       <r>    5.7448    1.0000 </r>
       <r>    9.8539   -0.0000 </r>
       <r>   10.2930   -0.0000 </r>
       <r>   10.2930   -0.0000 </r>
       <r>   25.1601    0.0000 </r>
       <r>   25.9863    0.0000 </r>
      </set>
      <set comment="kpoint 74">
       <r>    0.1606    1.0000 </r>
       <r>    6.0128    1.0000 </r>
       <r>    6.0128    1.0000 </r>
       <r>    9.0735   -0.0000 </r>
       <r>   10.2340   -0.0000 </r>
       <r>   10.2340   -0.0000 </r>
       <r>   24.7484    0.0000 </r>
       <r>   26.0072    0.0000 </r>
      </set>
      <set comment="kpoint 75">
       <r>   -0.3153    1.0000 </r>
       <r>    6.2677    1.0000 </r>
       <r>    6.2677    1.0000 </r>
       <r>    8.4069    0.4205 </r>
       <r>   10.2231   -0.0000 </r>
       <r>   10.2231   -0.0000 </r>
       <r>   24.3999    0.0000 </r>
       <r>   25.7030    0.0000 </r>
      </set>
      <set comment="kpoint 76">
       <r>   -0.7276    1.0000 </r>
       <r>    6.4878    1.0000 </r>
       <r>    6.4878    1.0000 </r>
       <r>    7.8583    1.0006 </r>
       <r>   10.2573   -0.0000 </r>
       <r>   10.2573   -0.0000 </r>
       <r>   24.1140    0.0000 </r>
       <r>   25.1720    0.0000 </r>
      </set>
      <set comment="kpoint 77">
       <r>   -1.0639    1.0000 </r>
       <r>    6.6651    1.0000 </r>
       <r>    6.6651    1.0000 </r>
       <r>    7.4332    1.0000 </r>
       <r>   10.3315   -0.0000 </r>
       <r>   10.3315   -0.0000 </r>
       <r>   23.8922    0.0000 </r>
       <r>   24.5824    0.0000 </r>
      </set>
      <set comment="kpoint 78">
       <r>   -1.3131    1.0000 </r>
       <r>    6.7866    1.0000 </r>
       <r>    6.7866    1.0000 </r>
       <r>    7.1308    1.0000 </r>
       <r>   10.4175   -0.0000 </r>
       <r>   10.4175   -0.0000 </r>
       <r>   23.7337    0.0000 </r>
       <r>   24.0693    0.0000 </r>
      </set>
      <set comment="kpoint 79">
       <r>   -1.4664    1.0000 </r>
       <r>    6.8586    1.0000 </r>
       <r>    6.8586    1.0000 </r>
       <r>    6.9432    1.0000 </r>
       <r>   10.4857   -0.0000 </r>
       <r>   10.4857   -0.0000 </r>
       <r>   23.6388    0.0000 </r>
       <r>   23.7266    0.0000 </r>
      </set>
      <set comment="kpoint 80">
       <r>   -1.5181    1.0000 </r>
       <r>    6.8823    1.0000 </r>
       <r>    6.8823    1.0000 </r>
       <r>    6.8826    1.0000 </r>
       <r>   10.5125   -0.0000 </r>
       <r>   10.5125   -0.0000 </r>
       <r>   23.6069    0.0000 </r>
       <r>   23.6069    0.0000 </r>
      </set>
      <set comment="kpoint 81">
       <r>   -1.5181    1.0000 </r>
       <r>    6.8823    1.0000 </r>
       <r>    6.8823    1.0000 </r>
       <r>    6.8826    1.0000 </r>
       <r>   10.5125   -0.0000 </r>
       <r>   10.5125   -0.0000 </r>
       <r>   23.6069    0.0000 </r>
       <r>   23.6069    0.0000 </r>
      </set>
      <set comment="kpoint 82">
       <r>   -1.4836    1.0000 </r>
       <r>    6.8607    1.0000 </r>
       <r>    6.8786    1.0000 </r>
       <r>    6.9168    1.0000 </r>
       <r>   10.4758   -0.0000 </r>
       <r>   10.5129   -0.0000 </r>
       <r>   23.6382    0.0000 </r>
       <r>   23.6679    0.0000 </r>
      </set>
      <set comment="kpoint 83">
       <r>   -1.3808    1.0000 </r>
       <r>    6.7969    1.0000 </r>
       <r>    6.8656    1.0000 </r>
       <r>    7.0196    1.0000 </r>
       <r>   10.3736   -0.0000 </r>
       <r>   10.5146   -0.0000 </r>
       <r>   23.7287    0.0000 </r>
       <r>   23.8457    0.0000 </r>
      </set>
      <set comment="kpoint 84">
       <r>   -1.2122    1.0000 </r>
       <r>    6.6954    1.0000 </r>
       <r>    6.8425    1.0000 </r>
       <r>    7.1938    1.0000 </r>
       <r>   10.2277   -0.0000 </r>
       <r>   10.5219   -0.0000 </r>
       <r>   23.8696    0.0000 </r>
       <r>   24.1401    0.0000 </r>
      </set>
      <set comment="kpoint 85">
       <r>   -0.9822    1.0000 </r>
       <r>    6.5598    1.0000 </r>
       <r>    6.7948    1.0000 </r>
       <r>    7.4341    1.0000 </r>
       <r>   10.0672   -0.0000 </r>
       <r>   10.5296   -0.0000 </r>
       <r>   24.0420    0.0000 </r>
       <r>   24.5433    0.0000 </r>
      </set>
      <set comment="kpoint 86">
       <r>   -0.6972    1.0000 </r>
       <r>    6.3971    1.0000 </r>
       <r>    6.7218    1.0000 </r>
       <r>    7.7342    1.0000 </r>
       <r>    9.9203   -0.0000 </r>
       <r>   10.5433   -0.0000 </r>
       <r>   24.2166    0.0000 </r>
       <r>   25.0482    0.0000 </r>
      </set>
      <set comment="kpoint 87">
       <r>   -0.3663    1.0000 </r>
       <r>    6.2166    1.0000 </r>
       <r>    6.6237    1.0000 </r>
       <r>    8.0982    1.0299 </r>
       <r>    9.8147   -0.0000 </r>
       <r>   10.5687   -0.0000 </r>
       <r>   24.3500    0.0000 </r>
       <r>   25.6489    0.0000 </r>
      </set>
      <set comment="kpoint 88">
       <r>   -0.0021    1.0000 </r>
       <r>    6.0209    1.0000 </r>
       <r>    6.5085    1.0000 </r>
       <r>    8.5202    0.0544 </r>
       <r>    9.7642   -0.0000 </r>
       <r>   10.6012   -0.0000 </r>
       <r>   24.3845    0.0000 </r>
       <r>   26.2359    0.0000 </r>
      </set>
      <set comment="kpoint 89">
       <r>    0.3784    1.0000 </r>
       <r>    5.8194    1.0000 </r>
       <r>    6.3971    1.0000 </r>
       <r>    8.9978   -0.0001 </r>
       <r>    9.7701   -0.0000 </r>
       <r>   10.6410   -0.0000 </r>
       <r>   24.2672    0.0000 </r>
       <r>   26.2321    0.0000 </r>
      </set>
      <set comment="kpoint 90">
       <r>    0.7536    1.0000 </r>
       <r>    5.6214    1.0000 </r>
       <r>    6.3203    1.0000 </r>
       <r>    9.5274   -0.0000 </r>
       <r>    9.8342   -0.0000 </r>
       <r>   10.7008   -0.0000 </r>
       <r>   23.9869    0.0000 </r>
       <r>   25.8791    0.0000 </r>
      </set>
      <set comment="kpoint 91">
       <r>    1.0968    1.0000 </r>
       <r>    5.4248    1.0000 </r>
       <r>    6.3089    1.0000 </r>
       <r>    9.9312   -0.0000 </r>
       <r>   10.1002   -0.0000 </r>
       <r>   10.7708   -0.0000 </r>
       <r>   23.5717    0.0000 </r>
       <r>   25.2625    0.0000 </r>
      </set>
      <set comment="kpoint 92">
       <r>    1.3818    1.0000 </r>
       <r>    5.2382    1.0000 </r>
       <r>    6.3960    1.0000 </r>
       <r>   10.0538   -0.0000 </r>
       <r>   10.7098   -0.0000 </r>
       <r>   10.8531   -0.0000 </r>
       <r>   23.0764    0.0000 </r>
       <r>   24.5032    0.0000 </r>
      </set>
      <set comment="kpoint 93">
       <r>    1.5895    1.0000 </r>
       <r>    5.0656    1.0000 </r>
       <r>    6.5999    1.0000 </r>
       <r>   10.1883   -0.0000 </r>
       <r>   10.9458   -0.0000 </r>
       <r>   11.3490   -0.0000 </r>
       <r>   22.5515    0.0000 </r>
       <r>   23.6861    0.0000 </r>
      </set>
      <set comment="kpoint 94">
       <r>    1.7170    1.0000 </r>
       <r>    4.9103    1.0000 </r>
       <r>    6.9205    1.0000 </r>
       <r>   10.3190   -0.0000 </r>
       <r>   11.0456   -0.0000 </r>
       <r>   11.9979   -0.0000 </r>
       <r>   22.0353    0.0000 </r>
       <r>   22.8654    0.0000 </r>
      </set>
      <set comment="kpoint 95">
       <r>    1.7772    1.0000 </r>
       <r>    4.7748    1.0000 </r>
       <r>    7.3345    1.0000 </r>
       <r>   10.4313   -0.0000 </r>
       <r>   11.1479   -0.0000 </r>
       <r>   12.6421   -0.0000 </r>
       <r>   21.5561    0.0000 </r>
       <r>   22.0809    0.0000 </r>
      </set>
      <set comment="kpoint 96">
       <r>    1.7913    1.0000 </r>
       <r>    4.6610    1.0000 </r>
       <r>    7.8040    1.0001 </r>
       <r>   10.5097   -0.0000 </r>
       <r>   11.2377   -0.0000 </r>
       <r>   13.2541   -0.0000 </r>
       <r>   21.1339    0.0000 </r>
       <r>   21.3650    0.0000 </r>
      </set>
      <set comment="kpoint 97">
       <r>    1.7806    1.0000 </r>
       <r>    4.5710    1.0000 </r>
       <r>    8.2854    0.8772 </r>
       <r>   10.5413   -0.0000 </r>
       <r>   11.3239   -0.0000 </r>
       <r>   13.8053   -0.0000 </r>
       <r>   20.7545    0.0000 </r>
       <r>   20.7875    0.0000 </r>
      </set>
      <set comment="kpoint 98">
       <r>    1.7619    1.0000 </r>
       <r>    4.5059    1.0000 </r>
       <r>    8.7258   -0.0190 </r>
       <r>   10.5204   -0.0000 </r>
       <r>   11.3923   -0.0000 </r>
       <r>   14.2518    0.0000 </r>
       <r>   20.2828    0.0000 </r>
       <r>   20.5296    0.0000 </r>
      </set>
      <set comment="kpoint 99">
       <r>    1.7464    1.0000 </r>
       <r>    4.4664    1.0000 </r>
       <r>    9.0575   -0.0000 </r>
       <r>   10.4646   -0.0000 </r>
       <r>   11.4367   -0.0000 </r>
       <r>   14.5466    0.0000 </r>
       <r>   19.9833    0.0000 </r>
       <r>   20.3703    0.0000 </r>
      </set>
      <set comment="kpoint 100">
       <r>    1.7404    1.0000 </r>
       <r>    4.4533    1.0000 </r>
       <r>    9.1875   -0.0000 </r>
       <r>   10.4307   -0.0000 </r>
       <r>   11.4501   -0.0000 </r>
       <r>   14.6503    0.0000 </r>
       <r>   19.8778    0.0000 </r>
       <r>   20.3164    0.0000 </r>
      </set>
     </set>
    </set>
   </array>
  </eigenvalues>
  <separator name="orbital magnetization" >
   <v name="MAGDIPOLOUT">      0.00000000      0.00000000      0.00000000</v>
  </separator>
  <dos>
   <i name="efermi">      8.38798006 </i>
   <total>
    <array>
     <dimension dim="1">gridpoints</dimension>
     <dimension dim="2">spin</dimension>
     <field>energy</field>
     <field>total</field>
     <field>integrated</field>
     <set>
      <set comment="spin 1">
       <r>    -3.5181     0.0000     0.0000 </r>
       <r>    -3.5067     0.0000     0.0000 </r>
       <r>    -3.4952     0.0000     0.0000 </r>
       <r>    -3.4837     0.0000     0.0000 </r>
       <r>    -3.4722     0.0000     0.0000 </r>
       <r>    -3.4608     0.0000     0.0000 </r>
       <r>    -3.4493     0.0000     0.0000 </r>
       <r>    -3.4378     0.0000     0.0000 </r>
       <r>    -3.4264     0.0000     0.0000 </r>
       <r>    -3.4149     0.0000     0.0000 </r>
       <r>    -3.4034     0.0000     0.0000 </r>
       <r>    -3.3919     0.0000     0.0000 </r>
       <r>    -3.3805     0.0000     0.0000 </r>
       <r>    -3.3690     0.0000     0.0000 </r>
       <r>    -3.3575     0.0000     0.0000 </r>
       <r>    -3.3461     0.0000     0.0000 </r>
       <r>    -3.3346     0.0000     0.0000 </r>
       <r>    -3.3231     0.0000     0.0000 </r>
       <r>    -3.3117     0.0000     0.0000 </r>
       <r>    -3.3002     0.0000     0.0000 </r>
       <r>    -3.2887     0.0000     0.0000 </r>
       <r>    -3.2772     0.0000     0.0000 </r>
       <r>    -3.2658     0.0000     0.0000 </r>
       <r>    -3.2543     0.0000     0.0000 </r>
       <r>    -3.2428     0.0000     0.0000 </r>
       <r>    -3.2314     0.0000     0.0000 </r>
       <r>    -3.2199     0.0000     0.0000 </r>
       <r>    -3.2084     0.0000     0.0000 </r>
       <r>    -3.1970     0.0000     0.0000 </r>
       <r>    -3.1855     0.0000     0.0000 </r>
       <r>    -3.1740     0.0000     0.0000 </r>
       <r>    -3.1625     0.0000     0.0000 </r>
       <r>    -3.1511     0.0000     0.0000 </r>
       <r>    -3.1396     0.0000     0.0000 </r>
       <r>    -3.1281    -0.0000    -0.0000 </r>
       <r>    -3.1167    -0.0000    -0.0000 </r>
       <r>    -3.1052    -0.0000    -0.0000 </r>
       <r>    -3.0937    -0.0000    -0.0000 </r>
       <r>    -3.0822    -0.0000    -0.0000 </r>
       <r>    -3.0708    -0.0000    -0.0000 </r>
       <r>    -3.0593    -0.0000    -0.0000 </r>
       <r>    -3.0478    -0.0000    -0.0000 </r>
       <r>    -3.0364    -0.0000    -0.0000 </r>
       <r>    -3.0249    -0.0000    -0.0000 </r>
       <r>    -3.0134    -0.0000    -0.0000 </r>
       <r>    -3.0020    -0.0000    -0.0000 </r>
       <r>    -2.9905    -0.0000    -0.0000 </r>
       <r>    -2.9790    -0.0000    -0.0000 </r>
       <r>    -2.9675    -0.0000    -0.0000 </r>
       <r>    -2.9561    -0.0000    -0.0000 </r>
       <r>    -2.9446    -0.0000    -0.0000 </r>
       <r>    -2.9331    -0.0000    -0.0000 </r>
       <r>    -2.9217    -0.0000    -0.0000 </r>
       <r>    -2.9102    -0.0000    -0.0000 </r>
       <r>    -2.8987    -0.0000    -0.0000 </r>
       <r>    -2.8872    -0.0000    -0.0000 </r>
       <r>    -2.8758    -0.0000    -0.0000 </r>
       <r>    -2.8643    -0.0000    -0.0000 </r>
       <r>    -2.8528    -0.0000    -0.0000 </r>
       <r>    -2.8414    -0.0000    -0.0000 </r>
       <r>    -2.8299    -0.0000    -0.0000 </r>
       <r>    -2.8184    -0.0000    -0.0000 </r>
       <r>    -2.8070    -0.0000    -0.0000 </r>
       <r>    -2.7955    -0.0000    -0.0000 </r>
       <r>    -2.7840    -0.0000    -0.0000 </r>
       <r>    -2.7725    -0.0000    -0.0000 </r>
       <r>    -2.7611    -0.0000    -0.0000 </r>
       <r>    -2.7496    -0.0000    -0.0000 </r>
       <r>    -2.7381    -0.0000    -0.0000 </r>
       <r>    -2.7267    -0.0000    -0.0000 </r>
       <r>    -2.7152    -0.0000    -0.0000 </r>
       <r>    -2.7037    -0.0000    -0.0000 </r>
       <r>    -2.6922    -0.0000    -0.0000 </r>
       <r>    -2.6808    -0.0000    -0.0000 </r>
       <r>    -2.6693    -0.0000    -0.0000 </r>
       <r>    -2.6578    -0.0000    -0.0000 </r>
       <r>    -2.6464    -0.0000    -0.0000 </r>
       <r>    -2.6349    -0.0000    -0.0000 </r>
       <r>    -2.6234    -0.0000    -0.0000 </r>
       <r>    -2.6120    -0.0000    -0.0000 </r>
       <r>    -2.6005    -0.0000    -0.0000 </r>
       <r>    -2.5890    -0.0000    -0.0000 </r>
       <r>    -2.5775    -0.0000    -0.0000 </r>
       <r>    -2.5661    -0.0000    -0.0000 </r>
       <r>    -2.5546    -0.0000    -0.0000 </r>
       <r>    -2.5431    -0.0000    -0.0000 </r>
       <r>    -2.5317    -0.0000    -0.0000 </r>
       <r>    -2.5202    -0.0000    -0.0000 </r>
       <r>    -2.5087    -0.0000    -0.0000 </r>
       <r>    -2.4972    -0.0000    -0.0000 </r>
       <r>    -2.4858    -0.0000    -0.0000 </r>
       <r>    -2.4743    -0.0000    -0.0000 </r>
       <r>    -2.4628    -0.0000    -0.0000 </r>
       <r>    -2.4514    -0.0000    -0.0000 </r>
       <r>    -2.4399    -0.0000    -0.0000 </r>
       <r>    -2.4284    -0.0000    -0.0000 </r>
       <r>    -2.4170    -0.0000    -0.0000 </r>
       <r>    -2.4055    -0.0000    -0.0000 </r>
       <r>    -2.3940    -0.0000    -0.0000 </r>
       <r>    -2.3825    -0.0000    -0.0000 </r>
       <r>    -2.3711    -0.0000    -0.0000 </r>
       <r>    -2.3596    -0.0000    -0.0000 </r>
       <r>    -2.3481    -0.0000    -0.0000 </r>
       <r>    -2.3367    -0.0000    -0.0000 </r>
       <r>    -2.3252    -0.0000    -0.0000 </r>
       <r>    -2.3137    -0.0000    -0.0000 </r>
       <r>    -2.3023    -0.0000    -0.0000 </r>
       <r>    -2.2908    -0.0000    -0.0000 </r>
       <r>    -2.2793    -0.0000    -0.0000 </r>
       <r>    -2.2678    -0.0000    -0.0000 </r>
       <r>    -2.2564    -0.0000    -0.0000 </r>
       <r>    -2.2449    -0.0000    -0.0000 </r>
       <r>    -2.2334    -0.0000    -0.0000 </r>
       <r>    -2.2220    -0.0000    -0.0000 </r>
       <r>    -2.2105    -0.0000    -0.0000 </r>
       <r>    -2.1990    -0.0000    -0.0000 </r>
       <r>    -2.1875    -0.0000    -0.0000 </r>
       <r>    -2.1761    -0.0000    -0.0000 </r>
       <r>    -2.1646    -0.0000    -0.0000 </r>
       <r>    -2.1531    -0.0001    -0.0000 </r>
       <r>    -2.1417    -0.0001    -0.0000 </r>
       <r>    -2.1302    -0.0001    -0.0000 </r>
       <r>    -2.1187    -0.0002    -0.0000 </r>
       <r>    -2.1073    -0.0002    -0.0000 </r>
       <r>    -2.0958    -0.0003    -0.0000 </r>
       <r>    -2.0843    -0.0004    -0.0000 </r>
       <r>    -2.0728    -0.0005    -0.0000 </r>
       <r>    -2.0614    -0.0007    -0.0000 </r>
       <r>    -2.0499    -0.0009    -0.0000 </r>
       <r>    -2.0384    -0.0012    -0.0001 </r>
       <r>    -2.0270    -0.0016    -0.0001 </r>
       <r>    -2.0155    -0.0020    -0.0001 </r>
       <r>    -2.0040    -0.0025    -0.0001 </r>
       <r>    -1.9925    -0.0031    -0.0002 </r>
       <r>    -1.9811    -0.0039    -0.0002 </r>
       <r>    -1.9696    -0.0048    -0.0003 </r>
       <r>    -1.9581    -0.0059    -0.0003 </r>
       <r>    -1.9467    -0.0071    -0.0004 </r>
       <r>    -1.9352    -0.0085    -0.0005 </r>
       <r>    -1.9237    -0.0101    -0.0006 </r>
       <r>    -1.9123    -0.0119    -0.0008 </r>
       <r>    -1.9008    -0.0138    -0.0009 </r>
       <r>    -1.8893    -0.0158    -0.0011 </r>
       <r>    -1.8778    -0.0179    -0.0013 </r>
       <r>    -1.8664    -0.0201    -0.0015 </r>
       <r>    -1.8549    -0.0222    -0.0018 </r>
       <r>    -1.8434    -0.0242    -0.0021 </r>
       <r>    -1.8320    -0.0259    -0.0024 </r>
       <r>    -1.8205    -0.0271    -0.0027 </r>
       <r>    -1.8090    -0.0277    -0.0030 </r>
       <r>    -1.7975    -0.0276    -0.0033 </r>
       <r>    -1.7861    -0.0264    -0.0036 </r>
       <r>    -1.7746    -0.0240    -0.0039 </r>
       <r>    -1.7631    -0.0201    -0.0041 </r>
       <r>    -1.7517    -0.0145    -0.0043 </r>
       <r>    -1.7402    -0.0069    -0.0044 </r>
       <r>    -1.7287     0.0029    -0.0043 </r>
       <r>    -1.7173     0.0151    -0.0042 </r>
       <r>    -1.7058     0.0298    -0.0038 </r>
       <r>    -1.6943     0.0473    -0.0033 </r>
       <r>    -1.6828     0.0674    -0.0025 </r>
       <r>    -1.6714     0.0903    -0.0015 </r>
       <r>    -1.6599     0.1157    -0.0001 </r>
       <r>    -1.6484     0.1437     0.0015 </r>
       <r>    -1.6370     0.1738     0.0035 </r>
       <r>    -1.6255     0.2058     0.0059 </r>
       <r>    -1.6140     0.2393     0.0086 </r>
       <r>    -1.6026     0.2738     0.0118 </r>
       <r>    -1.5911     0.3088     0.0153 </r>
       <r>    -1.5796     0.3436     0.0192 </r>
       <r>    -1.5681     0.3778     0.0236 </r>
       <r>    -1.5567     0.4106     0.0283 </r>
       <r>    -1.5452     0.4416     0.0333 </r>
       <r>    -1.5337     0.4700     0.0387 </r>
       <r>    -1.5223     0.4956     0.0444 </r>
       <r>    -1.5108     0.5178     0.0504 </r>
       <r>    -1.4993     0.5362     0.0565 </r>
       <r>    -1.4878     0.5508     0.0628 </r>
       <r>    -1.4764     0.5612     0.0693 </r>
       <r>    -1.4649     0.5675     0.0758 </r>
       <r>    -1.4534     0.5697     0.0823 </r>
       <r>    -1.4420     0.5681     0.0888 </r>
       <r>    -1.4305     0.5628     0.0953 </r>
       <r>    -1.4190     0.5542     0.1016 </r>
       <r>    -1.4076     0.5427     0.1079 </r>
       <r>    -1.3961     0.5288     0.1139 </r>
       <r>    -1.3846     0.5127     0.1198 </r>
       <r>    -1.3731     0.4951     0.1255 </r>
       <r>    -1.3617     0.4763     0.1310 </r>
       <r>    -1.3502     0.4568     0.1362 </r>
       <r>    -1.3387     0.4370     0.1412 </r>
       <r>    -1.3273     0.4171     0.1460 </r>
       <r>    -1.3158     0.3976     0.1505 </r>
       <r>    -1.3043     0.3785     0.1549 </r>
       <r>    -1.2928     0.3601     0.1590 </r>
       <r>    -1.2814     0.3426     0.1630 </r>
       <r>    -1.2699     0.3260     0.1667 </r>
       <r>    -1.2584     0.3104     0.1703 </r>
       <r>    -1.2470     0.2959     0.1736 </r>
       <r>    -1.2355     0.2825     0.1769 </r>
       <r>    -1.2240     0.2702     0.1800 </r>
       <r>    -1.2126     0.2589     0.1830 </r>
       <r>    -1.2011     0.2487     0.1858 </r>
       <r>    -1.1896     0.2396     0.1886 </r>
       <r>    -1.1781     0.2315     0.1912 </r>
       <r>    -1.1667     0.2245     0.1938 </r>
       <r>    -1.1552     0.2184     0.1963 </r>
       <r>    -1.1437     0.2134     0.1987 </r>
       <r>    -1.1323     0.2093     0.2011 </r>
       <r>    -1.1208     0.2060     0.2035 </r>
       <r>    -1.1093     0.2036     0.2058 </r>
       <r>    -1.0978     0.2020     0.2082 </r>
       <r>    -1.0864     0.2010     0.2105 </r>
       <r>    -1.0749     0.2005     0.2128 </r>
       <r>    -1.0634     0.2005     0.2151 </r>
       <r>    -1.0520     0.2008     0.2174 </r>
       <r>    -1.0405     0.2012     0.2197 </r>
       <r>    -1.0290     0.2017     0.2220 </r>
       <r>    -1.0176     0.2021     0.2243 </r>
       <r>    -1.0061     0.2023     0.2266 </r>
       <r>    -0.9946     0.2022     0.2289 </r>
       <r>    -0.9831     0.2017     0.2313 </r>
       <r>    -0.9717     0.2009     0.2336 </r>
       <r>    -0.9602     0.1997     0.2359 </r>
       <r>    -0.9487     0.1981     0.2381 </r>
       <r>    -0.9373     0.1962     0.2404 </r>
       <r>    -0.9258     0.1940     0.2426 </r>
       <r>    -0.9143     0.1916     0.2448 </r>
       <r>    -0.9029     0.1891     0.2470 </r>
       <r>    -0.8914     0.1866     0.2491 </r>
       <r>    -0.8799     0.1842     0.2512 </r>
       <r>    -0.8684     0.1820     0.2533 </r>
       <r>    -0.8570     0.1800     0.2554 </r>
       <r>    -0.8455     0.1783     0.2574 </r>
       <r>    -0.8340     0.1769     0.2594 </r>
       <r>    -0.8226     0.1758     0.2615 </r>
       <r>    -0.8111     0.1749     0.2635 </r>
       <r>    -0.7996     0.1742     0.2655 </r>
       <r>    -0.7881     0.1737     0.2675 </r>
       <r>    -0.7767     0.1730     0.2694 </r>
       <r>    -0.7652     0.1723     0.2714 </r>
       <r>    -0.7537     0.1713     0.2734 </r>
       <r>    -0.7423     0.1700     0.2753 </r>
       <r>    -0.7308     0.1682     0.2773 </r>
       <r>    -0.7193     0.1659     0.2792 </r>
       <r>    -0.7079     0.1630     0.2810 </r>
       <r>    -0.6964     0.1596     0.2829 </r>
       <r>    -0.6849     0.1557     0.2847 </r>
       <r>    -0.6734     0.1514     0.2864 </r>
       <r>    -0.6620     0.1467     0.2881 </r>
       <r>    -0.6505     0.1419     0.2897 </r>
       <r>    -0.6390     0.1370     0.2913 </r>
       <r>    -0.6276     0.1324     0.2928 </r>
       <r>    -0.6161     0.1281     0.2943 </r>
       <r>    -0.6046     0.1245     0.2957 </r>
       <r>    -0.5931     0.1216     0.2971 </r>
       <r>    -0.5817     0.1197     0.2985 </r>
       <r>    -0.5702     0.1188     0.2998 </r>
       <r>    -0.5587     0.1192     0.3012 </r>
       <r>    -0.5473     0.1208     0.3026 </r>
       <r>    -0.5358     0.1237     0.3040 </r>
       <r>    -0.5243     0.1279     0.3055 </r>
       <r>    -0.5129     0.1331     0.3070 </r>
       <r>    -0.5014     0.1393     0.3086 </r>
       <r>    -0.4899     0.1464     0.3103 </r>
       <r>    -0.4784     0.1540     0.3120 </r>
       <r>    -0.4670     0.1620     0.3139 </r>
       <r>    -0.4555     0.1700     0.3158 </r>
       <r>    -0.4440     0.1778     0.3179 </r>
       <r>    -0.4326     0.1851     0.3200 </r>
       <r>    -0.4211     0.1916     0.3222 </r>
       <r>    -0.4096     0.1971     0.3245 </r>
       <r>    -0.3981     0.2013     0.3268 </r>
       <r>    -0.3867     0.2041     0.3291 </r>
       <r>    -0.3752     0.2053     0.3315 </r>
       <r>    -0.3637     0.2047     0.3338 </r>
       <r>    -0.3523     0.2025     0.3361 </r>
       <r>    -0.3408     0.1985     0.3384 </r>
       <r>    -0.3293     0.1928     0.3406 </r>
       <r>    -0.3179     0.1855     0.3427 </r>
       <r>    -0.3064     0.1768     0.3448 </r>
       <r>    -0.2949     0.1670     0.3467 </r>
       <r>    -0.2834     0.1561     0.3485 </r>
       <r>    -0.2720     0.1445     0.3501 </r>
       <r>    -0.2605     0.1325     0.3517 </r>
       <r>    -0.2490     0.1204     0.3530 </r>
       <r>    -0.2376     0.1085     0.3543 </r>
       <r>    -0.2261     0.0971     0.3554 </r>
       <r>    -0.2146     0.0865     0.3564 </r>
       <r>    -0.2032     0.0769     0.3573 </r>
       <r>    -0.1917     0.0685     0.3581 </r>
       <r>    -0.1802     0.0617     0.3588 </r>
       <r>    -0.1687     0.0565     0.3594 </r>
       <r>    -0.1573     0.0531     0.3600 </r>
       <r>    -0.1458     0.0515     0.3606 </r>
       <r>    -0.1343     0.0518     0.3612 </r>
       <r>    -0.1229     0.0539     0.3618 </r>
       <r>    -0.1114     0.0578     0.3625 </r>
       <r>    -0.0999     0.0633     0.3632 </r>
       <r>    -0.0884     0.0704     0.3640 </r>
       <r>    -0.0770     0.0788     0.3649 </r>
       <r>    -0.0655     0.0883     0.3659 </r>
       <r>    -0.0540     0.0988     0.3671 </r>
       <r>    -0.0426     0.1098     0.3683 </r>
       <r>    -0.0311     0.1213     0.3697 </r>
       <r>    -0.0196     0.1328     0.3712 </r>
       <r>    -0.0082     0.1442     0.3729 </r>
       <r>     0.0033     0.1551     0.3747 </r>
       <r>     0.0148     0.1654     0.3766 </r>
       <r>     0.0263     0.1748     0.3786 </r>
       <r>     0.0377     0.1831     0.3807 </r>
       <r>     0.0492     0.1901     0.3829 </r>
       <r>     0.0607     0.1958     0.3851 </r>
       <r>     0.0721     0.2000     0.3874 </r>
       <r>     0.0836     0.2027     0.3897 </r>
       <r>     0.0951     0.2039     0.3921 </r>
       <r>     0.1066     0.2035     0.3944 </r>
       <r>     0.1180     0.2017     0.3967 </r>
       <r>     0.1295     0.1986     0.3990 </r>
       <r>     0.1410     0.1942     0.4012 </r>
       <r>     0.1524     0.1888     0.4034 </r>
       <r>     0.1639     0.1824     0.4055 </r>
       <r>     0.1754     0.1754     0.4075 </r>
       <r>     0.1868     0.1679     0.4094 </r>
       <r>     0.1983     0.1600     0.4113 </r>
       <r>     0.2098     0.1521     0.4130 </r>
       <r>     0.2213     0.1441     0.4146 </r>
       <r>     0.2327     0.1364     0.4162 </r>
       <r>     0.2442     0.1289     0.4177 </r>
       <r>     0.2557     0.1219     0.4191 </r>
       <r>     0.2671     0.1153     0.4204 </r>
       <r>     0.2786     0.1093     0.4217 </r>
       <r>     0.2901     0.1037     0.4229 </r>
       <r>     0.3016     0.0986     0.4240 </r>
       <r>     0.3130     0.0939     0.4251 </r>
       <r>     0.3245     0.0896     0.4261 </r>
       <r>     0.3360     0.0855     0.4271 </r>
       <r>     0.3474     0.0817     0.4280 </r>
       <r>     0.3589     0.0781     0.4289 </r>
       <r>     0.3704     0.0745     0.4298 </r>
       <r>     0.3818     0.0710     0.4306 </r>
       <r>     0.3933     0.0676     0.4313 </r>
       <r>     0.4048     0.0644     0.4321 </r>
       <r>     0.4163     0.0612     0.4328 </r>
       <r>     0.4277     0.0583     0.4335 </r>
       <r>     0.4392     0.0558     0.4341 </r>
       <r>     0.4507     0.0538     0.4347 </r>
[...]
       </set>
       <set comment="band 5">
        <r>  0.0000  0.0002  0.8643 </r>
       </set>
       <set comment="band 6">
        <r>  0.0000  0.0002  0.8643 </r>
       </set>
       <set comment="band 7">
        <r>  0.0000  0.0000  0.0000 </r>
       </set>
       <set comment="band 8">
        <r>  0.0000  0.0460  0.1908 </r>
       </set>
      </set>
      <set comment="kpoint 75">
       <set comment="band 1">
        <r>  0.5690  0.0489  0.0108 </r>
       </set>
       <set comment="band 2">
        <r>  0.0000  0.0073  0.8833 </r>
       </set>
       <set comment="band 3">
        <r>  0.0000  0.0073  0.8833 </r>
       </set>
       <set comment="band 4">
        <r>  0.0018  0.0251  0.8856 </r>
       </set>
       <set comment="band 5">
        <r>  0.0000  0.0002  0.8594 </r>
       </set>
       <set comment="band 6">
        <r>  0.0000  0.0002  0.8594 </r>
       </set>
       <set comment="band 7">
        <r>  0.0000  0.0000  0.0000 </r>
       </set>
       <set comment="band 8">
        <r>  0.0000  0.0193  0.1462 </r>
       </set>
      </set>
      <set comment="kpoint 76">
       <set comment="band 1">
        <r>  0.5888  0.0330  0.0047 </r>
       </set>
       <set comment="band 2">
        <r>  0.0000  0.0043  0.8992 </r>
       </set>
       <set comment="band 3">
        <r>  0.0000  0.0043  0.8992 </r>
       </set>
       <set comment="band 4">
        <r>  0.0008  0.0155  0.9016 </r>
       </set>
       <set comment="band 5">
        <r>  0.0000  0.0002  0.8580 </r>
       </set>
       <set comment="band 6">
        <r>  0.0000  0.0002  0.8580 </r>
       </set>
       <set comment="band 7">
        <r>  0.0000  0.0000  0.0000 </r>
       </set>
       <set comment="band 8">
        <r>  0.0000  0.0062  0.0985 </r>
       </set>
      </set>
      <set comment="kpoint 77">
       <set comment="band 1">
        <r>  0.6041  0.0193  0.0016 </r>
       </set>
       <set comment="band 2">
        <r>  0.0000  0.0023  0.9121 </r>
       </set>
       <set comment="band 3">
        <r>  0.0000  0.0023  0.9121 </r>
       </set>
       <set comment="band 4">
        <r>  0.0003  0.0085  0.9136 </r>
       </set>
       <set comment="band 5">
        <r>  0.0000  0.0002  0.8604 </r>
       </set>
       <set comment="band 6">
        <r>  0.0000  0.0002  0.8604 </r>
       </set>
       <set comment="band 7">
        <r>  0.0000  0.0000  0.0000 </r>
       </set>
       <set comment="band 8">
        <r>  0.0000  0.0015  0.0576 </r>
       </set>
      </set>
      <set comment="kpoint 78">
       <set comment="band 1">
        <r>  0.6150  0.0088  0.0003 </r>
       </set>
       <set comment="band 2">
        <r>  0.0000  0.0009  0.9212 </r>
       </set>
       <set comment="band 3">
        <r>  0.0000  0.0009  0.9212 </r>
       </set>
       <set comment="band 4">
        <r>  0.0001  0.0037  0.9218 </r>
       </set>
       <set comment="band 5">
        <r>  0.0000  0.0001  0.8657 </r>
       </set>
       <set comment="band 6">
        <r>  0.0000  0.0001  0.8657 </r>
       </set>
       <set comment="band 7">
        <r>  0.0000  0.0000  0.0000 </r>
       </set>
       <set comment="band 8">
        <r>  0.0000  0.0002  0.0265 </r>
       </set>
      </set>
      <set comment="kpoint 79">
       <set comment="band 1">
        <r>  0.6215  0.0022  0.0000 </r>
       </set>
       <set comment="band 2">
        <r>  0.0000  0.0002  0.9264 </r>
       </set>
       <set comment="band 3">
        <r>  0.0000  0.0002  0.9264 </r>
       </set>
       <set comment="band 4">
        <r>  0.0000  0.0009  0.9266 </r>
       </set>
       <set comment="band 5">
        <r>  0.0000  0.0000  0.8709 </r>
       </set>
       <set comment="band 6">
        <r>  0.0000  0.0000  0.8709 </r>
       </set>
       <set comment="band 7">
        <r>  0.0000  0.0000  0.0000 </r>
       </set>
       <set comment="band 8">
        <r>  0.0000  0.0000  0.0068 </r>
       </set>
      </set>
      <set comment="kpoint 80">
       <set comment="band 1">
        <r>  0.6236  0.0000  0.0000 </r>
       </set>
       <set comment="band 2">
        <r>  0.0000  0.0000  0.9281 </r>
       </set>
       <set comment="band 3">
        <r>  0.0000  0.0000  0.9281 </r>
       </set>
       <set comment="band 4">
        <r>  0.0000  0.0000  0.9281 </r>
       </set>
       <set comment="band 5">
        <r>  0.0000  0.0000  0.8731 </r>
       </set>
       <set comment="band 6">
        <r>  0.0000  0.0000  0.8731 </r>
       </set>
       <set comment="band 7">
        <r>  0.0000  0.0000  0.0000 </r>
       </set>
       <set comment="band 8">
        <r>  0.0000  0.0000  0.0000 </r>
       </set>
      </set>
      <set comment="kpoint 81">
       <set comment="band 1">
        <r>  0.6236  0.0000  0.0000 </r>
       </set>
       <set comment="band 2">
        <r>  0.0000  0.0000  0.9281 </r>
       </set>
       <set comment="band 3">
        <r>  0.0000  0.0000  0.9281 </r>
       </set>
       <set comment="band 4">
        <r>  0.0000  0.0000  0.9281 </r>
       </set>
       <set comment="band 5">
        <r>  0.0000  0.0000  0.8731 </r>
       </set>
       <set comment="band 6">
        <r>  0.0000  0.0000  0.8731 </r>
       </set>
       <set comment="band 7">
        <r>  0.0000  0.0000  0.0000 </r>
       </set>
       <set comment="band 8">
        <r>  0.0000  0.0000  0.0000 </r>
       </set>
      </set>
      <set comment="kpoint 82">
       <set comment="band 1">
        <r>  0.6222  0.0013  0.0000 </r>
       </set>
       <set comment="band 2">
        <r>  0.0000  0.0000  0.9272 </r>
       </set>
       <set comment="band 3">
        <r>  0.0000  0.0004  0.9266 </r>
       </set>
       <set comment="band 4">
        <r>  0.0000  0.0004  0.9273 </r>
       </set>
       <set comment="band 5">
        <r>  0.0000  0.0000  0.8705 </r>
       </set>
       <set comment="band 6">
        <r>  0.0000  0.0000  0.8727 </r>
       </set>
       <set comment="band 7">
        <r>  0.0000  0.0000  0.0016 </r>
       </set>
       <set comment="band 8">
        <r>  0.0000  0.0000  0.0015 </r>
       </set>
      </set>
      <set comment="kpoint 83">
       <set comment="band 1">
        <r>  0.6179  0.0059  0.0001 </r>
       </set>
       <set comment="band 2">
        <r>  0.0000  0.0000  0.9246 </r>
       </set>
       <set comment="band 3">
        <r>  0.0000  0.0018  0.9219 </r>
       </set>
       <set comment="band 4">
        <r>  0.0000  0.0017  0.9248 </r>
       </set>
       <set comment="band 5">
        <r>  0.0000  0.0000  0.8639 </r>
       </set>
       <set comment="band 6">
        <r>  0.0000  0.0001  0.8715 </r>
       </set>
       <set comment="band 7">
        <r>  0.0000  0.0001  0.0063 </r>
       </set>
       <set comment="band 8">
        <r>  0.0000  0.0000  0.0056 </r>
       </set>
      </set>
      <set comment="kpoint 84">
       <set comment="band 1">
        <r>  0.6106  0.0132  0.0007 </r>
       </set>
       <set comment="band 2">
        <r>  0.0000  0.0000  0.9206 </r>
       </set>
       <set comment="band 3">
        <r>  0.0001  0.0045  0.9129 </r>
       </set>
       <set comment="band 4">
        <r>  0.0000  0.0039  0.9208 </r>
       </set>
       <set comment="band 5">
        <r>  0.0000  0.0000  0.8558 </r>
       </set>
       <set comment="band 6">
        <r>  0.0000  0.0003  0.8697 </r>
       </set>
       <set comment="band 7">
        <r>  0.0000  0.0004  0.0144 </r>
       </set>
       <set comment="band 8">
        <r>  0.0000  0.0000  0.0123 </r>
       </set>
      </set>
      <set comment="kpoint 85">
       <set comment="band 1">
        <r>  0.6003  0.0228  0.0022 </r>
       </set>
       <set comment="band 2">
        <r>  0.0000  0.0000  0.9156 </r>
       </set>
       <set comment="band 3">
        <r>  0.0004  0.0085  0.8985 </r>
       </set>
       <set comment="band 4">
        <r>  0.0000  0.0068  0.9155 </r>
       </set>
       <set comment="band 5">
        <r>  0.0001  0.0000  0.8496 </r>
       </set>
       <set comment="band 6">
        <r>  0.0000  0.0005  0.8677 </r>
       </set>
       <set comment="band 7">
        <r>  0.0000  0.0016  0.0258 </r>
       </set>
       <set comment="band 8">
        <r>  0.0000  0.0000  0.0210 </r>
       </set>
      </set>
      <set comment="kpoint 86">
       <set comment="band 1">
        <r>  0.5868  0.0342  0.0057 </r>
       </set>
       <set comment="band 2">
        <r>  0.0000  0.0000  0.9101 </r>
       </set>
       <set comment="band 3">
        <r>  0.0012  0.0146  0.8772 </r>
       </set>
       <set comment="band 4">
        <r>  0.0000  0.0102  0.9091 </r>
       </set>
       <set comment="band 5">
        <r>  0.0002  0.0000  0.8476 </r>
       </set>
       <set comment="band 6">
        <r>  0.0000  0.0007  0.8657 </r>
       </set>
       <set comment="band 7">
        <r>  0.0000  0.0045  0.0408 </r>
       </set>
       <set comment="band 8">
        <r>  0.0000  0.0000  0.0314 </r>
       </set>
      </set>
      <set comment="kpoint 87">
       <set comment="band 1">
        <r>  0.5696  0.0467  0.0125 </r>
       </set>
       <set comment="band 2">
        <r>  0.0000  0.0000  0.9045 </r>
       </set>
       <set comment="band 3">
        <r>  0.0028  0.0232  0.8479 </r>
       </set>
       <set comment="band 4">
        <r>  0.0000  0.0142  0.9021 </r>
       </set>
       <set comment="band 5">
        <r>  0.0004  0.0001  0.8506 </r>
       </set>
       <set comment="band 6">
        <r>  0.0000  0.0010  0.8641 </r>
       </set>
       <set comment="band 7">
        <r>  0.0000  0.0109  0.0588 </r>
       </set>
       <set comment="band 8">
        <r>  0.0000  0.0000  0.0434 </r>
       </set>
      </set>
      <set comment="kpoint 88">
       <set comment="band 1">
        <r>  0.5483  0.0589  0.0251 </r>
       </set>
       <set comment="band 2">
        <r>  0.0000  0.0000  0.8992 </r>
       </set>
       <set comment="band 3">
        <r>  0.0059  0.0354  0.8100 </r>
       </set>
       <set comment="band 4">
        <r>  0.0000  0.0184  0.8948 </r>
       </set>
       <set comment="band 5">
        <r>  0.0005  0.0006  0.8575 </r>
       </set>
       <set comment="band 6">
        <r>  0.0000  0.0013  0.8634 </r>
       </set>
       <set comment="band 7">
        <r>  0.0000  0.0231  0.0775 </r>
       </set>
       <set comment="band 8">
        <r>  0.0161  0.0424  0.2252 </r>
       </set>
      </set>
      <set comment="kpoint 89">
       <set comment="band 1">
        <r>  0.5219  0.0694  0.0468 </r>
       </set>
       <set comment="band 2">
        <r>  0.0000  0.0000  0.8944 </r>
       </set>
       <set comment="band 3">
        <r>  0.0115  0.0524  0.7624 </r>
       </set>
       <set comment="band 4">
        <r>  0.0000  0.0227  0.8877 </r>
       </set>
       <set comment="band 5">
        <r>  0.0006  0.0017  0.8661 </r>
       </set>
       <set comment="band 6">
        <r>  0.0000  0.0016  0.8639 </r>
       </set>
       <set comment="band 7">
        <r>  0.0000  0.0413  0.0924 </r>
       </set>
       <set comment="band 8">
        <r>  0.0403  0.0824  0.2550 </r>
       </set>
      </set>
      <set comment="kpoint 90">
       <set comment="band 1">
        <r>  0.4893  0.0758  0.0815 </r>
       </set>
       <set comment="band 2">
        <r>  0.0000  0.0000  0.8901 </r>
       </set>
       <set comment="band 3">
        <r>  0.0206  0.0761  0.7026 </r>
       </set>
       <set comment="band 4">
        <r>  0.0000  0.0268  0.8815 </r>
       </set>
       <set comment="band 5">
        <r>  0.0007  0.0038  0.8743 </r>
       </set>
       <set comment="band 6">
        <r>  0.0000  0.0019  0.8657 </r>
       </set>
       <set comment="band 7">
        <r>  0.0000  0.0624  0.0996 </r>
       </set>
       <set comment="band 8">
        <r>  0.0761  0.1229  0.2634 </r>
       </set>
      </set>
      <set comment="kpoint 91">
       <set comment="band 1">
        <r>  0.4495  0.0762  0.1332 </r>
       </set>
       <set comment="band 2">
        <r>  0.0000  0.0000  0.8866 </r>
       </set>
       <set comment="band 3">
        <r>  0.0343  0.1083  0.6280 </r>
       </set>
       <set comment="band 4">
        <r>  0.0009  0.0071  0.8805 </r>
       </set>
       <set comment="band 5">
        <r>  0.0000  0.0303  0.8768 </r>
       </set>
       <set comment="band 6">
        <r>  0.0000  0.0021  0.8692 </r>
       </set>
       <set comment="band 7">
        <r>  0.0000  0.0821  0.0981 </r>
       </set>
       <set comment="band 8">
        <r>  0.1165  0.1494  0.2633 </r>
       </set>
      </set>
      <set comment="kpoint 92">
       <set comment="band 1">
        <r>  0.4032  0.0694  0.2021 </r>
       </set>
       <set comment="band 2">
        <r>  0.0000  0.0000  0.8838 </r>
       </set>
       <set comment="band 3">
        <r>  0.0520  0.1497  0.5384 </r>
       </set>
       <set comment="band 4">
        <r>  0.0011  0.0119  0.8836 </r>
       </set>
       <set comment="band 5">
        <r>  0.0000  0.0329  0.8744 </r>
       </set>
       <set comment="band 6">
        <r>  0.0000  0.0022  0.8745 </r>
       </set>
       <set comment="band 7">
        <r>  0.0000  0.0977  0.0903 </r>
       </set>
       <set comment="band 8">
        <r>  0.1574  0.1597  0.2664 </r>
       </set>
      </set>
      <set comment="kpoint 93">
       <set comment="band 1">
        <r>  0.3538  0.0569  0.2821 </r>
       </set>
       <set comment="band 2">
        <r>  0.0000  0.0000  0.8815 </r>
       </set>
       <set comment="band 3">
        <r>  0.0702  0.1990  0.4399 </r>
       </set>
       <set comment="band 4">
        <r>  0.0016  0.0184  0.8827 </r>
       </set>
       <set comment="band 5">
        <r>  0.0000  0.0021  0.8817 </r>
       </set>
       <set comment="band 6">
        <r>  0.0000  0.0342  0.8753 </r>
       </set>
       <set comment="band 7">
        <r>  0.0000  0.1094  0.0787 </r>
       </set>
       <set comment="band 8">
        <r>  0.1983  0.1565  0.2770 </r>
       </set>
      </set>
      <set comment="kpoint 94">
       <set comment="band 1">
        <r>  0.3067  0.0421  0.3616 </r>
       </set>
       <set comment="band 2">
        <r>  0.0000  0.0000  0.8798 </r>
       </set>
       <set comment="band 3">
        <r>  0.0836  0.2522  0.3437 </r>
       </set>
       <set comment="band 4">
        <r>  0.0025  0.0266  0.8771 </r>
       </set>
       <set comment="band 5">
        <r>  0.0000  0.0020  0.8906 </r>
       </set>
       <set comment="band 6">
        <r>  0.0000  0.0337  0.8802 </r>
       </set>
       <set comment="band 7">
        <r>  0.0000  0.1179  0.0648 </r>
       </set>
       <set comment="band 8">
        <r>  0.2394  0.1430  0.2961 </r>
       </set>
      </set>
      <set comment="kpoint 95">
       <set comment="band 1">
        <r>  0.2666  0.0282  0.4304 </r>
       </set>
       <set comment="band 2">
        <r>  0.0000  0.0000  0.8785 </r>
       </set>
       <set comment="band 3">
        <r>  0.0876  0.3059  0.2597 </r>
       </set>
       <set comment="band 4">
        <r>  0.0043  0.0360  0.8663 </r>
       </set>
       <set comment="band 5">
        <r>  0.0000  0.0017  0.9008 </r>
       </set>
       <set comment="band 6">
        <r>  0.0000  0.0309  0.8900 </r>
       </set>
       <set comment="band 7">
        <r>  0.0000  0.1240  0.0499 </r>
       </set>
       <set comment="band 8">
        <r>  0.2806  0.1210  0.3232 </r>
       </set>
      </set>
      <set comment="kpoint 96">
       <set comment="band 1">
        <r>  0.2356  0.0171  0.4839 </r>
       </set>
       <set comment="band 2">
        <r>  0.0000  0.0000  0.8776 </r>
       </set>
       <set comment="band 3">
        <r>  0.0805  0.3586  0.1913 </r>
       </set>
       <set comment="band 4">
        <r>  0.0078  0.0449  0.8514 </r>
       </set>
       <set comment="band 5">
        <r>  0.0000  0.0013  0.9117 </r>
       </set>
       <set comment="band 6">
        <r>  0.0000  0.0257  0.9050 </r>
       </set>
       <set comment="band 7">
        <r>  0.0000  0.1284  0.0350 </r>
       </set>
       <set comment="band 8">
        <r>  0.3209  0.0924  0.3571 </r>
       </set>
      </set>
      <set comment="kpoint 97">
       <set comment="band 1">
        <r>  0.2133  0.0091  0.5221 </r>
       </set>
       <set comment="band 2">
        <r>  0.0000  0.0000  0.8770 </r>
       </set>
       <set comment="band 3">
        <r>  0.0634  0.4107  0.1355 </r>
       </set>
       <set comment="band 4">
        <r>  0.0142  0.0497  0.8366 </r>
       </set>
       <set comment="band 5">
        <r>  0.0000  0.0009  0.9223 </r>
       </set>
       <set comment="band 6">
        <r>  0.0000  0.0182  0.9244 </r>
       </set>
       <set comment="band 7">
        <r>  0.3586  0.0607  0.3947 </r>
       </set>
       <set comment="band 8">
        <r>  0.0000  0.1316  0.0213 </r>
       </set>
      </set>
      <set comment="kpoint 98">
       <set comment="band 1">
        <r>  0.1985  0.0039  0.5473 </r>
       </set>
       <set comment="band 2">
        <r>  0.0000  0.0000  0.8766 </r>
       </set>
       <set comment="band 3">
        <r>  0.0391  0.4651  0.0845 </r>
       </set>
       <set comment="band 4">
        <r>  0.0251  0.0430  0.8317 </r>
       </set>
       <set comment="band 5">
        <r>  0.0000  0.0004  0.9313 </r>
       </set>
       <set comment="band 6">
        <r>  0.0000  0.0098  0.9451 </r>
       </set>
       <set comment="band 7">
        <r>  0.3902  0.0305  0.4306 </r>
       </set>
       <set comment="band 8">
        <r>  0.0000  0.1338  0.0100 </r>
       </set>
      </set>
      <set comment="kpoint 99">
       <set comment="band 1">
        <r>  0.1902  0.0009  0.5615 </r>
       </set>
       <set comment="band 2">
        <r>  0.0000  0.0000  0.8764 </r>
       </set>
       <set comment="band 3">
        <r>  0.0132  0.5214  0.0311 </r>
       </set>
       <set comment="band 4">
        <r>  0.0402  0.0192  0.8480 </r>
       </set>
       <set comment="band 5">
        <r>  0.0000  0.0001  0.9374 </r>
       </set>
       <set comment="band 6">
        <r>  0.0000  0.0028  0.9619 </r>
       </set>
       <set comment="band 7">
        <r>  0.4117  0.0083  0.4572 </r>
       </set>
       <set comment="band 8">
        <r>  0.0000  0.1351  0.0026 </r>
       </set>
      </set>
      <set comment="kpoint 100">
       <set comment="band 1">
        <r>  0.1875  0.0000  0.5661 </r>
       </set>
       <set comment="band 2">
        <r>  0.0000  0.0000  0.8763 </r>
       </set>
       <set comment="band 3">
        <r>  0.0000  0.5523  0.0000 </r>
       </set>
       <set comment="band 4">
        <r>  0.0492  0.0000  0.8660 </r>
       </set>
       <set comment="band 5">
        <r>  0.0000  0.0000  0.9395 </r>
       </set>
       <set comment="band 6">
        <r>  0.0000  0.0000  0.9684 </r>
       </set>
       <set comment="band 7">
        <r>  0.4192  0.0000  0.4671 </r>
       </set>
       <set comment="band 8">
        <r>  0.0000  0.1356  0.0000 </r>
       </set>
      </set>
     </set>
    </set>
   </array>
  </projected>
 </calculation>
 <structure name="finalpos" >
  <crystal>
   <varray name="basis" >
    <v>      -1.56360000       1.56360000       1.56360000 </v>
    <v>       1.56360000      -1.56360000       1.56360000 </v>
    <v>       1.56360000       1.56360000      -1.56360000 </v>
   </varray>
   <i name="volume">     15.29103832 </i>
   <varray name="rec_basis" >
    <v>       0.00000000       0.31977488       0.31977488 </v>
    <v>       0.31977488       0.00000000       0.31977488 </v>
    <v>       0.31977488       0.31977488       0.00000000 </v>
   </varray>
  </crystal>
  <varray name="positions" >
   <v>       0.00000000       0.00000000       0.00000000 </v>
  </varray>
 </structure>
</modeling>
