BCC W                                   
           1
    -1.563600    1.563600    1.563600
     1.563600   -1.563600    1.563600
     1.563600    1.563600   -1.563600
   W 
   1
Direct configuration=     1
   0.00000000  0.00000000  0.00000000
