bcc Fe                                  
   2.65000000000000     
    -0.500000    0.500000    0.500000
     0.500000   -0.500000    0.500000
     0.500000    0.500000   -0.500000
   Fe
     1
Direct
  0.000000  0.000000  0.000000
 
   20   20   20
  78.412      74.415      63.671      49.218      34.401      21.734      12.574      7.2159      4.9674      4.3590    
  4.1884      4.3590      4.9674      7.2159      12.574      21.734      34.401      49.218      63.671      74.415    
  74.415      73.113      64.717      51.704      37.336      24.366      14.471      8.2500      5.3171      4.4270    
  4.1565      4.2132      4.5988      5.9949      9.9267      17.386      28.435      42.124      56.393      68.212    
  63.671      64.717      59.211      48.828      36.353      24.459      14.967      8.6891      5.4961      4.4105    
  4.0663      4.0169      4.2735      4.9848      7.3520      12.587      21.123      32.444      45.026      56.393    
  49.218      51.704      48.828      41.497      31.794      22.016      13.903      8.3478      5.3932      4.3100    
  3.9321      3.8041      3.9496      4.3484      5.4679      8.5071      14.217      22.525      32.444      42.124    
  34.401      37.336      36.353      31.794      25.038      17.842      11.673      7.3608      5.0268      4.1352    
  3.7709      3.6031      3.6575      3.9330      4.4363      5.8059      8.9570      14.217      21.123      28.435    
  21.734      24.366      24.459      22.016      17.842      13.139      9.0021      6.0946      4.5339      3.9182    
  3.5987      3.4295      3.4274      3.5964      3.9355      4.4783      5.8059      8.5071      12.587      17.386    
  12.574      14.471      14.967      13.903      11.673      9.0021      6.6103      4.9475      4.0781      3.6888    
  3.4292      3.2872      3.2646      3.3593      3.5817      3.9355      4.4363      5.4679      7.3520      9.9267    
  7.2159      8.2500      8.6891      8.3478      7.3608      6.0946      4.9475      4.1648      3.7422      3.4679    
  3.2755      3.1755      3.1593      3.2186      3.3593      3.5964      3.9330      4.3484      4.9848      5.9949    
  4.9674      5.3171      5.4961      5.3932      5.0268      4.5339      4.0781      3.7422      3.4821      3.2799    
  3.1516      3.0965      3.1028      3.1593      3.2646      3.4274      3.6575      3.9496      4.2735      4.5988    
  4.3590      4.4270      4.4105      4.3100      4.1352      3.9182      3.6888      3.4679      3.2799      3.1442    
  3.0706      3.0578      3.0965      3.1755      3.2872      3.4295      3.6031      3.8041      4.0169      4.2132    
  4.1884      4.1565      4.0663      3.9321      3.7709      3.5987      3.4292      3.2755      3.1516      3.0706    
  3.0425      3.0706      3.1516      3.2755      3.4292      3.5987      3.7709      3.9321      4.0663      4.1565    
  4.3590      4.2132      4.0169      3.8041      3.6031      3.4295      3.2872      3.1755      3.0965      3.0578    
  3.0706      3.1442      3.2799      3.4679      3.6888      3.9182      4.1352      4.3100      4.4105      4.4270    
  4.9674      4.5988      4.2735      3.9496      3.6575      3.4274      3.2646      3.1593      3.1028      3.0965    
  3.1516      3.2799      3.4821      3.7422      4.0781      4.5339      5.0268      5.3932      5.4961      5.3171    
  7.2159      5.9949      4.9848      4.3484      3.9330      3.5964      3.3593      3.2186      3.1593      3.1755    
  3.2755      3.4679      3.7422      4.1648      4.9475      6.0946      7.3608      8.3478      8.6891      8.2500    
  12.574      9.9267      7.3520      5.4679      4.4363      3.9355      3.5817      3.3593      3.2646      3.2872    
  3.4292      3.6888      4.0781      4.9475      6.6103      9.0021      11.673      13.903      14.967      14.471    
  21.734      17.386      12.587      8.5071      5.8059      4.4783      3.9355      3.5964      3.4274      3.4295    
  3.5987      3.9182      4.5339      6.0946      9.0021      13.139      17.842      22.016      24.459      24.366    
  34.401      28.435      21.123      14.217      8.9570      5.8059      4.4363      3.9330      3.6575      3.6031    
  3.7709      4.1352      5.0268      7.3608      11.673      17.842      25.038      31.794      36.353      37.336    
  49.218      42.124      32.444      22.525      14.217      8.5071      5.4679      4.3484      3.9496      3.8041    
  3.9321      4.3100      5.3932      8.3478      13.903      22.016      31.794      41.497      48.828      51.704    
  63.671      56.393      45.026      32.444      21.123      12.587      7.3520      4.9848      4.2735      4.0169    
  4.0663      4.4105      5.4961      8.6891      14.967      24.459      36.353      48.828      59.211      64.717    
  74.415      68.212      56.393      42.124      28.435      17.386      9.9267      5.9949      4.5988      4.2132    
  4.1565      4.4270      5.3171      8.2500      14.471      24.366      37.336      51.704      64.717      73.113    
  74.415      73.113      64.717      51.704      37.336      24.366      14.471      8.2500      5.3171      4.4270    
  4.1565      4.2132      4.5988      5.9949      9.9267      17.386      28.435      42.124      56.393      68.212    
  73.113      74.414      68.210      56.391      42.122      28.435      17.386      9.9269      5.9951      4.5988    
  4.2132      4.1565      4.4269      5.3171      8.2499      14.471      24.367      37.337      51.705      64.718    
  64.717      68.210      64.716      55.318      42.674      29.735      18.751      10.931      6.4872      4.7066    
  4.2019      4.0427      4.2019      4.7065      6.4870      10.931      18.751      29.736      42.675      55.320    
  51.704      56.391      55.318      48.828      38.836      27.876      18.120      10.884      6.5656      4.6965    
  4.1242      3.8917      3.9435      4.2685      5.1321      7.7442      13.080      21.325      31.746      42.675    
  37.336      42.122      42.674      38.836      31.795      23.477      15.735      9.8117      6.1770      4.5400    
  3.9918      3.7253      3.6944      3.9069      4.3470      5.5453      8.5501      13.896      21.324      29.735    
  24.366      28.435      29.735      27.876      23.477      17.843      12.380      8.1127      5.4735      4.2747    
  3.8216      3.5604      3.4833      3.5985      3.9040      4.4140      5.7163      8.5500      13.080      18.750    
  14.471      17.386      18.751      18.120      15.735      12.380      9.0021      6.3402      4.7147      3.9810    
  3.6326      3.4071      3.3200      3.3710      3.5657      3.9068      4.4140      5.5452      7.7441      10.930    
  8.2500      9.9269      10.931      10.884      9.8117      8.1127      6.3402      4.9473      4.1181      3.7145    
  3.4443      3.2716      3.2010      3.2237      3.3407      3.5657      3.9040      4.3470      5.1321      6.4870    
  5.3171      5.9951      6.4872      6.5656      6.1770      5.4735      4.7147      4.1181      3.7422      3.4748    
  3.2767      3.1606      3.1202      3.1429      3.2237      3.3710      3.5985      3.9069      4.2685      4.7065    
  4.4270      4.5988      4.7066      4.6965      4.5400      4.2747      3.9810      3.7145      3.4748      3.2799    
  3.1478      3.0831      3.0780      3.1202      3.2010      3.3200      3.4833      3.6943      3.9435      4.2019    
  4.1565      4.2132      4.2019      4.1242      3.9918      3.8216      3.6326      3.4443      3.2767      3.1478    
  3.0707      3.0501      3.0831      3.1606      3.2717      3.4071      3.5604      3.7253      3.8917      4.0427    
  4.2132      4.1565      4.0427      3.8917      3.7253      3.5604      3.4071      3.2716      3.1606      3.0831    
  3.0501      3.0706      3.1478      3.2767      3.4444      3.6326      3.8217      3.9918      4.1242      4.2019    
  4.5988      4.4269      4.2019      3.9435      3.6944      3.4833      3.3200      3.2010      3.1202      3.0780    
  3.0831      3.1478      3.2799      3.4748      3.7146      3.9811      4.2748      4.5400      4.6965      4.7065    
  5.9949      5.3171      4.7065      4.2685      3.9069      3.5985      3.3710      3.2237      3.1429      3.1202    
  3.1606      3.2767      3.4748      3.7423      4.1182      4.7149      5.4735      6.1769      6.5654      6.4870    
  9.9267      8.2499      6.4870      5.1321      4.3470      3.9040      3.5657      3.3407      3.2237      3.2010    
  3.2717      3.4444      3.7146      4.1182      4.9475      6.3403      8.1125      9.8113      10.883      10.930    
  17.386      14.471      10.931      7.7442      5.5453      4.4140      3.9068      3.5657      3.3710      3.3200    
  3.4071      3.6326      3.9811      4.7149      6.3403      9.0019      12.379      15.734      18.119      18.750    
  28.435      24.367      18.751      13.080      8.5501      5.7163      4.4140      3.9040      3.5985      3.4833    
  3.5604      3.8217      4.2748      5.4735      8.1125      12.379      17.842      23.476      27.876      29.735    
  42.124      37.337      29.736      21.325      13.896      8.5500      5.5452      4.3470      3.9069      3.6943    
  3.7253      3.9918      4.5400      6.1769      9.8113      15.734      23.476      31.794      38.836      42.675    
  56.393      51.705      42.675      31.746      21.324      13.080      7.7441      5.1321      4.2685      3.9435    
  3.8917      4.1242      4.6965      6.5654      10.883      18.119      27.876      38.836      48.829      55.320    
  68.212      64.718      55.320      42.675      29.735      18.750      10.930      6.4870      4.7065      4.2019    
  4.0427      4.2019      4.7065      6.4870      10.930      18.750      29.735      42.675      55.320      64.718    
  63.671      64.717      59.211      48.828      36.353      24.459      14.967      8.6891      5.4961      4.4105    
  4.0663      4.0169      4.2735      4.9848      7.3520      12.587      21.123      32.444      45.026      56.393    
  64.717      68.210      64.716      55.318      42.674      29.735      18.751      10.931      6.4872      4.7066    
  4.2019      4.0427      4.2019      4.7065      6.4870      10.931      18.751      29.736      42.675      55.320    
  59.211      64.716      63.669      56.391      45.025      32.444      21.124      12.588      7.3523      4.9849    
  4.2735      4.0169      4.0663      4.4105      5.4960      8.6891      14.967      24.460      36.354      48.829    
  48.828      55.318      56.391      51.704      42.675      31.747      21.325      13.081      7.7444      5.1321    
  4.2685      3.9435      3.8917      4.1242      4.6965      6.5654      10.884      18.119      27.876      38.836    
  36.353      42.674      45.025      42.675      36.355      27.877      19.305      12.237      7.4913      5.0566    
  4.1887      3.8327      3.7069      3.8328      4.1888      5.0567      7.4912      12.237      19.304      27.876    
  24.459      29.735      32.444      31.747      27.877      22.018      15.735      10.373      6.6924      4.7682    
  4.0445      3.6973      3.5347      3.5756      3.8192      4.2503      5.3133      7.8545      12.237      18.119    
  14.967      18.751      21.124      21.325      19.305      15.735      11.673      8.1123      5.6536      4.3750    
  3.8577      3.5498      3.3868      3.3768      3.5211      3.8221      4.2791      5.3132      7.4911      10.883    
  8.6891      10.931      12.588      13.081      12.237      10.373      8.1123      6.0941      4.7145      4.0056    
  3.6512      3.4019      3.2655      3.2383      3.3159      3.5081      3.8221      4.2503      5.0567      6.5654    
  5.4961      6.4872      7.3523      7.7444      7.4913      6.6924      5.6536      4.7145      4.0779      3.7145    
  3.4495      3.2660      3.1699      3.1500      3.1972      3.3160      3.5211      3.8191      4.1888      4.6965    
  4.4105      4.7066      4.9849      5.1321      5.0566      4.7682      4.3750      4.0056      3.7145      3.4679    
  3.2768      3.1556      3.1021      3.1040      3.1500      3.2383      3.3768      3.5756      3.8327      4.1242    
  4.0663      4.2019      4.2735      4.2685      4.1887      4.0445      3.8577      3.6512      3.4495      3.2768    
  3.1517      3.0831      3.0696      3.1021      3.1699      3.2655      3.3868      3.5347      3.7069      3.8917    
  4.0169      4.0427      4.0169      3.9435      3.8327      3.6973      3.5498      3.4019      3.2660      3.1556    
  3.0831      3.0578      3.0831      3.1555      3.2660      3.4019      3.5498      3.6974      3.8327      3.9435    
  4.2735      4.2019      4.0663      3.8917      3.7069      3.5347      3.3868      3.2655      3.1699      3.1021    
  3.0696      3.0831      3.1516      3.2767      3.4495      3.6512      3.8578      4.0446      4.1888      4.2685    
  4.9848      4.7065      4.4105      4.1242      3.8328      3.5756      3.3768      3.2383      3.1500      3.1040    
  3.1021      3.1555      3.2767      3.4679      3.7146      4.0058      4.3752      4.7684      5.0567      5.1321    
  7.3520      6.4870      5.4960      4.6965      4.1888      3.8192      3.5211      3.3159      3.1972      3.1500    
  3.1699      3.2660      3.4495      3.7146      4.0782      4.7148      5.6539      6.6925      7.4911      7.7441    
  12.587      10.931      8.6891      6.5654      5.0567      4.2503      3.8221      3.5081      3.3160      3.2383    
  3.2655      3.4019      3.6512      4.0058      4.7148      6.0945      8.1124      10.372      12.237      13.080    
  21.123      18.751      14.967      10.884      7.4912      5.3133      4.2791      3.8221      3.5211      3.3768    
  3.3868      3.5498      3.8578      4.3752      5.6539      8.1124      11.673      15.734      19.304      21.324    
  32.444      29.736      24.460      18.119      12.237      7.8545      5.3132      4.2503      3.8191      3.5756    
  3.5347      3.6974      4.0446      4.7684      6.6925      10.372      15.734      22.016      27.876      31.746    
  45.026      42.675      36.354      27.876      19.304      12.237      7.4911      5.0567      4.1888      3.8327    
  3.7069      3.8327      4.1888      5.0567      7.4911      12.237      19.304      27.876      36.354      42.675    
  56.393      55.320      48.829      38.836      27.876      18.119      10.883      6.5654      4.6965      4.1242    
  3.8917      3.9435      4.2685      5.1321      7.7441      13.080      21.324      31.746      42.675      51.705    
  49.218      51.704      48.828      41.497      31.794      22.016      13.903      8.3478      5.3932      4.3100    
  3.9321      3.8041      3.9496      4.3484      5.4679      8.5071      14.217      22.525      32.444      42.124    
  51.704      56.391      55.318      48.828      38.836      27.876      18.120      10.884      6.5656      4.6965    
  4.1242      3.8917      3.9435      4.2685      5.1321      7.7442      13.080      21.325      31.746      42.675    
  48.828      55.318      56.391      51.704      42.675      31.747      21.325      13.081      7.7444      5.1321    
  4.2685      3.9435      3.8917      4.1242      4.6965      6.5654      10.884      18.119      27.876      38.836    
  41.497      48.828      51.704      49.218      42.124      32.445      22.526      14.218      8.5072      5.4678    
  4.3483      3.9496      3.8041      3.9321      4.3099      5.3931      8.3477      13.903      22.016      31.794    
  31.794      38.836      42.675      42.124      37.338      29.737      21.325      13.896      8.5499      5.5450    
  4.3468      3.9068      3.6943      3.7253      3.9918      4.5399      6.1768      9.8113      15.734      23.476    
  22.016      27.876      31.747      32.445      29.737      24.461      18.120      12.237      7.8540      5.3128    
  4.2500      3.8191      3.5756      3.5347      3.6974      4.0446      4.7684      6.6925      10.372      15.734    
  13.903      18.120      21.325      22.526      21.325      18.120      13.903      9.8108      6.6919      4.8648    
  4.0777      3.6959      3.4575      3.3785      3.4575      3.6959      4.0779      4.8653      6.6925      9.8113    
  8.3478      10.884      13.081      14.218      13.896      12.237      9.8108      7.3599      5.4729      4.3749    
  3.8704      3.5511      3.3459      3.2607      3.2879      3.4310      3.6984      4.0779      4.7684      6.1769    
  5.3932      6.5656      7.7444      8.5072      8.5499      7.8540      6.6919      5.4729      4.5336      3.9810    
  3.6513      3.4018      3.2450      3.1762      3.1828      3.2635      3.4310      3.6959      4.0446      4.5400    
  4.3100      4.6965      5.1321      5.4678      5.5450      5.3128      4.8648      4.3749      3.9810      3.6889    
  3.4445      3.2661      3.1610      3.1198      3.1290      3.1828      3.2879      3.4575      3.6974      3.9918    
  3.9321      4.1242      4.2685      4.3483      4.3468      4.2500      4.0777      3.8704      3.6513      3.4445    
  3.2757      3.1606      3.1021      3.0924      3.1198      3.1762      3.2607      3.3785      3.5347      3.7253    
  3.8041      3.8917      3.9435      3.9496      3.9068      3.8191      3.6959      3.5511      3.4018      3.2661    
  3.1606      3.0966      3.0780      3.1021      3.1610      3.2450      3.3458      3.4575      3.5756      3.6943    
  3.9496      3.9435      3.8917      3.8041      3.6943      3.5756      3.4575      3.3459      3.2450      3.1610    
  3.1021      3.0780      3.0965      3.1606      3.2660      3.4017      3.5511      3.6959      3.8191      3.9069    
  4.3484      4.2685      4.1242      3.9321      3.7253      3.5347      3.3785      3.2607      3.1762      3.1198    
  3.0924      3.1021      3.1606      3.2755      3.4444      3.6512      3.8704      4.0779      4.2503      4.3470    
  5.4679      5.1321      4.6965      4.3099      3.9918      3.6974      3.4575      3.2879      3.1828      3.1290    
  3.1198      3.1610      3.2660      3.4444      3.6888      3.9811      4.3752      4.8653      5.3132      5.5452    
  8.5071      7.7442      6.5654      5.3931      4.5399      4.0446      3.6959      3.4310      3.2635      3.1828    
  3.1762      3.2450      3.4017      3.6512      3.9811      4.5339      5.4735      6.6925      7.8545      8.5500    
  14.217      13.080      10.884      8.3477      6.1768      4.7684      4.0779      3.6984      3.4310      3.2879    
  3.2607      3.3458      3.5511      3.8704      4.3752      5.4735      7.3606      9.8113      12.237      13.896    
  22.525      21.325      18.119      13.903      9.8113      6.6925      4.8653      4.0779      3.6959      3.4575    
  3.3785      3.4575      3.6959      4.0779      4.8653      6.6925      9.8113      13.903      18.119      21.325    
  32.444      31.746      27.876      22.016      15.734      10.372      6.6925      4.7684      4.0446      3.6974    
  3.5347      3.5756      3.8191      4.2503      5.3132      7.8545      12.237      18.119      24.460      29.736    
  42.124      42.675      38.836      31.794      23.476      15.734      9.8113      6.1769      4.5400      3.9918    
  3.7253      3.6943      3.9069      4.3470      5.5452      8.5500      13.896      21.325      29.736      37.337    
  34.401      37.336      36.353      31.794      25.038      17.842      11.673      7.3608      5.0268      4.1352    
  3.7709      3.6031      3.6575      3.9330      4.4363      5.8059      8.9570      14.217      21.123      28.435    
  37.336      42.122      42.674      38.836      31.795      23.477      15.735      9.8117      6.1770      4.5400    
  3.9918      3.7253      3.6944      3.9069      4.3470      5.5453      8.5501      13.896      21.324      29.735    
  36.353      42.674      45.025      42.675      36.355      27.877      19.305      12.237      7.4913      5.0566    
  4.1887      3.8327      3.7069      3.8328      4.1888      5.0567      7.4912      12.237      19.304      27.876    
  31.794      38.836      42.675      42.124      37.338      29.737      21.325      13.896      8.5499      5.5450    
  4.3468      3.9068      3.6943      3.7253      3.9918      4.5399      6.1768      9.8113      15.734      23.476    
  25.038      31.795      36.355      37.338      34.403      28.437      21.124      14.217      8.9564      5.8054    
  4.4359      3.9329      3.6574      3.6031      3.7709      4.1352      5.0267      7.3606      11.673      17.842    
  17.842      23.477      27.877      29.737      28.437      24.367      18.750      13.079      8.5491      5.7156    
  4.4137      3.9039      3.5985      3.4833      3.5604      3.8217      4.2748      5.4735      8.1124      12.379    
  11.673      15.735      19.305      21.325      21.124      18.750      14.966      10.882      7.4902      5.3127    
  4.2790      3.8221      3.5212      3.3769      3.3868      3.5498      3.8578      4.3752      5.6539      8.1125    
  7.3608      9.8117      12.237      13.896      14.217      13.079      10.882      8.3465      6.1761      4.7682    
  4.0780      3.6986      3.4311      3.2880      3.2607      3.3458      3.5511      3.8704      4.3752      5.4735    
  5.0268      6.1770      7.4913      8.5499      8.9564      8.5491      7.4902      6.1761      5.0264      4.2749    
  3.8582      3.5513      3.3358      3.2158      3.1784      3.2157      3.3356      3.5511      3.8578      4.2748    
  4.1352      4.5400      5.0566      5.5450      5.8054      5.7156      5.3127      4.7682      4.2749      3.9186    
  3.6330      3.4021      3.2451      3.1591      3.1302      3.1482      3.2158      3.3458      3.5498      3.8217    
  3.7709      3.9918      4.1887      4.3468      4.4359      4.4137      4.2790      4.0780      3.8582      3.6330    
  3.4295      3.2718      3.1699      3.1198      3.1099      3.1302      3.1784      3.2607      3.3868      3.5604    
  3.6031      3.7253      3.8327      3.9068      3.9329      3.9039      3.8221      3.6986      3.5513      3.4021    
  3.2718      3.1755      3.1202      3.1040      3.1198      3.1591      3.2158      3.2879      3.3768      3.4833    
  3.6575      3.6944      3.7069      3.6943      3.6574      3.5985      3.5212      3.4311      3.3358      3.2451    
  3.1699      3.1202      3.1028      3.1202      3.1699      3.2450      3.3356      3.4310      3.5211      3.5985    
  3.9330      3.9069      3.8328      3.7253      3.6031      3.4833      3.3769      3.2880      3.2158      3.1591    
  3.1198      3.1040      3.1202      3.1755      3.2716      3.4019      3.5511      3.6984      3.8221      3.9040    
  4.4363      4.3470      4.1888      3.9918      3.7709      3.5604      3.3868      3.2607      3.1784      3.1302    
  3.1099      3.1198      3.1699      3.2716      3.4292      3.6326      3.8578      4.0779      4.2791      4.4140    
  5.8059      5.5453      5.0567      4.5399      4.1352      3.8217      3.5498      3.3458      3.2157      3.1482    
  3.1302      3.1591      3.2450      3.4019      3.6326      3.9182      4.2748      4.7684      5.3133      5.7163    
  8.9570      8.5501      7.4912      6.1768      5.0267      4.2748      3.8578      3.5511      3.3356      3.2158    
  3.1784      3.2158      3.3356      3.5511      3.8578      4.2748      5.0267      6.1768      7.4912      8.5501    
  14.217      13.896      12.237      9.8113      7.3606      5.4735      4.3752      3.8704      3.5511      3.3458    
  3.2607      3.2879      3.4310      3.6984      4.0779      4.7684      6.1768      8.3477      10.884      13.080    
  21.123      21.324      19.304      15.734      11.673      8.1124      5.6539      4.3752      3.8578      3.5498    
  3.3868      3.3768      3.5211      3.8221      4.2791      5.3133      7.4912      10.884      14.967      18.751    
  28.435      29.735      27.876      23.476      17.842      12.379      8.1125      5.4735      4.2748      3.8217    
  3.5604      3.4833      3.5985      3.9040      4.4140      5.7163      8.5501      13.080      18.751      24.367    
  21.734      24.366      24.459      22.016      17.842      13.139      9.0021      6.0946      4.5339      3.9182    
  3.5987      3.4295      3.4274      3.5964      3.9355      4.4783      5.8059      8.5071      12.587      17.386    
  24.366      28.435      29.735      27.876      23.477      17.843      12.380      8.1127      5.4735      4.2747    
  3.8216      3.5604      3.4833      3.5985      3.9040      4.4140      5.7163      8.5500      13.080      18.750    
  24.459      29.735      32.444      31.747      27.877      22.018      15.735      10.373      6.6924      4.7682    
  4.0445      3.6973      3.5347      3.5756      3.8192      4.2503      5.3133      7.8545      12.237      18.119    
  22.016      27.876      31.747      32.445      29.737      24.461      18.120      12.237      7.8540      5.3128    
  4.2500      3.8191      3.5756      3.5347      3.6974      4.0446      4.7684      6.6925      10.372      15.734    
  17.842      23.477      27.877      29.737      28.437      24.367      18.750      13.079      8.5491      5.7156    
  4.4137      3.9039      3.5985      3.4833      3.5604      3.8217      4.2748      5.4735      8.1124      12.379    
  13.139      17.843      22.018      24.461      24.367      21.734      17.385      12.586      8.5059      5.8052    
  4.4780      3.9356      3.5965      3.4275      3.4295      3.5987      3.9182      4.5339      6.0945      9.0019    
  9.0021      12.380      15.735      18.120      18.750      17.385      14.469      10.929      7.7431      5.5448    
  4.4141      3.9071      3.5659      3.3711      3.3200      3.4071      3.6326      3.9811      4.7148      6.3403    
  6.0946      8.1127      10.373      12.237      13.079      12.586      10.929      8.6878      6.5648      5.0568    
  4.2508      3.8226      3.5084      3.3161      3.2383      3.2655      3.4019      3.6512      4.0058      4.7149    
  4.5339      5.4735      6.6924      7.8540      8.5491      8.5059      7.7431      6.5648      5.3932      4.5406    
  4.0453      3.6964      3.4312      3.2636      3.1828      3.1762      3.2450      3.4017      3.6512      3.9811    
  3.9182      4.2747      4.7682      5.3128      5.7156      5.8052      5.5448      5.0568      4.5406      4.1360    
  3.8223      3.5502      3.3459      3.2157      3.1482      3.1302      3.1591      3.2450      3.4019      3.6326    
  3.5987      3.8216      4.0445      4.2500      4.4137      4.4780      4.4141      4.2508      4.0453      3.8223    
  3.5991      3.4072      3.2654      3.1761      3.1301      3.1164      3.1302      3.1762      3.2655      3.4071    
  3.4295      3.5604      3.6973      3.8191      3.9039      3.9356      3.9071      3.8226      3.6964      3.5502    
  3.4072      3.2871      3.2008      3.1499      3.1290      3.1302      3.1482      3.1828      3.2383      3.3200    
  3.4274      3.4833      3.5347      3.5756      3.5985      3.5965      3.5659      3.5084      3.4312      3.3459    
  3.2654      3.2008      3.1591      3.1428      3.1500      3.1762      3.2157      3.2635      3.3160      3.3710    
  3.5964      3.5985      3.5756      3.5347      3.4833      3.4275      3.3711      3.3161      3.2636      3.2157    
  3.1761      3.1499      3.1428      3.1593      3.2010      3.2655      3.3458      3.4310      3.5081      3.5657    
  3.9355      3.9040      3.8192      3.6974      3.5604      3.4295      3.3200      3.2383      3.1828      3.1482    
  3.1301      3.1290      3.1500      3.2010      3.2872      3.4071      3.5498      3.6959      3.8221      3.9068    
  4.4783      4.4140      4.2503      4.0446      3.8217      3.5987      3.4071      3.2655      3.1762      3.1302    
  3.1164      3.1302      3.1762      3.2655      3.4071      3.5987      3.8217      4.0446      4.2503      4.4140    
  5.8059      5.7163      5.3133      4.7684      4.2748      3.9182      3.6326      3.4019      3.2450      3.1591    
  3.1302      3.1482      3.2157      3.3458      3.5498      3.8217      4.1352      4.5399      5.0567      5.5453    
  8.5071      8.5500      7.8545      6.6925      5.4735      4.5339      3.9811      3.6512      3.4017      3.2450    
  3.1762      3.1828      3.2635      3.4310      3.6959      4.0446      4.5399      5.3931      6.5654      7.7442    
  12.587      13.080      12.237      10.372      8.1124      6.0945      4.7148      4.0058      3.6512      3.4019    
  3.2655      3.2383      3.3160      3.5081      3.8221      4.2503      5.0567      6.5654      8.6891      10.931    
  17.386      18.750      18.119      15.734      12.379      9.0019      6.3403      4.7149      3.9811      3.6326    
  3.4071      3.3200      3.3710      3.5657      3.9068      4.4140      5.5453      7.7442      10.931      14.471    
  12.574      14.471      14.967      13.903      11.673      9.0021      6.6103      4.9475      4.0781      3.6888    
  3.4292      3.2872      3.2646      3.3593      3.5817      3.9355      4.4363      5.4679      7.3520      9.9267    
  14.471      17.386      18.751      18.120      15.735      12.380      9.0021      6.3402      4.7147      3.9810    
  3.6326      3.4071      3.3200      3.3710      3.5657      3.9068      4.4140      5.5452      7.7441      10.930    
  14.967      18.751      21.124      21.325      19.305      15.735      11.673      8.1123      5.6536      4.3750    