bcc Fe                                  
   2.65000000000000     
    -0.500000    0.500000    0.500000
     0.500000   -0.500000    0.500000
     0.500000    0.500000   -0.500000
   Fe
     1
Direct
  0.000000  0.000000  0.000000
 
   20   20   20
 0.78411596228E+02 0.74415003061E+02 0.63670891293E+02 0.49217590627E+02 0.34400614023E+02
 0.21733517999E+02 0.12574058695E+02 0.72159286736E+01 0.49673962175E+01 0.43589522084E+01
 0.41884007274E+01 0.43589522084E+01 0.49673962175E+01 0.72159286736E+01 0.12574058695E+02
 0.21733517999E+02 0.34400614023E+02 0.49217590627E+02 0.63670891293E+02 0.74415003061E+02
 0.74415003061E+02 0.73113277328E+02 0.64717111399E+02 0.51703842744E+02 0.37335801836E+02
 0.24366108005E+02 0.14470569364E+02 0.82499760713E+01 0.53171198781E+01 0.44269654126E+01
 0.41564924012E+01 0.42131693527E+01 0.45987739575E+01 0.59949290051E+01 0.99266691305E+01
 0.17385569249E+02 0.28435112424E+02 0.42123857088E+02 0.56393306610E+02 0.68212128421E+02
 0.63670891293E+02 0.64717111399E+02 0.59210908380E+02 0.48828177611E+02 0.36353177925E+02
 0.24459483661E+02 0.14966646615E+02 0.86891495418E+01 0.54960901362E+01 0.44105229260E+01
 0.40663294756E+01 0.40168970628E+01 0.42734735060E+01 0.49847778247E+01 0.73520060910E+01
 0.12587482042E+02 0.21123166201E+02 0.32444243097E+02 0.45025944106E+02 0.56393306610E+02
 0.49217590627E+02 0.51703842744E+02 0.48828177611E+02 0.41496705107E+02 0.31793862498E+02
 0.22016299633E+02 0.13903056910E+02 0.83478117469E+01 0.53931895464E+01 0.43099607802E+01
 0.39320691644E+01 0.38041065795E+01 0.39496193940E+01 0.43483651459E+01 0.54678599353E+01
 0.85070870592E+01 0.14217245172E+02 0.22525325504E+02 0.32444243097E+02 0.42123857088E+02
 0.34400614023E+02 0.37335801836E+02 0.36353177925E+02 0.31793862498E+02 0.25038186528E+02
 0.17842215604E+02 0.11672920516E+02 0.73608143958E+01 0.50267702273E+01 0.41352283144E+01
 0.37709165867E+01 0.36031410348E+01 0.36574554435E+01 0.39330122538E+01 0.44362741925E+01
 0.58059241131E+01 0.89570241892E+01 0.14217245172E+02 0.21123166201E+02 0.28435112424E+02
 0.21733517999E+02 0.24366108005E+02 0.24459483661E+02 0.22016299633E+02 0.17842215604E+02
 0.13138806108E+02 0.90021207958E+01 0.60946446533E+01 0.45339338730E+01 0.39181914191E+01
 0.35987253478E+01 0.34295255694E+01 0.34274394182E+01 0.35963850130E+01 0.39355324524E+01
 0.44782784757E+01 0.58059241131E+01 0.85070870592E+01 0.12587482042E+02 0.17385569249E+02
 0.12574058695E+02 0.14470569364E+02 0.14966646615E+02 0.13903056910E+02 0.11672920516E+02
 0.90021207958E+01 0.66103359828E+01 0.49474790215E+01 0.40781403002E+01 0.36887551510E+01
 0.34291952625E+01 0.32871985546E+01 0.32645561749E+01 0.33593369928E+01 0.35817384975E+01
 0.39355324524E+01 0.44362741925E+01 0.54678599353E+01 0.73520060910E+01 0.99266691305E+01
 0.72159286736E+01 0.82499760713E+01 0.86891495418E+01 0.83478117469E+01 0.73608143958E+01
 0.60946446533E+01 0.49474790215E+01 0.41647679246E+01 0.37422229901E+01 0.34678575501E+01
 0.32755389863E+01 0.31755382588E+01 0.31593001465E+01 0.32186496487E+01 0.33593369928E+01
 0.35963850130E+01 0.39330122538E+01 0.43483651459E+01 0.49847778247E+01 0.59949290051E+01
 0.49673962175E+01 0.53171198781E+01 0.54960901362E+01 0.53931895464E+01 0.50267702273E+01
 0.45339338730E+01 0.40781403002E+01 0.37422229901E+01 0.34821189190E+01 0.32798702395E+01
 0.31516024981E+01 0.30965367153E+01 0.31028289375E+01 0.31593001465E+01 0.32645561749E+01
 0.34274394182E+01 0.36574554435E+01 0.39496193940E+01 0.42734735060E+01 0.45987739575E+01
 0.43589522084E+01 0.44269654126E+01 0.44105229260E+01 0.43099607802E+01 0.41352283144E+01
 0.39181914191E+01 0.36887551510E+01 0.34678575501E+01 0.32798702395E+01 0.31442184357E+01
 0.30706476136E+01 0.30578359637E+01 0.30965367153E+01 0.31755382588E+01 0.32871985546E+01
 0.34295255694E+01 0.36031410348E+01 0.38041065795E+01 0.40168970628E+01 0.42131693527E+01
 0.41884007274E+01 0.41564924012E+01 0.40663294756E+01 0.39320691644E+01 0.37709165867E+01
 0.35987253478E+01 0.34291952625E+01 0.32755389863E+01 0.31516024981E+01 0.30706476136E+01
 0.30424586532E+01 0.30706476136E+01 0.31516024981E+01 0.32755389863E+01 0.34291952625E+01
 0.35987253478E+01 0.37709165867E+01 0.39320691644E+01 0.40663294756E+01 0.41564924012E+01
 0.43589522084E+01 0.42131693527E+01 0.40168970628E+01 0.38041065795E+01 0.36031410348E+01
 0.34295255694E+01 0.32871985546E+01 0.31755382588E+01 0.30965367153E+01 0.30578359637E+01
 0.30706476136E+01 0.31442184357E+01 0.32798702395E+01 0.34678575501E+01 0.36887551510E+01
 0.39181914191E+01 0.41352283144E+01 0.43099607802E+01 0.44105229260E+01 0.44269654126E+01
 0.49673962175E+01 0.45987739575E+01 0.42734735060E+01 0.39496193940E+01 0.36574554435E+01
 0.34274394182E+01 0.32645561749E+01 0.31593001465E+01 0.31028289375E+01 0.30965367153E+01
 0.31516024981E+01 0.32798702395E+01 0.34821189190E+01 0.37422229901E+01 0.40781403002E+01
 0.45339338730E+01 0.50267702273E+01 0.53931895464E+01 0.54960901362E+01 0.53171198781E+01
 0.72159286736E+01 0.59949290051E+01 0.49847778247E+01 0.43483651459E+01 0.39330122538E+01
 0.35963850130E+01 0.33593369928E+01 0.32186496487E+01 0.31593001465E+01 0.31755382588E+01
 0.32755389863E+01 0.34678575501E+01 0.37422229901E+01 0.41647679246E+01 0.49474790215E+01
 0.60946446533E+01 0.73608143958E+01 0.83478117469E+01 0.86891495418E+01 0.82499760713E+01
 0.12574058695E+02 0.99266691305E+01 0.73520060910E+01 0.54678599353E+01 0.44362741925E+01
 0.39355324524E+01 0.35817384975E+01 0.33593369928E+01 0.32645561749E+01 0.32871985546E+01
 0.34291952625E+01 0.36887551510E+01 0.40781403002E+01 0.49474790215E+01 0.66103359828E+01
 0.90021207958E+01 0.11672920516E+02 0.13903056910E+02 0.14966646615E+02 0.14470569364E+02
 0.21733517999E+02 0.17385569249E+02 0.12587482042E+02 0.85070870592E+01 0.58059241131E+01
 0.44782784757E+01 0.39355324524E+01 0.35963850130E+01 0.34274394182E+01 0.34295255694E+01
 0.35987253478E+01 0.39181914191E+01 0.45339338730E+01 0.60946446533E+01 0.90021207958E+01
 0.13138806108E+02 0.17842215604E+02 0.22016299633E+02 0.24459483661E+02 0.24366108005E+02
 0.34400614023E+02 0.28435112424E+02 0.21123166201E+02 0.14217245172E+02 0.89570241892E+01
 0.58059241131E+01 0.44362741925E+01 0.39330122538E+01 0.36574554435E+01 0.36031410348E+01
 0.37709165867E+01 0.41352283144E+01 0.50267702273E+01 0.73608143958E+01 0.11672920516E+02
 0.17842215604E+02 0.25038186528E+02 0.31793862498E+02 0.36353177925E+02 0.37335801836E+02
 0.49217590627E+02 0.42123857088E+02 0.32444243097E+02 0.22525325504E+02 0.14217245172E+02
 0.85070870592E+01 0.54678599353E+01 0.43483651459E+01 0.39496193940E+01 0.38041065795E+01
 0.39320691644E+01 0.43099607802E+01 0.53931895464E+01 0.83478117469E+01 0.13903056910E+02
 0.22016299633E+02 0.31793862498E+02 0.41496705107E+02 0.48828177611E+02 0.51703842744E+02
 0.63670891293E+02 0.56393306610E+02 0.45025944106E+02 0.32444243097E+02 0.21123166201E+02
 0.12587482042E+02 0.73520060910E+01 0.49847778247E+01 0.42734735060E+01 0.40168970628E+01
 0.40663294756E+01 0.44105229260E+01 0.54960901362E+01 0.86891495418E+01 0.14966646615E+02
 0.24459483661E+02 0.36353177925E+02 0.48828177611E+02 0.59210908380E+02 0.64717111399E+02
 0.74415003061E+02 0.68212128421E+02 0.56393306610E+02 0.42123857088E+02 0.28435112424E+02
 0.17385569249E+02 0.99266691305E+01 0.59949290051E+01 0.45987739575E+01 0.42131693527E+01
 0.41564924012E+01 0.44269654126E+01 0.53171198781E+01 0.82499760713E+01 0.14470569364E+02
 0.24366108005E+02 0.37335801836E+02 0.51703842744E+02 0.64717111399E+02 0.73113277328E+02
 0.74415003061E+02 0.73113277328E+02 0.64717111399E+02 0.51703842744E+02 0.37335801836E+02
 0.24366108005E+02 0.14470569364E+02 0.82499760713E+01 0.53171198781E+01 0.44269654126E+01
 0.41564924012E+01 0.42131693527E+01 0.45987739575E+01 0.59949290051E+01 0.99266691305E+01
 0.17385569249E+02 0.28435112424E+02 0.42123857088E+02 0.56393306610E+02 0.68212128421E+02
 0.73113277328E+02 0.74413614835E+02 0.68209898110E+02 0.56391162993E+02 0.42122497609E+02
 0.28434651420E+02 0.17385665589E+02 0.99269051919E+01 0.59950783271E+01 0.45988172082E+01
 0.42131697052E+01 0.41564896818E+01 0.44269449981E+01 0.53170504256E+01 0.82499020878E+01
 0.14470695362E+02 0.24366738365E+02 0.37337077312E+02 0.51705450232E+02 0.64718295307E+02
 0.64717111399E+02 0.68209898110E+02 0.64715766352E+02 0.55318491150E+02 0.42673774612E+02
 0.29735283360E+02 0.18750553298E+02 0.10930768061E+02 0.64872115285E+01 0.47066002367E+01
 0.42019103942E+01 0.40426981801E+01 0.42019179357E+01 0.47065352541E+01 0.64870035650E+01
 0.10930510468E+02 0.18750589371E+02 0.29736041784E+02 0.42675371161E+02 0.55320429439E+02
 0.51703842744E+02 0.56391162993E+02 0.55318491150E+02 0.48828076239E+02 0.38835638332E+02
 0.27876283527E+02 0.18119799333E+02 0.10883877428E+02 0.65655724868E+01 0.46965441370E+01
 0.41242296682E+01 0.38917252724E+01 0.39435198183E+01 0.42685137502E+01 0.51320825654E+01
 0.77441935719E+01 0.13080124432E+02 0.21324638934E+02 0.31746166572E+02 0.42674651766E+02
 0.37335801836E+02 0.42122497609E+02 0.42673774612E+02 0.38835638332E+02 0.31794616123E+02
 0.23476827751E+02 0.15734570973E+02 0.98117434170E+01 0.61769792553E+01 0.45399506574E+01
 0.39917921787E+01 0.37253198292E+01 0.36943542006E+01 0.39069122746E+01 0.43470446049E+01
 0.55452545336E+01 0.85500572726E+01 0.13896069709E+02 0.21324351584E+02 0.29735245208E+02
 0.24366108005E+02 0.28434651420E+02 0.29735283360E+02 0.27876283527E+02 0.23476827751E+02
 0.17842769763E+02 0.12379563544E+02 0.81127202193E+01 0.54734814226E+01 0.42747132105E+01
 0.38216289335E+01 0.35604077599E+01 0.34832748891E+01 0.35984859525E+01 0.39040077712E+01
 0.44140099258E+01 0.57162577363E+01 0.85499974308E+01 0.13079887509E+02 0.18750101141E+02
 0.14470569364E+02 0.17385665589E+02 0.18750553298E+02 0.18119799333E+02 0.15734570973E+02
 0.12379563544E+02 0.90021380051E+01 0.63402462321E+01 0.47147361006E+01 0.39810051342E+01
 0.36326033930E+01 0.34071243555E+01 0.33200073440E+01 0.33710152022E+01 0.35656938091E+01
 0.39068182848E+01 0.44140091974E+01 0.55452270104E+01 0.77440983053E+01 0.10930347795E+02
 0.82499760713E+01 0.99269051919E+01 0.10930768061E+02 0.10883877428E+02 0.98117434170E+01
 0.81127202193E+01 0.63402462321E+01 0.49473161959E+01 0.41180506513E+01 0.37145188440E+01
 0.34443356872E+01 0.32716495157E+01 0.32009688429E+01 0.32236840352E+01 0.33407120258E+01
 0.35656965477E+01 0.39040074157E+01 0.43470352011E+01 0.51320629253E+01 0.64869975293E+01
 0.53171198781E+01 0.59950783271E+01 0.64872115285E+01 0.65655724868E+01 0.61769792553E+01
 0.54734814226E+01 0.47147361006E+01 0.41180506513E+01 0.37421658746E+01 0.34748237623E+01
 0.32767114834E+01 0.31605570439E+01 0.31202031576E+01 0.31428877494E+01 0.32236899437E+01
 0.33710170760E+01 0.35984751477E+01 0.39068921832E+01 0.42684984975E+01 0.47065474322E+01
 0.44269654126E+01 0.45988172082E+01 0.47066002367E+01 0.46965441370E+01 0.45399506574E+01
 0.42747132105E+01 0.39810051342E+01 0.37145188440E+01 0.34748237623E+01 0.32798927768E+01
 0.31478455868E+01 0.30831036543E+01 0.30780200444E+01 0.31202060026E+01 0.32009762870E+01
 0.33200069841E+01 0.34832577940E+01 0.36943266898E+01 0.39434976398E+01 0.42019141316E+01
 0.41564924012E+01 0.42131697052E+01 0.42019103942E+01 0.41242296682E+01 0.39917921787E+01
 0.38216289335E+01 0.36326033930E+01 0.34443356872E+01 0.32767114834E+01 0.31478455868E+01
 0.30706584138E+01 0.30501385739E+01 0.30830920379E+01 0.31605513110E+01 0.32716549405E+01
 0.34071308597E+01 0.35604050821E+01 0.37253100877E+01 0.38917180996E+01 0.40426980110E+01
 0.42131693527E+01 0.41564896818E+01 0.40426981801E+01 0.38917252724E+01 0.37253198292E+01
 0.35604077599E+01 0.34071243555E+01 0.32716495157E+01 0.31605570439E+01 0.30831036543E+01
 0.30501385739E+01 0.30706379508E+01 0.31478185155E+01 0.32767032030E+01 0.34443582883E+01
 0.36326449618E+01 0.38216674633E+01 0.39918154783E+01 0.41242400072E+01 0.42019141316E+01
 0.45987739575E+01 0.44269449981E+01 0.42019179357E+01 0.39435198183E+01 0.36943542006E+01
 0.34832748891E+01 0.33200073440E+01 0.32009688429E+01 0.31202031576E+01 0.30780200444E+01
 0.30830920379E+01 0.31478185155E+01 0.32798741793E+01 0.34748497165E+01 0.37146007301E+01
 0.39811114441E+01 0.42747915886E+01 0.45399691792E+01 0.46965108324E+01 0.47065474322E+01
 0.59949290051E+01 0.53170504256E+01 0.47065352541E+01 0.42685137502E+01 0.39069122746E+01
 0.35984859525E+01 0.33710152022E+01 0.32236840352E+01 0.31428877494E+01 0.31202060026E+01
 0.31605513110E+01 0.32767032030E+01 0.34748497165E+01 0.37422643882E+01 0.41182103372E+01
 0.47148796877E+01 0.54735153276E+01 0.61768671972E+01 0.65653632615E+01 0.64869975293E+01
 0.99266691305E+01 0.82499020878E+01 0.64870035650E+01 0.51320825654E+01 0.43470446049E+01
 0.39040077712E+01 0.35656938091E+01 0.33407120258E+01 0.32236899437E+01 0.32009762870E+01
 0.32716549405E+01 0.34443582883E+01 0.37146007301E+01 0.41182103372E+01 0.49474908408E+01
 0.63402990387E+01 0.81125340174E+01 0.98113248555E+01 0.10883368847E+02 0.10930347795E+02
 0.17385569249E+02 0.14470695362E+02 0.10930510468E+02 0.77441935719E+01 0.55452545336E+01
 0.44140099258E+01 0.39068182848E+01 0.35656965477E+01 0.33710170760E+01 0.33200069841E+01
 0.34071308597E+01 0.36326449618E+01 0.39811114441E+01 0.47148796877E+01 0.63402990387E+01
 0.90019227405E+01 0.12378996246E+02 0.15733772997E+02 0.18119049410E+02 0.18750101141E+02
 0.28435112424E+02 0.24366738365E+02 0.18750589371E+02 0.13080124432E+02 0.85500572726E+01
 0.57162577363E+01 0.44140091974E+01 0.39040074157E+01 0.35984751477E+01 0.34832577940E+01
 0.35604050821E+01 0.38216674633E+01 0.42747915886E+01 0.54735153276E+01 0.81125340174E+01
 0.12378996246E+02 0.17841850914E+02 0.23475850475E+02 0.27875654877E+02 0.29735245208E+02
 0.42123857088E+02 0.37337077312E+02 0.29736041784E+02 0.21324638934E+02 0.13896069709E+02
 0.85499974308E+01 0.55452270104E+01 0.43470352011E+01 0.39068921832E+01 0.36943266898E+01
 0.37253100877E+01 0.39918154783E+01 0.45399691792E+01 0.61768671972E+01 0.98113248555E+01
 0.15733772997E+02 0.23475850475E+02 0.31793920846E+02 0.38835678160E+02 0.42674651766E+02
 0.56393306610E+02 0.51705450232E+02 0.42675371161E+02 0.31746166572E+02 0.21324351584E+02
 0.13079887509E+02 0.77440983053E+01 0.51320629253E+01 0.42684984975E+01 0.39434976398E+01
 0.38917180996E+01 0.41242400072E+01 0.46965108324E+01 0.65653632615E+01 0.10883368847E+02
 0.18119049410E+02 0.27875654877E+02 0.38835678160E+02 0.48829146859E+02 0.55320429439E+02
 0.68212128421E+02 0.64718295307E+02 0.55320429439E+02 0.42674651766E+02 0.29735245208E+02
 0.18750101141E+02 0.10930347795E+02 0.64869975293E+01 0.47065474322E+01 0.42019141316E+01
 0.40426980110E+01 0.42019141316E+01 0.47065474322E+01 0.64869975293E+01 0.10930347795E+02
 0.18750101141E+02 0.29735245208E+02 0.42674651766E+02 0.55320429439E+02 0.64718295307E+02
 0.63670891293E+02 0.64717111399E+02 0.59210908380E+02 0.48828177611E+02 0.36353177925E+02
 0.24459483661E+02 0.14966646615E+02 0.86891495418E+01 0.54960901362E+01 0.44105229260E+01
 0.40663294756E+01 0.40168970628E+01 0.42734735060E+01 0.49847778247E+01 0.73520060910E+01
 0.12587482042E+02 0.21123166201E+02 0.32444243097E+02 0.45025944106E+02 0.56393306610E+02
 0.64717111399E+02 0.68209898110E+02 0.64715766352E+02 0.55318491150E+02 0.42673774612E+02
 0.29735283360E+02 0.18750553298E+02 0.10930768061E+02 0.64872115285E+01 0.47066002367E+01
 0.42019103942E+01 0.40426981801E+01 0.42019179357E+01 0.47065352541E+01 0.64870035650E+01
 0.10930510468E+02 0.18750589371E+02 0.29736041784E+02 0.42675371161E+02 0.55320429439E+02
 0.59210908380E+02 0.64715766352E+02 0.63668606473E+02 0.56391041694E+02 0.45024551675E+02
 0.32443943392E+02 0.21123565230E+02 0.12588009624E+02 0.73523244511E+01 0.49848675010E+01
 0.42734674258E+01 0.40168995036E+01 0.40663484007E+01 0.44105011566E+01 0.54959959419E+01
 0.86890858201E+01 0.14966872515E+02 0.24460231049E+02 0.36354334412E+02 0.48829146859E+02
 0.48828177611E+02 0.55318491150E+02 0.56391041694E+02 0.51703768037E+02 0.42674827719E+02
 0.31746633424E+02 0.21325227702E+02 0.13080598318E+02 0.77444267616E+01 0.51321146377E+01
 0.42684674411E+01 0.39434936792E+01 0.38917435363E+01 0.41242489043E+01 0.46964849441E+01
 0.65653740595E+01 0.10883563170E+02 0.18119495651E+02 0.27876135958E+02 0.38835678160E+02
 0.36353177925E+02 0.42673774612E+02 0.45024551675E+02 0.42674827719E+02 0.36354815436E+02
 0.27877238242E+02 0.19304905013E+02 0.12237287041E+02 0.74912917116E+01 0.50566205444E+01
 0.41886926607E+01 0.38327265272E+01 0.37069027338E+01 0.38327645137E+01 0.41887733614E+01
 0.50566971027E+01 0.74912068942E+01 0.12236795249E+02 0.19303823291E+02 0.27875654877E+02
 0.24459483661E+02 0.29735283360E+02 0.32443943392E+02 0.31746633424E+02 0.27877238242E+02
 0.22017539742E+02 0.15734656101E+02 0.10372582008E+02 0.66924254903E+01 0.47682316484E+01
 0.40444842798E+01 0.36973429171E+01 0.35346970175E+01 0.35756192691E+01 0.38191536532E+01
 0.42503019910E+01 0.53132614499E+01 0.78544597095E+01 0.12236649323E+02 0.18119049410E+02
 0.14966646615E+02 0.18750553298E+02 0.21123565230E+02 0.21325227702E+02 0.19304905013E+02
 0.15734656101E+02 0.11672901358E+02 0.81123234835E+01 0.56536136717E+01 0.43749567898E+01
 0.38577204870E+01 0.35497785158E+01 0.33868111501E+01 0.33768370225E+01 0.35211408358E+01
 0.38221027806E+01 0.42791250868E+01 0.53132408226E+01 0.74911171700E+01 0.10883368847E+02
 0.86891495418E+01 0.10930768061E+02 0.12588009624E+02 0.13080598318E+02 0.12237287041E+02
 0.10372582008E+02 0.81123234835E+01 0.60941464845E+01 0.47144926764E+01 0.40055918777E+01
 0.36511721620E+01 0.34018729788E+01 0.32654967253E+01 0.32382606092E+01 0.33159406191E+01
 0.35080951301E+01 0.38221026363E+01 0.42502953301E+01 0.50566808779E+01 0.65653632615E+01
 0.54960901362E+01 0.64872115285E+01 0.73523244511E+01 0.77444267616E+01 0.74912917116E+01
 0.66924254903E+01 0.56536136717E+01 0.47144926764E+01 0.40779349218E+01 0.37145315971E+01
 0.34494838445E+01 0.32660329594E+01 0.31698858190E+01 0.31500227531E+01 0.31971605710E+01
 0.33159503348E+01 0.35211443311E+01 0.38191487336E+01 0.41887720536E+01 0.46965108324E+01
 0.44105229260E+01 0.47066002367E+01 0.49848675010E+01 0.51321146377E+01 0.50566205444E+01
 0.47682316484E+01 0.43749567898E+01 0.40055918777E+01 0.37145315971E+01 0.34679153942E+01
 0.32767674829E+01 0.31555722371E+01 0.31020901682E+01 0.31040092515E+01 0.31500401414E+01
 0.32382810363E+01 0.33768416885E+01 0.35756056757E+01 0.38327445586E+01 0.41242400072E+01
 0.40663294756E+01 0.42019103942E+01 0.42734674258E+01 0.42684674411E+01 0.41886926607E+01
 0.40444842798E+01 0.38577204870E+01 0.36511721620E+01 0.34494838445E+01 0.32767674829E+01
 0.31516532538E+01 0.30831144911E+01 0.30695763732E+01 0.31020938117E+01 0.31699001789E+01
 0.32655117005E+01 0.33868144943E+01 0.35346851465E+01 0.37068800716E+01 0.38917180996E+01
 0.40168970628E+01 0.40426981801E+01 0.40168995036E+01 0.39434936792E+01 0.38327265272E+01
 0.36973429171E+01 0.35497785158E+01 0.34018729788E+01 0.32660329594E+01 0.31555722371E+01
 0.30831144911E+01 0.30578353416E+01 0.30830964109E+01 0.31555483439E+01 0.32660199892E+01
 0.34018811149E+01 0.35498041412E+01 0.36973717273E+01 0.38327445586E+01 0.39434976398E+01
 0.42734735060E+01 0.42019179357E+01 0.40663484007E+01 0.38917435363E+01 0.37069027338E+01
 0.35346970175E+01 0.33868111501E+01 0.32654967253E+01 0.31698858190E+01 0.31020901682E+01
 0.30695763732E+01 0.30830964109E+01 0.31516060043E+01 0.32767137817E+01 0.34494705353E+01
 0.36512303248E+01 0.38578349198E+01 0.40446038421E+01 0.41887720536E+01 0.42684984975E+01
 0.49847778247E+01 0.47065352541E+01 0.44105011566E+01 0.41242489043E+01 0.38327645137E+01
 0.35756192691E+01 0.33768370225E+01 0.32382606092E+01 0.31500227531E+01 0.31040092515E+01
 0.31020938117E+01 0.31555483439E+01 0.32767137817E+01 0.34678875210E+01 0.37146065699E+01
 0.40057915893E+01 0.43752101879E+01 0.47684234366E+01 0.50566808779E+01 0.51320629253E+01
 0.73520060910E+01 0.64870035650E+01 0.54959959419E+01 0.46964849441E+01 0.41887733614E+01
 0.38191536532E+01 0.35211408358E+01 0.33159406191E+01 0.31971605710E+01 0.31500401414E+01
 0.31699001789E+01 0.32660199892E+01 0.34494705353E+01 0.37146065699E+01 0.40781717317E+01
 0.47148486317E+01 0.56539227808E+01 0.66925149346E+01 0.74911171700E+01 0.77440983053E+01
 0.12587482042E+02 0.10930510468E+02 0.86890858201E+01 0.65653740595E+01 0.50566971027E+01
 0.42503019910E+01 0.38221027806E+01 0.35080951301E+01 0.33159503348E+01 0.32382810363E+01
 0.32655117005E+01 0.34018811149E+01 0.36512303248E+01 0.40057915893E+01 0.47148486317E+01
 0.60945080092E+01 0.81124367322E+01 0.10372282556E+02 0.12236649323E+02 0.13079887509E+02
 0.21123166201E+02 0.18750589371E+02 0.14966872515E+02 0.10883563170E+02 0.74912068942E+01
 0.53132614499E+01 0.42791250868E+01 0.38221026363E+01 0.35211443311E+01 0.33768416885E+01
 0.33868144943E+01 0.35498041412E+01 0.38578349198E+01 0.43752101879E+01 0.56539227808E+01
 0.81124367322E+01 0.11672549650E+02 0.15733797946E+02 0.19303823291E+02 0.21324351584E+02
 0.32444243097E+02 0.29736041784E+02 0.24460231049E+02 0.18119495651E+02 0.12236795249E+02
 0.78544597095E+01 0.53132408226E+01 0.42502953301E+01 0.38191487336E+01 0.35756056757E+01
 0.35346851465E+01 0.36973717273E+01 0.40446038421E+01 0.47684234366E+01 0.66925149346E+01
 0.10372282556E+02 0.15733797946E+02 0.22016305206E+02 0.27876135958E+02 0.31746166572E+02
 0.45025944106E+02 0.42675371161E+02 0.36354334412E+02 0.27876135958E+02 0.19303823291E+02
 0.12236649323E+02 0.74911171700E+01 0.50566808779E+01 0.41887720536E+01 0.38327445586E+01
 0.37068800716E+01 0.38327445586E+01 0.41887720536E+01 0.50566808779E+01 0.74911171700E+01
 0.12236649323E+02 0.19303823291E+02 0.27876135958E+02 0.36354334412E+02 0.42675371161E+02
 0.56393306610E+02 0.55320429439E+02 0.48829146859E+02 0.38835678160E+02 0.27875654877E+02
 0.18119049410E+02 0.10883368847E+02 0.65653632615E+01 0.46965108324E+01 0.41242400072E+01
 0.38917180996E+01 0.39434976398E+01 0.42684984975E+01 0.51320629253E+01 0.77440983053E+01
 0.13079887509E+02 0.21324351584E+02 0.31746166572E+02 0.42675371161E+02 0.51705450232E+02
 0.49217590627E+02 0.51703842744E+02 0.48828177611E+02 0.41496705107E+02 0.31793862498E+02
 0.22016299633E+02 0.13903056910E+02 0.83478117469E+01 0.53931895464E+01 0.43099607802E+01
 0.39320691644E+01 0.38041065795E+01 0.39496193940E+01 0.43483651459E+01 0.54678599353E+01
 0.85070870592E+01 0.14217245172E+02 0.22525325504E+02 0.32444243097E+02 0.42123857088E+02
 0.51703842744E+02 0.56391162993E+02 0.55318491150E+02 0.48828076239E+02 0.38835638332E+02
 0.27876283527E+02 0.18119799333E+02 0.10883877428E+02 0.65655724868E+01 0.46965441370E+01
 0.41242296682E+01 0.38917252724E+01 0.39435198183E+01 0.42685137502E+01 0.51320825654E+01
 0.77441935719E+01 0.13080124432E+02 0.21324638934E+02 0.31746166572E+02 0.42674651766E+02
 0.48828177611E+02 0.55318491150E+02 0.56391041694E+02 0.51703768037E+02 0.42674827719E+02
 0.31746633424E+02 0.21325227702E+02 0.13080598318E+02 0.77444267616E+01 0.51321146377E+01
 0.42684674411E+01 0.39434936792E+01 0.38917435363E+01 0.41242489043E+01 0.46964849441E+01
 0.65653740595E+01 0.10883563170E+02 0.18119495651E+02 0.27876135958E+02 0.38835678160E+02
 0.41496705107E+02 0.48828076239E+02 0.51703768037E+02 0.49217773822E+02 0.42124426640E+02
 0.32445077023E+02 0.22526119354E+02 0.14217735149E+02 0.85072216288E+01 0.54677805873E+01
 0.43482534750E+01 0.39495718975E+01 0.38041170975E+01 0.39320810150E+01 0.43099192295E+01
 0.53930771611E+01 0.83476685447E+01 0.13902963144E+02 0.22016305206E+02 0.31793920846E+02
 0.31793862498E+02 0.38835638332E+02 0.42674827719E+02 0.42124426640E+02 0.37338010446E+02
 0.29737055793E+02 0.21325372399E+02 0.13896332073E+02 0.85498742496E+01 0.55449637787E+01
 0.43468362375E+01 0.39068166208E+01 0.36943256283E+01 0.37253172306E+01 0.39917978942E+01
 0.45399305443E+01 0.61768341338E+01 0.98113243412E+01 0.15733797946E+02 0.23475850475E+02
 0.22016299633E+02 0.27876283527E+02 0.31746633424E+02 0.32445077023E+02 0.29737055793E+02
 0.24461066045E+02 0.18119850705E+02 0.12236635425E+02 0.78540160690E+01 0.53128130749E+01
 0.42500493759E+01 0.38190713372E+01 0.35756021238E+01 0.35346877338E+01 0.36973673106E+01
 0.40446034257E+01 0.47684334845E+01 0.66925290181E+01 0.10372282556E+02 0.15733772997E+02
 0.13903056910E+02 0.18119799333E+02 0.21325227702E+02 0.22526119354E+02 0.21325372399E+02
 0.18119850705E+02 0.13902789586E+02 0.98107563386E+01 0.66918836646E+01 0.48648260461E+01
 0.40777201863E+01 0.36958775853E+01 0.34575252750E+01 0.33785182945E+01 0.34575090496E+01
 0.36959125223E+01 0.40779233899E+01 0.48652795667E+01 0.66925149346E+01 0.98113248555E+01
 0.83478117469E+01 0.10883877428E+02 0.13080598318E+02 0.14217735149E+02 0.13896332073E+02
 0.12236635425E+02 0.98107563386E+01 0.73598603703E+01 0.54728558994E+01 0.43749097903E+01
 0.38703881260E+01 0.35511038102E+01 0.33458599543E+01 0.32606871046E+01 0.32879064873E+01
 0.34309575859E+01 0.36984038775E+01 0.40779126987E+01 0.47684234366E+01 0.61768671972E+01
 0.53931895464E+01 0.65655724868E+01 0.77444267616E+01 0.85072216288E+01 0.85498742496E+01
 0.78540160690E+01 0.66918836646E+01 0.54728558994E+01 0.45335622760E+01 0.39810488089E+01
 0.36513305419E+01 0.34017607698E+01 0.32450324851E+01 0.31761997507E+01 0.31828090902E+01
 0.32635237248E+01 0.34309597249E+01 0.36959068033E+01 0.40446038421E+01 0.45399691792E+01
 0.43099607802E+01 0.46965441370E+01 0.51321146377E+01 0.54677805873E+01 0.55449637787E+01
 0.53128130749E+01 0.48648260461E+01 0.43749097903E+01 0.39810488089E+01 0.36889097495E+01
 0.34445279165E+01 0.32661136113E+01 0.31609659689E+01 0.31198062743E+01 0.31290153646E+01
 0.31828266524E+01 0.32879223718E+01 0.34575149240E+01 0.36973717273E+01 0.39918154783E+01
 0.39320691644E+01 0.41242296682E+01 0.42684674411E+01 0.43482534750E+01 0.43468362375E+01
 0.42500493759E+01 0.40777201863E+01 0.38703881260E+01 0.36513305419E+01 0.34445279165E+01
 0.32756797596E+01 0.31606129653E+01 0.31021027349E+01 0.30923714886E+01 0.31198223924E+01
 0.31762202393E+01 0.32606986654E+01 0.33785207146E+01 0.35346851465E+01 0.37253100877E+01
 0.38041065795E+01 0.38917252724E+01 0.39434936792E+01 0.39495718975E+01 0.39068166208E+01
 0.38190713372E+01 0.36958775853E+01 0.35511038102E+01 0.34017607698E+01 0.32661136113E+01
 0.31606129653E+01 0.30965516485E+01 0.30780249216E+01 0.31021006658E+01 0.31609535245E+01
 0.32450057844E+01 0.33458333193E+01 0.34575149240E+01 0.35756056757E+01 0.36943266898E+01
 0.39496193940E+01 0.39435198183E+01 0.38917435363E+01 0.38041170975E+01 0.36943256283E+01
 0.35756021238E+01 0.34575252750E+01 0.33458599543E+01 0.32450324851E+01 0.31609659689E+01
 0.31021027349E+01 0.30780249216E+01 0.30965384752E+01 0.31605607542E+01 0.32660175606E+01
 0.34016602014E+01 0.35510560036E+01 0.36959068033E+01 0.38191487336E+01 0.39068921832E+01
 0.43483651459E+01 0.42685137502E+01 0.41242489043E+01 0.39320810150E+01 0.37253172306E+01
 0.35346877338E+01 0.33785182945E+01 0.32606871046E+01 0.31761997507E+01 0.31198062743E+01
 0.30923714886E+01 0.31021006658E+01 0.31605607542E+01 0.32755479538E+01 0.34443586331E+01
 0.36512267621E+01 0.38704354143E+01 0.40779126987E+01 0.42502953301E+01 0.43470352011E+01
 0.54678599353E+01 0.51320825654E+01 0.46964849441E+01 0.43099192295E+01 0.39917978942E+01
 0.36973673106E+01 0.34575090496E+01 0.32879064873E+01 0.31828090902E+01 0.31290153646E+01
 0.31198223924E+01 0.31609535245E+01 0.32660175606E+01 0.34443586331E+01 0.36887785254E+01
 0.39811030316E+01 0.43752093880E+01 0.48652795667E+01 0.53132408226E+01 0.55452270104E+01
 0.85070870592E+01 0.77441935719E+01 0.65653740595E+01 0.53930771611E+01 0.45399305443E+01
 0.40446034257E+01 0.36959125223E+01 0.34309575859E+01 0.32635237248E+01 0.31828266524E+01
 0.31762202393E+01 0.32450057844E+01 0.34016602014E+01 0.36512267621E+01 0.39811030316E+01
 0.45339059575E+01 0.54734551963E+01 0.66925290181E+01 0.78544597095E+01 0.85499974308E+01
 0.14217245172E+02 0.13080124432E+02 0.10883563170E+02 0.83476685447E+01 0.61768341338E+01
 0.47684334845E+01 0.40779233899E+01 0.36984038775E+01 0.34309597249E+01 0.32879223718E+01
 0.32606986654E+01 0.33458333193E+01 0.35510560036E+01 0.38704354143E+01 0.43752093880E+01
 0.54734551963E+01 0.73605960945E+01 0.98113243412E+01 0.12236795249E+02 0.13896069709E+02
 0.22525325504E+02 0.21324638934E+02 0.18119495651E+02 0.13902963144E+02 0.98113243412E+01
 0.66925290181E+01 0.48652795667E+01 0.40779126987E+01 0.36959068033E+01 0.34575149240E+01
 0.33785207146E+01 0.34575149240E+01 0.36959068033E+01 0.40779126987E+01 0.48652795667E+01
 0.66925290181E+01 0.98113243412E+01 0.13902963144E+02 0.18119495651E+02 0.21324638934E+02
 0.32444243097E+02 0.31746166572E+02 0.27876135958E+02 0.22016305206E+02 0.15733797946E+02
 0.10372282556E+02 0.66925149346E+01 0.47684234366E+01 0.40446038421E+01 0.36973717273E+01
 0.35346851465E+01 0.35756056757E+01 0.38191487336E+01 0.42502953301E+01 0.53132408226E+01
 0.78544597095E+01 0.12236795249E+02 0.18119495651E+02 0.24460231049E+02 0.29736041784E+02
 0.42123857088E+02 0.42674651766E+02 0.38835678160E+02 0.31793920846E+02 0.23475850475E+02
 0.15733772997E+02 0.98113248555E+01 0.61768671972E+01 0.45399691792E+01 0.39918154783E+01
 0.37253100877E+01 0.36943266898E+01 0.39068921832E+01 0.43470352011E+01 0.55452270104E+01
 0.85499974308E+01 0.13896069709E+02 0.21324638934E+02 0.29736041784E+02 0.37337077312E+02
 0.34400614023E+02 0.37335801836E+02 0.36353177925E+02 0.31793862498E+02 0.25038186528E+02
 0.17842215604E+02 0.11672920516E+02 0.73608143958E+01 0.50267702273E+01 0.41352283144E+01
 0.37709165867E+01 0.36031410348E+01 0.36574554435E+01 0.39330122538E+01 0.44362741925E+01
 0.58059241131E+01 0.89570241892E+01 0.14217245172E+02 0.21123166201E+02 0.28435112424E+02
 0.37335801836E+02 0.42122497609E+02 0.42673774612E+02 0.38835638332E+02 0.31794616123E+02
 0.23476827751E+02 0.15734570973E+02 0.98117434170E+01 0.61769792553E+01 0.45399506574E+01