   1   1   1   0
  0.9304812E+01  0.2294967E-09  0.2294967E-09  0.2294967E-09  0.5000000E-15
  1.000000000000000E-004
  CAR 
 bcc Fe                                  
     54.35747349     -3.94744542  301      8.17108099      1.00000000
     -3.947  0.0000E+00  0.0000E+00  0.0000E+00  0.0000E+00
     -3.753  0.0000E+00  0.0000E+00  0.0000E+00  0.0000E+00
     -3.559  0.0000E+00  0.0000E+00  0.0000E+00  0.0000E+00
     -3.364  0.0000E+00  0.0000E+00  0.0000E+00  0.0000E+00
     -3.170  0.0000E+00  0.0000E+00  0.0000E+00  0.0000E+00
     -2.976 -0.1886E-31  0.0000E+00 -0.3666E-32  0.0000E+00
     -2.781 -0.7865E-25 -0.2953E-32 -0.1528E-25 -0.5738E-33
     -2.587 -0.4875E-19 -0.1529E-25 -0.9475E-20 -0.2971E-26
     -2.393 -0.4321E-14 -0.1177E-19 -0.8398E-15 -0.2288E-20
     -2.198 -0.5711E-10 -0.1299E-14 -0.1110E-10 -0.2524E-15
     -2.004 -0.1072E-06 -0.2140E-10 -0.2085E-07 -0.4159E-11
     -1.810 -0.2689E-04 -0.5025E-07 -0.5246E-05 -0.9770E-08
     -1.615 -0.6992E-03 -0.1594E-04 -0.1411E-03 -0.3107E-05
     -1.421  0.2942E-02 -0.5557E-03  0.4306E-03 -0.1111E-03
     -1.227  0.2152E-01  0.1509E-02  0.4612E-02  0.1822E-03
     -1.032  0.7045E-02  0.2043E-01  0.5981E-02  0.4153E-02
     -0.838  0.1845E-01  0.9164E-02  0.9567E-02  0.5934E-02
     -0.644  0.1918E-01  0.1438E-01  0.1329E-01  0.8729E-02
     -0.449  0.3115E-01  0.2312E-01  0.1935E-01  0.1322E-01
     -0.255  0.8697E-01  0.1854E-01  0.3625E-01  0.1682E-01
     -0.060  0.1178E-01  0.8854E-01  0.3854E-01  0.3403E-01
      0.134 -0.6308E-02  0.2426E-01  0.3731E-01  0.3875E-01
      0.328  0.1458E-01 -0.5305E-02  0.4015E-01  0.3772E-01
      0.523  0.1059E+00 -0.9201E-03  0.6073E-01  0.3754E-01
      0.717  0.5457E-01  0.8430E-01  0.7133E-01  0.5392E-01
      0.911  0.8316E-01  0.7371E-01  0.8749E-01  0.6825E-01
      1.106  0.9127E-01  0.5898E-01  0.1052E+00  0.7971E-01
      1.300  0.5838E-01  0.7239E-01  0.1166E+00  0.9378E-01
      1.494 -0.9670E-02  0.8405E-01  0.1147E+00  0.1101E+00
      1.689  0.2415E-01  0.3431E-01  0.1194E+00  0.1168E+00
      1.883  0.2362E+00 -0.1068E-01  0.1653E+00  0.1147E+00
      2.077  0.3613E+00  0.3037E-01  0.2355E+00  0.1206E+00
      2.272  0.4493E+00  0.2060E+00  0.3228E+00  0.1606E+00
      2.466  0.3707E+00  0.1289E+00  0.3949E+00  0.1857E+00
      2.660  0.6326E+00  0.1232E+00  0.5178E+00  0.2096E+00
      2.855  0.7120E+00  0.2188E+00  0.6562E+00  0.2522E+00
      3.049  0.7863E+00  0.5327E-01  0.8090E+00  0.2625E+00
      3.243  0.7013E+00  0.1760E+00  0.9453E+00  0.2967E+00
      3.438  0.4131E+00  0.3104E+00  0.1026E+01  0.3571E+00
      3.632  0.4193E+00  0.5921E+00  0.1107E+01  0.4721E+00
      3.827  0.3797E+00  0.4310E+00  0.1181E+01  0.5559E+00
      4.021  0.1001E+01  0.4182E+00  0.1375E+01  0.6372E+00
      4.215  0.1337E+01  0.4247E+00  0.1635E+01  0.7197E+00
      4.410  0.6757E+00  0.7438E+00  0.1767E+01  0.8643E+00
      4.604  0.5038E+00  0.6487E+00  0.1865E+01  0.9904E+00
      4.798  0.8551E+00  0.2264E+00  0.2031E+01  0.1034E+01
      4.993  0.1456E+01  0.2630E+00  0.2314E+01  0.1085E+01
      5.187  0.1032E+01  0.4064E+00  0.2514E+01  0.1164E+01
      5.381  0.5998E+00  0.8003E+00  0.2631E+01  0.1320E+01
      5.576  0.3527E+00  0.1236E+01  0.2699E+01  0.1560E+01
      5.770  0.2170E+00  0.8575E+00  0.2742E+01  0.1727E+01
      5.964  0.6089E+00  0.6662E+00  0.2860E+01  0.1856E+01
      6.159  0.5521E+00  0.9490E+00  0.2967E+01  0.2041E+01
      6.353  0.1863E+00  0.1008E+01  0.3003E+01  0.2237E+01
      6.547  0.3908E+00  0.8333E+00  0.3079E+01  0.2399E+01
      6.742  0.1003E+01  0.8805E+00  0.3274E+01  0.2570E+01
      6.936  0.1161E+01  0.7848E+00  0.3500E+01  0.2722E+01
      7.130  0.1359E+01  0.3571E+00  0.3764E+01  0.2792E+01
      7.325  0.1611E+01  0.1227E+00  0.4077E+01  0.2816E+01
      7.519  0.1800E+01  0.2946E+00  0.4427E+01  0.2873E+01
      7.714  0.1094E+01  0.4127E+00  0.4639E+01  0.2953E+01
      7.908  0.3826E+00  0.1930E+00  0.4714E+01  0.2991E+01
      8.102  0.8236E+00  0.3015E+00  0.4874E+01  0.3049E+01
      8.297  0.7766E+00  0.1790E+00  0.5025E+01  0.3084E+01
      8.491  0.4704E+00  0.4285E+00  0.5116E+01  0.3167E+01
      8.685  0.3885E+00  0.8602E+00  0.5192E+01  0.3334E+01
      8.880  0.2957E+00  0.6547E+00  0.5249E+01  0.3462E+01
      9.074  0.3289E+00  0.6735E+00  0.5313E+01  0.3592E+01
      9.268  0.1359E+00  0.1077E+01  0.5340E+01  0.3802E+01
      9.463  0.5392E-01  0.1035E+01  0.5350E+01  0.4003E+01
      9.657  0.4887E-01  0.1083E+01  0.5359E+01  0.4214E+01
      9.851  0.1238E+00  0.1634E+01  0.5384E+01  0.4531E+01
     10.046  0.3554E+00  0.1671E+01  0.5453E+01  0.4856E+01
     10.240  0.9872E-01  0.8792E+00  0.5472E+01  0.5027E+01
     10.434  0.1071E+00  0.6732E+00  0.5493E+01  0.5158E+01
     10.629  0.9572E-01  0.4048E+00  0.5511E+01  0.5236E+01
     10.823  0.7305E-01  0.2159E+00  0.5525E+01  0.5278E+01
     11.017  0.1218E-02  0.2792E+00  0.5526E+01  0.5333E+01
     11.212  0.7327E-01  0.1429E+00  0.5540E+01  0.5360E+01
     11.406  0.2322E+00  0.1128E+00  0.5585E+01  0.5382E+01
     11.601  0.1855E+00  0.3642E+00  0.5621E+01  0.5453E+01
     11.795  0.4388E-01  0.1340E+00  0.5630E+01  0.5479E+01
     11.989  0.1708E+00  0.1020E+00  0.5663E+01  0.5499E+01
     12.184  0.8684E-01  0.8894E-01  0.5680E+01  0.5516E+01
     12.378  0.1102E+00  0.7798E-01  0.5701E+01  0.5531E+01
     12.572  0.8231E-01  0.1392E+00  0.5717E+01  0.5558E+01
     12.767  0.8871E-02  0.1469E+00  0.5719E+01  0.5587E+01
     12.961  0.1114E+00  0.1667E+00  0.5740E+01  0.5619E+01
     13.155  0.1547E+00  0.1560E+00  0.5771E+01  0.5650E+01
     13.350  0.8012E-01  0.1089E+00  0.5786E+01  0.5671E+01
     13.544  0.2008E+00  0.6095E-01  0.5825E+01  0.5683E+01
     13.738  0.1041E+00  0.1271E+00  0.5845E+01  0.5707E+01
     13.933 -0.5822E-02  0.7350E-01  0.5844E+01  0.5722E+01
     14.127  0.3476E-01  0.4603E-01  0.5851E+01  0.5731E+01
     14.321  0.2500E-01  0.1854E+00  0.5856E+01  0.5767E+01
     14.516 -0.3667E-02  0.1855E+00  0.5855E+01  0.5803E+01
     14.710  0.1318E+00  0.1907E+00  0.5881E+01  0.5840E+01
     14.904  0.1212E+00  0.2642E-01  0.5904E+01  0.5845E+01
     15.099  0.4166E-01  0.1388E-01  0.5912E+01  0.5848E+01
     15.293  0.7781E-01  0.4096E-01  0.5928E+01  0.5856E+01
     15.488  0.1165E-02 -0.3180E-02  0.5928E+01  0.5855E+01
     15.682  0.1290E-01  0.3709E-01  0.5930E+01  0.5862E+01
     15.876  0.8467E-01  0.1734E+00  0.5947E+01  0.5896E+01
     16.071  0.5972E-01  0.5825E-01  0.5958E+01  0.5907E+01
     16.265  0.9555E-01  0.7744E-01  0.5977E+01  0.5922E+01
     16.459  0.6870E-01  0.4352E-01  0.5990E+01  0.5931E+01
     16.654  0.1146E-01  0.8209E-01  0.5992E+01  0.5947E+01
     16.848 -0.2403E-02  0.3176E-01  0.5992E+01  0.5953E+01
     17.042 -0.5950E-03  0.6928E-01  0.5992E+01  0.5966E+01
     17.237 -0.8013E-02  0.5448E-01  0.5990E+01  0.5977E+01
     17.431  0.4144E-01  0.4737E-01  0.5998E+01  0.5986E+01
     17.625  0.2364E+00  0.3357E-01  0.6044E+01  0.5993E+01
     17.820  0.1912E+00 -0.2233E-02  0.6082E+01  0.5992E+01
     18.014  0.3390E-01 -0.5831E-03  0.6088E+01  0.5992E+01
     18.208  0.1974E+00 -0.2721E-02  0.6126E+01  0.5991E+01
     18.403  0.4283E+00  0.4190E-02  0.6210E+01  0.5992E+01
     18.597  0.3070E+00  0.9311E-01  0.6269E+01  0.6010E+01
     18.791  0.2516E+00  0.2530E+00  0.6318E+01  0.6060E+01
     18.986  0.1620E+00  0.1948E+00  0.6350E+01  0.6097E+01
     19.180  0.3762E-01  0.1102E+00  0.6357E+01  0.6119E+01
     19.375 -0.8077E-02  0.3459E+00  0.6355E+01  0.6186E+01
     19.569 -0.1563E-02  0.4807E+00  0.6355E+01  0.6279E+01
     19.763  0.1345E+00  0.2760E+00  0.6381E+01  0.6333E+01
     19.958  0.3441E+00  0.1038E+00  0.6448E+01  0.6353E+01
     20.152  0.2326E+00  0.1998E-01  0.6493E+01  0.6357E+01
     20.346  0.9373E-01  0.3054E-01  0.6512E+01  0.6363E+01
     20.541  0.3569E+00  0.1171E+00  0.6581E+01  0.6386E+01
     20.735  0.2700E+00  0.1886E+00  0.6633E+01  0.6423E+01
     20.929  0.7090E-01  0.2567E+00  0.6647E+01  0.6472E+01
     21.124  0.2543E-01  0.1970E+00  0.6652E+01  0.6511E+01
     21.318  0.1236E+00  0.2634E+00  0.6676E+01  0.6562E+01
     21.512  0.9846E-01  0.3009E+00  0.6695E+01  0.6620E+01
     21.707  0.1629E+00  0.1582E+00  0.6727E+01  0.6651E+01
     21.901  0.2306E+00  0.7226E-01  0.6772E+01  0.6665E+01
     22.095  0.4275E+00  0.6950E-01  0.6855E+01  0.6679E+01
     22.290  0.3871E+00  0.1833E+00  0.6930E+01  0.6714E+01
     22.484  0.5079E-01  0.1508E+00  0.6940E+01  0.6744E+01
     22.678 -0.1105E-01  0.2360E+00  0.6938E+01  0.6789E+01
     22.873  0.2856E-01  0.3744E+00  0.6943E+01  0.6862E+01
     23.067  0.2258E-01  0.2775E+00  0.6948E+01  0.6916E+01
     23.262  0.1324E+00  0.1160E+00  0.6974E+01  0.6939E+01
     23.456  0.3175E+00  0.1578E-01  0.7035E+01  0.6942E+01
     23.650  0.1273E+00  0.3176E-01  0.7060E+01  0.6948E+01
     23.845  0.7353E-01  0.5368E-01  0.7074E+01  0.6958E+01
     24.039  0.2253E+00  0.2625E+00  0.7118E+01  0.7009E+01
     24.233  0.2388E+00  0.2388E+00  0.7164E+01  0.7056E+01
     24.428  0.3457E+00  0.7225E-01  0.7232E+01  0.7070E+01
     24.622  0.3088E+00  0.1175E+00  0.7292E+01  0.7093E+01
     24.816  0.1143E+00  0.2383E+00  0.7314E+01  0.7139E+01
     25.011  0.6052E-01  0.3917E+00  0.7326E+01  0.7215E+01
     25.205  0.1673E-01  0.3896E+00  0.7329E+01  0.7291E+01
     25.399  0.2253E+00  0.4918E-01  0.7373E+01  0.7300E+01
     25.594  0.1329E+00  0.7399E-01  0.7399E+01  0.7315E+01
     25.788  0.1408E+00  0.6690E-01  0.7426E+01  0.7328E+01
     25.982  0.2047E+00  0.2309E+00  0.7466E+01  0.7373E+01
     26.177  0.1005E+00  0.1594E+00  0.7485E+01  0.7404E+01
     26.371  0.3279E+00  0.1374E+00  0.7549E+01  0.7430E+01
     26.565  0.1383E+00  0.1739E+00  0.7576E+01  0.7464E+01
     26.760  0.4952E-02  0.1641E+00  0.7577E+01  0.7496E+01
     26.954  0.9802E-01  0.2513E+00  0.7596E+01  0.7545E+01
     27.149  0.1847E+00  0.1094E+00  0.7632E+01  0.7566E+01
     27.343  0.8596E-01  0.3567E-01  0.7648E+01  0.7573E+01
     27.537  0.1404E+00  0.9710E-01  0.7676E+01  0.7592E+01
     27.732  0.4250E+00  0.1127E+00  0.7758E+01  0.7614E+01
     27.926  0.3529E+00  0.1909E+00  0.7827E+01  0.7651E+01
     28.120  0.3198E+00  0.2924E+00  0.7889E+01  0.7708E+01
     28.315  0.1846E+00  0.3511E+00  0.7925E+01  0.7776E+01
     28.509  0.2323E+00  0.3786E+00  0.7970E+01  0.7850E+01
     28.703  0.2765E+00  0.3060E+00  0.8024E+01  0.7909E+01
     28.898  0.3099E+00  0.1660E+00  0.8084E+01  0.7941E+01
     29.092  0.2399E+00  0.2330E+00  0.8131E+01  0.7987E+01
     29.286  0.2159E+00  0.3570E+00  0.8173E+01  0.8056E+01
     29.481  0.2204E+00  0.2952E+00  0.8215E+01  0.8113E+01
     29.675  0.9483E-01  0.2566E+00  0.8234E+01  0.8163E+01
     29.869  0.1605E+00  0.1325E+00  0.8265E+01  0.8189E+01
     30.064  0.1405E-01  0.1374E+00  0.8268E+01  0.8216E+01
     30.258  0.1550E+00  0.8573E-01  0.8298E+01  0.8232E+01
     30.452  0.2616E+00  0.1695E+00  0.8349E+01  0.8265E+01
     30.647  0.3978E-01  0.1125E+00  0.8357E+01  0.8287E+01
     30.841  0.2906E+00  0.2619E+00  0.8413E+01  0.8338E+01
     31.036  0.6601E+00  0.8900E-01  0.8541E+01  0.8355E+01
     31.230  0.2358E+00  0.2430E+00  0.8587E+01  0.8403E+01
     31.424  0.1733E+00  0.5507E+00  0.8621E+01  0.8510E+01
     31.619  0.3417E+00  0.3754E+00  0.8687E+01  0.8583E+01
     31.813  0.1945E+00  0.1649E+00  0.8725E+01  0.8615E+01
     32.007  0.6204E-01  0.3123E+00  0.8737E+01  0.8675E+01
     32.202  0.8010E-01  0.2362E+00  0.8753E+01  0.8721E+01
     32.396  0.2509E+00  0.1439E-01  0.8801E+01  0.8724E+01
     32.590  0.1104E+00  0.1686E-01  0.8823E+01  0.8727E+01
     32.785  0.5662E-01  0.2237E+00  0.8834E+01  0.8771E+01
     32.979  0.2640E+00  0.2668E+00  0.8885E+01  0.8823E+01
     33.173  0.1439E+00  0.1034E+00  0.8913E+01  0.8843E+01
     33.368  0.2461E+00  0.1338E+00  0.8961E+01  0.8869E+01
     33.562  0.3276E+00  0.9475E-01  0.9025E+01  0.8887E+01
     33.756  0.1122E+00  0.3804E+00  0.9046E+01  0.8961E+01
     33.951  0.1113E+00  0.4488E+00  0.9068E+01  0.9048E+01
     34.145  0.1152E+00  0.3850E-01  0.9090E+01  0.9056E+01
     34.339  0.6309E-01  0.5676E-01  0.9103E+01  0.9067E+01
     34.534  0.3391E-02  0.1332E+00  0.9103E+01  0.9093E+01
     34.728  0.1997E+00  0.5261E-01  0.9142E+01  0.9103E+01
     34.923  0.4325E+00  0.1078E+00  0.9226E+01  0.9124E+01
     35.117  0.9684E-01  0.2850E+00  0.9245E+01  0.9179E+01
     35.311  0.3012E-01  0.2879E+00  0.9251E+01  0.9235E+01
     35.506  0.9174E-01  0.6451E-01  0.9269E+01  0.9248E+01
     35.700  0.6582E-01  0.1162E+00  0.9282E+01  0.9270E+01
     35.894  0.1091E+00  0.4470E-01  0.9303E+01  0.9279E+01
     36.089  0.2074E+00 -0.1110E-01  0.9343E+01  0.9277E+01
     36.283  0.4620E+00  0.1900E-01  0.9433E+01  0.9281E+01
     36.477  0.8619E+00  0.2574E+00  0.9600E+01  0.9331E+01
     36.672  0.3123E+00  0.8136E+00  0.9661E+01  0.9489E+01
     36.866  0.2481E-01  0.5476E+00  0.9666E+01  0.9595E+01
     37.060  0.1044E+00  0.2750E+00  0.9686E+01  0.9649E+01
     37.255  0.9304E-01  0.5272E-01  0.9704E+01  0.9659E+01
     37.449  0.6401E-02  0.3372E-01  0.9705E+01  0.9665E+01
     37.643  0.3178E-01  0.7683E-01  0.9712E+01  0.9680E+01
     37.838  0.1891E+00  0.9547E-01  0.9748E+01  0.9699E+01
     38.032  0.1930E+00  0.1564E+00  0.9786E+01  0.9729E+01
     38.226  0.2875E-01  0.8809E-01  0.9792E+01  0.9746E+01
     38.421  0.1864E+00  0.1054E+00  0.9828E+01  0.9767E+01
     38.615  0.4819E+00  0.3312E+00  0.9921E+01  0.9831E+01
     38.809  0.1067E+00  0.3667E+00  0.9942E+01  0.9902E+01
     39.004  0.6294E-01  0.7126E-01  0.9954E+01  0.9916E+01
     39.198  0.3957E-01 -0.1836E-01  0.9962E+01  0.9913E+01
     39.393  0.8942E-01  0.6060E-01  0.9979E+01  0.9925E+01
     39.587  0.2116E+00  0.1707E+00  0.1002E+02  0.9958E+01
     39.781  0.3389E+00  0.1921E+00  0.1009E+02  0.9995E+01
     39.976  0.3718E+00  0.2895E+00  0.1016E+02  0.1005E+02
     40.170  0.5736E+00  0.1624E+00  0.1027E+02  0.1008E+02
     40.364  0.2215E+00  0.3356E+00  0.1031E+02  0.1015E+02
     40.559  0.1460E+00  0.4009E+00  0.1034E+02  0.1023E+02
     40.753  0.3217E+00  0.4381E+00  0.1040E+02  0.1031E+02
     40.947  0.1270E+00  0.1702E+00  0.1043E+02  0.1034E+02
     41.142  0.2197E+00  0.6007E-01  0.1047E+02  0.1036E+02
     41.336  0.1562E+00  0.3254E+00  0.1050E+02  0.1042E+02
     41.530  0.2818E+00  0.2609E+00  0.1056E+02  0.1047E+02
     41.725  0.2409E+00  0.4102E-02  0.1060E+02  0.1047E+02
     41.919  0.2196E+00  0.1678E+00  0.1065E+02  0.1050E+02
     42.113  0.1485E+00  0.3815E+00  0.1067E+02  0.1058E+02
     42.308  0.1274E+00  0.3587E+00  0.1070E+02  0.1065E+02
     42.502  0.3148E+00  0.2297E+00  0.1076E+02  0.1069E+02
     42.696  0.1361E+00  0.1469E+00  0.1079E+02  0.1072E+02
     42.891  0.2413E-02  0.2688E+00  0.1079E+02  0.1077E+02
     43.085  0.8874E-01  0.7577E-01  0.1081E+02  0.1079E+02
     43.280  0.3936E+00  0.1415E-01  0.1088E+02  0.1079E+02
     43.474  0.4478E+00  0.7253E-01  0.1097E+02  0.1080E+02
     43.668  0.2109E+00  0.3052E+00  0.1101E+02  0.1086E+02
     43.863  0.1890E+00  0.6035E+00  0.1105E+02  0.1098E+02
     44.057  0.4167E+00  0.1436E+00  0.1113E+02  0.1101E+02
     44.251  0.1657E+00  0.8068E-01  0.1116E+02  0.1102E+02
     44.446  0.1295E-01  0.4960E+00  0.1116E+02  0.1112E+02
     44.640  0.3223E+00  0.2390E+00  0.1122E+02  0.1117E+02
     44.834  0.2874E+00  0.9440E-01  0.1128E+02  0.1119E+02
     45.029  0.2292E+00  0.1619E+00  0.1133E+02  0.1122E+02
     45.223  0.2126E+00  0.2261E+00  0.1137E+02  0.1126E+02
     45.417  0.2444E+00  0.3271E+00  0.1141E+02  0.1132E+02
     45.612  0.1540E+00  0.1591E+00  0.1144E+02  0.1136E+02
     45.806  0.1632E+00  0.1939E+00  0.1148E+02  0.1139E+02
     46.000  0.4847E+00  0.2009E+00  0.1157E+02  0.1143E+02
     46.195  0.2458E+00  0.1398E+00  0.1162E+02  0.1146E+02
     46.389  0.8259E-01  0.2948E+00  0.1163E+02  0.1152E+02
     46.583  0.9563E-01  0.3943E+00  0.1165E+02  0.1159E+02
     46.778  0.3451E-01  0.2764E+00  0.1166E+02  0.1165E+02
     46.972  0.1590E+00  0.6450E-01  0.1169E+02  0.1166E+02
     47.167  0.6520E-01  0.7998E-01  0.1170E+02  0.1168E+02
     47.361  0.5599E-01  0.6586E-01  0.1171E+02  0.1169E+02
     47.555  0.1428E+00  0.1232E+00  0.1174E+02  0.1171E+02
     47.750  0.4368E-01  0.1754E+00  0.1175E+02  0.1175E+02
     47.944  0.4323E-01  0.2742E-01  0.1176E+02  0.1175E+02
     48.138  0.1785E+00 -0.6689E-02  0.1179E+02  0.1175E+02
     48.333  0.8320E-01 -0.9853E-02  0.1181E+02  0.1175E+02
     48.527  0.2277E+00  0.5691E-01  0.1185E+02  0.1176E+02
     48.721  0.1351E+00  0.2906E+00  0.1188E+02  0.1182E+02
     48.916  0.6382E-01  0.1815E+00  0.1189E+02  0.1185E+02
     49.110  0.8451E-01  0.1165E+00  0.1191E+02  0.1187E+02
     49.304 -0.9250E-04  0.1080E+00  0.1191E+02  0.1189E+02
     49.499  0.1453E-01  0.7301E-01  0.1191E+02  0.1191E+02
     49.693  0.2582E-01 -0.2795E-02  0.1192E+02  0.1191E+02
     49.887  0.6812E-03  0.1987E-01  0.1192E+02  0.1191E+02
     50.082 -0.6544E-02  0.2168E-01  0.1191E+02  0.1192E+02
     50.276  0.2859E-01 -0.8932E-03  0.1192E+02  0.1192E+02
     50.470  0.1752E+00 -0.5327E-02  0.1195E+02  0.1191E+02
     50.665  0.5724E-01  0.3319E-01  0.1197E+02  0.1192E+02
     50.859 -0.8382E-02  0.1486E+00  0.1196E+02  0.1195E+02
     51.054  0.1073E-01  0.1004E+00  0.1197E+02  0.1197E+02
     51.248  0.2237E-01  0.2626E-02  0.1197E+02  0.1197E+02
     51.442  0.3512E-01 -0.5667E-02  0.1198E+02  0.1197E+02
     51.637  0.9159E-01  0.5051E-01  0.1199E+02  0.1198E+02
     51.831  0.3015E-01  0.1000E+00  0.1200E+02  0.1200E+02
     52.025 -0.3906E-02  0.1093E-01  0.1200E+02  0.1200E+02
     52.220 -0.3282E-03 -0.2976E-02  0.1200E+02  0.1200E+02
     52.414 -0.2294E-05 -0.1096E-03  0.1200E+02  0.1200E+02
     52.608 -0.2074E-08 -0.4316E-06  0.1200E+02  0.1200E+02
     52.803 -0.2635E-12 -0.2290E-09  0.1200E+02  0.1200E+02
     52.997  0.0000E+00 -0.1729E-13  0.1200E+02  0.1200E+02
     53.191  0.0000E+00  0.0000E+00  0.1200E+02  0.1200E+02
     53.386  0.0000E+00  0.0000E+00  0.1200E+02  0.1200E+02
     53.580  0.0000E+00  0.0000E+00  0.1200E+02  0.1200E+02
     53.774  0.0000E+00  0.0000E+00  0.1200E+02  0.1200E+02
     53.969  0.0000E+00  0.0000E+00  0.1200E+02  0.1200E+02
     54.163  0.0000E+00  0.0000E+00  0.1200E+02  0.1200E+02
     54.357  0.0000E+00  0.0000E+00  0.1200E+02  0.1200E+02
     54.35747349     -3.94744542  301      8.17108099      1.00000000
     -3.947  0.0000E+00  0.0000E+00  0.0000E+00  0.0000E+00  0.0000E+00  0.0000E+00
     -3.753  0.0000E+00  0.0000E+00  0.0000E+00  0.0000E+00  0.0000E+00  0.0000E+00
     -3.559  0.0000E+00  0.0000E+00  0.0000E+00  0.0000E+00  0.0000E+00  0.0000E+00
     -3.364  0.0000E+00  0.0000E+00  0.0000E+00  0.0000E+00  0.0000E+00  0.0000E+00
     -3.170  0.0000E+00  0.0000E+00  0.0000E+00  0.0000E+00  0.0000E+00  0.0000E+00
     -2.976 -0.1436E-31  0.0000E+00 -0.3294E-33  0.0000E+00 -0.6086E-35  0.0000E+00
     -2.781 -0.5987E-25 -0.2230E-32 -0.1373E-26 -0.5178E-34 -0.2537E-28 -0.7315E-36
     -2.587 -0.3712E-19 -0.1154E-25 -0.8512E-21 -0.2681E-27 -0.1573E-22 -0.3787E-29
     -2.393 -0.3289E-14 -0.8892E-20 -0.7544E-16 -0.2064E-21 -0.1394E-17 -0.2917E-23
     -2.198 -0.4348E-10 -0.9809E-15 -0.9972E-12 -0.2277E-16 -0.1842E-13 -0.3217E-18
     -2.004 -0.8162E-07 -0.1616E-10 -0.1872E-08 -0.3753E-12 -0.3458E-10 -0.5301E-14
     -1.810 -0.2047E-04 -0.3795E-07 -0.4694E-06 -0.8812E-09 -0.8674E-08 -0.1245E-10
     -1.615 -0.5323E-03 -0.1204E-04 -0.1221E-04 -0.2795E-06 -0.2256E-06 -0.3949E-08
     -1.421  0.2240E-02 -0.4197E-03  0.5122E-04 -0.9745E-05  0.9329E-06 -0.1377E-06
     -1.227  0.1639E-01  0.1140E-02  0.3652E-03  0.2640E-04  0.5776E-05  0.3680E-06
     -1.032  0.5391E-02  0.1544E-01  0.9650E-04  0.3516E-03 -0.6940E-06  0.4481E-05
     -0.838  0.1340E-01  0.6963E-02  0.9376E-03  0.1207E-03  0.7318E-04 -0.1184E-05
     -0.644  0.1408E-01  0.1035E-01  0.8386E-03  0.7474E-03  0.4561E-04  0.4590E-04
     -0.449  0.2154E-01  0.1679E-01  0.2492E-02  0.1064E-02  0.3629E-03  0.5346E-04
     -0.255  0.6013E-01  0.1278E-01  0.6963E-02  0.1460E-02  0.1014E-02  0.1515E-03
     -0.060  0.8152E-02  0.6081E-01  0.9345E-03  0.7183E-02  0.1329E-03  0.7611E-03
      0.134 -0.4112E-02  0.1667E-01 -0.6747E-03  0.1962E-02 -0.1742E-03  0.2070E-03
      0.328  0.9046E-02 -0.3533E-02  0.1872E-02 -0.5149E-03  0.5950E-03 -0.7994E-04
      0.523  0.6579E-01 -0.5840E-03  0.1358E-01 -0.1136E-03  0.4189E-02 -0.1937E-04
      0.717  0.3328E-01  0.5229E-01  0.7390E-02  0.1114E-01  0.2442E-02  0.2439E-02
      0.911  0.4806E-01  0.4573E-01  0.1263E-01  0.9754E-02  0.5248E-02  0.2097E-02
      1.106  0.4971E-01  0.3442E-01  0.1346E-01  0.9280E-02  0.9989E-02  0.2516E-02
      1.300  0.3090E-01  0.4187E-01  0.8504E-02  0.1138E-01  0.7620E-02  0.3552E-02
      1.494 -0.4481E-02  0.4590E-01 -0.1656E-02  0.1349E-01 -0.1722E-02  0.7136E-02
      1.689  0.1183E-01  0.1874E-01  0.5244E-02  0.5493E-02  0.2163E-02  0.2928E-02
      1.883  0.1065E+00 -0.5374E-02  0.4216E-01 -0.2029E-02  0.4373E-01 -0.1066E-02
      2.077  0.1049E+00  0.1466E-01  0.3562E-01  0.6541E-02  0.1704E+00  0.2819E-02
      2.272  0.1004E+00  0.9786E-01  0.3343E-01  0.4191E-01  0.2604E+00  0.2425E-01
      2.466  0.3868E-01  0.5921E-01  0.1457E-01  0.2390E-01  0.2799E+00  0.2066E-01
      2.660  0.7349E-01  0.4936E-01  0.3949E-01  0.2322E-01  0.4529E+00  0.2783E-01
      2.855  0.9739E-01  0.8298E-01  0.6350E-01  0.3711E-01  0.4725E+00  0.6000E-01
      3.049  0.6044E-01  0.1570E-01  0.6505E-01  0.4843E-02  0.5763E+00  0.2511E-01
      3.243  0.5538E-01  0.3393E-01  0.5810E-01  0.6501E-02  0.5173E+00  0.1159E+00
      3.438  0.2968E-01  0.7375E-01  0.2975E-01  0.3903E-01  0.3217E+00  0.1535E+00
      3.632  0.1099E-01  0.1337E+00  0.3564E-01  0.7778E-01  0.3349E+00  0.2966E+00
      3.827  0.4299E-02  0.6944E-01  0.1923E-01  0.3754E-01  0.3324E+00  0.2715E+00
      4.021  0.4013E-02  0.4616E-01  0.5498E-01  0.3523E-01  0.8907E+00  0.2872E+00
      4.215  0.3328E-02  0.3302E-01  0.8127E-01  0.4804E-01  0.1179E+01  0.2867E+00
      4.410  0.3100E-03  0.5781E-01  0.2202E-01  0.7261E-01  0.6224E+00  0.5258E+00
      4.604  0.2783E-02  0.4459E-01  0.2147E-01  0.5915E-01  0.4563E+00  0.4770E+00
      4.798  0.1702E-01  0.6542E-02  0.8687E-01  0.1390E-01  0.6969E+00  0.1826E+00
      4.993  0.3087E-01  0.4752E-02  0.1544E+00  0.2786E-01  0.1174E+01  0.2029E+00
      5.187  0.1635E-01  0.4520E-02  0.6600E-01  0.3769E-01  0.8966E+00  0.3295E+00
      5.381  0.5897E-02  0.3918E-03  0.3858E-01  0.5726E-01  0.5293E+00  0.6947E+00
      5.576  0.5136E-02  0.2993E-02  0.3795E-01  0.9018E-01  0.2878E+00  0.1056E+01
      5.770  0.6056E-02  0.5055E-02  0.5219E-01  0.8001E-01  0.1350E+00  0.7136E+00
      5.964  0.1041E-01  0.7299E-02  0.8101E-01  0.6417E-01  0.4753E+00  0.5509E+00
      6.159  0.3574E-02  0.9493E-02  0.1511E-01  0.1101E+00  0.5147E+00  0.7571E+00
      6.353  0.1499E-02  0.1039E-01  0.6125E-02  0.1095E+00  0.1714E+00  0.8141E+00
      6.547  0.7858E-02  0.7646E-02  0.3790E-01  0.6720E-01  0.3211E+00  0.7069E+00
      6.742  0.1009E-01  0.7279E-02  0.3979E-01  0.8214E-01  0.9128E+00  0.7348E+00
      6.936  0.7184E-02  0.1002E-01  0.1714E-01  0.1236E+00  0.1104E+01  0.5889E+00
      7.130  0.4443E-02  0.3979E-02  0.1277E-01  0.6381E-01  0.1310E+01  0.2596E+00
      7.325  0.4426E-02  0.3628E-02  0.1792E-01  0.4573E-01  0.1555E+01  0.5446E-01
      7.519  0.7451E-02  0.4412E-02  0.3248E-01  0.3002E-01  0.1724E+01  0.2422E+00
      7.714  0.1044E-01  0.3312E-02  0.2418E-01  0.8979E-02  0.1036E+01  0.3870E+00
      7.908  0.7437E-02  0.1279E-02  0.1013E-01  0.1595E-01  0.3563E+00  0.1638E+00
      8.102  0.1486E-01  0.1757E-02  0.2738E-01  0.5567E-01  0.7618E+00  0.2144E+00
      8.297  0.1697E-01  0.1042E-02  0.3070E-01  0.3451E-01  0.7077E+00  0.1264E+00
      8.491  0.4554E-02  0.3665E-02  0.1402E-01  0.1197E-01  0.4413E+00  0.3963E+00
      8.685 -0.1052E-02  0.4475E-02  0.2645E-02  0.1199E-01  0.3817E+00  0.8114E+00
      8.880  0.3158E-02  0.2357E-02  0.1472E-01  0.9745E-02  0.2699E+00  0.6177E+00
      9.074  0.2289E-01  0.1369E-02  0.6585E-01  0.1053E-01  0.2154E+00  0.6369E+00
      9.268  0.1807E-01  0.4112E-02  0.2744E-01  0.1328E-01  0.7942E-01  0.1025E+01
      9.463  0.1577E-02  0.3812E-02  0.8013E-02  0.1040E-01  0.4086E-01  0.9923E+00
      9.657  0.1014E-02  0.1408E-02  0.7600E-02  0.6841E-02  0.3705E-01  0.1049E+01
      9.851  0.7996E-02  0.4542E-02  0.2055E-01  0.1319E-01  0.8654E-01  0.1584E+01
     10.046  0.2358E-01  0.8687E-02  0.6876E-01  0.1547E-01  0.2356E+00  0.1616E+01
     10.240  0.7333E-02  0.1227E-01  0.2184E-01  0.1545E-01  0.6122E-01  0.8329E+00
     10.434  0.7012E-02  0.9547E-02  0.2685E-01  0.2662E-01  0.6307E-01  0.6197E+00
     10.629  0.1129E-01  0.1722E-03  0.2639E-01  0.1417E-01  0.4804E-01  0.3815E+00
     10.823  0.1567E-01  0.2008E-02  0.1804E-01  0.1527E-02  0.3206E-01  0.2094E+00
     11.017  0.6722E-03  0.1829E-01  0.6081E-04  0.2153E-01  0.4202E-03  0.2288E+00
     11.212  0.2603E-02  0.8748E-02  0.3530E-01  0.1343E-01  0.2513E-01  0.1143E+00
     11.406  0.1528E-01  0.3815E-02  0.9331E-01  0.1471E-01  0.9429E-01  0.8793E-01
     11.601  0.1987E-01  0.1425E-01  0.6410E-01  0.5152E-01  0.8040E-01  0.2773E+00
     11.795  0.2231E-02  0.4206E-02  0.1420E-01  0.2177E-01  0.2207E-01  0.9944E-01
     11.989  0.5525E-02  0.5621E-02  0.5806E-01  0.1693E-01  0.8549E-01  0.7276E-01
     12.184  0.5357E-02  0.1367E-01  0.2491E-01  0.1587E-01  0.4650E-01  0.5269E-01
     12.378  0.9447E-02  0.9765E-02  0.2778E-01  0.2025E-01  0.6107E-01  0.4098E-01
     12.572  0.6662E-02  0.1971E-02  0.2244E-01  0.4931E-01  0.4396E-01  0.7349E-01
     12.767  0.2392E-02  0.7699E-02  0.2780E-02  0.4364E-01  0.2503E-02  0.8174E-01
     12.961  0.8806E-02  0.1738E-01  0.4239E-01  0.4287E-01  0.4572E-01  0.9222E-01
     13.155  0.8372E-02  0.4809E-02  0.5863E-01  0.4018E-01  0.6796E-01  0.9552E-01
     13.350  0.1173E-01  0.1903E-02  0.3171E-01  0.2809E-01  0.2603E-01  0.6777E-01
     13.544  0.1624E-01  0.3644E-02  0.9413E-01  0.1195E-01  0.6247E-01  0.3988E-01
     13.738  0.3386E-02  0.7692E-02  0.5307E-01  0.2752E-01  0.3285E-01  0.7997E-01
     13.933 -0.4877E-03  0.7236E-02 -0.2778E-02  0.1822E-01 -0.1755E-02  0.4041E-01
     14.127 -0.5112E-04  0.3001E-02  0.1418E-01  0.1485E-01  0.1496E-01  0.2308E-01
     14.321 -0.8388E-04  0.8803E-02  0.1026E-01  0.5887E-01  0.1072E-01  0.9795E-01
     14.516 -0.4519E-04  0.1739E-01 -0.1550E-02  0.6903E-01 -0.1500E-02  0.7705E-01
     14.710  0.4299E-02  0.9830E-02  0.5693E-01  0.8330E-01  0.5121E-01  0.7402E-01
     14.904  0.3670E-02 -0.7558E-04  0.5258E-01  0.1263E-01  0.4711E-01  0.1065E-01
     15.099  0.2349E-02 -0.2089E-03  0.1422E-01  0.4170E-02  0.1847E-01  0.7769E-02
     15.293  0.4307E-02 -0.1113E-04  0.2695E-01  0.1408E-01  0.3424E-01  0.2094E-01
     15.488 -0.9809E-04 -0.1548E-03 -0.1022E-03 -0.1305E-02  0.1214E-02 -0.1343E-02
     15.682  0.1537E-02  0.6496E-03  0.6920E-02  0.1390E-01  0.2245E-02  0.1754E-01
     15.876  0.9541E-02  0.4700E-02  0.4318E-01  0.6585E-01  0.1762E-01  0.8026E-01
     16.071  0.2863E-02  0.2241E-02  0.3288E-01  0.2140E-01  0.1434E-01  0.2704E-01
     16.265 -0.4015E-03  0.3425E-02  0.5326E-01  0.2250E-01  0.2789E-01  0.4019E-01
     16.459 -0.2866E-04  0.2681E-02  0.3193E-01  0.1555E-01  0.2616E-01  0.1868E-01
     16.654 -0.1796E-06  0.8887E-02  0.4814E-02  0.4140E-01  0.4871E-02  0.1797E-01
     16.848 -0.5972E-06  0.3169E-02 -0.1087E-02  0.1589E-01 -0.9435E-03  0.7415E-02
     17.042 -0.1117E-03 -0.3994E-03 -0.1426E-03  0.3802E-01 -0.2553E-03  0.2158E-01
     17.237 -0.2235E-02 -0.3361E-04 -0.1153E-02  0.2945E-01 -0.3567E-02  0.1709E-01
     17.431  0.9858E-02 -0.2339E-06  0.7436E-02  0.1863E-01  0.1835E-01  0.2216E-01
     17.625  0.7035E-01 -0.2305E-09  0.3029E-01  0.1340E-01  0.1054E+00  0.1548E-01
     17.820  0.6170E-01 -0.4608E-07  0.2335E-01 -0.9007E-03  0.8144E-01 -0.1021E-02
     18.014  0.1157E-01 -0.1282E-04  0.3755E-02 -0.2206E-03  0.1417E-01 -0.2674E-03
     18.208  0.5376E-01 -0.4079E-03  0.4191E-01 -0.6613E-03  0.7349E-01 -0.1242E-02
     18.403  0.1130E+00 -0.1163E-03  0.8246E-01  0.1379E-02  0.1697E+00  0.2195E-02
     18.597  0.6009E-01  0.1347E-01  0.7763E-01  0.2424E-01  0.1223E+00  0.4111E-01
     18.791  0.5232E-02  0.7255E-01  0.1157E+00  0.3508E-01  0.8553E-01  0.1135E+00
     18.986  0.1622E-01  0.6060E-01  0.6012E-01  0.2286E-01  0.5706E-01  0.8768E-01
     19.180  0.1029E-01  0.1684E-01  0.8990E-02  0.3980E-01  0.1279E-01  0.3552E-01
     19.375 -0.1643E-02  0.8105E-01 -0.2216E-02  0.7247E-01 -0.2871E-02  0.1432E+00
     19.569 -0.2013E-03  0.1046E+00 -0.1205E-02  0.9317E-01  0.2524E-03  0.2153E+00
     19.763  0.3633E-01  0.2005E-01  0.2860E-01  0.9135E-01  0.4631E-01  0.1199E+00
     19.958  0.7597E-01  0.1617E-01  0.9527E-01  0.3205E-01  0.1119E+00  0.3951E-01
     20.152  0.2041E-01  0.5879E-02  0.9463E-01  0.4891E-02  0.7170E-01  0.6144E-02
     20.346  0.8028E-02  0.3010E-02  0.3703E-01  0.1895E-01  0.2732E-01  0.9676E-03
     20.541  0.8720E-01  0.8899E-02  0.8197E-01  0.6697E-01  0.1155E+00  0.1577E-01
     20.735  0.6276E-01  0.4280E-01  0.6581E-01  0.5264E-01  0.8944E-01  0.5961E-01
     20.929  0.2752E-01  0.5309E-01  0.9230E-02  0.4696E-01  0.1804E-01  0.1152E+00
     21.124  0.5437E-02  0.3038E-01  0.1015E-01  0.4762E-01  0.4288E-02  0.8206E-01
     21.318  0.1100E-01  0.7004E-01  0.5826E-01  0.5231E-01  0.3040E-01  0.8468E-01
     21.512  0.4607E-02  0.6529E-01  0.4486E-01  0.6879E-01  0.3117E-01  0.1093E+00
     21.707  0.4445E-01  0.3889E-01  0.3947E-01  0.3541E-01  0.4374E-01  0.5303E-01
     21.901  0.4005E-01  0.1041E-01  0.8606E-01  0.3243E-01  0.5442E-01  0.1419E-01
     22.095  0.7443E-01  0.2352E-02  0.1281E+00  0.3466E-01  0.1262E+00  0.1975E-01
     22.290  0.4827E-01  0.1026E-01  0.1149E+00  0.9225E-01  0.1385E+00  0.4442E-01
     22.484  0.4335E-02  0.3801E-01  0.1415E-01  0.4596E-01  0.2235E-01  0.3288E-01
     22.678 -0.1051E-02  0.5435E-01 -0.3332E-02  0.5526E-01 -0.4197E-02  0.7430E-01