    1    1    1    2
  0.9304812E+01  0.2294967E-09  0.2294967E-09  0.2294967E-09  0.5000000E-15
  1.000000000000000E-004
  CAR 
 bcc Fe                                  
      8     44     12
 
  0.5000000E-01  0.5000000E-01  0.5000000E-01  0.8000000E-02
    1       -0.826461     -0.605353   1.000000   1.000000
    2        5.197373      6.779368   1.000000   1.000000
    3        5.197373      6.779368   1.000000   1.000000
    4        5.904711      7.542562   1.000000   1.000041
    5        7.031397      9.412423   1.000000  -0.000000
    6        7.031397      9.412423   1.000000  -0.000000
    7       32.853503     33.003872   0.000000   0.000000
    8       32.853503     33.003872   0.000000   0.000000
    9       35.735504     35.598650   0.000000   0.000000
   10       39.804927     40.624434   0.000000   0.000000
   11       42.447078     42.745540   0.000000   0.000000
   12       42.447078     42.745540   0.000000   0.000000
 
  0.1500000E+00  0.5000000E-01  0.5000000E-01  0.2400000E-01
    1        0.448660      0.704499   1.000000   1.000000
    2        4.782811      6.310430   1.000000   1.000000
    3        4.979082      6.515239   1.000000   1.000000
    4        6.803404      8.486077   1.000000  -0.024224
    5        6.888304      9.180237   1.000000  -0.000000
    6        7.142440      9.539318   1.000000  -0.000000
    7       28.735236     29.207423   0.000000   0.000000
    8       30.981629     31.272527   0.000000   0.000000
    9       35.827252     36.321031   0.000000   0.000000
   10       36.352358     36.582168   0.000000   0.000000
   11       42.485084     42.784983   0.000000   0.000000
   12       42.993622     43.638597   0.000000   0.000000
 
  0.2500000E+00  0.5000000E-01  0.5000000E-01  0.2400000E-01
    1        1.850662      2.345438   1.000000   1.000000
    2        4.334099      5.800025   1.000000   1.000000
    3        5.114881      6.393479   1.000000   1.000000
    4        6.985669      9.208902   1.000000  -0.000000
    5        7.264033      9.690139   1.000000  -0.000000
    6        8.057054      9.763293   0.906163  -0.000000
    7       24.040206     24.781729   0.000000   0.000000
    8       29.093079     29.400118   0.000000   0.000000
    9       32.931951     33.610744   0.000000   0.000000
   10       36.428398     36.604395   0.000000   0.000000
   11       41.865016     42.449112   0.000000   0.000000
   12       44.641859     44.912296   0.000000   0.000000
 
  0.3500000E+00  0.5000000E-01  0.5000000E-01  0.2400000E-01
    1        2.220739      3.198350   1.000000   1.000000
    2        3.998252      5.420577   1.000000   1.000000
    3        6.476108      7.302829   1.000000   1.000000
    4        7.187448      9.374781   1.000000  -0.000000
    5        7.371574      9.828103   1.000000  -0.000000
    6        9.464538     11.058487  -0.000000  -0.000000
    7       19.708403     20.709620   0.000000   0.000000
    8       27.698991     27.976366   0.000000   0.000000
    9       30.983572     31.591571   0.000000   0.000000
   10       36.303604     36.622386   0.000000   0.000000
   11       41.571021     42.150220   0.000000   0.000000
   12       46.859988     47.053880   0.000000   0.000000
 
  0.4500000E+00  0.5000000E-01  0.5000000E-01  0.1200000E-01
    1        2.170066      3.288144   1.000000   1.000000
    2        3.875709      5.282542   1.000000   1.000000
    3        7.222112      8.173164   1.000000   0.491186
    4        7.406828      9.439681   1.000000  -0.000000
    5        7.415662      9.878322   1.000001  -0.000000
    6       10.426396     11.763032  -0.000000  -0.000000
    7       17.530800     18.747027   0.000000   0.000000
    8       27.190130     27.449837   0.000000   0.000000
    9       30.257869     30.831866   0.000000   0.000000
   10       36.242848     36.607778   0.000000   0.000000
   11       41.560161     42.165346   0.000000   0.000000
   12       46.486747     46.615746   0.000000   0.000000
 
 -0.5000000E-01  0.5000000E-01  0.5000000E-01  0.6000000E-02
    1       -1.297222     -1.080763   1.000000   1.000000
    2        5.374294      6.976992   1.000000   1.000000
    3        5.374329      6.977014   1.000000   1.000000
    4        5.452067      7.067322   1.000000   1.000000
    5        6.976387      9.354304   1.000000  -0.000000
    6        7.163255      9.578560   1.000000  -0.000000
    7       33.924479     33.906596   0.000000   0.000000
    8       35.050516     34.970925   0.000000   0.000000
    9       35.050521     34.970935   0.000000   0.000000
   10       40.227620     40.594153   0.000000   0.000000
   11       43.483192     43.639273   0.000000   0.000000
   12       43.547392     44.347555   0.000000   0.000000
 
  0.1500000E+00  0.1500000E+00  0.5000000E-01  0.2400000E-01
    1        1.842606      2.195489   1.000000   1.000000
    2        4.455788      5.945075   1.000000   1.000000
    3        4.520579      5.960129   1.000000   1.000000
    4        6.920321      9.187660   1.000000  -0.000000
    5        7.278306      9.654476   1.000000  -0.000000
    6        8.132308      9.831475   0.660693  -0.000000
    7       26.245655     26.838905   0.000000   0.000000
    8       27.421803     27.932788   0.000000   0.000000
    9       31.990076     32.662422   0.000000   0.000000
   10       37.863096     37.830504   0.000000   0.000000
   11       43.306500     43.659921   0.000000   0.000000
   12       45.230238     45.691244   0.000000   0.000000
 
  0.2500000E+00  0.1500000E+00  0.5000000E-01  0.4800000E-01
    1        2.785695      3.568197   1.000000   1.000000
    2        4.081116      5.493385   1.000000   1.000000
    3        4.878486      6.022807   1.000000   1.000000
    4        7.064119      9.302869   1.000000  -0.000000
    5        7.431254      9.835335   1.000001  -0.000000
    6        9.887463     11.452197  -0.000000  -0.000000
    7       22.084710     22.891828   0.000000   0.000000
    8       25.386833     25.944930   0.000000   0.000000
    9       29.734210     30.321643   0.000000   0.000000
   10       38.465470     38.571541   0.000000   0.000000
   11       44.045242     44.358684   0.000000   0.000000
   12       46.014125     46.450845   0.000000   0.000000
 
  0.3500000E+00  0.1500000E+00  0.5000000E-01  0.4800000E-01
    1        2.747558      3.868280   1.000000   1.000000
    2        3.905718      5.277758   1.000000   1.000000
    3        5.816505      6.852022   1.000000   1.000000
    4        7.233810      9.472030   1.000000  -0.000000
    5        7.558320      9.921573   1.000065  -0.000000
    6       11.889737     13.141172  -0.000000  -0.000000
    7       18.313638     19.376804   0.000000   0.000000
    8       24.449778     24.999458   0.000000   0.000000
    9       28.614943     29.157353   0.000000   0.000000
   10       38.547940     38.752041   0.000000   0.000000
   11       44.968304     45.205572   0.000000   0.000000
   12       45.905560     46.324882   0.000000   0.000000
 
 -0.1500000E+00  0.1500000E+00  0.5000000E-01  0.2400000E-01
    1       -0.378019     -0.148172   1.000000   1.000000
    2        5.117201      6.683323   1.000000   1.000000
    3        5.318278      6.895962   1.000000   1.000000
    4        6.007823      7.656420   1.000000   1.000829
    5        6.691626      8.986394   1.000000  -0.000000
    6        7.256182      9.678565   1.000000  -0.000000
    7       30.940160     31.236694   0.000000   0.000000
    8       33.662305     33.778106   0.000000   0.000000
    9       34.727868     34.860640   0.000000   0.000000
   10       39.361030     39.694259   0.000000   0.000000
   11       40.563792     41.278944   0.000000   0.000000
   12       41.445658     42.106565   0.000000   0.000000
 
  0.2500000E+00  0.2500000E+00  0.5000000E-01  0.2400000E-01
    1        3.324370      4.442149   1.000000   1.000000
    2        3.989547      5.324540   1.000000   1.000000
    3        4.838623      5.941591   1.000000   1.000000
    4        7.209517      9.456312   1.000000  -0.000000
    5        7.548857      9.898001   1.000050  -0.000000
    6       12.427363     13.732984  -0.000000   0.000000
    7       20.106201     20.975439   0.000000   0.000000
    8       21.649320     22.372624   0.000000   0.000000
    9       28.363283     28.918997   0.000000   0.000000
   10       39.990162     40.095353   0.000000   0.000000
   11       43.532321     43.743021   0.000000   0.000000
   12       50.408427     50.724344   0.000000   0.000000
 
  0.3500000E+00  0.2500000E+00  0.5000000E-01  0.2400000E-01
    1        3.350299      4.568391   1.000000   1.000000
    2        4.058308      5.350416   1.000000   1.000000
    3        4.897649      6.069250   1.000000   1.000000
    4        7.343471      9.605879   1.000000  -0.000000
    5        7.542483      9.845376   1.000041  -0.000000
    6       14.709356     15.764226   0.000000   0.000000
    7       17.507169     18.535498   0.000000   0.000000
    8       20.782502     21.536589   0.000000   0.000000
    9       27.958883     28.516489   0.000000   0.000000
   10       40.674016     40.812637   0.000000   0.000000
   11       43.235277     43.356072   0.000000   0.000000
   12       50.377140     50.870727   0.000000   0.000000
 
 -0.2500000E+00  0.2500000E+00  0.5000000E-01  0.2400000E-01
    1        1.101043      1.433380   1.000000   1.000000
    2        4.683042      6.191729   1.000000   1.000000
    3        5.169922      6.645489   1.000000   1.000000
    4        6.702367      8.729422   1.000000  -0.000285
    5        7.008430      8.874002   1.000000  -0.000004
    6        7.367955      9.786324   1.000000  -0.000000
    7       26.402509     27.032625   0.000000   0.000000
    8       31.314246     31.504192   0.000000   0.000000
    9       33.908356     34.332535   0.000000   0.000000
   10       37.788880     38.347188   0.000000   0.000000
   11       39.741220     40.267453   0.000000   0.000000
   12       41.567442     41.912723   0.000000   0.000000
 
 -0.1500000E+00  0.2500000E+00  0.5000000E-01  0.2400000E-01
    1        0.825790      1.105934   1.000000   1.000000
    2        4.994185      6.531066   1.000000   1.000000
    3        5.016560      6.573521   1.000000   1.000000
    4        6.423616      8.438638   1.000000  -0.033777
    5        6.756420      8.590533   1.000000  -0.005766
    6        7.470963      9.889863   1.000004  -0.000000
    7       28.468078     28.956669   0.000000   0.000000
    8       30.246733     30.688570   0.000000   0.000000
    9       34.843680     35.030794   0.000000   0.000000
   10       36.911961     37.495326   0.000000   0.000000
   11       39.471601     39.857609   0.000000   0.000000
   12       43.236039     43.730188   0.000000   0.000000
 
 -0.3500000E+00  0.3500000E+00  0.5000000E-01  0.2400000E-01
    1        2.039811      2.805259   1.000000   1.000000
    2        4.265523      5.724506   1.000000   1.000000
    3        5.805221      6.920100   1.000000   1.000000
    4        7.040943      9.112938   1.000000  -0.000000
    5        7.675970      9.938835   1.001291  -0.000000
    6        8.123151      9.965634   0.696496  -0.000000
    7       21.726509     22.610142   0.000000   0.000000
    8       29.373319     29.557387   0.000000   0.000000
    9       32.318423     32.894274   0.000000   0.000000
   10       36.440709     36.913266   0.000000   0.000000
   11       39.759060     40.330515   0.000000   0.000000
   12       43.558561     43.842081   0.000000   0.000000
 
 -0.2500000E+00  0.3500000E+00  0.5000000E-01  0.4800000E-01
    1        2.149499      2.679069   1.000000   1.000000
    2        4.506947      6.021145   1.000000   1.000000
    3        4.968831      6.365691   1.000000   1.000000
    4        6.612387      8.665741   1.000000  -0.001304
    5        7.552295      9.591164   1.000055  -0.000000
    6        8.232142     10.236836   0.254495  -0.000000
    7       24.298126     25.037085   0.000000   0.000000
    8       27.683209     28.183199   0.000000   0.000000
    9       33.432484     33.833658   0.000000   0.000000
   10       36.095480     36.510228   0.000000   0.000000
   11       40.052105     40.425607   0.000000   0.000000
   12       43.985951     44.446869   0.000000   0.000000
 
 -0.4500000E+00  0.4500000E+00  0.5000000E-01  0.2400000E-01
    1        2.083007      3.175497   1.000000   1.000000
    2        4.018634      5.449545   1.000000   1.000000
    3        6.663302      7.981810   1.000000   1.018627
    4        7.145795      9.291659   1.000000  -0.000000
    5        8.894883     10.422106  -0.000002  -0.000000
    6        8.963042     10.786716  -0.000000  -0.000000
    7       18.145097     19.302921   0.000000   0.000000
    8       28.292059     28.453694   0.000000   0.000000
    9       31.039361     31.593853   0.000000   0.000000
   10       36.053289     36.545117   0.000000   0.000000
   11       40.072282     40.688004   0.000000   0.000000
   12       44.538119     44.696689   0.000000   0.000000
 
 -0.3500000E+00  0.4500000E+00  0.5000000E-01  0.4800000E-01
    1        2.506503      3.529263   1.000000   1.000000
    2        4.253719      5.696449   1.000000   1.000000
    3        5.437613      6.702790   1.000000   1.000000
    4        6.949932      9.008949   1.000000  -0.000000
    5        8.039697     10.108722   0.943924  -0.000000
    6        9.978274     11.525734  -0.000000  -0.000000
    7       19.905238     20.881247   0.000000   0.000000
    8       26.270217     26.774595   0.000000   0.000000
    9       31.597959     31.992242   0.000000   0.000000
   10       36.417310     36.872027   0.000000   0.000000
   11       41.044215     41.338612   0.000000   0.000000
   12       43.842317     44.319996   0.000000   0.000000
 
 -0.2500000E+00  0.4500000E+00  0.5000000E-01  0.2400000E-01
    1        3.043885      3.923017   1.000000   1.000000
    2        4.033128      5.529597   1.000000   1.000000
    3        4.970151      6.281763   1.000000   1.000000
    4        6.788545      8.812625   1.000000  -0.000028
    5        7.764634      9.926666   1.007194  -0.000000
    6       10.334225     11.896027  -0.000000  -0.000000
    7       22.181983     23.021626   0.000000   0.000000
    8       23.411121     24.074457   0.000000   0.000000
    9       33.197926     33.675524   0.000000   0.000000
   10       35.389444     35.648585   0.000000   0.000000
   11       39.929759     40.280423   0.000000   0.000000
   12       48.493173     48.913300   0.000000   0.000000
 
 -0.4500000E+00 -0.4500000E+00  0.5000000E-01  0.2400000E-01
    1        2.443109      3.614867   1.000000   1.000000
    2        4.167772      5.593536   1.000000   1.000000
    3        5.748654      7.104756   1.000000   1.000000
    4        6.999962      9.110494   1.000000  -0.000000
    5        8.424897     10.381295  -0.035173  -0.000000
    6       11.353347     12.575573  -0.000000  -0.000000
    7       17.573152     18.758053   0.000000   0.000000
    8       25.758949     26.255663   0.000000   0.000000
    9       30.915597     31.287831   0.000000   0.000000
   10       36.563632     37.050582   0.000000   0.000000
   11       41.943865     42.097770   0.000000   0.000000
   12       43.257476     43.806862   0.000000   0.000000
 
 -0.3500000E+00 -0.4500000E+00  0.5000000E-01  0.4800000E-01
    1        3.181755      4.394546   1.000000   1.000000
    2        4.107419      5.516918   1.000000   1.000000
    3        4.832920      6.170824   1.000000   1.000000
    4        7.100224      9.144588   1.000000  -0.000000
    5        7.943802      9.994199   1.034105  -0.000000
    6       12.996739     14.222290  -0.000000   0.000000
    7       18.501296     19.515816   0.000000   0.000000
    8       22.005953     22.711955   0.000000   0.000000
    9       32.343372     32.791288   0.000000   0.000000
   10       36.309643     36.634199   0.000000   0.000000
   11       39.645462     39.870339   0.000000   0.000000
   12       48.030809     48.668307   0.000000   0.000000
 
 -0.3500000E+00 -0.3500000E+00  0.5000000E-01  0.8000000E-02
    1        3.766668      5.061660   1.000000   1.000000
    2        4.137495      5.512911   1.000000   1.000000
    3        4.137514      5.512932   1.000000   1.000000
    4        7.567436      9.602470   1.000084  -0.000000
    5        7.567499      9.602538   1.000084  -0.000000
    6       16.363105     17.403356   0.000000   0.000000
    7       16.363141     17.403418   0.000000   0.000000
    8       19.825812     20.648967   0.000000   0.000000
    9       32.650656     33.180929   0.000000   0.000000
   10       37.672785     37.891150   0.000000   0.000000
   11       37.672786     37.891182   0.000000   0.000000
   12       48.234177     49.107727   0.000000   0.000000
 
  0.1500000E+00  0.1500000E+00  0.1500000E+00  0.8000000E-02
    1        3.219334      3.710033   1.000000   1.000000
    2        4.076429      5.470912   1.000000   1.000000
    3        4.076429      5.470912   1.000000   1.000000
    4        7.242904      9.616109   1.000000  -0.000000
    5        7.242904      9.616109   1.000000  -0.000000
    6        9.934440     11.508349  -0.000000  -0.000000
    7       24.458745     25.089253   0.000000   0.000000
    8       24.458745     25.089253   0.000000   0.000000
    9       27.429538     28.118068   0.000000   0.000000
   10       40.855777     40.724202   0.000000   0.000000
   11       46.346514     46.639078   0.000000   0.000000
   12       46.346514     46.639078   0.000000   0.000000
 
  0.2500000E+00  0.1500000E+00  0.1500000E+00  0.2400000E-01
    1        3.466904      4.530000   1.000000   1.000000
    2        3.869743      5.198012   1.000000   1.000000
    3        4.757636      5.766622   1.000000   1.000000
    4        7.321036      9.676079   1.000000  -0.000000
    5        7.394059      9.843765   1.000000  -0.000000
    6       12.211898     13.536022  -0.000000  -0.000000
    7       20.440071     21.277644   0.000000   0.000000
    8       23.282446     23.918246   0.000000   0.000000
    9       25.302528     25.942933   0.000000   0.000000
   10       42.362091     42.348210   0.000000   0.000000
   11       47.370116     47.646812   0.000000   0.000000
   12       48.491402     48.631933   0.000000   0.000000
 
  0.3500000E+00  0.1500000E+00  0.1500000E+00  0.1200000E-01
    1        3.322936      4.478017   1.000000   1.000000
    2        3.807554      5.111768   1.000000   1.000000
    3        5.306261      6.338531   1.000000   1.000000
    4        7.376893      9.726666   1.000000  -0.000000
    5        7.447519      9.924430   1.000002  -0.000000
    6       14.106702     15.150288   0.000000   0.000000
    7       17.758897     18.808724   0.000000   0.000000
    8       22.876031     23.509183   0.000000   0.000000
    9       24.714014     25.337929   0.000000   0.000000
   10       42.540804     42.600920   0.000000   0.000000
   11       48.408914     48.552486   0.000000   0.000000
   12       48.545628     48.991195   0.000000   0.000000
 
 -0.1500000E+00  0.1500000E+00  0.1500000E+00  0.6000000E-02
    1        0.464552      0.721356   1.000000   1.000000
    2        5.448463      7.011669   1.000000   1.000000
    3        5.448505      7.011703   1.000000   1.000000
    4        5.988918      7.674878   1.000000   1.001260
    5        6.019252      8.166814   1.000000   0.518052
    6        7.567016      9.998459   1.000083  -0.000000
    7       30.171571     30.492815   0.000000   0.000000
    8       32.922784     33.329991   0.000000   0.000000
    9       32.922834     33.330037   0.000000   0.000000
   10       34.843312     35.252626   0.000000   0.000000
   11       42.424082     42.885670   0.000000   0.000000
   12       42.424090     42.885698   0.000000   0.000000
 
  0.2500000E+00  0.2500000E+00  0.1500000E+00  0.2400000E-01
    1        3.676202      4.895711   1.000000   1.000000
    2        4.081430      5.298881   1.000000   1.000000
    3        4.601240      5.676793   1.000000   1.000000
    4        7.410256      9.825339   1.000001  -0.000000
    5        7.457092      9.910464   1.000003  -0.000000
    6       15.139136     16.194980   0.000000   0.000000
    7       18.778415     19.648170   0.000000   0.000000
    8       20.448839     21.225470   0.000000   0.000000
    9       23.789889     24.421667   0.000000   0.000000
   10       45.338971     45.335108   0.000000   0.000000
   11       47.527788     47.620360   0.000000   0.000000
   12       51.564817     51.707250   0.000000   0.000000
 
 -0.2500000E+00  0.2500000E+00  0.1500000E+00  0.2400000E-01
    1        1.780700      2.173201   1.000000   1.000000
    2        4.984861      6.693057   1.000000   1.000000
    3        5.236790      6.769048   1.000000   1.000000
    4        6.055946      7.914325   1.000000   1.034963
    5        6.883234      8.593502   1.000000  -0.005473
    6        7.972245     10.297981   1.024513  -0.000000
    7       26.966938     27.594569   0.000000   0.000000
    8       30.331399     30.721591   0.000000   0.000000
    9       30.813508     31.372102   0.000000   0.000000
   10       34.793480     35.213777   0.000000   0.000000
   11       41.869546     42.315405   0.000000   0.000000
   12       43.277584     43.695179   0.000000   0.000000
 
 -0.3500000E+00  0.3500000E+00  0.1500000E+00  0.2400000E-01
    1        2.604398      3.446479   1.000000   1.000000
    2        4.658958      6.192391   1.000000   1.000000
    3        4.895120      6.387713   1.000000   1.000000
    4        6.587755      8.449741   1.000000  -0.032014
    5        8.017439      9.821850   0.981462  -0.000000
    6        9.062184     10.937781  -0.000000  -0.000000
    7       22.257151     23.105535   0.000000   0.000000
    8       28.844379     29.240199   0.000000   0.000000
    9       28.891585     29.479509   0.000000   0.000000
   10       36.392375     36.768136   0.000000   0.000000
   11       40.678124     41.142537   0.000000   0.000000
   12       43.361262     43.832206   0.000000   0.000000
 
 -0.2500000E+00  0.3500000E+00  0.1500000E+00  0.2400000E-01
    1        2.766287      3.458995   1.000000   1.000000
    2        4.251219      5.961151   1.000000   1.000000
    3        5.409091      6.907013   1.000000   1.000000
    4        6.253907      8.016187   1.000000   0.983224
    5        7.589693      9.424527   1.000156  -0.000000
    6        9.084765     10.994415  -0.000000  -0.000000
    7       24.815799     25.579166   0.000000   0.000000
    8       25.865711     26.473634   0.000000   0.000000
    9       31.421249     31.866269   0.000000   0.000000
   10       33.397217     33.819253   0.000000   0.000000
   11       41.398697     41.854442   0.000000   0.000000
   12       46.949602     47.372782   0.000000   0.000000
 
 -0.4500000E+00  0.4500000E+00  0.1500000E+00  0.2400000E-01
    1        2.573316      3.782638   1.000000   1.000000
    2        4.683519      6.152163   1.000000   1.000000
    3        4.929169      6.379322   1.000000   1.000000
    4        6.701400      8.662432   1.000000  -0.001402
    5        8.820042     10.705186  -0.000022  -0.000000
    6       11.185486     12.449501  -0.000000  -0.000000
    7       18.358414     19.445443   0.000000   0.000000
    8       27.680126     28.239320   0.000000   0.000000
    9       28.068294     28.466131   0.000000   0.000000
   10       38.410273     38.675712   0.000000   0.000000
   11       40.066977     40.541830   0.000000   0.000000
   12       42.252418     42.815111   0.000000   0.000000
 
 -0.3500000E+00  0.4500000E+00  0.1500000E+00  0.4800000E-01
    1        3.075518      4.249308   1.000000   1.000000
    2        3.983413      5.500568   1.000000   1.000000
    3        5.138157      6.636855   1.000000   1.000000
    4        6.721721      8.541256   1.000000  -0.012554
    5        8.243113     10.130013   0.216017  -0.000000
    6       11.440328     12.826531  -0.000000  -0.000000
    7       20.567645     21.466772   0.000000   0.000000
    8       24.031449     24.691074   0.000000   0.000000
    9       30.815769     31.251589   0.000000   0.000000
   10       34.780577     35.149991   0.000000   0.000000
   11       40.190520     40.661770   0.000000   0.000000
   12       45.931868     46.605519   0.000000   0.000000
 
 -0.4500000E+00 -0.4500000E+00  0.1500000E+00  0.2400000E-01
    1        2.943532      4.304819   1.000000   1.000000
    2        4.207583      5.676672   1.000000   1.000000
    3        4.893145      6.367990   1.000000   1.000000
    4        6.854224      8.705868   1.000000  -0.000514
    5        8.596275     10.483556  -0.005211  -0.000000
    6       13.544545     14.627462  -0.000000   0.000000
    7       17.736689     18.817021   0.000000   0.000000
    8       23.479994     24.127626   0.000000   0.000000
    9       30.405010     30.835207   0.000000   0.000000
   10       36.402847     36.668725   0.000000   0.000000
   11       38.957850     39.507014   0.000000   0.000000
   12       44.699777     45.432324   0.000000   0.000000
 
 -0.3500000E+00 -0.4500000E+00  0.1500000E+00  0.2400000E-01
    1        3.478831      4.967000   1.000000   1.000000
    2        3.585362      5.013303   1.000000   1.000000
    3        4.792854      6.229484   1.000000   1.000000
    4        7.403208      9.228566   1.000000  -0.000000
    5        8.116091      9.992536   0.723215  -0.000000
    6       14.702092     15.805323   0.000000   0.000000
    7       18.692555     19.649405   0.000000   0.000000
    8       20.479635     21.224780   0.000000   0.000000
    9       32.916736     33.299479   0.000000   0.000000
   10       34.149934     34.507343   0.000000   0.000000
   11       37.998432     38.535774   0.000000   0.000000
   12       45.028507     45.837109   0.000000   0.000000
 
  0.2500000E+00  0.2500000E+00  0.2500000E+00  0.2000000E-02
    1        4.147536      5.317308   1.000000   1.000000
    2        4.147536      5.317308   1.000000   1.000000
    3        4.147588      5.317350   1.000000   1.000000
    4        7.469948      9.950004   1.000004  -0.000000
    5        7.469948      9.950004   1.000004  -0.000000
    6       18.335396     19.200112   0.000000   0.000000
    7       18.335396     19.200112   0.000000   0.000000
    8       18.335467     19.200217   0.000000   0.000000
    9       21.682410     22.361718   0.000000   0.000000
   10       51.085698     50.967046   0.000000   0.000000
   11       51.085699     50.967047   0.000000   0.000000
   12       51.085721     50.967078   0.000000   0.000000
 
 -0.2500000E+00  0.2500000E+00  0.2500000E+00  0.6000000E-02
    1        2.638738      3.272945   1.000000   1.000000
    2        4.424749      6.327238   1.000000   1.000000
    3        5.954182      7.505749   1.000000   1.000013
    4        5.954242      7.505814   1.000000   1.000013
    5        6.960018      8.688478   1.000000  -0.000778
    6        8.868439     10.894624  -0.000005  -0.000000
    7       27.757479     28.407706   0.000000   0.000000
    8       28.063162     28.668421   0.000000   0.000000
    9       28.063211     28.668478   0.000000   0.000000
   10       30.918114     31.343067   0.000000   0.000000
   11       46.381971     46.794871   0.000000   0.000000
   12       46.381979     46.794898   0.000000   0.000000
 
 -0.3500000E+00  0.3500000E+00  0.2500000E+00  0.2400000E-01
    1        3.041302      4.108335   1.000000   1.000000
    2        3.681001      5.399969   1.000000   1.000000
    3        6.002835      7.560022   1.000000   1.000068
    4        6.471082      8.117762   1.000000   0.716968
    5        7.879196      9.670848   1.029417  -0.000000
    6       10.666576     12.159925  -0.000000  -0.000000
    7       23.272905     24.028237   0.000000   0.000000
    8       25.828393     26.415832   0.000000   0.000000
    9       27.993611     28.627082   0.000000   0.000000
   10       31.470296     31.930813   0.000000   0.000000
   11       44.663609     45.377650   0.000000   0.000000
   12       45.353574     45.797311   0.000000   0.000000
 
 -0.4500000E+00  0.4500000E+00  0.2500000E+00  0.2400000E-01
    1        2.865669      4.311179   1.000000   1.000000
    2        3.527038      5.043940   1.000000   1.000000
    3        5.887229      7.436001   1.000000   1.000001
    4        6.705322      8.401627   1.000000  -0.034578
    5        8.702699     10.576801  -0.000555  -0.000000
    6       13.498233     14.564596  -0.000000   0.000000
    7       18.947184     19.868812   0.000000   0.000000
    8       24.478233     25.017033   0.000000   0.000000
    9       27.688569     28.338233   0.000000   0.000000
   10       33.360463     33.749404   0.000000   0.000000
   11       41.166974     41.998189   0.000000   0.000000
   12       44.562508     45.006555   0.000000   0.000000
 
 -0.3500000E+00  0.4500000E+00  0.2500000E+00  0.2400000E-01
    1        3.035772      4.400493   1.000000   1.000000
    2        3.071842      4.715399   1.000000   1.000000
    3        6.107044      7.660205   1.000000   1.000905
    4        7.194950      8.879197   1.000000  -0.000003
    5        8.314087     10.151068   0.034988  -0.000000
    6       13.336995     14.433076  -0.000000   0.000000
    7       21.367693     22.152972   0.000000   0.000000
    8       22.084191     22.710143   0.000000   0.000000
    9       28.938825     29.559155   0.000000   0.000000
   10       30.995695     31.484434   0.000000   0.000000
   11       40.596859     41.403827   0.000000   0.000000
   12       45.712352     46.197474   0.000000   0.000000
 
 -0.4500000E+00 -0.4500000E+00  0.2500000E+00  0.2400000E-01
    1        2.818558      4.373142   1.000000   1.000000
    2        3.033904      4.562050   1.000000   1.000000