 vasp.5.4.4.18Apr17-6-g9f103f2a35 (build May 18 2018 14:42:58) complex          
  
 executed on             LinuxIFC date 2020.06.30  16:50:39
 running on    4 total cores
 distrk:  each k-point on    4 cores,    1 groups
 distr:  one band on NCORES_PER_BAND=   1 cores,    4 groups


--------------------------------------------------------------------------------------------------------


 INCAR:
 POTCAR:    PAW_PBE Fe 06Sep2000                  
 POTCAR:    PAW_PBE Fe 06Sep2000                  
   VRHFIN =Fe:  d7 s1                                                           
   LEXCH  = PE                                                                  
   EATOM  =   594.3153 eV,   43.6809 Ry                                         
                                                                                
   TITEL  = PAW_PBE Fe 06Sep2000                                                
   LULTRA =        F    use ultrasoft PP ?                                      
   IUNSCR =        1    unscreen: 0-lin 1-nonlin 2-no                           
   RPACOR =    2.000    partial core radius                                     
   POMASS =   55.847; ZVAL   =    8.000    mass and valenz                      
   RCORE  =    2.300    outmost cutoff radius                                   
   RWIGS  =    2.460; RWIGS  =    1.302    wigner-seitz radius (au A)           
   ENMAX  =  267.882; ENMIN  =  200.911 eV                                      
   RCLOC  =    1.701    cutoff for local pot                                    
   LCOR   =        T    correct aug charges                                     
   LPAW   =        T    paw PP                                                  
   EAUG   =  511.368                                                            
   DEXC   =    0.000                                                            
   RMAX   =    2.356    core radius for proj-oper                               
   RAUG   =    1.300    factor for augmentation sphere                          
   RDEP   =    2.442    radius for radial grids                                 
   RDEPT  =    1.890    core radius for aug-charge                              
                                                                                
   Atomic configuration                                                         
    9 entries                                                                   
     n  l   j            E        occ.                                          
     1  0  0.50     -6993.8440   2.0000                                         
     2  0  0.50      -814.6047   2.0000                                         
     2  1  1.50      -693.3689   6.0000                                         
     3  0  0.50       -89.4732   2.0000                                         
     3  1  1.50       -55.6373   6.0000                                         
     3  2  2.50        -3.8151   7.0000                                         
     4  0  0.50        -4.2551   1.0000                                         
     4  1  1.50        -3.4015   0.0000                                         
     4  3  2.50        -1.3606   0.0000                                         
   Description                                                                  
     l       E           TYP  RCUT    TYP  RCUT                                 
     2     -3.8151135     23  2.300                                             
     2     -5.1756961     23  2.300                                             
     0     -4.2550963     23  2.300                                             
     0      7.2035603     23  2.300                                             
     1     -2.7211652     23  2.300                                             
     1     18.4316424     23  2.300                                             
  local pseudopotential read in
  partial core-charges read in
  partial kinetic energy density read in
  atomic valenz-charges read in
  non local Contribution for L=           2  read in
    real space projection operators read in
  non local Contribution for L=           2  read in
    real space projection operators read in
  non local Contribution for L=           0  read in
    real space projection operators read in
  non local Contribution for L=           0  read in
    real space projection operators read in
  non local Contribution for L=           1  read in
    real space projection operators read in
  non local Contribution for L=           1  read in
    real space projection operators read in
    PAW grid and wavefunctions read in
 
   number of l-projection  operators is LMAX  =           6
   number of lm-projection operators is LMMAX =          18
 
  PAW_PBE Fe 06Sep2000                  :
 energy of atom  1       EATOM= -594.3153
 kinetic energy error for atom=    0.0345 (will be added to EATOM!!)
 
 
 POSCAR: BCC Fe Bulk                             
  positions in direct lattice
  No initial velocities read in
 exchange correlation table for  LEXCH =        8
   RHO(1)=    0.500       N(1)  =     2000
   RHO(2)=  100.500       N(2)  =     4000
 


--------------------------------------------------------------------------------------------------------


 ion  position               nearest neighbor table
   1  0.000  0.000  0.000-
 
  LATTYP: Found a body centered cubic cell.
 ALAT       =     2.6500000000
  
  Lattice vectors:
  
 A1 = (  -1.3250000000,   1.3250000000,   1.3250000000)
 A2 = (   1.3250000000,  -1.3250000000,   1.3250000000)
 A3 = (   1.3250000000,   1.3250000000,  -1.3250000000)


Analysis of symmetry for initial positions (statically):
=====================================================================
 Subroutine PRICEL returns:
 Original cell was already a primitive cell.
 

 Routine SETGRP: Setting up the symmetry group for a 
 body centered cubic supercell.


 Subroutine GETGRP returns: Found 48 space group operations
 (whereof 48 operations were pure point group operations)
 out of a pool of 48 trial point group operations.


The static configuration has the point symmetry O_h .


Analysis of symmetry for dynamics (positions and initial velocities):
=====================================================================
 Subroutine PRICEL returns:
 Original cell was already a primitive cell.
 

 Routine SETGRP: Setting up the symmetry group for a 
 body centered cubic supercell.


 Subroutine GETGRP returns: Found 48 space group operations
 (whereof 48 operations were pure point group operations)
 out of a pool of 48 trial point group operations.


The dynamic configuration has the point symmetry O_h .


Analysis of structural, dynamic, and magnetic symmetry:
=====================================================================
 Subroutine PRICEL returns:
 Original cell was already a primitive cell.
 

 Routine SETGRP: Setting up the symmetry group for a 
 body centered cubic supercell.


 Subroutine GETGRP returns: Found 48 space group operations
 (whereof 48 operations were pure point group operations)
 out of a pool of 48 trial point group operations.


The magnetic configuration has the point symmetry O_h .


 Subroutine INISYM returns: Found 48 space group operations
 (whereof 48 operations are pure point group operations),
 and found     1 'primitive' translations

 
 
 KPOINTS: 10x10x10                                

Automatic generation of k-mesh.
Space group operators:
 irot       det(A)        alpha          n_x          n_y          n_z        tau_x        tau_y        tau_z
    1     1.000000     0.000000     1.000000     0.000000     0.000000     0.000000     0.000000     0.000000
    2    -1.000000     0.000000     1.000000     0.000000     0.000000     0.000000     0.000000     0.000000
    3     1.000000   120.000000    -0.577350    -0.577350    -0.577350     0.000000     0.000000     0.000000
    4    -1.000000   120.000000    -0.577350    -0.577350    -0.577350     0.000000     0.000000     0.000000
    5     1.000000   120.000000     0.577350     0.577350     0.577350     0.000000     0.000000     0.000000
    6    -1.000000   120.000000     0.577350     0.577350     0.577350     0.000000     0.000000     0.000000
    7     1.000000    90.000000     0.000000     0.000000    -1.000000     0.000000     0.000000     0.000000
    8    -1.000000    90.000000     0.000000     0.000000    -1.000000     0.000000     0.000000     0.000000
    9     1.000000   180.000000     0.000000     0.707107     0.707107     0.000000     0.000000     0.000000
   10    -1.000000   180.000000     0.000000     0.707107     0.707107     0.000000     0.000000     0.000000
   11     1.000000    90.000000     0.000000     1.000000     0.000000     0.000000     0.000000     0.000000
   12    -1.000000    90.000000     0.000000     1.000000     0.000000     0.000000     0.000000     0.000000
   13     1.000000   180.000000     0.000000     0.000000     1.000000     0.000000     0.000000     0.000000
   14    -1.000000   180.000000     0.000000     0.000000     1.000000     0.000000     0.000000     0.000000
   15     1.000000   120.000000    -0.577350     0.577350     0.577350     0.000000     0.000000     0.000000
   16    -1.000000   120.000000    -0.577350     0.577350     0.577350     0.000000     0.000000     0.000000
   17     1.000000   120.000000    -0.577350     0.577350    -0.577350     0.000000     0.000000     0.000000
   18    -1.000000   120.000000    -0.577350     0.577350    -0.577350     0.000000     0.000000     0.000000
   19     1.000000    90.000000     0.000000     0.000000     1.000000     0.000000     0.000000     0.000000
   20    -1.000000    90.000000     0.000000     0.000000     1.000000     0.000000     0.000000     0.000000
   21     1.000000    90.000000    -1.000000     0.000000     0.000000     0.000000     0.000000     0.000000
   22    -1.000000    90.000000    -1.000000     0.000000     0.000000     0.000000     0.000000     0.000000
   23     1.000000   180.000000     0.707107     0.000000     0.707107     0.000000     0.000000     0.000000
   24    -1.000000   180.000000     0.707107     0.000000     0.707107     0.000000     0.000000     0.000000
   25     1.000000   120.000000     0.577350    -0.577350     0.577350     0.000000     0.000000     0.000000
   26    -1.000000   120.000000     0.577350    -0.577350     0.577350     0.000000     0.000000     0.000000
   27     1.000000   120.000000    -0.577350    -0.577350     0.577350     0.000000     0.000000     0.000000
   28    -1.000000   120.000000    -0.577350    -0.577350     0.577350     0.000000     0.000000     0.000000
   29     1.000000   180.000000     1.000000     0.000000     0.000000     0.000000     0.000000     0.000000
   30    -1.000000   180.000000     1.000000     0.000000     0.000000     0.000000     0.000000     0.000000
   31     1.000000    90.000000     0.000000    -1.000000     0.000000     0.000000     0.000000     0.000000
   32    -1.000000    90.000000     0.000000    -1.000000     0.000000     0.000000     0.000000     0.000000
   33     1.000000   180.000000     0.707107     0.707107     0.000000     0.000000     0.000000     0.000000
   34    -1.000000   180.000000     0.707107     0.707107     0.000000     0.000000     0.000000     0.000000
   35     1.000000    90.000000     1.000000     0.000000     0.000000     0.000000     0.000000     0.000000
   36    -1.000000    90.000000     1.000000     0.000000     0.000000     0.000000     0.000000     0.000000
   37     1.000000   120.000000     0.577350    -0.577350    -0.577350     0.000000     0.000000     0.000000
   38    -1.000000   120.000000     0.577350    -0.577350    -0.577350     0.000000     0.000000     0.000000
   39     1.000000   180.000000     0.000000     1.000000     0.000000     0.000000     0.000000     0.000000
   40    -1.000000   180.000000     0.000000     1.000000     0.000000     0.000000     0.000000     0.000000
   41     1.000000   120.000000     0.577350     0.577350    -0.577350     0.000000     0.000000     0.000000
   42    -1.000000   120.000000     0.577350     0.577350    -0.577350     0.000000     0.000000     0.000000
   43     1.000000   180.000000     0.000000    -0.707107     0.707107     0.000000     0.000000     0.000000
   44    -1.000000   180.000000     0.000000    -0.707107     0.707107     0.000000     0.000000     0.000000
   45     1.000000   180.000000     0.707107    -0.707107     0.000000     0.000000     0.000000     0.000000
   46    -1.000000   180.000000     0.707107    -0.707107     0.000000     0.000000     0.000000     0.000000
   47     1.000000   180.000000     0.707107     0.000000    -0.707107     0.000000     0.000000     0.000000
   48    -1.000000   180.000000     0.707107     0.000000    -0.707107     0.000000     0.000000     0.000000
 
 Subroutine IBZKPT returns following result:
 ===========================================
 
 Found     44 irreducible k-points:
 
 Following reciprocal coordinates:
            Coordinates               Weight
  0.050000  0.050000  0.050000      8.000000
  0.150000  0.050000  0.050000     24.000000
  0.250000  0.050000  0.050000     24.000000
  0.350000  0.050000  0.050000     24.000000
  0.450000  0.050000  0.050000     12.000000
 -0.050000  0.050000  0.050000      6.000000
  0.150000  0.150000  0.050000     24.000000
  0.250000  0.150000  0.050000     48.000000
  0.350000  0.150000  0.050000     48.000000
 -0.150000  0.150000  0.050000     24.000000
  0.250000  0.250000  0.050000     24.000000
  0.350000  0.250000  0.050000     24.000000
 -0.250000  0.250000  0.050000     24.000000
 -0.150000  0.250000  0.050000     24.000000
 -0.350000  0.350000  0.050000     24.000000
 -0.250000  0.350000  0.050000     48.000000
 -0.450000  0.450000  0.050000     24.000000
 -0.350000  0.450000  0.050000     48.000000
 -0.250000  0.450000  0.050000     24.000000
 -0.450000 -0.450000  0.050000     24.000000
 -0.350000 -0.450000  0.050000     48.000000
 -0.350000 -0.350000  0.050000      8.000000
  0.150000  0.150000  0.150000      8.000000
  0.250000  0.150000  0.150000     24.000000
  0.350000  0.150000  0.150000     12.000000
 -0.150000  0.150000  0.150000      6.000000
  0.250000  0.250000  0.150000     24.000000
 -0.250000  0.250000  0.150000     24.000000
 -0.350000  0.350000  0.150000     24.000000
 -0.250000  0.350000  0.150000     24.000000
 -0.450000  0.450000  0.150000     24.000000
 -0.350000  0.450000  0.150000     48.000000
 -0.450000 -0.450000  0.150000     24.000000
 -0.350000 -0.450000  0.150000     24.000000
  0.250000  0.250000  0.250000      2.000000
 -0.250000  0.250000  0.250000      6.000000
 -0.350000  0.350000  0.250000     24.000000
 -0.450000  0.450000  0.250000     24.000000
 -0.350000  0.450000  0.250000     24.000000
 -0.450000 -0.450000  0.250000     24.000000
 -0.350000  0.350000  0.350000      6.000000
 -0.450000  0.450000  0.350000     24.000000
 -0.450000 -0.450000  0.350000      8.000000
 -0.450000  0.450000  0.450000      6.000000
 
 Following cartesian coordinates:
            Coordinates               Weight
  0.100000  0.100000  0.100000      8.000000
  0.100000  0.200000  0.200000     24.000000
  0.100000  0.300000  0.300000     24.000000
  0.100000  0.400000  0.400000     24.000000
  0.100000  0.500000  0.500000     12.000000
  0.100000  0.000000  0.000000      6.000000
  0.200000  0.200000  0.300000     24.000000
  0.200000  0.300000  0.400000     48.000000
  0.200000  0.400000  0.500000     48.000000
  0.200000 -0.100000  0.000000     24.000000
  0.300000  0.300000  0.500000     24.000000
  0.300000  0.400000  0.600000     24.000000
  0.300000 -0.200000  0.000000     24.000000
  0.300000 -0.100000  0.100000     24.000000
  0.400000 -0.300000  0.000000     24.000000
  0.400000 -0.200000  0.100000     48.000000
  0.500000 -0.400000  0.000000     24.000000
  0.500000 -0.300000  0.100000     48.000000
  0.500000 -0.200000  0.200000     24.000000
 -0.400000 -0.400000 -0.900000     24.000000
 -0.400000 -0.300000 -0.800000     48.000000
 -0.300000 -0.300000 -0.700000      8.000000
  0.300000  0.300000  0.300000      8.000000
  0.300000  0.400000  0.400000     24.000000
  0.300000  0.500000  0.500000     12.000000
  0.300000  0.000000  0.000000      6.000000
  0.400000  0.400000  0.500000     24.000000
  0.400000 -0.100000  0.000000     24.000000
  0.500000 -0.200000  0.000000     24.000000
  0.500000 -0.100000  0.100000     24.000000
  0.600000 -0.300000  0.000000     24.000000
  0.600000 -0.200000  0.100000     48.000000
 -0.300000 -0.300000 -0.900000     24.000000
 -0.300000 -0.200000 -0.800000     24.000000
  0.500000  0.500000  0.500000      2.000000
  0.500000  0.000000  0.000000      6.000000
  0.600000 -0.100000  0.000000     24.000000
  0.700000 -0.200000  0.000000     24.000000
  0.700000 -0.100000  0.100000     24.000000
 -0.200000 -0.200000 -0.900000     24.000000
  0.700000  0.000000  0.000000      6.000000
  0.800000 -0.100000  0.000000     24.000000
 -0.100000 -0.100000 -0.900000      8.000000
  0.900000  0.000000  0.000000      6.000000
 


--------------------------------------------------------------------------------------------------------




 Dimension of arrays:
   k-points           NKPTS =     44   k-points in BZ     NKDIM =     44   number of bands    NBANDS=     12
   number of dos      NEDOS =    301   number of ions     NIONS =      1
   non local maximal  LDIM  =      6   non local SUM 2l+1 LMDIM =     18
   total plane-waves  NPLWV =   1000
   max r-space proj   IRMAX =      1   max aug-charges    IRDMAX=   4027
   dimension x,y,z NGX =    10 NGY =   10 NGZ =   10
   dimension x,y,z NGXF=    20 NGYF=   20 NGZF=   20
   support grid    NGXF=    20 NGYF=   20 NGZF=   20
   ions per type =               1
   NGX,Y,Z   is equivalent  to a cutoff of   7.24,  7.24,  7.24 a.u.
   NGXF,Y,Z  is equivalent  to a cutoff of  14.49, 14.49, 14.49 a.u.

 SYSTEM =  bcc Fe                                  
 POSCAR =  BCC Fe Bulk                             

 Startparameter for this run:
   NWRITE =      2    write-flag & timer
   PREC   = normal    normal or accurate (medium, high low for compatibility)
   ISTART =      0    job   : 0-new  1-cont  2-samecut
   ICHARG =      2    charge: 1-file 2-atom 10-const
   ISPIN  =      2    spin polarized calculation?
   LNONCOLLINEAR =      F non collinear calculations
   LSORBIT =      F    spin-orbit coupling
   INIWAV =      1    electr: 0-lowe 1-rand  2-diag
   LASPH  =      F    aspherical Exc in radial PAW
   METAGGA=      F    non-selfconsistent MetaGGA calc.

 Electronic Relaxation 1
   ENCUT  =  268.0 eV  19.70 Ry    4.44 a.u.   3.06  3.06  3.06*2*pi/ulx,y,z
   ENINI  =  268.0     initial cutoff
   ENAUG  =  511.4 eV  augmentation charge cutoff
   NELM   =     60;   NELMIN=  2; NELMDL= -5     # of ELM steps 
   EDIFF  = 0.1E-03   stopping-criterion for ELM
   LREAL  =      F    real-space projection
   NLSPLINE    = F    spline interpolate recip. space projectors
   LCOMPAT=      F    compatible to vasp.4.4
   GGA_COMPAT  = T    GGA compatible to vasp.4.4-vasp.4.6
   LMAXPAW     = -100 max onsite density
   LMAXMIX     =    2 max onsite mixed and CHGCAR
   VOSKOWN=      0    Vosko Wilk Nusair interpolation
   ROPT   =    0.00000
 Ionic relaxation
   EDIFFG = 0.1E-02   stopping-criterion for IOM
   NSW    =      0    number of steps for IOM
   NBLOCK =      1;   KBLOCK =      1    inner block; outer block 
   IBRION =     -1    ionic relax: 0-MD 1-quasi-New 2-CG
   NFREE  =      0    steps in history (QN), initial steepest desc. (CG)
   ISIF   =      2    stress and relaxation
   IWAVPR =     10    prediction:  0-non 1-charg 2-wave 3-comb
   ISYM   =      2    0-nonsym 1-usesym 2-fastsym
   LCORR  =      T    Harris-Foulkes like correction to forces

   POTIM  = 0.5000    time-step for ionic-motion
   TEIN   =    0.0    initial temperature
   TEBEG  =    0.0;   TEEND  =   0.0 temperature during run
   SMASS  =  -3.00    Nose mass-parameter (am)
   estimated Nose-frequenzy (Omega)   =  0.10E-29 period in steps =****** mass=  -0.120E-27a.u.
   SCALEE = 1.0000    scale energy and forces
   NPACO  =    256;   APACO  = 16.0  distance and # of slots for P.C.
   PSTRESS=    0.0 pullay stress

  Mass of Ions in am
   POMASS =  55.85
  Ionic Valenz
   ZVAL   =   8.00
  Atomic Wigner-Seitz radii
   RWIGS  =   1.30
  virtual crystal weights 
   VCA    =   1.00
   NELECT =       8.0000    total number of electrons
   NUPDOWN=      -1.0000    fix difference up-down

 DOS related values:
   EMIN   =  10.00;   EMAX   =-10.00  energy-range for DOS
   EFERMI =   0.00
   ISMEAR =     1;   SIGMA  =   0.20  broadening in eV -4-tet -1-fermi 0-gaus

 Electronic relaxation 2 (details)
   IALGO  =     38    algorithm
   LDIAG  =      T    sub-space diagonalisation (order eigenvalues)
   LSUBROT=      F    optimize rotation matrix (better conditioning)
   TURBO    =      0    0=normal 1=particle mesh
   IRESTART =      0    0=no restart 2=restart with 2 vectors
   NREBOOT  =      0    no. of reboots
   NMIN     =      0    reboot dimension
   EREF     =   0.00    reference energy to select bands
   IMIX   =      4    mixing-type and parameters
     AMIX     =   0.40;   BMIX     =  1.00
     AMIX_MAG =   1.60;   BMIX_MAG =  1.00
     AMIN     =   0.10
     WC   =   100.;   INIMIX=   1;  MIXPRE=   1;  MAXMIX= -45

 Intra band minimization:
   WEIMIN = 0.0000     energy-eigenvalue tresh-hold
   EBREAK =  0.21E-05  absolut break condition
   DEPER  =   0.30     relativ break condition  

   TIME   =   0.40     timestep for ELM

  volume/ion in A,a.u.               =       9.30        62.79
  Fermi-wavevector in a.u.,A,eV,Ry     =   1.556691  2.941719 32.970800  2.423285
  Thomas-Fermi vector in A             =   2.660450
 
 Write flags
   LWAVE        =      T    write WAVECAR
   LDOWNSAMPLE  =      F    k-point downsampling of WAVECAR
   LCHARG       =      T    write CHGCAR
   LVTOT        =      F    write LOCPOT, total local potential
   LVHAR        =      F    write LOCPOT, Hartree potential only
   LELF         =      F    write electronic localiz. function (ELF)
   LORBIT       =      0    0 simple, 1 ext, 2 COOP (PROOUT), +10 PAW based schemes


 Dipole corrections
   LMONO  =      F    monopole corrections only (constant potential shift)
   LDIPOL =      F    correct potential (dipole corrections)
   IDIPOL =      0    1-x, 2-y, 3-z, 4-all directions 
   EPSILON=  1.0000000 bulk dielectric constant

 Exchange correlation treatment:
   GGA     =    --    GGA type
   LEXCH   =     8    internal setting for exchange type
   VOSKOWN=      0    Vosko Wilk Nusair interpolation
   LHFCALC =     F    Hartree Fock is set to
   LHFONE  =     F    Hartree Fock one center treatment
   AEXX    =    0.0000 exact exchange contribution

 Linear response parameters
   LEPSILON=     F    determine dielectric tensor
   LRPA    =     F    only Hartree local field effects (RPA)
   LNABLA  =     F    use nabla operator in PAW spheres
   LVEL    =     F    velocity operator in full k-point grid
   LINTERFAST=   F  fast interpolation
   KINTER  =     0    interpolate to denser k-point grid
   CSHIFT  =0.1000    complex shift for real part using Kramers Kronig
   OMEGAMAX=  -1.0    maximum frequency
   DEG_THRESHOLD= 0.2000000E-02 threshold for treating states as degnerate
   RTIME   =   -0.100 relaxation time in fs
  (WPLASMAI=    0.000 imaginary part of plasma frequency in eV, 0.658/RTIME)
   DFIELD  = 0.0000000 0.0000000 0.0000000 field for delta impulse in time
 
 Orbital magnetization related:
   ORBITALMAG=     F  switch on orbital magnetization
   LCHIMAG   =     F  perturbation theory with respect to B field
   DQ        =  0.001000  dq finite difference perturbation B field
   LLRAUG    =     F  two centre corrections for induced B field



--------------------------------------------------------------------------------------------------------


 Static calculation
 charge density and potential will be updated during run
 spin polarized calculation
 Variant of blocked Davidson
 Davidson routine will perform the subspace rotation
 perform sub-space diagonalisation
    after iterative eigenvector-optimisation
 modified Broyden-mixing scheme, WC =      100.0
 initial mixing is a Kerker type mixing with AMIX =  0.4000 and BMIX =      1.0000
 Hartree-type preconditioning will be used
 using additional bands            8
 reciprocal scheme for non local part
 use partial core corrections
 calculate Harris-corrections to forces 
   (improved forces if not selfconsistent)
 use gradient corrections 
 use of overlap-Matrix (Vanderbilt PP)
 Methfessel and Paxton  Order N= 1 SIGMA  =   0.20


--------------------------------------------------------------------------------------------------------


  energy-cutoff  :      268.00
  volume of cell :        9.30
      direct lattice vectors                 reciprocal lattice vectors
    -1.325000000  1.325000000  1.325000000     0.000000000  0.377358491  0.377358491
     1.325000000 -1.325000000  1.325000000     0.377358491  0.000000000  0.377358491
     1.325000000  1.325000000 -1.325000000     0.377358491  0.377358491  0.000000000

  length of vectors
     2.294967320  2.294967320  2.294967320     0.533665495  0.533665495  0.533665495


 
 k-points in units of 2pi/SCALE and weight: 10x10x10                                
   0.10000000  0.10000000  0.10000000       0.008
   0.10000000  0.20000000  0.20000000       0.024
   0.10000000  0.30000000  0.30000000       0.024
   0.10000000  0.40000000  0.40000000       0.024
   0.10000000  0.50000000  0.50000000       0.012
   0.10000000  0.00000000  0.00000000       0.006
   0.20000000  0.20000000  0.30000000       0.024
   0.20000000  0.30000000  0.40000000       0.048
   0.20000000  0.40000000  0.50000000       0.048
   0.20000000 -0.10000000  0.00000000       0.024
   0.30000000  0.30000000  0.50000000       0.024
   0.30000000  0.40000000  0.60000000       0.024
   0.30000000 -0.20000000  0.00000000       0.024
   0.30000000 -0.10000000  0.10000000       0.024
   0.40000000 -0.30000000  0.00000000       0.024
   0.40000000 -0.20000000  0.10000000       0.048
   0.50000000 -0.40000000  0.00000000       0.024
   0.50000000 -0.30000000  0.10000000       0.048
   0.50000000 -0.20000000  0.20000000       0.024
  -0.40000000 -0.40000000 -0.90000000       0.024
  -0.40000000 -0.30000000 -0.80000000       0.048
  -0.30000000 -0.30000000 -0.70000000       0.008
   0.30000000  0.30000000  0.30000000       0.008
   0.30000000  0.40000000  0.40000000       0.024
   0.30000000  0.50000000  0.50000000       0.012
   0.30000000  0.00000000  0.00000000       0.006
   0.40000000  0.40000000  0.50000000       0.024
   0.40000000 -0.10000000  0.00000000       0.024
   0.50000000 -0.20000000  0.00000000       0.024
   0.50000000 -0.10000000  0.10000000       0.024
   0.60000000 -0.30000000  0.00000000       0.024
   0.60000000 -0.20000000  0.10000000       0.048
  -0.30000000 -0.30000000 -0.90000000       0.024
  -0.30000000 -0.20000000 -0.80000000       0.024
   0.50000000  0.50000000  0.50000000       0.002
   0.50000000  0.00000000  0.00000000       0.006
   0.60000000 -0.10000000  0.00000000       0.024
   0.70000000 -0.20000000  0.00000000       0.024
   0.70000000 -0.10000000  0.10000000       0.024
  -0.20000000 -0.20000000 -0.90000000       0.024
   0.70000000  0.00000000  0.00000000       0.006
   0.80000000 -0.10000000  0.00000000       0.024
  -0.10000000 -0.10000000 -0.90000000       0.008
   0.90000000  0.00000000  0.00000000       0.006
 
 k-points in reciprocal lattice and weights: 10x10x10                                
   0.05000000  0.05000000  0.05000000       0.008
   0.15000000  0.05000000  0.05000000       0.024
   0.25000000  0.05000000  0.05000000       0.024
   0.35000000  0.05000000  0.05000000       0.024
   0.45000000  0.05000000  0.05000000       0.012
  -0.05000000  0.05000000  0.05000000       0.006
   0.15000000  0.15000000  0.05000000       0.024
   0.25000000  0.15000000  0.05000000       0.048
   0.35000000  0.15000000  0.05000000       0.048
  -0.15000000  0.15000000  0.05000000       0.024
   0.25000000  0.25000000  0.05000000       0.024
   0.35000000  0.25000000  0.05000000       0.024
  -0.25000000  0.25000000  0.05000000       0.024
  -0.15000000  0.25000000  0.05000000       0.024
  -0.35000000  0.35000000  0.05000000       0.024
  -0.25000000  0.35000000  0.05000000       0.048
  -0.45000000  0.45000000  0.05000000       0.024
  -0.35000000  0.45000000  0.05000000       0.048
  -0.25000000  0.45000000  0.05000000       0.024
  -0.45000000 -0.45000000  0.05000000       0.024
  -0.35000000 -0.45000000  0.05000000       0.048
  -0.35000000 -0.35000000  0.05000000       0.008
   0.15000000  0.15000000  0.15000000       0.008
   0.25000000  0.15000000  0.15000000       0.024
   0.35000000  0.15000000  0.15000000       0.012
  -0.15000000  0.15000000  0.15000000       0.006
   0.25000000  0.25000000  0.15000000       0.024
  -0.25000000  0.25000000  0.15000000       0.024
  -0.35000000  0.35000000  0.15000000       0.024
  -0.25000000  0.35000000  0.15000000       0.024
  -0.45000000  0.45000000  0.15000000       0.024
  -0.35000000  0.45000000  0.15000000       0.048
  -0.45000000 -0.45000000  0.15000000       0.024
  -0.35000000 -0.45000000  0.15000000       0.024
   0.25000000  0.25000000  0.25000000       0.002
  -0.25000000  0.25000000  0.25000000       0.006
  -0.35000000  0.35000000  0.25000000       0.024
  -0.45000000  0.45000000  0.25000000       0.024
  -0.35000000  0.45000000  0.25000000       0.024
  -0.45000000 -0.45000000  0.25000000       0.024
  -0.35000000  0.35000000  0.35000000       0.006
  -0.45000000  0.45000000  0.35000000       0.024
  -0.45000000 -0.45000000  0.35000000       0.008
  -0.45000000  0.45000000  0.45000000       0.006
 
 position of ions in fractional coordinates (direct lattice) 
   0.00000000  0.00000000  0.00000000
 
 position of ions in cartesian coordinates  (Angst):
   0.00000000  0.00000000  0.00000000
 


--------------------------------------------------------------------------------------------------------


 k-point  1 :   0.0500 0.0500 0.0500  plane waves:      86
 k-point  2 :   0.1500 0.0500 0.0500  plane waves:      93
 k-point  3 :   0.2500 0.0500 0.0500  plane waves:      91
 k-point  4 :   0.3500 0.0500 0.0500  plane waves:      89
 k-point  5 :   0.4500 0.0500 0.0500  plane waves:      94
 k-point  6 :  -0.0500 0.0500 0.0500  plane waves:      87
 k-point  7 :   0.1500 0.1500 0.0500  plane waves:      93
 k-point  8 :   0.2500 0.1500 0.0500  plane waves:      93
 k-point  9 :   0.3500 0.1500 0.0500  plane waves:      90
 k-point 10 :  -0.1500 0.1500 0.0500  plane waves:      87
 k-point 11 :   0.2500 0.2500 0.0500  plane waves:      90
 k-point 12 :   0.3500 0.2500 0.0500  plane waves:      91
 k-point 13 :  -0.2500 0.2500 0.0500  plane waves:      91
 k-point 14 :  -0.1500 0.2500 0.0500  plane waves:      96
 k-point 15 :  -0.3500 0.3500 0.0500  plane waves:      93
 k-point 16 :  -0.2500 0.3500 0.0500  plane waves:      93
 k-point 17 :  -0.4500 0.4500 0.0500  plane waves:      91
 k-point 18 :  -0.3500 0.4500 0.0500  plane waves:      94
 k-point 19 :  -0.2500 0.4500 0.0500  plane waves:      90
 k-point 20 :  -0.4500-0.4500 0.0500  plane waves:      92
 k-point 21 :  -0.3500-0.4500 0.0500  plane waves:      92
 k-point 22 :  -0.3500-0.3500 0.0500  plane waves:      89
 k-point 23 :   0.1500 0.1500 0.1500  plane waves:      89
 k-point 24 :   0.2500 0.1500 0.1500  plane waves:      91
 k-point 25 :   0.3500 0.1500 0.1500  plane waves:      86
 k-point 26 :  -0.1500 0.1500 0.1500  plane waves:      91
 k-point 27 :   0.2500 0.2500 0.1500  plane waves:      89
 k-point 28 :  -0.2500 0.2500 0.1500  plane waves:      92
 k-point 29 :  -0.3500 0.3500 0.1500  plane waves:      96
 k-point 30 :  -0.2500 0.3500 0.1500  plane waves:      94
 k-point 31 :  -0.4500 0.4500 0.1500  plane waves:      95
 k-point 32 :  -0.3500 0.4500 0.1500  plane waves:      95
 k-point 33 :  -0.4500-0.4500 0.1500  plane waves:      93
 k-point 34 :  -0.3500-0.4500 0.1500  plane waves:      93
 k-point 35 :   0.2500 0.2500 0.2500  plane waves:      80
 k-point 36 :  -0.2500 0.2500 0.2500  plane waves:      96
 k-point 37 :  -0.3500 0.3500 0.2500  plane waves:      94
 k-point 38 :  -0.4500 0.4500 0.2500  plane waves:      97
 k-point 39 :  -0.3500 0.4500 0.2500  plane waves:      99
 k-point 40 :  -0.4500-0.4500 0.2500  plane waves:      98
 k-point 41 :  -0.3500 0.3500 0.3500  plane waves:      96
 k-point 42 :  -0.4500 0.4500 0.3500  plane waves:     101
 k-point 43 :  -0.4500-0.4500 0.3500  plane waves:      98
 k-point 44 :  -0.4500 0.4500 0.4500  plane waves:      96

 maximum and minimum number of plane-waves per node :       101       80

 maximum number of plane-waves:       101
 maximum index in each direction: 
   IXMAX=    3   IYMAX=    3   IZMAX=    3
   IXMIN=   -3   IYMIN=   -3   IZMIN=   -3


 serial   3D FFT for wavefunctions
 parallel 3D FFT for charge:
    minimum data exchange during FFTs selected (reduces bandwidth)


 total amount of memory used by VASP MPI-rank0    31676. kBytes
=======================================================================

   base      :      30000. kBytes
   nonl-proj :        660. kBytes
   fftplans  :        142. kBytes
   grid      :        320. kBytes
   one-center:         31. kBytes
   wavefun   :        523. kBytes
 
     INWAV:  cpu time    0.0001: real time    0.0002
 Broyden mixing: mesh for mixing (old mesh)
   NGX =  7   NGY =  7   NGZ =  7
  (NGX  = 20   NGY  = 20   NGZ  = 20)
  gives a total of    343 points

 initial charge density was supplied:
 charge density of overlapping atoms calculated
 number of electron       8.0000000 magnetization       3.0000000
 keeping initial charge density in first step


--------------------------------------------------------------------------------------------------------


 Maximum index for augmentation-charges          937 (set IRDMAX)


--------------------------------------------------------------------------------------------------------


 First call to EWALD:  gamma=   0.843
 Maximum number of real-space cells 3x 3x 3
 Maximum number of reciprocal cells 3x 3x 3

    FEWALD:  cpu time    0.0014: real time    0.0014


--------------------------------------- Iteration      1(   1)  ---------------------------------------


    POTLOK:  cpu time    0.0046: real time    0.0076
    SETDIJ:  cpu time    0.0055: real time    0.0055
     EDDAV:  cpu time    0.3112: real time    0.3246
       DOS:  cpu time    0.0013: real time    0.0013
    --------------------------------------------
      LOOP:  cpu time    0.3226: real time    0.3391

 eigenvalue-minimisations  :  2408
 total energy-change (2. order) : 0.1027419E+02  (-0.2662200E+03)
 number of electron       8.0000000 magnetization       3.0000000
 augmentation part        8.0000000 magnetization       3.0000000

 Free energy of the ion-electron system (eV)
  ---------------------------------------------------
  alpha Z        PSCENC =        74.27745159
  Ewald energy   TEWEN  =      -632.80527839
  -Hartree energ DENC   =       -96.60716591
  -exchange      EXHF   =         0.00000000
  -V(xc)+E(xc)   XCENC  =         5.72479354
  PAW double counting   =       553.75926685     -561.48528711
  entropy T*S    EENTRO =        -0.00089413
  eigenvalues    EBANDS =        73.13046287
  atomic energy  EATOM  =       594.28084496
  Solvation  Ediel_sol  =         0.00000000
  ---------------------------------------------------
  free energy    TOTEN  =        10.27419428 eV

  energy without entropy =       10.27508841  energy(sigma->0) =       10.27449232


--------------------------------------------------------------------------------------------------------




--------------------------------------- Iteration      1(   2)  ---------------------------------------


     EDDAV:  cpu time    0.2905: real time    0.2952
       DOS:  cpu time    0.0011: real time    0.0011
    --------------------------------------------
      LOOP:  cpu time    0.2917: real time    0.2964

 eigenvalue-minimisations  :  2260
 total energy-change (2. order) :-0.1863558E+02  (-0.1745469E+02)
 number of electron       8.0000000 magnetization       3.0000000
 augmentation part        8.0000000 magnetization       3.0000000

 Free energy of the ion-electron system (eV)
  ---------------------------------------------------
  alpha Z        PSCENC =        74.27745159
  Ewald energy   TEWEN  =      -632.80527839
  -Hartree energ DENC   =       -96.60716591
  -exchange      EXHF   =         0.00000000
  -V(xc)+E(xc)   XCENC  =         5.72479354
  PAW double counting   =       553.75926685     -561.48528711
  entropy T*S    EENTRO =         0.00032558
  eigenvalues    EBANDS =        54.49366079
  atomic energy  EATOM  =       594.28084496
  Solvation  Ediel_sol  =         0.00000000
  ---------------------------------------------------
  free energy    TOTEN  =        -8.36138809 eV

  energy without entropy =       -8.36171367  energy(sigma->0) =       -8.36149661


--------------------------------------------------------------------------------------------------------




--------------------------------------- Iteration      1(   3)  ---------------------------------------


     EDDAV:  cpu time    0.2031: real time    0.2140
       DOS:  cpu time    0.0013: real time    0.0013
    --------------------------------------------
      LOOP:  cpu time    0.2044: real time    0.2153

 eigenvalue-minimisations  :  2444
 total energy-change (2. order) :-0.2422091E+00  (-0.2418384E+00)
 number of electron       8.0000000 magnetization       3.0000000
 augmentation part        8.0000000 magnetization       3.0000000

 Free energy of the ion-electron system (eV)
  ---------------------------------------------------
  alpha Z        PSCENC =        74.27745159
  Ewald energy   TEWEN  =      -632.80527839
  -Hartree energ DENC   =       -96.60716591
  -exchange      EXHF   =         0.00000000
  -V(xc)+E(xc)   XCENC  =         5.72479354
  PAW double counting   =       553.75926685     -561.48528711
  entropy T*S    EENTRO =        -0.00059868
  eigenvalues    EBANDS =        54.25237597
  atomic energy  EATOM  =       594.28084496
  Solvation  Ediel_sol  =         0.00000000
  ---------------------------------------------------
  free energy    TOTEN  =        -8.60359718 eV

  energy without entropy =       -8.60299850  energy(sigma->0) =       -8.60339762


--------------------------------------------------------------------------------------------------------




--------------------------------------- Iteration      1(   4)  ---------------------------------------


     EDDAV:  cpu time    0.1947: real time    0.2018
       DOS:  cpu time    0.0014: real time    0.0014
    --------------------------------------------
      LOOP:  cpu time    0.1961: real time    0.2032

 eigenvalue-minimisations  :  2396
 total energy-change (2. order) :-0.5242125E-03  (-0.5241907E-03)
 number of electron       8.0000000 magnetization       3.0000000
 augmentation part        8.0000000 magnetization       3.0000000

 Free energy of the ion-electron system (eV)
  ---------------------------------------------------
  alpha Z        PSCENC =        74.27745159
  Ewald energy   TEWEN  =      -632.80527839
  -Hartree energ DENC   =       -96.60716591
  -exchange      EXHF   =         0.00000000
  -V(xc)+E(xc)   XCENC  =         5.72479354
  PAW double counting   =       553.75926685     -561.48528711
  entropy T*S    EENTRO =        -0.00060181
  eigenvalues    EBANDS =        54.25185488
  atomic energy  EATOM  =       594.28084496
  Solvation  Ediel_sol  =         0.00000000
  ---------------------------------------------------
  free energy    TOTEN  =        -8.60412139 eV

  energy without entropy =       -8.60351958  energy(sigma->0) =       -8.60392079


--------------------------------------------------------------------------------------------------------




--------------------------------------- Iteration      1(   5)  ---------------------------------------


     EDDAV:  cpu time    0.1782: real time    0.1884
       DOS:  cpu time    0.0014: real time    0.0013
    CHARGE:  cpu time    0.0033: real time    0.0034
    MIXING:  cpu time    0.0003: real time    0.0003
    --------------------------------------------
      LOOP:  cpu time    0.1831: real time    0.1934

 eigenvalue-minimisations  :  1916
 total energy-change (2. order) :-0.1856664E-05  (-0.1856586E-05)
 number of electron       7.9999875 magnetization       1.4563104
 augmentation part        3.6912985 magnetization       0.9230439

 Broyden mixing:
  rms(total) = 0.14825E+01    rms(broyden)= 0.14822E+01
  rms(prec ) = 0.34158E+01
  weight for this iteration     100.00

 Free energy of the ion-electron system (eV)
  ---------------------------------------------------
  alpha Z        PSCENC =        74.27745159
  Ewald energy   TEWEN  =      -632.80527839
  -Hartree energ DENC   =       -96.60716591
  -exchange      EXHF   =         0.00000000
  -V(xc)+E(xc)   XCENC  =         5.72479354
  PAW double counting   =       553.75926685     -561.48528711
  entropy T*S    EENTRO =        -0.00060182
  eigenvalues    EBANDS =        54.25185304
  atomic energy  EATOM  =       594.28084496
  Solvation  Ediel_sol  =         0.00000000
  ---------------------------------------------------
  free energy    TOTEN  =        -8.60412324 eV

  energy without entropy =       -8.60352143  energy(sigma->0) =       -8.60392264


--------------------------------------------------------------------------------------------------------




--------------------------------------- Iteration      1(   6)  ---------------------------------------


    POTLOK:  cpu time    0.0040: real time    0.0042
    SETDIJ:  cpu time    0.0051: real time    0.0051
     EDDAV:  cpu time    0.1949: real time    0.2008
       DOS:  cpu time    0.0012: real time    0.0012
    CHARGE:  cpu time    0.0036: real time    0.0037
    MIXING:  cpu time    0.0007: real time    0.0006
    --------------------------------------------
      LOOP:  cpu time    0.2096: real time    0.2157

 eigenvalue-minimisations  :  2392
 total energy-change (2. order) : 0.6629121E+00  (-0.6265504E+00)
 number of electron       7.9999859 magnetization       1.8867521
 augmentation part        4.1502832 magnetization       1.5985281

 Broyden mixing:
  rms(total) = 0.36417E+00    rms(broyden)= 0.36398E+00
  rms(prec ) = 0.39588E+00
  weight for this iteration     100.00

 eigenvalues of (default mixing * dielectric matrix)
  average eigenvalue GAMMA=   0.9937
  0.9937

 Free energy of the ion-electron system (eV)
  ---------------------------------------------------
  alpha Z        PSCENC =        74.27745159
  Ewald energy   TEWEN  =      -632.80527839
  -Hartree energ DENC   =       -82.65822590
  -exchange      EXHF   =         0.00000000
  -V(xc)+E(xc)   XCENC  =         4.44474925
  PAW double counting   =       664.98012833     -671.52183802
  entropy T*S    EENTRO =        -0.00262173
  eigenvalues    EBANDS =        41.06357877
  atomic energy  EATOM  =       594.28084496
  Solvation  Ediel_sol  =         0.00000000
  ---------------------------------------------------
  free energy    TOTEN  =        -7.94121114 eV

  energy without entropy =       -7.93858941  energy(sigma->0) =       -7.94033723


--------------------------------------------------------------------------------------------------------




--------------------------------------- Iteration      1(   7)  ---------------------------------------


    POTLOK:  cpu time    0.0046: real time    0.0049
    SETDIJ:  cpu time    0.0052: real time    0.0053
     EDDAV:  cpu time    0.2015: real time    0.2083
       DOS:  cpu time    0.0013: real time    0.0014
    CHARGE:  cpu time    0.0032: real time    0.0033
    MIXING:  cpu time    0.0005: real time    0.0005
    --------------------------------------------
      LOOP:  cpu time    0.2163: real time    0.2235

 eigenvalue-minimisations  :  2412
 total energy-change (2. order) : 0.1183806E-01  (-0.5858778E-02)
 number of electron       7.9999860 magnetization       1.8739467
 augmentation part        4.1170046 magnetization       1.5427447

 Broyden mixing:
  rms(total) = 0.23534E+00    rms(broyden)= 0.23534E+00
  rms(prec ) = 0.31128E+00
  weight for this iteration     100.00

 eigenvalues of (default mixing * dielectric matrix)
  average eigenvalue GAMMA=   1.0489
  1.3511  0.7467

 Free energy of the ion-electron system (eV)
  ---------------------------------------------------
  alpha Z        PSCENC =        74.27745159
  Ewald energy   TEWEN  =      -632.80527839
  -Hartree energ DENC   =       -82.27674321
  -exchange      EXHF   =         0.00000000
  -V(xc)+E(xc)   XCENC  =         4.66727488
  PAW double counting   =       729.80956850     -737.93840916
  entropy T*S    EENTRO =        -0.00003620
  eigenvalues    EBANDS =        42.05595396
  atomic energy  EATOM  =       594.28084496
  Solvation  Ediel_sol  =         0.00000000
  ---------------------------------------------------
  free energy    TOTEN  =        -7.92937307 eV

  energy without entropy =       -7.92933687  energy(sigma->0) =       -7.92936101


--------------------------------------------------------------------------------------------------------




--------------------------------------- Iteration      1(   8)  ---------------------------------------


    POTLOK:  cpu time    0.0042: real time    0.0042
    SETDIJ:  cpu time    0.0050: real time    0.0051
     EDDAV:  cpu time    0.1952: real time    0.2010
       DOS:  cpu time    0.0013: real time    0.0013
    CHARGE:  cpu time    0.0037: real time    0.0036
    MIXING:  cpu time    0.0004: real time    0.0005
    --------------------------------------------
      LOOP:  cpu time    0.2097: real time    0.2158

 eigenvalue-minimisations  :  2496
 total energy-change (2. order) : 0.1415026E-01  (-0.9125162E-03)
 number of electron       7.9999860 magnetization       1.8813350
 augmentation part        4.1199404 magnetization       1.5577760

 Broyden mixing:
  rms(total) = 0.11554E+00    rms(broyden)= 0.11554E+00
  rms(prec ) = 0.15035E+00
  weight for this iteration     100.00

 eigenvalues of (default mixing * dielectric matrix)
  average eigenvalue GAMMA=   1.2696
  2.2497  0.7795  0.7795

 Free energy of the ion-electron system (eV)
  ---------------------------------------------------
  alpha Z        PSCENC =        74.27745159
  Ewald energy   TEWEN  =      -632.80527839
  -Hartree energ DENC   =       -81.23024300
  -exchange      EXHF   =         0.00000000
  -V(xc)+E(xc)   XCENC  =         4.64944515
  PAW double counting   =       787.07614224     -796.22701092
  entropy T*S    EENTRO =        -0.00072302
  eigenvalues    EBANDS =        42.06414857
  atomic energy  EATOM  =       594.28084496
  Solvation  Ediel_sol  =         0.00000000
  ---------------------------------------------------
  free energy    TOTEN  =        -7.91522281 eV

  energy without entropy =       -7.91449979  energy(sigma->0) =       -7.91498181


--------------------------------------------------------------------------------------------------------




--------------------------------------- Iteration      1(   9)  ---------------------------------------


    POTLOK:  cpu time    0.0041: real time    0.0042
    SETDIJ:  cpu time    0.0052: real time    0.0052
     EDDAV:  cpu time    0.2060: real time    0.2107
       DOS:  cpu time    0.0012: real time    0.0012
    CHARGE:  cpu time    0.0037: real time    0.0038
    MIXING:  cpu time    0.0009: real time    0.0004
    --------------------------------------------
      LOOP:  cpu time    0.2211: real time    0.2256

 eigenvalue-minimisations  :  2572
 total energy-change (2. order) : 0.3877429E-02  (-0.1827142E-03)
 number of electron       7.9999860 magnetization       1.8660842
 augmentation part        4.1258684 magnetization       1.5416398

 Broyden mixing:
  rms(total) = 0.20755E-01    rms(broyden)= 0.20754E-01
  rms(prec ) = 0.21615E-01
  weight for this iteration     100.00

 eigenvalues of (default mixing * dielectric matrix)
  average eigenvalue GAMMA=   1.3569
  2.5122  1.3439  0.9100  0.6615

 Free energy of the ion-electron system (eV)
  ---------------------------------------------------
  alpha Z        PSCENC =        74.27745159
  Ewald energy   TEWEN  =      -632.80527839
  -Hartree energ DENC   =       -80.43057158
  -exchange      EXHF   =         0.00000000
  -V(xc)+E(xc)   XCENC  =         4.63856298
  PAW double counting   =       832.48994062     -842.38360943
  entropy T*S    EENTRO =        -0.00066143
  eigenvalues    EBANDS =        42.02197529
  atomic energy  EATOM  =       594.28084496
  Solvation  Ediel_sol  =         0.00000000
  ---------------------------------------------------
  free energy    TOTEN  =        -7.91134539 eV

  energy without entropy =       -7.91068396  energy(sigma->0) =       -7.91112491


--------------------------------------------------------------------------------------------------------




--------------------------------------- Iteration      1(  10)  ---------------------------------------


    POTLOK:  cpu time    0.0034: real time    0.0041
    SETDIJ:  cpu time    0.0049: real time    0.0049
     EDDAV:  cpu time    0.1716: real time    0.1757
       DOS:  cpu time    0.0012: real time    0.0012
    --------------------------------------------
      LOOP:  cpu time    0.1812: real time    0.1860

 eigenvalue-minimisations  :  2076
 total energy-change (2. order) :-0.6518012E-04  (-0.5219658E-04)
 number of electron       7.9999860 magnetization       1.8660842
 augmentation part        4.1258684 magnetization       1.5416398

 Free energy of the ion-electron system (eV)
  ---------------------------------------------------
  alpha Z        PSCENC =        74.27745159
  Ewald energy   TEWEN  =      -632.80527839
  -Hartree energ DENC   =       -80.41273146
  -exchange      EXHF   =         0.00000000
  -V(xc)+E(xc)   XCENC  =         4.61234569
  PAW double counting   =       837.37255168     -847.29494723
  entropy T*S    EENTRO =        -0.00045239
  eigenvalues    EBANDS =        42.05880499
  atomic energy  EATOM  =       594.28084496
  Solvation  Ediel_sol  =         0.00000000
  ---------------------------------------------------
  free energy    TOTEN  =        -7.91141057 eV

  energy without entropy =       -7.91095818  energy(sigma->0) =       -7.91125977


--------------------------------------------------------------------------------------------------------




 average (electrostatic) potential at core
  the test charge radii are     1.0103
  (the norm of the test charge is              1.0000)
       1 -41.3421
 
 
 
 E-fermi :   8.1711     XC(G=0): -14.2926     alpha+bet :-16.6585


 spin component 1

 k-point     1 :       0.0500    0.0500    0.0500
  band No.  band energies     occupation 
      1      -0.8265      1.00000
      2       5.1974      1.00000
      3       5.1974      1.00000
      4       5.9047      1.00000
      5       7.0314      1.00000
      6       7.0314      1.00000
      7      32.8535      0.00000
      8      32.8535      0.00000
      9      35.7355      0.00000
     10      39.8049      0.00000
     11      42.4471      0.00000
     12      42.4471      0.00000

 k-point     2 :       0.1500    0.0500    0.0500
  band No.  band energies     occupation 
      1       0.4487      1.00000
      2       4.7828      1.00000
      3       4.9791      1.00000
      4       6.8034      1.00000
      5       6.8883      1.00000
      6       7.1424      1.00000
      7      28.7352      0.00000
      8      30.9816      0.00000
      9      35.8273      0.00000
     10      36.3524      0.00000
     11      42.4851      0.00000
     12      42.9936      0.00000

 k-point     3 :       0.2500    0.0500    0.0500
  band No.  band energies     occupation 
      1       1.8507      1.00000
      2       4.3341      1.00000
      3       5.1149      1.00000
      4       6.9857      1.00000
      5       7.2640      1.00000
      6       8.0571      0.90616
      7      24.0402      0.00000
      8      29.0931      0.00000
      9      32.9320      0.00000
     10      36.4284      0.00000
     11      41.8650      0.00000
     12      44.6419      0.00000

 k-point     4 :       0.3500    0.0500    0.0500
  band No.  band energies     occupation 
      1       2.2207      1.00000
      2       3.9983      1.00000
      3       6.4761      1.00000
      4       7.1874      1.00000
      5       7.3716      1.00000
      6       9.4645     -0.00000
      7      19.7084      0.00000
      8      27.6990      0.00000
      9      30.9836      0.00000
     10      36.3036      0.00000
     11      41.5710      0.00000
     12      46.8600      0.00000

 k-point     5 :       0.4500    0.0500    0.0500
  band No.  band energies     occupation 
      1       2.1701      1.00000
      2       3.8757      1.00000
      3       7.2221      1.00000
      4       7.4068      1.00000
      5       7.4157      1.00000
      6      10.4264     -0.00000
      7      17.5308      0.00000
      8      27.1901      0.00000
      9      30.2579      0.00000
     10      36.2428      0.00000
     11      41.5602      0.00000
     12      46.4867      0.00000

 k-point     6 :      -0.0500    0.0500    0.0500
  band No.  band energies     occupation 
      1      -1.2972      1.00000
      2       5.3743      1.00000
      3       5.3743      1.00000
      4       5.4521      1.00000
      5       6.9764      1.00000
      6       7.1633      1.00000
      7      33.9245      0.00000
      8      35.0505      0.00000
      9      35.0505      0.00000
     10      40.2276      0.00000
     11      43.4832      0.00000
     12      43.5474      0.00000

 k-point     7 :       0.1500    0.1500    0.0500
  band No.  band energies     occupation 
      1       1.8426      1.00000
      2       4.4558      1.00000
      3       4.5206      1.00000
      4       6.9203      1.00000
      5       7.2783      1.00000
      6       8.1323      0.66069
      7      26.2457      0.00000
      8      27.4218      0.00000
      9      31.9901      0.00000
     10      37.8631      0.00000
     11      43.3065      0.00000
     12      45.2302      0.00000

 k-point     8 :       0.2500    0.1500    0.0500
  band No.  band energies     occupation 
      1       2.7857      1.00000
      2       4.0811      1.00000
      3       4.8785      1.00000
      4       7.0641      1.00000
      5       7.4313      1.00000
      6       9.8875     -0.00000
      7      22.0847      0.00000
      8      25.3868      0.00000
      9      29.7342      0.00000
     10      38.4655      0.00000
     11      44.0452      0.00000
     12      46.0141      0.00000

 k-point     9 :       0.3500    0.1500    0.0500
  band No.  band energies     occupation 
      1       2.7476      1.00000
      2       3.9057      1.00000
      3       5.8165      1.00000
      4       7.2338      1.00000
      5       7.5583      1.00007
      6      11.8897     -0.00000
      7      18.3136      0.00000
      8      24.4498      0.00000
      9      28.6149      0.00000
     10      38.5479      0.00000
     11      44.9683      0.00000
     12      45.9056      0.00000

 k-point    10 :      -0.1500    0.1500    0.0500
  band No.  band energies     occupation 
      1      -0.3780      1.00000
      2       5.1172      1.00000
      3       5.3183      1.00000
      4       6.0078      1.00000
      5       6.6916      1.00000
      6       7.2562      1.00000
      7      30.9402      0.00000
      8      33.6623      0.00000
      9      34.7279      0.00000
     10      39.3610      0.00000
     11      40.5638      0.00000
     12      41.4457      0.00000

 k-point    11 :       0.2500    0.2500    0.0500
  band No.  band energies     occupation 
      1       3.3244      1.00000
      2       3.9895      1.00000
      3       4.8386      1.00000
      4       7.2095      1.00000
      5       7.5489      1.00005
      6      12.4274     -0.00000
      7      20.1062      0.00000
      8      21.6493      0.00000
      9      28.3633      0.00000
     10      39.9902      0.00000
     11      43.5323      0.00000
     12      50.4084      0.00000

 k-point    12 :       0.3500    0.2500    0.0500
  band No.  band energies     occupation 
      1       3.3503      1.00000
      2       4.0583      1.00000
      3       4.8976      1.00000
      4       7.3435      1.00000
      5       7.5425      1.00004
      6      14.7094      0.00000
      7      17.5072      0.00000
      8      20.7825      0.00000
      9      27.9589      0.00000
     10      40.6740      0.00000
     11      43.2353      0.00000
     12      50.3771      0.00000

 k-point    13 :      -0.2500    0.2500    0.0500
  band No.  band energies     occupation 
      1       1.1010      1.00000
      2       4.6830      1.00000
      3       5.1699      1.00000
      4       6.7024      1.00000
      5       7.0084      1.00000
      6       7.3680      1.00000
      7      26.4025      0.00000
      8      31.3142      0.00000
      9      33.9084      0.00000
     10      37.7889      0.00000
     11      39.7412      0.00000
     12      41.5674      0.00000

 k-point    14 :      -0.1500    0.2500    0.0500
  band No.  band energies     occupation 
      1       0.8258      1.00000
      2       4.9942      1.00000
      3       5.0166      1.00000
      4       6.4236      1.00000
      5       6.7564      1.00000
      6       7.4710      1.00000
      7      28.4681      0.00000
      8      30.2467      0.00000
      9      34.8437      0.00000
     10      36.9120      0.00000
     11      39.4716      0.00000
     12      43.2360      0.00000

 k-point    15 :      -0.3500    0.3500    0.0500
  band No.  band energies     occupation 
      1       2.0398      1.00000
      2       4.2655      1.00000
      3       5.8052      1.00000
      4       7.0409      1.00000
      5       7.6760      1.00129
      6       8.1232      0.69650
      7      21.7265      0.00000
      8      29.3733      0.00000
      9      32.3184      0.00000
     10      36.4407      0.00000
     11      39.7591      0.00000
     12      43.5586      0.00000

 k-point    16 :      -0.2500    0.3500    0.0500
  band No.  band energies     occupation 
      1       2.1495      1.00000
      2       4.5069      1.00000
      3       4.9688      1.00000
      4       6.6124      1.00000
      5       7.5523      1.00005
      6       8.2321      0.25449
      7      24.2981      0.00000
      8      27.6832      0.00000
      9      33.4325      0.00000
     10      36.0955      0.00000
     11      40.0521      0.00000
     12      43.9860      0.00000

 k-point    17 :      -0.4500    0.4500    0.0500
  band No.  band energies     occupation 
      1       2.0830      1.00000
      2       4.0186      1.00000
      3       6.6633      1.00000
      4       7.1458      1.00000
      5       8.8949     -0.00000
      6       8.9630     -0.00000
      7      18.1451      0.00000
      8      28.2921      0.00000
      9      31.0394      0.00000
     10      36.0533      0.00000
     11      40.0723      0.00000
     12      44.5381      0.00000

 k-point    18 :      -0.3500    0.4500    0.0500
  band No.  band energies     occupation 
      1       2.5065      1.00000
      2       4.2537      1.00000
      3       5.4376      1.00000
      4       6.9499      1.00000
      5       8.0397      0.94392
      6       9.9783     -0.00000
      7      19.9052      0.00000
      8      26.2702      0.00000
      9      31.5980      0.00000
     10      36.4173      0.00000
     11      41.0442      0.00000
     12      43.8423      0.00000

 k-point    19 :      -0.2500    0.4500    0.0500
  band No.  band energies     occupation 
      1       3.0439      1.00000
      2       4.0331      1.00000
      3       4.9702      1.00000
      4       6.7885      1.00000
      5       7.7646      1.00719
      6      10.3342     -0.00000
      7      22.1820      0.00000
      8      23.4111      0.00000
      9      33.1979      0.00000
     10      35.3894      0.00000
     11      39.9298      0.00000
     12      48.4932      0.00000

 k-point    20 :      -0.4500   -0.4500    0.0500
  band No.  band energies     occupation 
      1       2.4431      1.00000
      2       4.1678      1.00000
      3       5.7487      1.00000
      4       7.0000      1.00000
      5       8.4249     -0.03517
      6      11.3533     -0.00000
      7      17.5732      0.00000
      8      25.7589      0.00000
      9      30.9156      0.00000
     10      36.5636      0.00000
     11      41.9439      0.00000
     12      43.2575      0.00000

 k-point    21 :      -0.3500   -0.4500    0.0500
  band No.  band energies     occupation 
      1       3.1818      1.00000
      2       4.1074      1.00000
      3       4.8329      1.00000
      4       7.1002      1.00000
      5       7.9438      1.03411
      6      12.9967     -0.00000
      7      18.5013      0.00000
      8      22.0060      0.00000
      9      32.3434      0.00000
     10      36.3096      0.00000
     11      39.6455      0.00000
     12      48.0308      0.00000

 k-point    22 :      -0.3500   -0.3500    0.0500
  band No.  band energies     occupation 
      1       3.7667      1.00000
      2       4.1375      1.00000
      3       4.1375      1.00000
      4       7.5674      1.00008
      5       7.5675      1.00008
      6      16.3631      0.00000
      7      16.3631      0.00000
      8      19.8258      0.00000
      9      32.6507      0.00000
     10      37.6728      0.00000
     11      37.6728      0.00000
     12      48.2342      0.00000

 k-point    23 :       0.1500    0.1500    0.1500
  band No.  band energies     occupation 
      1       3.2193      1.00000
      2       4.0764      1.00000
      3       4.0764      1.00000
      4       7.2429      1.00000
      5       7.2429      1.00000
      6       9.9344     -0.00000
      7      24.4587      0.00000
      8      24.4587      0.00000
      9      27.4295      0.00000
     10      40.8558      0.00000
     11      46.3465      0.00000
     12      46.3465      0.00000

 k-point    24 :       0.2500    0.1500    0.1500
  band No.  band energies     occupation 
      1       3.4669      1.00000
      2       3.8697      1.00000
      3       4.7576      1.00000
      4       7.3210      1.00000
      5       7.3941      1.00000
      6      12.2119     -0.00000
      7      20.4401      0.00000
      8      23.2824      0.00000
      9      25.3025      0.00000
     10      42.3621      0.00000
     11      47.3701      0.00000
     12      48.4914      0.00000

 k-point    25 :       0.3500    0.1500    0.1500
  band No.  band energies     occupation 
      1       3.3229      1.00000
      2       3.8076      1.00000
      3       5.3063      1.00000
      4       7.3769      1.00000
      5       7.4475      1.00000
      6      14.1067      0.00000
      7      17.7589      0.00000
      8      22.8760      0.00000
      9      24.7140      0.00000
     10      42.5408      0.00000
     11      48.4089      0.00000
     12      48.5456      0.00000

 k-point    26 :      -0.1500    0.1500    0.1500
  band No.  band energies     occupation 
      1       0.4646      1.00000
      2       5.4485      1.00000
      3       5.4485      1.00000
      4       5.9889      1.00000
      5       6.0193      1.00000
      6       7.5670      1.00008
      7      30.1716      0.00000
      8      32.9228      0.00000
      9      32.9228      0.00000
     10      34.8433      0.00000
     11      42.4241      0.00000
     12      42.4241      0.00000

 k-point    27 :       0.2500    0.2500    0.1500
  band No.  band energies     occupation 
      1       3.6762      1.00000
      2       4.0814      1.00000
      3       4.6012      1.00000
      4       7.4103      1.00000
      5       7.4571      1.00000
      6      15.1391      0.00000
      7      18.7784      0.00000
      8      20.4488      0.00000
      9      23.7899      0.00000
     10      45.3390      0.00000
     11      47.5278      0.00000
     12      51.5648      0.00000

 k-point    28 :      -0.2500    0.2500    0.1500
  band No.  band energies     occupation 
      1       1.7807      1.00000
      2       4.9849      1.00000
      3       5.2368      1.00000
      4       6.0559      1.00000
      5       6.8832      1.00000
      6       7.9722      1.02451
      7      26.9669      0.00000
      8      30.3314      0.00000
      9      30.8135      0.00000
     10      34.7935      0.00000
     11      41.8695      0.00000
     12      43.2776      0.00000

 k-point    29 :      -0.3500    0.3500    0.1500
  band No.  band energies     occupation 
      1       2.6044      1.00000
      2       4.6590      1.00000
      3       4.8951      1.00000
      4       6.5878      1.00000
      5       8.0174      0.98146
      6       9.0622     -0.00000
      7      22.2572      0.00000
      8      28.8444      0.00000
      9      28.8916      0.00000
     10      36.3924      0.00000
     11      40.6781      0.00000
     12      43.3613      0.00000

 k-point    30 :      -0.2500    0.3500    0.1500
  band No.  band energies     occupation 
      1       2.7663      1.00000
      2       4.2512      1.00000
      3       5.4091      1.00000
      4       6.2539      1.00000
      5       7.5897      1.00016
      6       9.0848     -0.00000
      7      24.8158      0.00000
      8      25.8657      0.00000
      9      31.4212      0.00000
     10      33.3972      0.00000
     11      41.3987      0.00000
     12      46.9496      0.00000

 k-point    31 :      -0.4500    0.4500    0.1500
  band No.  band energies     occupation 
      1       2.5733      1.00000
      2       4.6835      1.00000
      3       4.9292      1.00000
      4       6.7014      1.00000
      5       8.8200     -0.00002
      6      11.1855     -0.00000
      7      18.3584      0.00000
      8      27.6801      0.00000
      9      28.0683      0.00000
     10      38.4103      0.00000
     11      40.0670      0.00000
     12      42.2524      0.00000

 k-point    32 :      -0.3500    0.4500    0.1500
  band No.  band energies     occupation 
      1       3.0755      1.00000
      2       3.9834      1.00000
      3       5.1382      1.00000
      4       6.7217      1.00000
      5       8.2431      0.21602
      6      11.4403     -0.00000
      7      20.5676      0.00000
      8      24.0314      0.00000
      9      30.8158      0.00000
     10      34.7806      0.00000
     11      40.1905      0.00000
     12      45.9319      0.00000

 k-point    33 :      -0.4500   -0.4500    0.1500
  band No.  band energies     occupation 
      1       2.9435      1.00000
      2       4.2076      1.00000
      3       4.8931      1.00000
      4       6.8542      1.00000
      5       8.5963     -0.00521
      6      13.5445     -0.00000
      7      17.7367      0.00000
      8      23.4800      0.00000
      9      30.4050      0.00000
     10      36.4028      0.00000
     11      38.9579      0.00000
     12      44.6998      0.00000

 k-point    34 :      -0.3500   -0.4500    0.1500
  band No.  band energies     occupation 
      1       3.4788      1.00000
      2       3.5854      1.00000
      3       4.7929      1.00000
      4       7.4032      1.00000
      5       8.1161      0.72321
      6      14.7021      0.00000
      7      18.6926      0.00000
      8      20.4796      0.00000
      9      32.9167      0.00000
     10      34.1499      0.00000
     11      37.9984      0.00000
     12      45.0285      0.00000

 k-point    35 :       0.2500    0.2500    0.2500
  band No.  band energies     occupation 
      1       4.1475      1.00000
      2       4.1475      1.00000
      3       4.1476      1.00000
      4       7.4699      1.00000
      5       7.4699      1.00000
      6      18.3354      0.00000
      7      18.3354      0.00000
      8      18.3355      0.00000
      9      21.6824      0.00000
     10      51.0857      0.00000
     11      51.0857      0.00000
     12      51.0857      0.00000

 k-point    36 :      -0.2500    0.2500    0.2500
  band No.  band energies     occupation 
      1       2.6387      1.00000
      2       4.4247      1.00000
      3       5.9542      1.00000
      4       5.9542      1.00000
      5       6.9600      1.00000
      6       8.8684     -0.00000
      7      27.7575      0.00000
      8      28.0632      0.00000
      9      28.0632      0.00000
     10      30.9181      0.00000
     11      46.3820      0.00000
     12      46.3820      0.00000

 k-point    37 :      -0.3500    0.3500    0.2500
  band No.  band energies     occupation 
      1       3.0413      1.00000
      2       3.6810      1.00000
      3       6.0028      1.00000
      4       6.4711      1.00000
      5       7.8792      1.02942
      6      10.6666     -0.00000
      7      23.2729      0.00000
      8      25.8284      0.00000
      9      27.9936      0.00000
     10      31.4703      0.00000
     11      44.6636      0.00000
     12      45.3536      0.00000

 k-point    38 :      -0.4500    0.4500    0.2500
  band No.  band energies     occupation 
      1       2.8657      1.00000
      2       3.5270      1.00000
      3       5.8872      1.00000
      4       6.7053      1.00000
      5       8.7027     -0.00056
      6      13.4982     -0.00000
      7      18.9472      0.00000
      8      24.4782      0.00000
      9      27.6886      0.00000
     10      33.3605      0.00000
     11      41.1670      0.00000
     12      44.5625      0.00000

 k-point    39 :      -0.3500    0.4500    0.2500
  band No.  band energies     occupation 
      1       3.0358      1.00000
      2       3.0718      1.00000
      3       6.1070      1.00000
      4       7.1950      1.00000
      5       8.3141      0.03499
      6      13.3370     -0.00000
      7      21.3677      0.00000
      8      22.0842      0.00000
      9      28.9388      0.00000
     10      30.9957      0.00000
     11      40.5969      0.00000
     12      45.7124      0.00000

 k-point    40 :      -0.4500   -0.4500    0.2500
  band No.  band energies     occupation 
      1       2.8186      1.00000
      2       3.0339      1.00000
      3       6.0341      1.00000
      4       7.5725      1.00010
      5       8.5281     -0.01502
      6      16.1325      0.00000
      7      18.2080      0.00000
      8      21.2029      0.00000
      9      29.2629      0.00000
     10      31.6726      0.00000
     11      38.5347      0.00000
     12      45.5285      0.00000

 k-point    41 :      -0.3500    0.3500    0.3500
  band No.  band energies     occupation 
      1       2.8129      1.00000
      2       2.9383      1.00000
      3       7.1059      1.00000
      4       7.1060      1.00000
      5       7.9408      1.03455
      6      12.8049     -0.00000
      7      23.3263      0.00000
      8      23.3263      0.00000
      9      26.5958      0.00000
     10      29.1808      0.00000
     11      40.4592      0.00000
     12      48.9793      0.00000

 k-point    42 :      -0.4500    0.4500    0.3500
  band No.  band energies     occupation 
      1       2.4774      1.00000
      2       2.5608      1.00000
      3       7.3350      1.00000
      4       7.6009      1.00021
      5       8.5900     -0.00582
      6      15.7942      0.00000
      7      19.9116      0.00000
      8      21.7945      0.00000
      9      26.9985      0.00000
     10      29.3503      0.00000
     11      37.1379      0.00000
     12      48.9177      0.00000

 k-point    43 :      -0.4500   -0.4500    0.3500
  band No.  band energies     occupation 
      1       2.3078      1.00000
      2       2.3078      1.00000
      3       7.4782      1.00001
      4       8.4424     -0.03324
      5       8.4425     -0.03322
      6      18.6869      0.00000
      7      18.6869      0.00000
      8      19.7558      0.00000
      9      27.9646      0.00000
     10      27.9646      0.00000
     11      35.5804      0.00000
     12      49.5314      0.00000

 k-point    44 :      -0.4500    0.4500    0.4500
  band No.  band energies     occupation 
      1       2.0630      1.00000
      2       2.0763      1.00000
      3       8.4068     -0.03511
      4       8.4069     -0.03512
      5       8.5657     -0.00871
      6      18.2004      0.00000
      7      20.1067      0.00000
      8      20.1067      0.00000
      9      26.2032      0.00000
     10      27.1426      0.00000
     11      34.4504      0.00000
     12      51.3380      0.00000

 spin component 2

 k-point     1 :       0.0500    0.0500    0.0500
  band No.  band energies     occupation 
      1      -0.6054      1.00000
      2       6.7794      1.00000
      3       6.7794      1.00000
      4       7.5426      1.00004
      5       9.4124     -0.00000
      6       9.4124     -0.00000
      7      33.0039      0.00000
      8      33.0039      0.00000
      9      35.5986      0.00000
     10      40.6244      0.00000
     11      42.7455      0.00000
     12      42.7455      0.00000

 k-point     2 :       0.1500    0.0500    0.0500
  band No.  band energies     occupation 
      1       0.7045      1.00000
      2       6.3104      1.00000
      3       6.5152      1.00000
      4       8.4861     -0.02422
      5       9.1802     -0.00000
      6       9.5393     -0.00000
      7      29.2074      0.00000
      8      31.2725      0.00000
      9      36.3210      0.00000
     10      36.5822      0.00000
     11      42.7850      0.00000
     12      43.6386      0.00000

 k-point     3 :       0.2500    0.0500    0.0500
  band No.  band energies     occupation 
      1       2.3454      1.00000
      2       5.8000      1.00000
      3       6.3935      1.00000
      4       9.2089     -0.00000
      5       9.6901     -0.00000
      6       9.7633     -0.00000
      7      24.7817      0.00000
      8      29.4001      0.00000
      9      33.6107      0.00000
     10      36.6044      0.00000
     11      42.4491      0.00000
     12      44.9123      0.00000

 k-point     4 :       0.3500    0.0500    0.0500
  band No.  band energies     occupation 
      1       3.1983      1.00000
      2       5.4206      1.00000
      3       7.3028      1.00000
      4       9.3748     -0.00000
      5       9.8281     -0.00000
      6      11.0585     -0.00000
      7      20.7096      0.00000
      8      27.9764      0.00000
      9      31.5916      0.00000
     10      36.6224      0.00000
     11      42.1502      0.00000
     12      47.0539      0.00000

 k-point     5 :       0.4500    0.0500    0.0500
  band No.  band energies     occupation 
      1       3.2881      1.00000
      2       5.2825      1.00000
      3       8.1732      0.49119
      4       9.4397     -0.00000
      5       9.8783     -0.00000
      6      11.7630     -0.00000
      7      18.7470      0.00000
      8      27.4498      0.00000
      9      30.8319      0.00000
     10      36.6078      0.00000
     11      42.1653      0.00000
     12      46.6157      0.00000

 k-point     6 :      -0.0500    0.0500    0.0500
  band No.  band energies     occupation 
      1      -1.0808      1.00000
      2       6.9770      1.00000
      3       6.9770      1.00000
      4       7.0673      1.00000
      5       9.3543     -0.00000
      6       9.5786     -0.00000
      7      33.9066      0.00000
      8      34.9709      0.00000
      9      34.9709      0.00000
     10      40.5942      0.00000
     11      43.6393      0.00000
     12      44.3476      0.00000

 k-point     7 :       0.1500    0.1500    0.0500
  band No.  band energies     occupation 
      1       2.1955      1.00000
      2       5.9451      1.00000
      3       5.9601      1.00000
      4       9.1877     -0.00000
      5       9.6545     -0.00000
      6       9.8315     -0.00000
      7      26.8389      0.00000
      8      27.9328      0.00000
      9      32.6624      0.00000
     10      37.8305      0.00000
     11      43.6599      0.00000
     12      45.6912      0.00000

 k-point     8 :       0.2500    0.1500    0.0500
  band No.  band energies     occupation 
      1       3.5682      1.00000
      2       5.4934      1.00000
      3       6.0228      1.00000
      4       9.3029     -0.00000
      5       9.8353     -0.00000
      6      11.4522     -0.00000
      7      22.8918      0.00000
      8      25.9449      0.00000
      9      30.3216      0.00000
     10      38.5715      0.00000
     11      44.3587      0.00000
     12      46.4508      0.00000

 k-point     9 :       0.3500    0.1500    0.0500
  band No.  band energies     occupation 
      1       3.8683      1.00000
      2       5.2778      1.00000
      3       6.8520      1.00000
      4       9.4720     -0.00000
      5       9.9216     -0.00000
      6      13.1412     -0.00000
      7      19.3768      0.00000
      8      24.9995      0.00000
      9      29.1574      0.00000
     10      38.7520      0.00000
     11      45.2056      0.00000
     12      46.3249      0.00000

 k-point    10 :      -0.1500    0.1500    0.0500
  band No.  band energies     occupation 
      1      -0.1482      1.00000
      2       6.6833      1.00000
      3       6.8960      1.00000
      4       7.6564      1.00083
      5       8.9864     -0.00000
      6       9.6786     -0.00000
      7      31.2367      0.00000
      8      33.7781      0.00000
      9      34.8606      0.00000
     10      39.6943      0.00000
     11      41.2789      0.00000
     12      42.1066      0.00000

 k-point    11 :       0.2500    0.2500    0.0500
  band No.  band energies     occupation 
      1       4.4421      1.00000
      2       5.3245      1.00000
      3       5.9416      1.00000
      4       9.4563     -0.00000
      5       9.8980     -0.00000
      6      13.7330      0.00000
      7      20.9754      0.00000
      8      22.3726      0.00000
      9      28.9190      0.00000
     10      40.0954      0.00000
     11      43.7430      0.00000
     12      50.7243      0.00000

 k-point    12 :       0.3500    0.2500    0.0500
  band No.  band energies     occupation 
      1       4.5684      1.00000
      2       5.3504      1.00000
      3       6.0693      1.00000
      4       9.6059     -0.00000
      5       9.8454     -0.00000
      6      15.7642      0.00000
      7      18.5355      0.00000
      8      21.5366      0.00000
      9      28.5165      0.00000
     10      40.8126      0.00000
     11      43.3561      0.00000
     12      50.8707      0.00000

 k-point    13 :      -0.2500    0.2500    0.0500
  band No.  band energies     occupation 
      1       1.4334      1.00000
      2       6.1917      1.00000
      3       6.6455      1.00000
      4       8.7294     -0.00029
      5       8.8740     -0.00000
      6       9.7863     -0.00000
      7      27.0326      0.00000
      8      31.5042      0.00000
      9      34.3325      0.00000
     10      38.3472      0.00000
     11      40.2675      0.00000
     12      41.9127      0.00000

 k-point    14 :      -0.1500    0.2500    0.0500
  band No.  band energies     occupation 
      1       1.1059      1.00000
      2       6.5311      1.00000
      3       6.5735      1.00000
      4       8.4386     -0.03378
      5       8.5905     -0.00577
      6       9.8899     -0.00000
[...]
      7      19.8688      0.00000
      8      25.0170      0.00000
      9      28.3382      0.00000
     10      33.7494      0.00000
     11      41.9982      0.00000
     12      45.0066      0.00000

 k-point    39 :      -0.3500    0.4500    0.2500
  band No.  band energies     occupation 
      1       4.4005      1.00000
      2       4.7154      1.00000
      3       7.6602      1.00091
      4       8.8792     -0.00000
      5      10.1511     -0.00000
      6      14.4331      0.00000
      7      22.1530      0.00000
      8      22.7101      0.00000
      9      29.5592      0.00000
     10      31.4844      0.00000
     11      41.4038      0.00000
     12      46.1975      0.00000

 k-point    40 :      -0.4500   -0.4500    0.2500
  band No.  band energies     occupation 
      1       4.3731      1.00000
      2       4.5621      1.00000
      3       7.5539      1.00006
      4       9.3064     -0.00000
      5      10.3794     -0.00000
      6      17.0187      0.00000
      7      19.0794      0.00000
      8      21.8401      0.00000
      9      29.8562      0.00000
     10      32.1323      0.00000
     11      39.4215      0.00000
     12      46.0121      0.00000

 k-point    41 :      -0.3500    0.3500    0.3500
  band No.  band energies     occupation 
      1       4.1627      1.00000
      2       4.6228      1.00000
      3       8.7374     -0.00023
      4       8.7375     -0.00023
      5       9.7501     -0.00000
      6      13.8811      0.00000
      7      23.8643      0.00000
      8      23.8643      0.00000
      9      27.4856      0.00000
     10      29.7700      0.00000
     11      41.2928      0.00000
     12      49.3437      0.00000

 k-point    42 :      -0.4500    0.4500    0.3500
  band No.  band energies     occupation 
      1       4.0280      1.00000
      2       4.1190      1.00000
      3       9.0142     -0.00000
      4       9.2883     -0.00000
      5      10.4539     -0.00000
      6      16.5814      0.00000
      7      20.5445      0.00000
      8      22.2549      0.00000
      9      27.8458      0.00000
     10      29.9702      0.00000
     11      38.0741      0.00000
     12      49.2874      0.00000

 k-point    43 :      -0.4500   -0.4500    0.3500
  band No.  band energies     occupation 
      1       3.8697      1.00000
      2       3.8697      1.00000
      3       9.1570     -0.00000
      4      10.2712     -0.00000
      5      10.2714     -0.00000
      6      19.2835      0.00000
      7      19.2835      0.00000
      8      20.2556      0.00000
      9      28.7145      0.00000
     10      28.7146      0.00000
     11      36.5707      0.00000
     12      49.8889      0.00000

 k-point    44 :      -0.4500    0.4500    0.4500
  band No.  band energies     occupation 
      1       3.6242      1.00000
      2       3.6364      1.00000
      3      10.2275     -0.00000
      4      10.2276     -0.00000
      5      10.4301     -0.00000
      6      18.6785      0.00000
      7      20.4485      0.00000
      8      20.4485      0.00000
      9      27.2064      0.00000
     10      28.0032      0.00000
     11      35.4660      0.00000
     12      51.6069      0.00000


--------------------------------------------------------------------------------------------------------


 soft charge-density along one line, spin component           1
         0         1         2         3         4         5         6         7         8         9
 total charge-density along one line
 
 soft charge-density along one line, spin component           2
         0         1         2         3         4         5         6         7         8         9
 total charge-density along one line
 
 pseudopotential strength for first ion, spin component:           1
 -4.219   0.000   0.000   0.000   0.000   0.000   0.000   0.000  -0.000   0.000  -4.788   0.000   0.000   0.000   0.000   0.000
  0.000   0.000  -4.219   0.000  -0.000   0.000   0.000   0.000   0.000   0.000   0.000   0.000  -4.788   0.000  -0.000   0.000
  0.000   0.000  -0.000   0.000  -4.397   0.000  -0.000   0.000   0.000   0.000   0.000   0.000  -0.000   0.000  -4.961   0.000
  0.000   0.000   0.000   0.000  -0.000   0.000  -4.219   0.000  -0.000   0.000   0.000   0.000   0.000   0.000  -0.000   0.000
 -0.000   0.000   0.000   0.000   0.000   0.000  -0.000   0.000  -4.397   0.000  -0.000   0.000   0.000   0.000   0.000   0.000
 -4.788   0.000   0.000   0.000   0.000   0.000   0.000   0.000  -0.000   0.000  -5.314   0.000   0.000   0.000   0.000   0.000
  0.000   0.000  -4.788   0.000  -0.000   0.000   0.000   0.000   0.000   0.000   0.000   0.000  -5.314   0.000  -0.000   0.000
  0.000   0.000  -0.000   0.000  -4.961   0.000  -0.000   0.000   0.000   0.000   0.000   0.000  -0.000   0.000  -5.482   0.000
  0.000   0.000   0.000   0.000  -0.000   0.000  -4.788   0.000  -0.000   0.000   0.000   0.000   0.000   0.000  -0.000   0.000
 -0.000   0.000   0.000   0.000   0.000   0.000  -0.000   0.000  -4.961   0.000  -0.000   0.000   0.000   0.000   0.000   0.000
 -0.000   0.000  -0.000   0.000  -0.000   0.000  -0.000   0.000   0.000   0.000  -0.000   0.000  -0.000   0.000  -0.000   0.000
 -0.000   0.000  -0.000   0.000  -0.000   0.000  -0.000   0.000   0.000   0.000  -0.000   0.000  -0.000   0.000  -0.000   0.000
 -0.000   0.000  -0.000   0.000   0.000   0.000  -0.000   0.000   0.000   0.000  -0.000   0.000  -0.000   0.000   0.000   0.000
 -0.000   0.000  -0.000   0.000  -0.000   0.000   0.000   0.000  -0.000   0.000  -0.000   0.000  -0.000   0.000  -0.000   0.000
 -0.000   0.000  -0.000   0.000   0.000   0.000  -0.000   0.000   0.000   0.000  -0.000   0.000  -0.000   0.000   0.000   0.000
 -0.000   0.000  -0.000   0.000   0.000   0.000  -0.000   0.000   0.000   0.000  -0.000   0.000  -0.000   0.000   0.000   0.000
 -0.000   0.000  -0.000   0.000  -0.000   0.000   0.000   0.000  -0.000   0.000  -0.000   0.000  -0.000   0.000  -0.000   0.000
 -0.000   0.000  -0.000   0.000   0.000   0.000  -0.000   0.000  -0.000   0.000  -0.000   0.000  -0.000   0.000   0.000   0.000
 pseudopotential strength for first ion, spin component:           2
 -2.997   0.000  -0.000   0.000   0.000   0.000  -0.000   0.000   0.000   0.000  -3.605   0.000  -0.000   0.000   0.000   0.000
 -0.000   0.000  -2.997   0.000  -0.000   0.000  -0.000   0.000   0.000   0.000  -0.000   0.000  -3.605   0.000  -0.000   0.000
  0.000   0.000  -0.000   0.000  -2.744   0.000  -0.000   0.000   0.000   0.000   0.000   0.000  -0.000   0.000  -3.358   0.000
 -0.000   0.000  -0.000   0.000  -0.000   0.000  -2.997   0.000  -0.000   0.000  -0.000   0.000  -0.000   0.000  -0.000   0.000
  0.000   0.000   0.000   0.000   0.000   0.000  -0.000   0.000  -2.744   0.000   0.000   0.000   0.000   0.000   0.000   0.000
 -3.605   0.000  -0.000   0.000   0.000   0.000  -0.000   0.000   0.000   0.000  -4.168   0.000  -0.000   0.000   0.000   0.000
 -0.000   0.000  -3.605   0.000  -0.000   0.000  -0.000   0.000   0.000   0.000  -0.000   0.000  -4.168   0.000  -0.000   0.000
  0.000   0.000  -0.000   0.000  -3.358   0.000  -0.000   0.000   0.000   0.000   0.000   0.000  -0.000   0.000  -3.927   0.000
 -0.000   0.000  -0.000   0.000  -0.000   0.000  -3.605   0.000  -0.000   0.000  -0.000   0.000  -0.000   0.000  -0.000   0.000
  0.000   0.000   0.000   0.000   0.000   0.000  -0.000   0.000  -3.358   0.000   0.000   0.000   0.000   0.000   0.000   0.000
  0.000   0.000   0.000   0.000  -0.000   0.000   0.000   0.000  -0.000   0.000   0.000   0.000   0.000   0.000  -0.000   0.000
  0.000   0.000   0.000   0.000  -0.000   0.000   0.000   0.000  -0.000   0.000   0.000   0.000   0.000   0.000  -0.000   0.000
 -0.000   0.000  -0.000   0.000   0.000   0.000   0.000   0.000   0.000   0.000  -0.000   0.000  -0.000   0.000   0.000   0.000
  0.000   0.000  -0.000   0.000  -0.000   0.000  -0.000   0.000  -0.000   0.000   0.000   0.000  -0.000   0.000  -0.000   0.000
 -0.000   0.000   0.000   0.000   0.000   0.000  -0.000   0.000  -0.000   0.000  -0.000   0.000   0.000   0.000   0.000   0.000
 -0.000   0.000  -0.000   0.000   0.000   0.000   0.000   0.000   0.000   0.000  -0.000   0.000  -0.000   0.000   0.000   0.000
  0.000   0.000  -0.000   0.000  -0.000   0.000  -0.000   0.000  -0.000   0.000   0.000   0.000  -0.000   0.000  -0.000   0.000
 -0.000   0.000   0.000   0.000   0.000   0.000  -0.000   0.000  -0.000   0.000  -0.000   0.000   0.000   0.000   0.000   0.000
 total augmentation occupancy for first ion, spin component:           1
  2.292  -0.000  -0.000   0.000  -0.000  -1.751  -0.000  -0.000   0.000  -0.000  -0.000  -0.000   0.000   0.000   0.000   0.000
 -0.000   2.292   0.000   0.000   0.000  -0.000  -1.751  -0.000   0.000  -0.000  -0.000  -0.000   0.000   0.000   0.000   0.000
 -0.000   0.000   4.244   0.000   0.000  -0.000  -0.000  -3.289   0.000   0.000  -0.000   0.000   0.000   0.000   0.000   0.000
  0.000   0.000   0.000   2.292  -0.000  -0.000   0.000   0.000  -1.751   0.000   0.000   0.000   0.000   0.000   0.000   0.000
  0.000   0.000   0.000  -0.000   4.244  -0.000   0.000   0.000  -0.000  -3.289   0.000   0.000   0.000   0.000   0.000   0.000
 -1.751   0.000  -0.000   0.000   0.000   2.615   0.000   0.000   0.000   0.000   0.000  -0.000   0.000   0.000   0.000   0.000
 -0.000  -1.751  -0.000  -0.000  -0.000   0.000   2.615   0.000  -0.000  -0.000   0.000   0.000   0.000   0.000   0.000   0.000
  0.000   0.000  -3.289   0.000   0.000   0.000  -0.000   3.627  -0.000   0.000   0.000  -0.000   0.000   0.000   0.000   0.000
  0.000   0.000   0.000  -1.751  -0.000   0.000  -0.000   0.000   2.615   0.000   0.000  -0.000   0.000   0.000   0.000   0.000
 -0.000   0.000   0.000   0.000  -3.289   0.000   0.000   0.000  -0.000   3.627   0.000   0.000   0.000   0.000   0.000   0.000
 -0.000  -0.000  -0.000   0.000   0.000   0.000   0.000   0.000   0.000   0.000   3.019  -0.378   0.000   0.000   0.000   0.000
  0.000   0.000   0.000   0.000   0.000  -0.000   0.000  -0.000  -0.000   0.000  -0.378   0.054   0.000   0.000   0.000   0.000
  0.000   0.000   0.000   0.000   0.000   0.000   0.000   0.000   0.000   0.000   0.000   0.000   0.402   0.000  -0.000  -0.034
  0.000   0.000   0.000   0.000   0.000   0.000   0.000   0.000   0.000   0.000   0.000   0.000  -0.000   0.402   0.000   0.000
  0.000   0.000   0.000   0.000   0.000   0.000   0.000   0.000   0.000   0.000   0.000   0.000  -0.000   0.000   0.402   0.000
  0.000   0.000   0.000   0.000   0.000   0.000   0.000   0.000   0.000   0.000   0.000   0.000  -0.034   0.000   0.000   0.003
  0.000   0.000   0.000   0.000   0.000   0.000   0.000   0.000   0.000   0.000   0.000   0.000   0.000  -0.034  -0.000  -0.000
  0.000   0.000   0.000   0.000   0.000   0.000   0.000   0.000   0.000   0.000   0.000   0.000   0.000   0.000  -0.034  -0.000
 total augmentation occupancy for first ion, spin component:           2
  1.468   0.000  -0.000   0.000   0.000  -0.549   0.000   0.000   0.000  -0.000   0.000   0.000   0.000   0.000   0.000   0.000
  0.000   1.468   0.000   0.000  -0.000   0.000  -0.549   0.000  -0.000   0.000   0.000   0.000   0.000   0.000   0.000   0.000
 -0.000   0.000   3.011   0.000   0.000   0.000   0.000  -1.356  -0.000   0.000   0.000   0.000   0.000   0.000   0.000   0.000
  0.000   0.000  -0.000   1.468   0.000   0.000   0.000   0.000  -0.549   0.000   0.000   0.000   0.000   0.000   0.000   0.000
 -0.000  -0.000   0.000   0.000   3.011  -0.000  -0.000   0.000  -0.000  -1.356  -0.000   0.000   0.000   0.000   0.000   0.000
 -0.549  -0.000   0.000  -0.000   0.000  -0.063   0.000   0.000  -0.000  -0.000   0.000   0.000   0.000   0.000   0.000   0.000
  0.000  -0.549  -0.000   0.000   0.000  -0.000  -0.063  -0.000  -0.000  -0.000   0.000  -0.000   0.000   0.000   0.000   0.000
 -0.000   0.000  -1.356   0.000   0.000   0.000   0.000   0.360   0.000  -0.000  -0.000   0.000   0.000   0.000   0.000   0.000
 -0.000  -0.000  -0.000  -0.549  -0.000   0.000   0.000   0.000  -0.063   0.000   0.000   0.000   0.000   0.000   0.000   0.000
 -0.000  -0.000   0.000  -0.000  -1.356   0.000  -0.000   0.000   0.000   0.360  -0.000  -0.000   0.000   0.000   0.000   0.000
  0.000   0.000  -0.000   0.000   0.000   0.000   0.000  -0.000   0.000  -0.000  -0.344   0.107   0.000   0.000   0.000   0.000
  0.000   0.000   0.000   0.000   0.000  -0.000  -0.000   0.000   0.000   0.000   0.107  -0.020   0.000   0.000   0.000   0.000
  0.000   0.000   0.000   0.000   0.000   0.000   0.000   0.000   0.000   0.000   0.000   0.000  -0.038   0.000   0.000   0.006
  0.000   0.000   0.000   0.000   0.000   0.000   0.000   0.000   0.000   0.000   0.000   0.000   0.000  -0.038   0.000   0.000
  0.000   0.000   0.000   0.000   0.000   0.000   0.000   0.000   0.000   0.000   0.000   0.000   0.000   0.000  -0.038   0.000
  0.000   0.000   0.000   0.000   0.000   0.000   0.000   0.000   0.000   0.000   0.000   0.000   0.006   0.000   0.000  -0.001
  0.000   0.000   0.000   0.000   0.000   0.000   0.000   0.000   0.000   0.000   0.000   0.000   0.000   0.006   0.000   0.000
  0.000   0.000   0.000   0.000   0.000   0.000   0.000   0.000   0.000   0.000   0.000   0.000   0.000   0.000   0.006  -0.000


------------------------ aborting loop because EDIFF is reached ----------------------------------------


    CHARGE:  cpu time    0.0038: real time    0.0038
    FORLOC:  cpu time    0.0001: real time    0.0001
    FORNL :  cpu time    0.0068: real time    0.0068
    STRESS:  cpu time    0.0248: real time    0.0251
    FORCOR:  cpu time    0.0030: real time    0.0030
    FORHAR:  cpu time    0.0005: real time    0.0005
    MIXING:  cpu time    0.0003: real time    0.0003
    OFIELD:  cpu time    0.0000: real time    0.0000

  FORCE on cell =-STRESS in cart. coord.  units (eV):
  Direction    XX          YY          ZZ          XY          YZ          ZX
  --------------------------------------------------------------------------------------
  Alpha Z    74.27745    74.27745    74.27745
  Ewald    -210.93509  -210.93509  -210.93509     0.00000     0.00000    -0.00000
  Hartree    26.80426    26.80426    26.80426    -0.00000    -0.00000    -0.00000
  E(xc)     -40.46611   -40.46611   -40.46611     0.00004     0.00004     0.00004
  Local      63.73994    63.73994    63.73994    -0.00020    -0.00020    -0.00020
  n-local   -25.70190   -24.22434   -23.05628     1.12854    -0.98526    -1.78633
  augment    38.12036    38.12036    38.12036     0.00024     0.00024     0.00024
  Kinetic    76.06528    75.95211    75.90337    -1.32038     2.24100     1.10898
  Fock        0.00000     0.00000     0.00000     0.00000     0.00000     0.00000
  -------------------------------------------------------------------------------------
  Total       3.18689     3.18689     3.18689    -0.00000    -0.00000     0.00000
  in kB     548.74437   548.74437   548.74437    -0.00000    -0.00000     0.00000
  external pressure =      548.74 kB  Pullay stress =        0.00 kB


 VOLUME and BASIS-vectors are now :
 -----------------------------------------------------------------------------
  energy-cutoff  :      268.00
  volume of cell :        9.30
      direct lattice vectors                 reciprocal lattice vectors
    -1.325000000  1.325000000  1.325000000     0.000000000  0.377358491  0.377358491
     1.325000000 -1.325000000  1.325000000     0.377358491  0.000000000  0.377358491
     1.325000000  1.325000000 -1.325000000     0.377358491  0.377358491  0.000000000

  length of vectors
     2.294967320  2.294967320  2.294967320     0.533665495  0.533665495  0.533665495


 FORCES acting on ions
    electron-ion (+dipol)            ewald-force                    non-local-force                 convergence-correction
 -----------------------------------------------------------------------------------------------
   0.520E-14 0.449E-14 0.105E-13   -.509E-15 0.955E-15 -.766E-15   -.496E-23 0.331E-23 -.248E-23   0.458E-14 0.156E-13 0.818E-14
 -----------------------------------------------------------------------------------------------
   0.520E-14 0.449E-14 0.105E-13   -.509E-15 0.955E-15 -.766E-15   -.496E-23 0.331E-23 -.248E-23   0.458E-14 0.156E-13 0.818E-14
 
 
 POSITION                                       TOTAL-FORCE (eV/Angst)
 -----------------------------------------------------------------------------------
      0.00000      0.00000      0.00000         0.000000     -0.000000      0.000000
 -----------------------------------------------------------------------------------
    total drift:                                0.000000      0.000000      0.000000


--------------------------------------------------------------------------------------------------------



  FREE ENERGIE OF THE ION-ELECTRON SYSTEM (eV)
  ---------------------------------------------------
  free  energy   TOTEN  =        -7.91141057 eV

  energy  without entropy=       -7.91095818  energy(sigma->0) =       -7.91125977
 


--------------------------------------------------------------------------------------------------------


    POTLOK:  cpu time    0.0091: real time    0.0092


--------------------------------------------------------------------------------------------------------


 writing wavefunctions
     LOOP+:  cpu time    2.3731: real time    2.4551
    4ORBIT:  cpu time    0.0000: real time    0.0000

volume of typ            1:    99.4 %
 
total charge     
 
# of ion       s       p       d       tot
------------------------------------------
    1        0.491   0.611   6.316   7.418
 
magnetization (x)
 
# of ion       s       p       d       tot
------------------------------------------
    1       -0.005  -0.044   1.921   1.872
 
orbital moment (x)
 
# of ion     s             p             d             tot
-----------------------------------------------------------------
    1     0.000000E+00 -0.237852E-08  0.394059E-08  0.156207E-08
 
orbital moment (y)
 
# of ion     s             p             d             tot
-----------------------------------------------------------------
    1     0.000000E+00  0.353180E-09  0.318617E-08  0.353935E-08
 
orbital moment (z)
 
# of ion     s             p             d             tot
-----------------------------------------------------------------
    1     0.000000E+00  0.923302E-09 -0.197655E-08 -0.105325E-08
 
orbital moment (x)
 
# of ion     s             p             d             tot
-----------------------------------------------------------------
    1     0.000000E+00  0.448938E-08 -0.120883E-07 -0.759888E-08
 
orbital moment (y)
 
# of ion     s             p             d             tot
-----------------------------------------------------------------
    1     0.000000E+00  0.453863E-08 -0.117841E-07 -0.724550E-08
 
orbital moment (z)
 
# of ion     s             p             d             tot
-----------------------------------------------------------------
    1     0.000000E+00  0.312628E-08 -0.361140E-07 -0.329877E-07
 

 total amount of memory used by VASP MPI-rank0    31676. kBytes
=======================================================================

   base      :      30000. kBytes
   nonl-proj :        660. kBytes
   fftplans  :        142. kBytes
   grid      :        320. kBytes
   one-center:         31. kBytes
   wavefun   :        523. kBytes
 
  
  
 General timing and accounting informations for this job:
 ========================================================
  
                  Total CPU time used (sec):        2.957
                            User time (sec):        2.354
                          System time (sec):        0.603
                         Elapsed time (sec):        3.388
  
                   Maximum memory used (kb):       53200.
                   Average memory used (kb):           0.
  
                          Minor page faults:        19017
                          Major page faults:           65
                 Voluntary context switches:         1982
