PROCAR new format
# of k-points:   44         # of bands:   12         # of ions:    1

 k-point     1 :    0.05000000 0.05000000 0.05000000     weight = 0.00800000

band     1 # energy   -0.82646088 # occ.  1.00000000
 
ion      s      p      d    tot
    1  0.727  0.050  0.004  0.781
 
band     2 # energy    5.19737294 # occ.  1.00000000
 
ion      s      p      d    tot
    1  0.000  0.002  0.986  0.988
 
band     3 # energy    5.19737294 # occ.  1.00000000
 
ion      s      p      d    tot
    1  0.000  0.002  0.986  0.988
 
band     4 # energy    5.90471051 # occ.  1.00000000
 
ion      s      p      d    tot
    1  0.001  0.008  0.979  0.988
 
band     5 # energy    7.03139694 # occ.  1.00000000
 
ion      s      p      d    tot
    1  0.000  0.000  0.969  0.970
 
band     6 # energy    7.03139694 # occ.  1.00000000
 
ion      s      p      d    tot
    1  0.000  0.000  0.969  0.970
 
band     7 # energy   32.85350267 # occ.  0.00000000
 
ion      s      p      d    tot
    1  0.000  0.049  0.249  0.298
 
band     8 # energy   32.85350267 # occ.  0.00000000
 
ion      s      p      d    tot
    1  0.000  0.049  0.249  0.298
 
band     9 # energy   35.73550371 # occ.  0.00000000
 
ion      s      p      d    tot
    1  0.000  0.000  0.000  0.000
 
band    10 # energy   39.80492661 # occ.  0.00000000
 
ion      s      p      d    tot
    1  0.048  0.487  0.356  0.892
 
band    11 # energy   42.44707801 # occ.  0.00000000
 
ion      s      p      d    tot
    1  0.000  0.215  0.136  0.351
 
band    12 # energy   42.44707806 # occ.  0.00000000
 
ion      s      p      d    tot
    1  0.000  0.215  0.136  0.351
 

 k-point     2 :    0.15000000 0.05000000 0.05000000     weight = 0.02400000

band     1 # energy    0.44866001 # occ.  1.00000000
 
ion      s      p      d    tot
    1  0.621  0.127  0.042  0.790
 
band     2 # energy    4.78281125 # occ.  1.00000000
 
ion      s      p      d    tot
    1  0.000  0.003  0.979  0.982
 
band     3 # energy    4.97908173 # occ.  1.00000000
 
ion      s      p      d    tot
    1  0.005  0.023  0.939  0.967
 
band     4 # energy    6.80340403 # occ.  1.00000000
 
ion      s      p      d    tot
    1  0.007  0.023  0.949  0.978
 
band     5 # energy    6.88830427 # occ.  1.00000000
 
ion      s      p      d    tot
    1  0.000  0.001  0.971  0.972
 
band     6 # energy    7.14243983 # occ.  1.00000000
 
ion      s      p      d    tot
    1  0.000  0.000  0.974  0.974
 
band     7 # energy   28.73523636 # occ.  0.00000000
 
ion      s      p      d    tot
    1  0.021  0.164  0.380  0.565
 
band     8 # energy   30.98162940 # occ.  0.00000000
 
ion      s      p      d    tot
    1  0.000  0.135  0.283  0.418
 
band     9 # energy   35.82725216 # occ.  0.00000000
 
ion      s      p      d    tot
    1  0.099  0.499  0.245  0.843
 
band    10 # energy   36.35235816 # occ.  0.00000000
 
ion      s      p      d    tot
    1  0.000  0.001  0.133  0.134
 
band    11 # energy   42.48508432 # occ.  0.00000000
 
ion      s      p      d    tot
    1  0.000  0.217  0.129  0.346
 
band    12 # energy   42.99362154 # occ.  0.00000000
 
ion      s      p      d    tot
    1  0.024  0.337  0.357  0.719
 

 k-point     3 :    0.25000000 0.05000000 0.05000000     weight = 0.02400000

band     1 # energy    1.85066152 # occ.  1.00000000
 
ion      s      p      d    tot
    1  0.399  0.136  0.301  0.836
 
band     2 # energy    4.33409885 # occ.  1.00000000
 
ion      s      p      d    tot
    1  0.000  0.005  0.974  0.979
 
band     3 # energy    5.11488054 # occ.  1.00000000
 
ion      s      p      d    tot
    1  0.067  0.151  0.689  0.908
 
band     4 # energy    6.98566915 # occ.  1.00000000
 
ion      s      p      d    tot
    1  0.002  0.002  0.976  0.979
 
band     5 # energy    7.26403250 # occ.  1.00000000
 
ion      s      p      d    tot
    1  0.000  0.000  0.979  0.979
 
band     6 # energy    8.05705352 # occ.  0.90616342
 
ion      s      p      d    tot
    1  0.019  0.054  0.896  0.968
 
band     7 # energy   24.04020623 # occ.  0.00000000
 
ion      s      p      d    tot
    1  0.109  0.234  0.396  0.739
 
band     8 # energy   29.09307923 # occ.  0.00000000
 
ion      s      p      d    tot
    1  0.000  0.204  0.221  0.425
 
band     9 # energy   32.93195057 # occ.  0.00000000
 
ion      s      p      d    tot
    1  0.108  0.529  0.163  0.800
 
band    10 # energy   36.42839806 # occ.  0.00000000
 
ion      s      p      d    tot
    1  0.000  0.003  0.391  0.394
 
band    11 # energy   41.86501580 # occ.  0.00000000
 
ion      s      p      d    tot
    1  0.076  0.243  0.345  0.664
 
band    12 # energy   44.64185894 # occ.  0.00000000
 
ion      s      p      d    tot
    1  0.000  0.203  0.104  0.307
 

 k-point     4 :    0.35000000 0.05000000 0.05000000     weight = 0.02400000

band     1 # energy    2.22073881 # occ.  1.00000000
 
ion      s      p      d    tot
    1  0.180  0.038  0.681  0.900
 
band     2 # energy    3.99825208 # occ.  1.00000000
 
ion      s      p      d    tot
    1  0.000  0.006  0.973  0.978
 
band     3 # energy    6.47610841 # occ.  1.00000000
 
ion      s      p      d    tot
    1  0.081  0.343  0.435  0.858
 
band     4 # energy    7.18744771 # occ.  1.00000000
 
ion      s      p      d    tot
    1  0.001  0.020  0.960  0.982
 
band     5 # energy    7.37157354 # occ.  1.00000012
 
ion      s      p      d    tot
    1  0.000  0.000  0.985  0.985
 
band     6 # energy    9.46453809 # occ. -0.00000000
 
ion      s      p      d    tot
    1  0.035  0.162  0.735  0.932
 
band     7 # energy   19.70840297 # occ.  0.00000000
 
ion      s      p      d    tot
    1  0.264  0.157  0.420  0.841
 
band     8 # energy   27.69899057 # occ.  0.00000000
 
ion      s      p      d    tot
    1  0.000  0.242  0.161  0.403
 
band     9 # energy   30.98357171 # occ.  0.00000000
 
ion      s      p      d    tot
    1  0.101  0.588  0.079  0.768
 
band    10 # energy   36.30360375 # occ.  0.00000000
 
ion      s      p      d    tot
    1  0.000  0.004  0.563  0.567
 
band    11 # energy   41.57102096 # occ.  0.00000000
 
ion      s      p      d    tot
    1  0.136  0.145  0.377  0.659
 
band    12 # energy   46.85998843 # occ.  0.00000000
 
ion      s      p      d    tot
    1  0.033  0.043  0.086  0.162
 

 k-point     5 :    0.45000000 0.05000000 0.05000000     weight = 0.01200000

band     1 # energy    2.17006552 # occ.  1.00000000
 
ion      s      p      d    tot
    1  0.132  0.012  0.770  0.914
 
band     2 # energy    3.87570903 # occ.  1.00000000
 
ion      s      p      d    tot
    1  0.000  0.006  0.972  0.979
 
band     3 # energy    7.22211161 # occ.  1.00000000
 
ion      s      p      d    tot
    1  0.014  0.000  0.971  0.985
 
band     4 # energy    7.40682772 # occ.  1.00000046
 
ion      s      p      d    tot
    1  0.000  0.000  0.988  0.988
 
band     5 # energy    7.41566176 # occ.  1.00000063
 
ion      s      p      d    tot
    1  0.000  0.384  0.486  0.870
 
band     6 # energy   10.42639589 # occ. -0.00000000
 
ion      s      p      d    tot
    1  0.000  0.358  0.516  0.874
 
band     7 # energy   17.53079998 # occ.  0.00000000
 
ion      s      p      d    tot
    1  0.402  0.012  0.483  0.897
 
band     8 # energy   27.19013026 # occ.  0.00000000
 
ion      s      p      d    tot
    1  0.000  0.254  0.138  0.392
 
band     9 # energy   30.25786913 # occ.  0.00000000
 
ion      s      p      d    tot
    1  0.098  0.617  0.039  0.753
 
band    10 # energy   36.24284774 # occ.  0.00000000
 
ion      s      p      d    tot
    1  0.000  0.004  0.617  0.622
 
band    11 # energy   41.56016098 # occ.  0.00000000
 
ion      s      p      d    tot
    1  0.169  0.097  0.411  0.677
 
band    12 # energy   46.48674738 # occ.  0.00000000
 
ion      s      p      d    tot
    1  0.000  0.080  0.005  0.085
 

 k-point     6 :   -0.05000000 0.05000000 0.05000000     weight = 0.00600000

band     1 # energy   -1.29722184 # occ.  1.00000000
 
ion      s      p      d    tot
    1  0.761  0.017  0.000  0.779
 
band     2 # energy    5.37429375 # occ.  1.00000000
 
ion      s      p      d    tot
    1  0.000  0.002  0.990  0.992
 
band     3 # energy    5.37432855 # occ.  1.00000000
 
ion      s      p      d    tot
    1  0.000  0.002  0.990  0.992
 
band     4 # energy    5.45206667 # occ.  1.00000000
 
ion      s      p      d    tot
    1  0.000  0.000  0.993  0.993
 
band     5 # energy    6.97638652 # occ.  1.00000000
 
ion      s      p      d    tot
    1  0.000  0.000  0.967  0.967
 
band     6 # energy    7.16325520 # occ.  1.00000000
 
ion      s      p      d    tot
    1  0.000  0.000  0.973  0.973
 
band     7 # energy   33.92447898 # occ.  0.00000000
 
ion      s      p      d    tot
    1  0.000  0.000  0.119  0.119
 
band     8 # energy   35.05051643 # occ.  0.00000000
 
ion      s      p      d    tot
    1  0.000  0.004  0.070  0.074
 
band     9 # energy   35.05052139 # occ.  0.00000000
 
ion      s      p      d    tot
    1  0.000  0.004  0.070  0.074
 
band    10 # energy   40.22762032 # occ.  0.00000000
 
ion      s      p      d    tot
    1  0.007  0.186  0.263  0.456
 
band    11 # energy   43.48319158 # occ.  0.00000000
 
ion      s      p      d    tot
    1  0.000  0.000  0.322  0.322
 
band    12 # energy   43.54739186 # occ.  0.00000000
 
ion      s      p      d    tot
    1  0.000  0.425  0.436  0.860
 

 k-point     7 :    0.15000000 0.15000000 0.05000000     weight = 0.02400000

band     1 # energy    1.84260610 # occ.  1.00000000
 
ion      s      p      d    tot
    1  0.475  0.187  0.148  0.810
 
band     2 # energy    4.45578833 # occ.  1.00000000
 
ion      s      p      d    tot
    1  0.000  0.028  0.930  0.958
 
band     3 # energy    4.52057920 # occ.  1.00000000
 
ion      s      p      d    tot
    1  0.011  0.030  0.927  0.967
 
band     4 # energy    6.92032084 # occ.  1.00000000
 
ion      s      p      d    tot
    1  0.000  0.001  0.974  0.974
 
band     5 # energy    7.27830608 # occ.  1.00000000
 
ion      s      p      d    tot
    1  0.003  0.000  0.978  0.981
 
band     6 # energy    8.13230790 # occ.  0.66069311
 
ion      s      p      d    tot
    1  0.029  0.065  0.870  0.964
 
band     7 # energy   26.24565500 # occ.  0.00000000
 
ion      s      p      d    tot
    1  0.000  0.233  0.411  0.644
 
band     8 # energy   27.42180261 # occ.  0.00000000
 
ion      s      p      d    tot
    1  0.070  0.232  0.309  0.611
 
band     9 # energy   31.99007583 # occ.  0.00000000
 
ion      s      p      d    tot
    1  0.166  0.457  0.154  0.776
 
band    10 # energy   37.86309599 # occ.  0.00000000
 
ion      s      p      d    tot
    1  0.000  0.012  0.115  0.128
 
band    11 # energy   43.30649981 # occ.  0.00000000
 
ion      s      p      d    tot
    1  0.015  0.102  0.356  0.473
 
band    12 # energy   45.23023804 # occ.  0.00000000
 
ion      s      p      d    tot
    1  0.000  0.228  0.335  0.563
 

 k-point     8 :    0.25000000 0.15000000 0.05000000     weight = 0.04800000

band     1 # energy    2.78569487 # occ.  1.00000000
 
ion      s      p      d    tot
    1  0.218  0.113  0.551  0.882
 
band     2 # energy    4.08111558 # occ.  1.00000000
 
ion      s      p      d    tot
    1  0.000  0.031  0.932  0.963
 
band     3 # energy    4.87848589 # occ.  1.00000000
 
ion      s      p      d    tot
    1  0.070  0.187  0.648  0.904
 
band     4 # energy    7.06411861 # occ.  1.00000000
 
ion      s      p      d    tot
    1  0.001  0.003  0.977  0.980
 
band     5 # energy    7.43125376 # occ.  1.00000111
 
ion      s      p      d    tot
    1  0.007  0.003  0.975  0.985
 
band     6 # energy    9.88746332 # occ. -0.00000000
 
ion      s      p      d    tot
    1  0.063  0.151  0.718  0.933
 
band     7 # energy   22.08471048 # occ.  0.00000000
 
ion      s      p      d    tot
    1  0.121  0.261  0.388  0.771
 
band     8 # energy   25.38683317 # occ.  0.00000000
 
ion      s      p      d    tot
    1  0.089  0.268  0.289  0.646
 
band     9 # energy   29.73421038 # occ.  0.00000000
 
ion      s      p      d    tot
    1  0.164  0.434  0.119  0.718
 
band    10 # energy   38.46547016 # occ.  0.00000000
 
ion      s      p      d    tot
    1  0.004  0.019  0.268  0.291
 
band    11 # energy   44.04524178 # occ.  0.00000000
 
ion      s      p      d    tot
    1  0.005  0.091  0.342  0.438
 
band    12 # energy   46.01412503 # occ.  0.00000000
 
ion      s      p      d    tot
    1  0.056  0.182  0.242  0.480
 

 k-point     9 :    0.35000000 0.15000000 0.05000000     weight = 0.04800000

band     1 # energy    2.74755845 # occ.  1.00000000
 
ion      s      p      d    tot
    1  0.106  0.049  0.762  0.917
 
band     2 # energy    3.90571792 # occ.  1.00000000
 
ion      s      p      d    tot
    1  0.000  0.030  0.939  0.968
 
band     3 # energy    5.81650470 # occ.  1.00000000
 
ion      s      p      d    tot
    1  0.016  0.269  0.609  0.894
 
band     4 # energy    7.23380961 # occ.  1.00000000
 
ion      s      p      d    tot
    1  0.006  0.003  0.974  0.984
 
band     5 # energy    7.55831973 # occ.  1.00006508
 
ion      s      p      d    tot
    1  0.004  0.021  0.959  0.984
 
band     6 # energy   11.88973725 # occ. -0.00000000
 
ion      s      p      d    tot
    1  0.035  0.338  0.500  0.873
 
band     7 # energy   18.31363849 # occ.  0.00000000
 
ion      s      p      d    tot
    1  0.300  0.130  0.426  0.856
 
band     8 # energy   24.44977831 # occ.  0.00000000
 
ion      s      p      d    tot
    1  0.095  0.293  0.260  0.647
 
band     9 # energy   28.61494293 # occ.  0.00000000
 
ion      s      p      d    tot
    1  0.156  0.445  0.094  0.694
 
band    10 # energy   38.54794029 # occ.  0.00000000
 
ion      s      p      d    tot
    1  0.010  0.012  0.384  0.406
 
band    11 # energy   44.96830412 # occ.  0.00000000
 
ion      s      p      d    tot
    1  0.007  0.106  0.233  0.346
 
band    12 # energy   45.90555960 # occ.  0.00000000
 
ion      s      p      d    tot
    1  0.066  0.118  0.261  0.445
 

 k-point    10 :   -0.15000000 0.15000000 0.05000000     weight = 0.02400000

band     1 # energy   -0.37801909 # occ.  1.00000000
 
ion      s      p      d    tot
    1  0.691  0.080  0.012  0.783
 
band     2 # energy    5.11720128 # occ.  1.00000000
 
ion      s      p      d    tot
    1  0.000  0.002  0.986  0.988
 
band     3 # energy    5.31827774 # occ.  1.00000000
 
ion      s      p      d    tot
    1  0.002  0.013  0.964  0.979
 
band     4 # energy    6.00782281 # occ.  1.00000000
 
ion      s      p      d    tot
    1  0.000  0.006  0.981  0.987
 
band     5 # energy    6.69162638 # occ.  1.00000000
 
ion      s      p      d    tot
    1  0.000  0.000  0.961  0.961
 
band     6 # energy    7.25618216 # occ.  1.00000000
 
ion      s      p      d    tot
    1  0.002  0.001  0.973  0.976
 
band     7 # energy   30.94015990 # occ.  0.00000000
 
ion      s      p      d    tot
    1  0.007  0.077  0.332  0.416
 
band     8 # energy   33.66230462 # occ.  0.00000000
 
ion      s      p      d    tot
    1  0.010  0.081  0.159  0.250
 
band     9 # energy   34.72786800 # occ.  0.00000000
 
ion      s      p      d    tot
    1  0.000  0.047  0.288  0.336
 
band    10 # energy   39.36102996 # occ.  0.00000000
 
ion      s      p      d    tot
    1  0.013  0.253  0.126  0.391
 
band    11 # energy   40.56379204 # occ.  0.00000000
 
ion      s      p      d    tot
    1  0.000  0.471  0.322  0.794
 
band    12 # energy   41.44565847 # occ.  0.00000000
 
ion      s      p      d    tot
    1  0.054  0.416  0.183  0.653
 

 k-point    11 :    0.25000000 0.25000000 0.05000000     weight = 0.02400000

band     1 # energy    3.32436951 # occ.  1.00000000
 
ion      s      p      d    tot
    1  0.086  0.051  0.799  0.936
 
band     2 # energy    3.98954704 # occ.  1.00000000
 
ion      s      p      d    tot
    1  0.000  0.098  0.835  0.933
 
band     3 # energy    4.83862290 # occ.  1.00000000
 
ion      s      p      d    tot
    1  0.035  0.203  0.671  0.910
 
band     4 # energy    7.20951702 # occ.  1.00000000
 
ion      s      p      d    tot
    1  0.000  0.005  0.978  0.983
 
band     5 # energy    7.54885729 # occ.  1.00004950
 
ion      s      p      d    tot
    1  0.008  0.009  0.969  0.986
 
band     6 # energy   12.42736256 # occ. -0.00000000
 
ion      s      p      d    tot
    1  0.082  0.276  0.529  0.887
 
band     7 # energy   20.10620097 # occ.  0.00000000
 
ion      s      p      d    tot
    1  0.000  0.375  0.414  0.790
 
band     8 # energy   21.64931996 # occ.  0.00000000
 
ion      s      p      d    tot
    1  0.376  0.152  0.236  0.763
 
band     9 # energy   28.36328265 # occ.  0.00000000
 
ion      s      p      d    tot
    1  0.156  0.390  0.148  0.694
 
band    10 # energy   39.99016172 # occ.  0.00000000
 
ion      s      p      d    tot
    1  0.000  0.046  0.219  0.265
 
band    11 # energy   43.53232071 # occ.  0.00000000
 
ion      s      p      d    tot
    1  0.016  0.044  0.271  0.331
 
band    12 # energy   50.40842683 # occ.  0.00000000
 
ion      s      p      d    tot
    1  0.000  0.185  0.172  0.357
 

 k-point    12 :    0.35000000 0.25000000 0.05000000     weight = 0.02400000

band     1 # energy    3.35029868 # occ.  1.00000000
 
ion      s      p      d    tot
    1  0.057  0.038  0.851  0.945
 
band     2 # energy    4.05830829 # occ.  1.00000000
 
ion      s      p      d    tot
    1  0.000  0.110  0.826  0.936
 
band     3 # energy    4.89764922 # occ.  1.00000000
 
ion      s      p      d    tot
    1  0.000  0.210  0.699  0.910
 
band     4 # energy    7.34347064 # occ.  1.00000004
 
ion      s      p      d    tot
    1  0.002  0.006  0.976  0.985
 
band     5 # energy    7.54248345 # occ.  1.00004106
 
ion      s      p      d    tot
    1  0.000  0.015  0.971  0.986
 
band     6 # energy   14.70935596 # occ.  0.00000000
 
ion      s      p      d    tot
    1  0.000  0.426  0.414  0.840
 
band     7 # energy   17.50716911 # occ.  0.00000000
 
ion      s      p      d    tot
    1  0.160  0.262  0.419  0.841
 
band     8 # energy   20.78250159 # occ.  0.00000000
 
ion      s      p      d    tot
    1  0.372  0.149  0.252  0.773
 
band     9 # energy   27.95888250 # occ.  0.00000000
 
ion      s      p      d    tot
    1  0.153  0.384  0.160  0.697
 
band    10 # energy   40.67401576 # occ.  0.00000000
 
ion      s      p      d    tot
    1  0.004  0.044  0.246  0.294
 
band    11 # energy   43.23527651 # occ.  0.00000000
 
ion      s      p      d    tot
    1  0.000  0.057  0.175  0.233
 
band    12 # energy   50.37713985 # occ.  0.00000000
 
ion      s      p      d    tot
    1  0.002  0.128  0.390  0.519
 

 k-point    13 :   -0.25000000 0.25000000 0.05000000     weight = 0.02400000

band     1 # energy    1.10104320 # occ.  1.00000000
 
ion      s      p      d    tot
    1  0.532  0.146  0.127  0.805
 
band     2 # energy    4.68304171 # occ.  1.00000000
 
ion      s      p      d    tot
    1  0.000  0.002  0.981  0.983
 
band     3 # energy    5.16992205 # occ.  1.00000000
 
ion      s      p      d    tot
    1  0.032  0.079  0.822  0.933
 
band     4 # energy    6.70236744 # occ.  1.00000000
 
ion      s      p      d    tot
    1  0.000  0.006  0.965  0.971
 
band     5 # energy    7.00842986 # occ.  1.00000000
 
ion      s      p      d    tot
    1  0.000  0.012  0.970  0.982
 
band     6 # energy    7.36795537 # occ.  1.00000011
 
ion      s      p      d    tot
    1  0.010  0.003  0.964  0.978
 
band     7 # energy   26.40250859 # occ.  0.00000000
 
ion      s      p      d    tot
    1  0.065  0.207  0.401  0.673
 
band     8 # energy   31.31424621 # occ.  0.00000000
 
ion      s      p      d    tot
    1  0.017  0.152  0.120  0.289
 
band     9 # energy   33.90835593 # occ.  0.00000000
 
ion      s      p      d    tot
    1  0.000  0.219  0.432  0.651
 
band    10 # energy   37.78887990 # occ.  0.00000000
 
ion      s      p      d    tot
    1  0.000  0.383  0.311  0.694
 
band    11 # energy   39.74122011 # occ.  0.00000000
 
ion      s      p      d    tot
    1  0.042  0.305  0.265  0.612
 
band    12 # energy   41.56744206 # occ.  0.00000000
 
ion      s      p      d    tot
    1  0.106  0.157  0.070  0.333
 

 k-point    14 :   -0.15000000 0.25000000 0.05000000     weight = 0.02400000

band     1 # energy    0.82578978 # occ.  1.00000000
 
ion      s      p      d    tot
    1  0.580  0.151  0.063  0.793
 
band     2 # energy    4.99418519 # occ.  1.00000000
 
ion      s      p      d    tot
    1  0.000  0.018  0.944  0.962
 
band     3 # energy    5.01655976 # occ.  1.00000000
 
ion      s      p      d    tot
    1  0.005  0.016  0.956  0.978
 
band     4 # energy    6.42361615 # occ.  1.00000000
 
ion      s      p      d    tot
    1  0.000  0.001  0.960  0.961
 
band     5 # energy    6.75641963 # occ.  1.00000000
 
ion      s      p      d    tot
    1  0.003  0.020  0.957  0.980
 
band     6 # energy    7.47096252 # occ.  1.00000434
 
ion      s      p      d    tot
    1  0.016  0.005  0.957  0.979
 
band     7 # energy   28.46807762 # occ.  0.00000000
 
ion      s      p      d    tot
    1  0.000  0.139  0.414  0.554
 
band     8 # energy   30.24673322 # occ.  0.00000000
 
ion      s      p      d    tot
    1  0.070  0.225  0.279  0.574
 
band     9 # energy   34.84368039 # occ.  0.00000000
 
ion      s      p      d    tot
    1  0.000  0.080  0.293  0.374
 
band    10 # energy   36.91196057 # occ.  0.00000000
 
ion      s      p      d    tot
    1  0.003  0.484  0.180  0.668
 
band    11 # energy   39.47160148 # occ.  0.00000000
 
ion      s      p      d    tot
    1  0.085  0.146  0.228  0.459
 
band    12 # energy   43.23603895 # occ.  0.00000000
 
ion      s      p      d    tot
    1  0.000  0.387  0.102  0.489
 

 k-point    15 :   -0.35000000 0.35000000 0.05000000     weight = 0.02400000

band     1 # energy    2.03981140 # occ.  1.00000000
 
ion      s      p      d    tot
    1  0.269  0.075  0.529  0.873
 
band     2 # energy    4.26552332 # occ.  1.00000000
 
ion      s      p      d    tot
    1  0.000  0.002  0.979  0.980
 
band     3 # energy    5.80522133 # occ.  1.00000000
 
ion      s      p      d    tot
    1  0.091  0.245  0.534  0.869
 
band     4 # energy    7.04094309 # occ.  1.00000000
 
ion      s      p      d    tot
    1  0.000  0.035  0.941  0.976
 
band     5 # energy    7.67597039 # occ.  1.00129069
 
ion      s      p      d    tot
    1  0.044  0.079  0.833  0.956
 
band     6 # energy    8.12315064 # occ.  0.69649573
 
ion      s      p      d    tot
    1  0.000  0.009  0.974  0.984
 
band     7 # energy   21.72650867 # occ.  0.00000000
 
ion      s      p      d    tot
    1  0.187  0.210  0.407  0.804
 
band     8 # energy   29.37331861 # occ.  0.00000000
 
ion      s      p      d    tot
    1  0.015  0.200  0.069  0.285
 
band     9 # energy   32.31842321 # occ.  0.00000000
 
ion      s      p      d    tot
    1  0.000  0.489  0.291  0.780
 
band    10 # energy   36.44070876 # occ.  0.00000000
 
ion      s      p      d    tot
    1  0.000  0.194  0.497  0.691
 
band    11 # energy   39.75905978 # occ.  0.00000000
 
ion      s      p      d    tot
    1  0.139  0.162  0.335  0.636
 
band    12 # energy   43.55856064 # occ.  0.00000000
 
ion      s      p      d    tot
    1  0.079  0.078  0.167  0.324
 

 k-point    16 :   -0.25000000 0.35000000 0.05000000     weight = 0.04800000

band     1 # energy    2.14949929 # occ.  1.00000000
 
ion      s      p      d    tot
    1  0.364  0.158  0.314  0.836
 
band     2 # energy    4.50694680 # occ.  1.00000000
 
ion      s      p      d    tot
    1  0.002  0.025  0.929  0.956
 
band     3 # energy    4.96883105 # occ.  1.00000000
 
ion      s      p      d    tot
    1  0.035  0.095  0.803  0.933
 
band     4 # energy    6.61238690 # occ.  1.00000000
 
ion      s      p      d    tot
    1  0.000  0.012  0.959  0.970
 
band     5 # energy    7.55229547 # occ.  1.00005471
 
ion      s      p      d    tot
    1  0.012  0.003  0.969  0.985
 
band     6 # energy    8.23214228 # occ.  0.25449462
 
ion      s      p      d    tot
    1  0.053  0.077  0.826  0.957
 
band     7 # energy   24.29812616 # occ.  0.00000000
 
ion      s      p      d    tot
    1  0.085  0.248  0.405  0.737
 
band     8 # energy   27.68320892 # occ.  0.00000000
 
ion      s      p      d    tot
    1  0.086  0.246  0.273  0.605
 
band     9 # energy   33.43248404 # occ.  0.00000000
 
ion      s      p      d    tot
    1  0.003  0.367  0.182  0.552
 
band    10 # energy   36.09547967 # occ.  0.00000000
 
ion      s      p      d    tot
    1  0.027  0.226  0.302  0.555
 
band    11 # energy   40.05210550 # occ.  0.00000000
 
ion      s      p      d    tot
    1  0.056  0.098  0.348  0.502
 
band    12 # energy   43.98595127 # occ.  0.00000000
 
ion      s      p      d    tot
    1  0.067  0.226  0.189  0.482
 

 k-point    17 :   -0.45000000 0.45000000 0.05000000     weight = 0.02400000

band     1 # energy    2.08300712 # occ.  1.00000000
 
ion      s      p      d    tot
    1  0.148  0.010  0.751  0.909
 
band     2 # energy    4.01863447 # occ.  1.00000000
 
ion      s      p      d    tot
    1  0.000  0.002  0.978  0.980
 
band     3 # energy    6.66330151 # occ.  1.00000000
 
ion      s      p      d    tot
    1  0.015  0.168  0.735  0.917
 
band     4 # energy    7.14579466 # occ.  1.00000000
 
ion      s      p      d    tot
    1  0.010  0.012  0.959  0.981
 
band     5 # energy    8.89488293 # occ. -0.00000194
 
ion      s      p      d    tot
    1  0.000  0.002  0.989  0.990
 
band     6 # energy    8.96304153 # occ. -0.00000016
 
ion      s      p      d    tot
    1  0.031  0.495  0.311  0.838
 
band     7 # energy   18.14509736 # occ.  0.00000000
 
ion      s      p      d    tot
    1  0.360  0.061  0.463  0.885
 
band     8 # energy   28.29205938 # occ.  0.00000000
 
ion      s      p      d    tot
    1  0.014  0.224  0.036  0.274
 
band     9 # energy   31.03936085 # occ.  0.00000000
 
ion      s      p      d    tot
    1  0.000  0.619  0.151  0.770
 
band    10 # energy   36.05328901 # occ.  0.00000000
 
ion      s      p      d    tot
    1  0.000  0.117  0.630  0.747
 
band    11 # energy   40.07228230 # occ.  0.00000000
 
ion      s      p      d    tot
    1  0.210  0.050  0.419  0.678
 
band    12 # energy   44.53811910 # occ.  0.00000000
 
ion      s      p      d    tot
    1  0.016  0.064  0.124  0.204
 

 k-point    18 :   -0.35000000 0.45000000 0.05000000     weight = 0.04800000

band     1 # energy    2.50650291 # occ.  1.00000000
 
ion      s      p      d    tot
    1  0.156  0.054  0.689  0.899
 
band     2 # energy    4.25371873 # occ.  1.00000000
 
ion      s      p      d    tot
    1  0.002  0.018  0.950  0.969
 
band     3 # energy    5.43761319 # occ.  1.00000000
 
ion      s      p      d    tot
    1  0.035  0.201  0.657  0.892
 
band     4 # energy    6.94993215 # occ.  1.00000000
 
ion      s      p      d    tot
    1  0.004  0.016  0.956  0.976
 
band     5 # energy    8.03969727 # occ.  0.94392373
 
ion      s      p      d    tot
    1  0.021  0.045  0.910  0.975
 
band     6 # energy    9.97827403 # occ. -0.00000000
 
ion      s      p      d    tot
    1  0.070  0.242  0.598  0.911
 
band     7 # energy   19.90523801 # occ.  0.00000000
 
ion      s      p      d    tot
    1  0.236  0.192  0.409  0.837
 
band     8 # energy   26.27021719 # occ.  0.00000000
 
ion      s      p      d    tot
    1  0.083  0.288  0.241  0.612
 
band     9 # energy   31.59795928 # occ.  0.00000000
 
ion      s      p      d    tot
    1  0.005  0.468  0.076  0.548
 
band    10 # energy   36.41731041 # occ.  0.00000000
 
ion      s      p      d    tot
    1  0.052  0.091  0.494  0.637
 
band    11 # energy   41.04421547 # occ.  0.00000000
 
ion      s      p      d    tot
    1  0.007  0.124  0.293  0.424
 
band    12 # energy   43.84231745 # occ.  0.00000000
 
ion      s      p      d    tot
    1  0.109  0.112  0.313  0.534
 

 k-point    19 :   -0.25000000 0.45000000 0.05000000     weight = 0.02400000

band     1 # energy    3.04388523 # occ.  1.00000000
 
ion      s      p      d    tot
    1  0.184  0.113  0.590  0.888
 
band     2 # energy    4.03312824 # occ.  1.00000000
 
ion      s      p      d    tot
    1  0.000  0.060  0.866  0.926
 
band     3 # energy    4.97015114 # occ.  1.00000000
 
ion      s      p      d    tot
    1  0.019  0.123  0.793  0.935
 
band     4 # energy    6.78854500 # occ.  1.00000000
 
ion      s      p      d    tot
    1  0.000  0.011  0.962  0.973
 
band     5 # energy    7.76463381 # occ.  1.00719376
 
ion      s      p      d    tot
    1  0.025  0.011  0.946  0.983
 
band     6 # energy   10.33422532 # occ. -0.00000000
 
ion      s      p      d    tot
    1  0.096  0.204  0.619  0.919
 
band     7 # energy   22.18198328 # occ.  0.00000000
 
ion      s      p      d    tot
    1  0.000  0.344  0.435  0.779
 
band     8 # energy   23.41112103 # occ.  0.00000000
 
ion      s      p      d    tot
    1  0.293  0.216  0.231  0.740
 
band     9 # energy   33.19792638 # occ.  0.00000000
 
ion      s      p      d    tot
    1  0.030  0.486  0.077  0.592
 
band    10 # energy   35.38944420 # occ.  0.00000000
 
ion      s      p      d    tot
    1  0.000  0.095  0.333  0.428
 
band    11 # energy   39.92975946 # occ.  0.00000000
 
ion      s      p      d    tot
    1  0.075  0.013  0.413  0.502
 
band    12 # energy   48.49317341 # occ.  0.00000000
 
ion      s      p      d    tot
    1  0.000  0.270  0.150  0.420
 

 k-point    20 :   -0.45000000-0.45000000 0.05000000     weight = 0.02400000

band     1 # energy    2.44310900 # occ.  1.00000000
 
ion      s      p      d    tot
    1  0.110  0.025  0.778  0.912
 
band     2 # energy    4.16777152 # occ.  1.00000000
 
ion      s      p      d    tot
    1  0.001  0.014  0.958  0.973
 