<?xml version="1.0" encoding="ISO-8859-1"?>
<modeling>
 <generator>
  <i name="program" type="string">vasp </i>
  <i name="version" type="string">5.4.4.18Apr17-6-g9f103f2a35  </i>
  <i name="subversion" type="string">(build May 18 2018 14:42:58) complex            parallel </i>
  <i name="platform" type="string">LinuxIFC </i>
  <i name="date" type="string">2020 06 30 </i>
  <i name="time" type="string">16:50:39 </i>
 </generator>
 <incar>
  <i type="string" name="SYSTEM"> bcc Fe</i>
  <i type="string" name="PREC">normal</i>
  <i type="int" name="ISPIN">     2</i>
  <i name="EDIFF">      0.00010000</i>
  <i name="ENCUT">    268.00000000</i>
  <v name="RWIGS">      1.30200000</v>
  <v name="MAGMOM">      3.00000000</v>
  <v type="int" name="KPOINT_BSE">    -1     0     0     0</v>
 </incar>
 <structure name="primitive_cell" >
  <crystal>
   <varray name="basis" >
    <v>      -1.32500000       1.32500000       1.32500000 </v>
    <v>       1.32500000      -1.32500000       1.32500000 </v>
    <v>       1.32500000       1.32500000      -1.32500000 </v>
   </varray>
   <i name="volume">      9.30481250 </i>
   <varray name="rec_basis" >
    <v>       0.00000000       0.37735849       0.37735849 </v>
    <v>       0.37735849       0.00000000       0.37735849 </v>
    <v>       0.37735849       0.37735849       0.00000000 </v>
   </varray>
  </crystal>
  <varray name="positions" >
   <v>       0.00000000       0.00000000       0.00000000 </v>
  </varray>
 </structure>
 <varray name="primitive_index" >
  <v type="int" >        1 </v>
 </varray>
 <kpoints>
  <generation param="Monkhorst-Pack">
   <v type="int" name="divisions">      10       10       10 </v>
   <v name="usershift">      0.00000000       0.00000000       0.00000000 </v>
   <v name="genvec1">      0.10000000       0.00000000       0.00000000 </v>
   <v name="genvec2">      0.00000000       0.10000000       0.00000000 </v>
   <v name="genvec3">      0.00000000       0.00000000       0.10000000 </v>
   <v name="shift">      0.50000000       0.50000000       0.50000000 </v>
  </generation>
  <varray name="kpointlist" >
   <v>       0.05000000       0.05000000       0.05000000 </v>
   <v>       0.15000000       0.05000000       0.05000000 </v>
   <v>       0.25000000       0.05000000       0.05000000 </v>
   <v>       0.35000000       0.05000000       0.05000000 </v>
   <v>       0.45000000       0.05000000       0.05000000 </v>
   <v>      -0.05000000       0.05000000       0.05000000 </v>
   <v>       0.15000000       0.15000000       0.05000000 </v>
   <v>       0.25000000       0.15000000       0.05000000 </v>
   <v>       0.35000000       0.15000000       0.05000000 </v>
   <v>      -0.15000000       0.15000000       0.05000000 </v>
   <v>       0.25000000       0.25000000       0.05000000 </v>
   <v>       0.35000000       0.25000000       0.05000000 </v>
   <v>      -0.25000000       0.25000000       0.05000000 </v>
   <v>      -0.15000000       0.25000000       0.05000000 </v>
   <v>      -0.35000000       0.35000000       0.05000000 </v>
   <v>      -0.25000000       0.35000000       0.05000000 </v>
   <v>      -0.45000000       0.45000000       0.05000000 </v>
   <v>      -0.35000000       0.45000000       0.05000000 </v>
   <v>      -0.25000000       0.45000000       0.05000000 </v>
   <v>      -0.45000000      -0.45000000       0.05000000 </v>
   <v>      -0.35000000      -0.45000000       0.05000000 </v>
   <v>      -0.35000000      -0.35000000       0.05000000 </v>
   <v>       0.15000000       0.15000000       0.15000000 </v>
   <v>       0.25000000       0.15000000       0.15000000 </v>
   <v>       0.35000000       0.15000000       0.15000000 </v>
   <v>      -0.15000000       0.15000000       0.15000000 </v>
   <v>       0.25000000       0.25000000       0.15000000 </v>
   <v>      -0.25000000       0.25000000       0.15000000 </v>
   <v>      -0.35000000       0.35000000       0.15000000 </v>
   <v>      -0.25000000       0.35000000       0.15000000 </v>
   <v>      -0.45000000       0.45000000       0.15000000 </v>
   <v>      -0.35000000       0.45000000       0.15000000 </v>
   <v>      -0.45000000      -0.45000000       0.15000000 </v>
   <v>      -0.35000000      -0.45000000       0.15000000 </v>
   <v>       0.25000000       0.25000000       0.25000000 </v>
   <v>      -0.25000000       0.25000000       0.25000000 </v>
   <v>      -0.35000000       0.35000000       0.25000000 </v>
   <v>      -0.45000000       0.45000000       0.25000000 </v>
   <v>      -0.35000000       0.45000000       0.25000000 </v>
   <v>      -0.45000000      -0.45000000       0.25000000 </v>
   <v>      -0.35000000       0.35000000       0.35000000 </v>
   <v>      -0.45000000       0.45000000       0.35000000 </v>
   <v>      -0.45000000      -0.45000000       0.35000000 </v>
   <v>      -0.45000000       0.45000000       0.45000000 </v>
  </varray>
  <varray name="weights" >
   <v>       0.00800000 </v>
   <v>       0.02400000 </v>
   <v>       0.02400000 </v>
   <v>       0.02400000 </v>
   <v>       0.01200000 </v>
   <v>       0.00600000 </v>
   <v>       0.02400000 </v>
   <v>       0.04800000 </v>
   <v>       0.04800000 </v>
   <v>       0.02400000 </v>
   <v>       0.02400000 </v>
   <v>       0.02400000 </v>
   <v>       0.02400000 </v>
   <v>       0.02400000 </v>
   <v>       0.02400000 </v>
   <v>       0.04800000 </v>
   <v>       0.02400000 </v>
   <v>       0.04800000 </v>
   <v>       0.02400000 </v>
   <v>       0.02400000 </v>
   <v>       0.04800000 </v>
   <v>       0.00800000 </v>
   <v>       0.00800000 </v>
   <v>       0.02400000 </v>
   <v>       0.01200000 </v>
   <v>       0.00600000 </v>
   <v>       0.02400000 </v>
   <v>       0.02400000 </v>
   <v>       0.02400000 </v>
   <v>       0.02400000 </v>
   <v>       0.02400000 </v>
   <v>       0.04800000 </v>
   <v>       0.02400000 </v>
   <v>       0.02400000 </v>
   <v>       0.00200000 </v>
   <v>       0.00600000 </v>
   <v>       0.02400000 </v>
   <v>       0.02400000 </v>
   <v>       0.02400000 </v>
   <v>       0.02400000 </v>
   <v>       0.00600000 </v>
   <v>       0.02400000 </v>
   <v>       0.00800000 </v>
   <v>       0.00600000 </v>
  </varray>
 </kpoints>
 <parameters>
  <separator name="general" >
   <i type="string" name="SYSTEM">bcc Fe</i>
   <i type="logical" name="LCOMPAT"> F  </i>
  </separator>
  <separator name="electronic" >
   <i type="string" name="PREC">normal</i>
   <i name="ENMAX">    268.00000000</i>
   <i name="ENAUG">    511.36800000</i>
   <i name="EDIFF">      0.00010000</i>
   <i type="int" name="IALGO">    38</i>
   <i type="int" name="IWAVPR">    10</i>
   <i type="int" name="NBANDS">    12</i>
   <i name="NELECT">      8.00000000</i>
   <i type="int" name="TURBO">     0</i>
   <i type="int" name="IRESTART">     0</i>
   <i type="int" name="NREBOOT">     0</i>
   <i type="int" name="NMIN">     0</i>
   <i name="EREF">      0.00000000</i>
   <separator name="electronic smearing" >
    <i type="int" name="ISMEAR">     1</i>
    <i name="SIGMA">      0.20000000</i>
    <i name="KSPACING">      0.50000000</i>
    <i type="logical" name="KGAMMA"> T  </i>
   </separator>
   <separator name="electronic projectors" >
    <i type="logical" name="LREAL"> F  </i>
    <v name="ROPT">      0.00000000</v>
    <i type="int" name="LMAXPAW">  -100</i>
    <i type="int" name="LMAXMIX">     2</i>
    <i type="logical" name="NLSPLINE"> F  </i>
   </separator>
   <separator name="electronic startup" >
    <i type="int" name="ISTART">     0</i>
    <i type="int" name="ICHARG">     2</i>
    <i type="int" name="INIWAV">     1</i>
   </separator>
   <separator name="electronic spin" >
    <i type="int" name="ISPIN">     2</i>
    <i type="logical" name="LNONCOLLINEAR"> F  </i>
    <v name="MAGMOM">      3.00000000</v>
    <i name="NUPDOWN">     -1.00000000</i>
    <i type="logical" name="LSORBIT"> F  </i>
    <v name="SAXIS">      0.00000000      0.00000000      1.00000000</v>
    <i type="logical" name="LSPIRAL"> F  </i>
    <v name="QSPIRAL">      0.00000000      0.00000000      0.00000000</v>
    <i type="logical" name="LZEROZ"> F  </i>
   </separator>
   <separator name="electronic exchange-correlation" >
    <i type="logical" name="LASPH"> F  </i>
    <i type="logical" name="LMETAGGA"> F  </i>
   </separator>
   <separator name="electronic convergence" >
    <i type="int" name="NELM">    60</i>
    <i type="int" name="NELMDL">    -5</i>
    <i type="int" name="NELMIN">     2</i>
    <i name="ENINI">    268.00000000</i>
    <separator name="electronic convergence detail" >
     <i type="logical" name="LDIAG"> T  </i>
     <i type="logical" name="LSUBROT"> F  </i>
     <i name="WEIMIN">      0.00000000</i>
     <i name="EBREAK">      0.00000208</i>
     <i name="DEPER">      0.30000000</i>
     <i type="int" name="NRMM">     4</i>
     <i name="TIME">      0.40000000</i>
    </separator>
   </separator>
   <separator name="electronic mixer" >
    <i name="AMIX">      0.40000000</i>
    <i name="BMIX">      1.00000000</i>
    <i name="AMIN">      0.10000000</i>
    <i name="AMIX_MAG">      1.60000000</i>
    <i name="BMIX_MAG">      1.00000000</i>
    <separator name="electronic mixer details" >
     <i type="int" name="IMIX">     4</i>
     <i type="logical" name="MIXFIRST"> F  </i>
     <i type="int" name="MAXMIX">   -45</i>
     <i name="WC">    100.00000000</i>
     <i type="int" name="INIMIX">     1</i>
     <i type="int" name="MIXPRE">     1</i>
     <i type="int" name="MREMOVE">     5</i>
    </separator>
   </separator>
   <separator name="electronic dipolcorrection" >
    <i type="logical" name="LDIPOL"> F  </i>
    <i type="logical" name="LMONO"> F  </i>
    <i type="int" name="IDIPOL">     0</i>
    <i name="EPSILON">      1.00000000</i>
    <v name="DIPOL">   -100.00000000   -100.00000000   -100.00000000</v>
    <i name="EFIELD">      0.00000000</i>
   </separator>
  </separator>
  <separator name="grids" >
   <i type="int" name="NGX">    10</i>
   <i type="int" name="NGY">    10</i>
   <i type="int" name="NGZ">    10</i>
   <i type="int" name="NGXF">    20</i>
   <i type="int" name="NGYF">    20</i>
   <i type="int" name="NGZF">    20</i>
   <i type="logical" name="ADDGRID"> F  </i>
  </separator>
  <separator name="ionic" >
   <i type="int" name="NSW">     0</i>
   <i type="int" name="IBRION">    -1</i>
   <i type="int" name="MDALGO">     0</i>
   <i type="int" name="ISIF">     2</i>
   <i name="PSTRESS">      0.00000000</i>
   <i name="EDIFFG">      0.00100000</i>
   <i type="int" name="NFREE">     0</i>
   <i name="POTIM">      0.50000000</i>
   <i name="SMASS">     -3.00000000</i>
   <i name="SCALEE">      1.00000000</i>
  </separator>
  <separator name="ionic md" >
   <i name="TEBEG">      0.00010000</i>
   <i name="TEEND">      0.00010000</i>
   <i type="int" name="NBLOCK">     1</i>
   <i type="int" name="KBLOCK">     1</i>
   <i type="int" name="NPACO">   256</i>
   <i name="APACO">     16.00000000</i>
  </separator>
  <separator name="symmetry" >
   <i type="int" name="ISYM">     2</i>
   <i name="SYMPREC">      0.00001000</i>
  </separator>
  <separator name="dos" >
   <i type="int" name="LORBIT">     0</i>
   <v name="RWIGS">      1.30200000</v>
   <i type="int" name="NEDOS">   301</i>
   <i name="EMIN">     10.00000000</i>
   <i name="EMAX">    -10.00000000</i>
   <i name="EFERMI">      0.00000000</i>
  </separator>
  <separator name="writing" >
   <i type="int" name="NWRITE">     2</i>
   <i type="logical" name="LWAVE"> T  </i>
   <i type="logical" name="LDOWNSAMPLE"> F  </i>
   <i type="logical" name="LCHARG"> T  </i>
   <i type="logical" name="LPARD"> F  </i>
   <i type="logical" name="LVTOT"> F  </i>
   <i type="logical" name="LVHAR"> F  </i>
   <i type="logical" name="LELF"> F  </i>
   <i type="logical" name="LOPTICS"> F  </i>
   <v name="STM">      0.00000000      0.00000000      0.00000000      0.00000000      0.00000000      0.00000000      0.00000000</v>
  </separator>
  <separator name="performance" >
   <i type="int" name="NPAR">     4</i>
   <i type="int" name="NSIM">     4</i>
   <i type="int" name="NBLK">    -1</i>
   <i type="logical" name="LPLANE"> T  </i>
   <i type="logical" name="LSCALAPACK"> T  </i>
   <i type="logical" name="LSCAAWARE"> F  </i>
   <i type="logical" name="LSCALU"> F  </i>
   <i type="logical" name="LASYNC"> F  </i>
   <i type="logical" name="LORBITALREAL"> F  </i>
  </separator>
  <separator name="miscellaneous" >
   <i type="int" name="IDIOT">     3</i>
   <i type="int" name="ISPECIAL">     0</i>
   <i type="logical" name="LMUSIC"> F  </i>
   <v name="POMASS">     55.84700000</v>
   <v name="DARWINR">      0.00000000</v>
   <v name="DARWINV">      1.00000000</v>
   <i type="logical" name="LCORR"> T  </i>
  </separator>
  <i type="logical" name="GGA_COMPAT"> T  </i>
  <i type="logical" name="LBERRY"> F  </i>
  <i type="int" name="ICORELEVEL">     0</i>
  <i type="logical" name="LDAU"> F  </i>
  <i type="int" name="I_CONSTRAINED_M">     0</i>
  <separator name="electronic exchange-correlation" >
   <i type="string" name="GGA">--</i>
   <i type="int" name="VOSKOWN">     0</i>
   <i type="logical" name="LHFCALC"> F  </i>
   <i type="string" name="PRECFOCK"></i>
   <i type="logical" name="LSYMGRAD"> F  </i>
   <i type="logical" name="LHFONE"> F  </i>
   <i type="logical" name="LRHFCALC"> F  </i>
   <i type="logical" name="LTHOMAS"> F  </i>
   <i type="logical" name="LMODELHF"> F  </i>
   <i name="ENCUT4O">     -1.00000000</i>
   <i type="int" name="EXXOEP">     0</i>
   <i type="int" name="FOURORBIT">     0</i>
   <i name="AEXX">      0.00000000</i>
   <i name="HFALPHA">      0.00000000</i>
   <i name="MCALPHA">      0.00000000</i>
   <i name="ALDAX">      1.00000000</i>
   <i name="AGGAX">      1.00000000</i>
   <i name="ALDAC">      1.00000000</i>
   <i name="AGGAC">      1.00000000</i>
   <i type="int" name="NKREDX">     1</i>
   <i type="int" name="NKREDY">     1</i>
   <i type="int" name="NKREDZ">     1</i>
   <i type="logical" name="SHIFTRED"> F  </i>
   <i type="logical" name="ODDONLY"> F  </i>
   <i type="logical" name="EVENONLY"> F  </i>
   <i type="int" name="LMAXFOCK">     0</i>
   <i type="int" name="NMAXFOCKAE">     0</i>
   <i type="logical" name="LFOCKAEDFT"> F  </i>
   <i name="HFSCREEN">      0.00000000</i>
   <i name="HFSCREENC">      0.00000000</i>
   <i type="int" name="NBANDSGWLOW">     0</i>
  </separator>
  <separator name="vdW DFT" >
   <i type="logical" name="LUSE_VDW"> F  </i>
   <i name="Zab_VDW">     -0.84910000</i>
   <i name="PARAM1">      0.12340000</i>
   <i name="PARAM2">      1.00000000</i>
   <i name="PARAM3">      0.00000000</i>
  </separator>
  <separator name="model GW" >
   <i type="int" name="MODEL_GW">     0</i>
   <i name="MODEL_EPS0">      5.58288750</i>
   <i name="MODEL_ALPHA">      1.00000000</i>
  </separator>
  <separator name="linear response parameters" >
   <i type="logical" name="LEPSILON"> F  </i>
   <i type="logical" name="LRPA"> F  </i>
   <i type="logical" name="LNABLA"> F  </i>
   <i type="logical" name="LVEL"> F  </i>
   <i type="int" name="KINTER">     0</i>
   <i name="CSHIFT">      0.10000000</i>
   <i name="OMEGAMAX">     -1.00000000</i>
   <i name="DEG_THRESHOLD">      0.00200000</i>
   <i name="RTIME">     -0.10000000</i>
   <i name="WPLASMAI">      0.00000000</i>
   <v name="DFIELD">      0.00000000      0.00000000      0.00000000</v>
   <v name="WPLASMA">      0.00000000      0.00000000      0.00000000      0.00000000      0.00000000      0.00000000      0.00000000      0.00000000      0.00000000</v>
  </separator>
  <separator name="orbital magnetization" >
   <i type="logical" name="NUCIND"> F  </i>
   <v name="MAGPOS">      0.00000000      0.00000000      0.00000000</v>
   <i type="logical" name="LNICSALL"> T  </i>
   <i type="logical" name="ORBITALMAG"> F  </i>
   <i type="logical" name="LMAGBLOCH"> F  </i>
   <i type="logical" name="LCHIMAG"> F  </i>
   <i type="logical" name="LGAUGE"> T  </i>
   <i type="int" name="MAGATOM">     0</i>
   <v name="MAGDIPOL">      0.00000000      0.00000000      0.00000000</v>
   <v name="AVECCONST">      0.00000000      0.00000000      0.00000000</v>
  </separator>
  <separator name="response functions" >
   <i type="logical" name="LADDER"> F  </i>
   <i type="logical" name="LRPAFORCE"> F  </i>
   <i type="logical" name="LFXC"> F  </i>
   <i type="logical" name="LHARTREE"> T  </i>
   <i type="int" name="IBSE">     0</i>
   <v type="int" name="KPOINT">    -1     0     0     0</v>
   <i type="logical" name="LTCTE"> F  </i>
   <i type="logical" name="LTETE"> F  </i>
   <i type="logical" name="LTRIPLET"> F  </i>
   <i type="logical" name="LFXCEPS"> F  </i>
   <i type="logical" name="LFXHEG"> F  </i>
   <i type="int" name="NATURALO">     2</i>
   <i type="logical" name="L2ORDER"> F  </i>
   <i type="logical" name="LMP2LT"> F  </i>
   <i type="logical" name="LUSEW"> F  </i>
   <i name="ENCUTGW">     -2.00000000</i>
   <i name="ENCUTGWSOFT">     -2.00000000</i>
   <i name="ENCUTLF">     -1.00000000</i>
   <i type="int" name="LMAXMP2">    -1</i>
   <i name="SCISSOR">      0.00000000</i>
   <i type="int" name="NOMEGA">     0</i>
   <i type="int" name="NOMEGAR">     0</i>
   <i type="int" name="NBANDSGW">    -1</i>
   <i type="int" name="NBANDSO">    -1</i>
   <i type="int" name="NBANDSV">    -1</i>
   <i type="int" name="NELM">     1</i>
   <i type="int" name="NELMHF">     1</i>
   <i type="int" name="DIM">     3</i>
   <i type="int" name="ANTIRES">     0</i>
   <i name="OMEGAMAX">    -30.00000000</i>
   <i name="OMEGAMIN">    -30.00000000</i>
   <i name="OMEGATL">   -200.00000000</i>
   <i type="int" name="OMEGAGRID">   140</i>
   <i name="CSHIFT">     -0.10000000</i>
   <i type="logical" name="SELFENERGY"> F  </i>
   <i type="logical" name="LSPECTRAL"> F  </i>
   <i type="logical" name="LSPECTRALGW"> F  </i>
   <i type="logical" name="LSINGLES"> F  </i>
   <i type="logical" name="LFERMIGW"> F  </i>
   <i type="logical" name="ODDONLYGW"> F  </i>
   <i type="logical" name="EVENONLYGW"> F  </i>
   <i type="int" name="NKREDLFX">     1</i>
   <i type="int" name="NKREDLFY">     1</i>
   <i type="int" name="NKREDLFZ">     1</i>
   <i type="int" name="MAXMEM">  2800</i>
   <i type="int" name="TELESCOPE">     0</i>
   <i type="int" name="TAUPAR">     1</i>
   <i type="int" name="OMEGAPAR">    -1</i>
   <i name="LAMBDA">      1.00000000</i>
  </separator>
  <separator name="External order field" >
   <i name="OFIELD_KAPPA">      0.00000000</i>
   <v name="OFIELD_K">      0.00000000      0.00000000      0.00000000</v>
   <i name="OFIELD_Q6_NEAR">      0.00000000</i>
   <i name="OFIELD_Q6_FAR">      0.00000000</i>
   <i name="OFIELD_A">      0.00000000</i>
  </separator>
 </parameters>
 <atominfo>
  <atoms>       1 </atoms>
  <types>       1 </types>
  <array name="atoms" >
   <dimension dim="1">ion</dimension>
   <field type="string">element</field>
   <field type="int">atomtype</field>
   <set>
    <rc><c>Fe</c><c>   1</c></rc>
   </set>
  </array>
  <array name="atomtypes" >
   <dimension dim="1">type</dimension>
   <field type="int">atomspertype</field>
   <field type="string">element</field>
   <field>mass</field>
   <field>valence</field>
   <field type="string">pseudopotential</field>
   <set>
    <rc><c>   1</c><c>Fe</c><c>     55.84700000</c><c>      8.00000000</c><c>  PAW_PBE Fe 06Sep2000                  </c></rc>
   </set>
  </array>
 </atominfo>
 <structure name="initialpos" >
  <crystal>
   <varray name="basis" >
    <v>      -1.32500000       1.32500000       1.32500000 </v>
    <v>       1.32500000      -1.32500000       1.32500000 </v>
    <v>       1.32500000       1.32500000      -1.32500000 </v>
   </varray>
   <i name="volume">      9.30481250 </i>
   <varray name="rec_basis" >
    <v>       0.00000000       0.37735849       0.37735849 </v>
    <v>       0.37735849       0.00000000       0.37735849 </v>
    <v>       0.37735849       0.37735849       0.00000000 </v>
   </varray>
  </crystal>
  <varray name="positions" >
   <v>       0.00000000       0.00000000       0.00000000 </v>
  </varray>
 </structure>
 <calculation>
  <scstep>
   <time name="dav">    0.31    0.32</time>
   <time name="total">    0.32    0.34</time>
   <energy>
    <i name="alphaZ">     74.27745159 </i>
    <i name="ewald">   -632.80527839 </i>
    <i name="hartreedc">    -96.60716591 </i>
    <i name="XCdc">      5.72479354 </i>
    <i name="pawpsdc">    553.75926685 </i>
    <i name="pawaedc">   -561.48528711 </i>
    <i name="eentropy">     -0.00089413 </i>
    <i name="bandstr">     73.13046287 </i>
    <i name="atom">    594.28084496 </i>
    <i name="e_fr_energy">     10.27419428 </i>
    <i name="e_wo_entrp">     10.27508841 </i>
    <i name="e_0_energy">     10.27449232 </i>
   </energy>
  </scstep>
  <scstep>
   <time name="dav">    0.29    0.30</time>
   <time name="total">    0.29    0.30</time>
   <energy>
    <i name="e_fr_energy">     -8.36138809 </i>
    <i name="e_wo_entrp">     -8.36171367 </i>
    <i name="e_0_energy">     -8.36149661 </i>
   </energy>
  </scstep>
  <scstep>
   <time name="dav">    0.20    0.21</time>
   <time name="total">    0.20    0.22</time>
   <energy>
    <i name="e_fr_energy">     -8.60359718 </i>
    <i name="e_wo_entrp">     -8.60299850 </i>
    <i name="e_0_energy">     -8.60339762 </i>
   </energy>
  </scstep>
  <scstep>
   <time name="dav">    0.19    0.20</time>
   <time name="total">    0.20    0.20</time>
   <energy>
    <i name="e_fr_energy">     -8.60412139 </i>
    <i name="e_wo_entrp">     -8.60351958 </i>
    <i name="e_0_energy">     -8.60392079 </i>
   </energy>
  </scstep>
  <scstep>
   <time name="dav">    0.18    0.19</time>
   <time name="total">    0.18    0.19</time>
   <energy>
    <i name="e_fr_energy">     -8.60412324 </i>
    <i name="e_wo_entrp">     -8.60352143 </i>
    <i name="e_0_energy">     -8.60392264 </i>
   </energy>
  </scstep>
  <scstep>
   <time name="dav">    0.19    0.20</time>
   <time name="total">    0.21    0.22</time>
   <energy>
    <i name="e_fr_energy">     -7.94121114 </i>
    <i name="e_wo_entrp">     -7.93858941 </i>
    <i name="e_0_energy">     -7.94033723 </i>
   </energy>
  </scstep>
  <scstep>
   <time name="dav">    0.20    0.21</time>
   <time name="total">    0.22    0.22</time>
   <energy>
    <i name="e_fr_energy">     -7.92937307 </i>
    <i name="e_wo_entrp">     -7.92933687 </i>
    <i name="e_0_energy">     -7.92936101 </i>
   </energy>
  </scstep>
  <scstep>
   <time name="dav">    0.20    0.20</time>
   <time name="total">    0.21    0.22</time>
   <energy>
    <i name="e_fr_energy">     -7.91522281 </i>
    <i name="e_wo_entrp">     -7.91449979 </i>
    <i name="e_0_energy">     -7.91498181 </i>
   </energy>
  </scstep>
  <scstep>
   <time name="dav">    0.21    0.21</time>
   <time name="total">    0.22    0.23</time>
   <energy>
    <i name="e_fr_energy">     -7.91134539 </i>
    <i name="e_wo_entrp">     -7.91068396 </i>
    <i name="e_0_energy">     -7.91112491 </i>
   </energy>
  </scstep>
  <scstep>
   <time name="dav">    0.17    0.18</time>
   <time name="total">    0.18    0.19</time>
   <energy>
    <i name="alphaZ">     74.27745159 </i>
    <i name="ewald">   -632.80527839 </i>
    <i name="hartreedc">    -80.41273146 </i>
    <i name="XCdc">      4.61234569 </i>
    <i name="pawpsdc">    837.37255168 </i>
    <i name="pawaedc">   -847.29494723 </i>
    <i name="eentropy">     -0.00045239 </i>
    <i name="bandstr">     42.05880499 </i>
    <i name="atom">    594.28084496 </i>
    <i name="e_fr_energy">     -7.91141057 </i>
    <i name="e_wo_entrp">     -7.91095818 </i>
    <i name="e_0_energy">     -7.91125977 </i>
   </energy>
  </scstep>
  <structure>
   <crystal>
    <varray name="basis" >
     <v>      -1.32500000       1.32500000       1.32500000 </v>
     <v>       1.32500000      -1.32500000       1.32500000 </v>
     <v>       1.32500000       1.32500000      -1.32500000 </v>
    </varray>
    <i name="volume">      9.30481250 </i>
    <varray name="rec_basis" >
     <v>       0.00000000       0.37735849       0.37735849 </v>
     <v>       0.37735849       0.00000000       0.37735849 </v>
     <v>       0.37735849       0.37735849       0.00000000 </v>
    </varray>
   </crystal>
   <varray name="positions" >
    <v>       0.00000000       0.00000000       0.00000000 </v>
   </varray>
  </structure>
  <varray name="forces" >
   <v>       0.00000000      -0.00000000       0.00000000 </v>
  </varray>
  <varray name="stress" >
   <v>     548.74437142      -0.00000000       0.00000000 </v>
   <v>      -0.00000000     548.74437142      -0.00000000 </v>
   <v>       0.00000000      -0.00000000     548.74437142 </v>
  </varray>
  <energy>
   <i name="e_fr_energy">     -7.91141057 </i>
   <i name="e_wo_entrp">     -7.91125977 </i>
   <i name="e_0_energy">     -0.00045239 </i>
  </energy>
  <time name="totalsc">    2.37    2.46</time>
  <eigenvalues>
   <array>
    <dimension dim="1">band</dimension>
    <dimension dim="2">kpoint</dimension>
    <dimension dim="3">spin</dimension>
    <field>eigene</field>
    <field>occ</field>
    <set>
     <set comment="spin 1">
      <set comment="kpoint 1">
       <r>   -0.8265    1.0000 </r>
       <r>    5.1974    1.0000 </r>
       <r>    5.1974    1.0000 </r>
       <r>    5.9047    1.0000 </r>
       <r>    7.0314    1.0000 </r>
       <r>    7.0314    1.0000 </r>
       <r>   32.8535    0.0000 </r>
       <r>   32.8535    0.0000 </r>
       <r>   35.7355    0.0000 </r>
       <r>   39.8049    0.0000 </r>
       <r>   42.4471    0.0000 </r>
       <r>   42.4471    0.0000 </r>
      </set>
      <set comment="kpoint 2">
       <r>    0.4487    1.0000 </r>
       <r>    4.7828    1.0000 </r>
       <r>    4.9791    1.0000 </r>
       <r>    6.8034    1.0000 </r>
       <r>    6.8883    1.0000 </r>
       <r>    7.1424    1.0000 </r>
       <r>   28.7352    0.0000 </r>
       <r>   30.9816    0.0000 </r>
       <r>   35.8273    0.0000 </r>
       <r>   36.3524    0.0000 </r>
       <r>   42.4851    0.0000 </r>
       <r>   42.9936    0.0000 </r>
      </set>
      <set comment="kpoint 3">
       <r>    1.8507    1.0000 </r>
       <r>    4.3341    1.0000 </r>
       <r>    5.1149    1.0000 </r>
       <r>    6.9857    1.0000 </r>
       <r>    7.2640    1.0000 </r>
       <r>    8.0571    0.9062 </r>
       <r>   24.0402    0.0000 </r>
       <r>   29.0931    0.0000 </r>
       <r>   32.9320    0.0000 </r>
       <r>   36.4284    0.0000 </r>
       <r>   41.8650    0.0000 </r>
       <r>   44.6419    0.0000 </r>
      </set>
      <set comment="kpoint 4">
       <r>    2.2207    1.0000 </r>
       <r>    3.9983    1.0000 </r>
       <r>    6.4761    1.0000 </r>
       <r>    7.1874    1.0000 </r>
       <r>    7.3716    1.0000 </r>
       <r>    9.4645   -0.0000 </r>
       <r>   19.7084    0.0000 </r>
       <r>   27.6990    0.0000 </r>
       <r>   30.9836    0.0000 </r>
       <r>   36.3036    0.0000 </r>
       <r>   41.5710    0.0000 </r>
       <r>   46.8600    0.0000 </r>
      </set>
      <set comment="kpoint 5">
       <r>    2.1701    1.0000 </r>
       <r>    3.8757    1.0000 </r>
       <r>    7.2221    1.0000 </r>
       <r>    7.4068    1.0000 </r>
       <r>    7.4157    1.0000 </r>
       <r>   10.4264   -0.0000 </r>
       <r>   17.5308    0.0000 </r>
       <r>   27.1901    0.0000 </r>
       <r>   30.2579    0.0000 </r>
       <r>   36.2428    0.0000 </r>
       <r>   41.5602    0.0000 </r>
       <r>   46.4867    0.0000 </r>
      </set>
      <set comment="kpoint 6">
       <r>   -1.2972    1.0000 </r>
       <r>    5.3743    1.0000 </r>
       <r>    5.3743    1.0000 </r>
       <r>    5.4521    1.0000 </r>
       <r>    6.9764    1.0000 </r>
       <r>    7.1633    1.0000 </r>
       <r>   33.9245    0.0000 </r>
       <r>   35.0505    0.0000 </r>
       <r>   35.0505    0.0000 </r>
       <r>   40.2276    0.0000 </r>
       <r>   43.4832    0.0000 </r>
       <r>   43.5474    0.0000 </r>
      </set>
      <set comment="kpoint 7">
       <r>    1.8426    1.0000 </r>
       <r>    4.4558    1.0000 </r>
       <r>    4.5206    1.0000 </r>
       <r>    6.9203    1.0000 </r>
       <r>    7.2783    1.0000 </r>
       <r>    8.1323    0.6607 </r>
       <r>   26.2457    0.0000 </r>
       <r>   27.4218    0.0000 </r>
       <r>   31.9901    0.0000 </r>
       <r>   37.8631    0.0000 </r>
       <r>   43.3065    0.0000 </r>
       <r>   45.2302    0.0000 </r>
      </set>
      <set comment="kpoint 8">
       <r>    2.7857    1.0000 </r>
       <r>    4.0811    1.0000 </r>
       <r>    4.8785    1.0000 </r>
       <r>    7.0641    1.0000 </r>
       <r>    7.4313    1.0000 </r>
       <r>    9.8875   -0.0000 </r>
       <r>   22.0847    0.0000 </r>
       <r>   25.3868    0.0000 </r>
       <r>   29.7342    0.0000 </r>
       <r>   38.4655    0.0000 </r>
       <r>   44.0452    0.0000 </r>
       <r>   46.0141    0.0000 </r>
      </set>
      <set comment="kpoint 9">
       <r>    2.7476    1.0000 </r>
       <r>    3.9057    1.0000 </r>
       <r>    5.8165    1.0000 </r>
       <r>    7.2338    1.0000 </r>
       <r>    7.5583    1.0001 </r>
       <r>   11.8897   -0.0000 </r>
       <r>   18.3136    0.0000 </r>
       <r>   24.4498    0.0000 </r>
       <r>   28.6149    0.0000 </r>
       <r>   38.5479    0.0000 </r>
       <r>   44.9683    0.0000 </r>
       <r>   45.9056    0.0000 </r>
      </set>
      <set comment="kpoint 10">
       <r>   -0.3780    1.0000 </r>
       <r>    5.1172    1.0000 </r>
       <r>    5.3183    1.0000 </r>
       <r>    6.0078    1.0000 </r>
       <r>    6.6916    1.0000 </r>
       <r>    7.2562    1.0000 </r>
       <r>   30.9402    0.0000 </r>
       <r>   33.6623    0.0000 </r>
       <r>   34.7279    0.0000 </r>
       <r>   39.3610    0.0000 </r>
       <r>   40.5638    0.0000 </r>
       <r>   41.4457    0.0000 </r>
      </set>
      <set comment="kpoint 11">
       <r>    3.3244    1.0000 </r>
       <r>    3.9895    1.0000 </r>
       <r>    4.8386    1.0000 </r>
       <r>    7.2095    1.0000 </r>
       <r>    7.5489    1.0000 </r>
       <r>   12.4274   -0.0000 </r>
       <r>   20.1062    0.0000 </r>
       <r>   21.6493    0.0000 </r>
       <r>   28.3633    0.0000 </r>
       <r>   39.9902    0.0000 </r>
       <r>   43.5323    0.0000 </r>
       <r>   50.4084    0.0000 </r>
      </set>
      <set comment="kpoint 12">
       <r>    3.3503    1.0000 </r>
       <r>    4.0583    1.0000 </r>
       <r>    4.8976    1.0000 </r>
       <r>    7.3435    1.0000 </r>
       <r>    7.5425    1.0000 </r>
       <r>   14.7094    0.0000 </r>
       <r>   17.5072    0.0000 </r>
       <r>   20.7825    0.0000 </r>
       <r>   27.9589    0.0000 </r>
       <r>   40.6740    0.0000 </r>
       <r>   43.2353    0.0000 </r>
       <r>   50.3771    0.0000 </r>
      </set>
      <set comment="kpoint 13">
       <r>    1.1010    1.0000 </r>
       <r>    4.6830    1.0000 </r>
       <r>    5.1699    1.0000 </r>
       <r>    6.7024    1.0000 </r>
       <r>    7.0084    1.0000 </r>
       <r>    7.3680    1.0000 </r>
       <r>   26.4025    0.0000 </r>
       <r>   31.3142    0.0000 </r>
       <r>   33.9084    0.0000 </r>
       <r>   37.7889    0.0000 </r>
       <r>   39.7412    0.0000 </r>
       <r>   41.5674    0.0000 </r>
      </set>
      <set comment="kpoint 14">
       <r>    0.8258    1.0000 </r>
       <r>    4.9942    1.0000 </r>
       <r>    5.0166    1.0000 </r>
       <r>    6.4236    1.0000 </r>
       <r>    6.7564    1.0000 </r>
       <r>    7.4710    1.0000 </r>
       <r>   28.4681    0.0000 </r>
       <r>   30.2467    0.0000 </r>
       <r>   34.8437    0.0000 </r>
       <r>   36.9120    0.0000 </r>
       <r>   39.4716    0.0000 </r>
       <r>   43.2360    0.0000 </r>
      </set>
      <set comment="kpoint 15">
       <r>    2.0398    1.0000 </r>
       <r>    4.2655    1.0000 </r>
       <r>    5.8052    1.0000 </r>
       <r>    7.0409    1.0000 </r>
       <r>    7.6760    1.0013 </r>
       <r>    8.1232    0.6965 </r>
       <r>   21.7265    0.0000 </r>
       <r>   29.3733    0.0000 </r>
       <r>   32.3184    0.0000 </r>
       <r>   36.4407    0.0000 </r>
       <r>   39.7591    0.0000 </r>
       <r>   43.5586    0.0000 </r>
      </set>
      <set comment="kpoint 16">
       <r>    2.1495    1.0000 </r>
       <r>    4.5069    1.0000 </r>
       <r>    4.9688    1.0000 </r>
       <r>    6.6124    1.0000 </r>
       <r>    7.5523    1.0001 </r>
       <r>    8.2321    0.2545 </r>
       <r>   24.2981    0.0000 </r>
       <r>   27.6832    0.0000 </r>
       <r>   33.4325    0.0000 </r>
       <r>   36.0955    0.0000 </r>
       <r>   40.0521    0.0000 </r>
       <r>   43.9860    0.0000 </r>
      </set>
      <set comment="kpoint 17">
       <r>    2.0830    1.0000 </r>
       <r>    4.0186    1.0000 </r>
       <r>    6.6633    1.0000 </r>
       <r>    7.1458    1.0000 </r>
       <r>    8.8949   -0.0000 </r>
       <r>    8.9630   -0.0000 </r>
       <r>   18.1451    0.0000 </r>
       <r>   28.2921    0.0000 </r>
       <r>   31.0394    0.0000 </r>
       <r>   36.0533    0.0000 </r>
       <r>   40.0723    0.0000 </r>
       <r>   44.5381    0.0000 </r>
      </set>
      <set comment="kpoint 18">
       <r>    2.5065    1.0000 </r>
       <r>    4.2537    1.0000 </r>
       <r>    5.4376    1.0000 </r>
       <r>    6.9499    1.0000 </r>
       <r>    8.0397    0.9439 </r>
       <r>    9.9783   -0.0000 </r>
       <r>   19.9052    0.0000 </r>
       <r>   26.2702    0.0000 </r>
       <r>   31.5980    0.0000 </r>
       <r>   36.4173    0.0000 </r>
       <r>   41.0442    0.0000 </r>
       <r>   43.8423    0.0000 </r>
      </set>
      <set comment="kpoint 19">
       <r>    3.0439    1.0000 </r>
       <r>    4.0331    1.0000 </r>
       <r>    4.9702    1.0000 </r>
       <r>    6.7885    1.0000 </r>
       <r>    7.7646    1.0072 </r>
       <r>   10.3342   -0.0000 </r>
       <r>   22.1820    0.0000 </r>
       <r>   23.4111    0.0000 </r>
       <r>   33.1979    0.0000 </r>
       <r>   35.3894    0.0000 </r>
       <r>   39.9298    0.0000 </r>
       <r>   48.4932    0.0000 </r>
      </set>
      <set comment="kpoint 20">
       <r>    2.4431    1.0000 </r>
       <r>    4.1678    1.0000 </r>
       <r>    5.7487    1.0000 </r>
       <r>    7.0000    1.0000 </r>
       <r>    8.4249   -0.0352 </r>
       <r>   11.3533   -0.0000 </r>
       <r>   17.5732    0.0000 </r>
       <r>   25.7589    0.0000 </r>
       <r>   30.9156    0.0000 </r>
       <r>   36.5636    0.0000 </r>
       <r>   41.9439    0.0000 </r>
       <r>   43.2575    0.0000 </r>
      </set>
      <set comment="kpoint 21">
       <r>    3.1818    1.0000 </r>
       <r>    4.1074    1.0000 </r>
       <r>    4.8329    1.0000 </r>
       <r>    7.1002    1.0000 </r>
       <r>    7.9438    1.0341 </r>
       <r>   12.9967   -0.0000 </r>
       <r>   18.5013    0.0000 </r>
       <r>   22.0060    0.0000 </r>
       <r>   32.3434    0.0000 </r>
       <r>   36.3096    0.0000 </r>
       <r>   39.6455    0.0000 </r>
       <r>   48.0308    0.0000 </r>
      </set>
      <set comment="kpoint 22">
       <r>    3.7667    1.0000 </r>
       <r>    4.1375    1.0000 </r>
       <r>    4.1375    1.0000 </r>
       <r>    7.5674    1.0001 </r>
       <r>    7.5675    1.0001 </r>
       <r>   16.3631    0.0000 </r>
       <r>   16.3631    0.0000 </r>
       <r>   19.8258    0.0000 </r>
       <r>   32.6507    0.0000 </r>
       <r>   37.6728    0.0000 </r>
       <r>   37.6728    0.0000 </r>
       <r>   48.2342    0.0000 </r>
      </set>
      <set comment="kpoint 23">
       <r>    3.2193    1.0000 </r>
       <r>    4.0764    1.0000 </r>
       <r>    4.0764    1.0000 </r>
       <r>    7.2429    1.0000 </r>
       <r>    7.2429    1.0000 </r>
       <r>    9.9344   -0.0000 </r>
       <r>   24.4587    0.0000 </r>
       <r>   24.4587    0.0000 </r>
       <r>   27.4295    0.0000 </r>
       <r>   40.8558    0.0000 </r>
       <r>   46.3465    0.0000 </r>
       <r>   46.3465    0.0000 </r>
      </set>
      <set comment="kpoint 24">
       <r>    3.4669    1.0000 </r>
       <r>    3.8697    1.0000 </r>
       <r>    4.7576    1.0000 </r>
       <r>    7.3210    1.0000 </r>
       <r>    7.3941    1.0000 </r>
       <r>   12.2119   -0.0000 </r>
       <r>   20.4401    0.0000 </r>
       <r>   23.2824    0.0000 </r>
       <r>   25.3025    0.0000 </r>
       <r>   42.3621    0.0000 </r>
       <r>   47.3701    0.0000 </r>
       <r>   48.4914    0.0000 </r>
      </set>
      <set comment="kpoint 25">
       <r>    3.3229    1.0000 </r>
       <r>    3.8076    1.0000 </r>
       <r>    5.3063    1.0000 </r>
       <r>    7.3769    1.0000 </r>
       <r>    7.4475    1.0000 </r>
       <r>   14.1067    0.0000 </r>
       <r>   17.7589    0.0000 </r>
       <r>   22.8760    0.0000 </r>
       <r>   24.7140    0.0000 </r>
       <r>   42.5408    0.0000 </r>
       <r>   48.4089    0.0000 </r>
       <r>   48.5456    0.0000 </r>
      </set>
      <set comment="kpoint 26">
       <r>    0.4646    1.0000 </r>
       <r>    5.4485    1.0000 </r>
       <r>    5.4485    1.0000 </r>
       <r>    5.9889    1.0000 </r>
       <r>    6.0193    1.0000 </r>
       <r>    7.5670    1.0001 </r>
       <r>   30.1716    0.0000 </r>
       <r>   32.9228    0.0000 </r>
       <r>   32.9228    0.0000 </r>
       <r>   34.8433    0.0000 </r>
       <r>   42.4241    0.0000 </r>
       <r>   42.4241    0.0000 </r>
      </set>
      <set comment="kpoint 27">
       <r>    3.6762    1.0000 </r>
       <r>    4.0814    1.0000 </r>
       <r>    4.6012    1.0000 </r>
       <r>    7.4103    1.0000 </r>
       <r>    7.4571    1.0000 </r>
       <r>   15.1391    0.0000 </r>
       <r>   18.7784    0.0000 </r>
       <r>   20.4488    0.0000 </r>
       <r>   23.7899    0.0000 </r>
       <r>   45.3390    0.0000 </r>
       <r>   47.5278    0.0000 </r>
       <r>   51.5648    0.0000 </r>
      </set>
      <set comment="kpoint 28">
       <r>    1.7807    1.0000 </r>
       <r>    4.9849    1.0000 </r>
       <r>    5.2368    1.0000 </r>
       <r>    6.0559    1.0000 </r>
       <r>    6.8832    1.0000 </r>
       <r>    7.9722    1.0245 </r>
       <r>   26.9669    0.0000 </r>
       <r>   30.3314    0.0000 </r>
       <r>   30.8135    0.0000 </r>
       <r>   34.7935    0.0000 </r>
       <r>   41.8695    0.0000 </r>
       <r>   43.2776    0.0000 </r>
      </set>
      <set comment="kpoint 29">
       <r>    2.6044    1.0000 </r>
       <r>    4.6590    1.0000 </r>
       <r>    4.8951    1.0000 </r>
       <r>    6.5878    1.0000 </r>
       <r>    8.0174    0.9815 </r>
       <r>    9.0622   -0.0000 </r>
       <r>   22.2572    0.0000 </r>
       <r>   28.8444    0.0000 </r>
       <r>   28.8916    0.0000 </r>
       <r>   36.3924    0.0000 </r>
       <r>   40.6781    0.0000 </r>
       <r>   43.3613    0.0000 </r>
      </set>
      <set comment="kpoint 30">
       <r>    2.7663    1.0000 </r>
       <r>    4.2512    1.0000 </r>
       <r>    5.4091    1.0000 </r>
       <r>    6.2539    1.0000 </r>
       <r>    7.5897    1.0002 </r>
       <r>    9.0848   -0.0000 </r>
       <r>   24.8158    0.0000 </r>
       <r>   25.8657    0.0000 </r>
       <r>   31.4212    0.0000 </r>
       <r>   33.3972    0.0000 </r>
       <r>   41.3987    0.0000 </r>
       <r>   46.9496    0.0000 </r>
      </set>
      <set comment="kpoint 31">
       <r>    2.5733    1.0000 </r>
       <r>    4.6835    1.0000 </r>
       <r>    4.9292    1.0000 </r>
       <r>    6.7014    1.0000 </r>
       <r>    8.8200   -0.0000 </r>
       <r>   11.1855   -0.0000 </r>
       <r>   18.3584    0.0000 </r>
       <r>   27.6801    0.0000 </r>
       <r>   28.0683    0.0000 </r>
       <r>   38.4103    0.0000 </r>
       <r>   40.0670    0.0000 </r>
       <r>   42.2524    0.0000 </r>
      </set>
      <set comment="kpoint 32">
       <r>    3.0755    1.0000 </r>
       <r>    3.9834    1.0000 </r>
       <r>    5.1382    1.0000 </r>
       <r>    6.7217    1.0000 </r>
       <r>    8.2431    0.2160 </r>
       <r>   11.4403   -0.0000 </r>
       <r>   20.5676    0.0000 </r>
       <r>   24.0314    0.0000 </r>
       <r>   30.8158    0.0000 </r>
       <r>   34.7806    0.0000 </r>
       <r>   40.1905    0.0000 </r>
       <r>   45.9319    0.0000 </r>
      </set>
      <set comment="kpoint 33">
       <r>    2.9435    1.0000 </r>
       <r>    4.2076    1.0000 </r>
       <r>    4.8931    1.0000 </r>
       <r>    6.8542    1.0000 </r>
       <r>    8.5963   -0.0052 </r>
       <r>   13.5445   -0.0000 </r>
       <r>   17.7367    0.0000 </r>
       <r>   23.4800    0.0000 </r>
       <r>   30.4050    0.0000 </r>
       <r>   36.4028    0.0000 </r>
       <r>   38.9579    0.0000 </r>
       <r>   44.6998    0.0000 </r>
      </set>
      <set comment="kpoint 34">
       <r>    3.4788    1.0000 </r>
       <r>    3.5854    1.0000 </r>
       <r>    4.7929    1.0000 </r>
       <r>    7.4032    1.0000 </r>
       <r>    8.1161    0.7232 </r>
       <r>   14.7021    0.0000 </r>
       <r>   18.6926    0.0000 </r>
       <r>   20.4796    0.0000 </r>
       <r>   32.9167    0.0000 </r>
       <r>   34.1499    0.0000 </r>
       <r>   37.9984    0.0000 </r>
       <r>   45.0285    0.0000 </r>
      </set>
      <set comment="kpoint 35">
       <r>    4.1475    1.0000 </r>
       <r>    4.1475    1.0000 </r>
       <r>    4.1476    1.0000 </r>
       <r>    7.4699    1.0000 </r>
       <r>    7.4699    1.0000 </r>
       <r>   18.3354    0.0000 </r>
       <r>   18.3354    0.0000 </r>
       <r>   18.3355    0.0000 </r>
       <r>   21.6824    0.0000 </r>
       <r>   51.0857    0.0000 </r>
       <r>   51.0857    0.0000 </r>
       <r>   51.0857    0.0000 </r>
      </set>
      <set comment="kpoint 36">
       <r>    2.6387    1.0000 </r>
       <r>    4.4247    1.0000 </r>
       <r>    5.9542    1.0000 </r>
       <r>    5.9542    1.0000 </r>
       <r>    6.9600    1.0000 </r>
       <r>    8.8684   -0.0000 </r>
       <r>   27.7575    0.0000 </r>
       <r>   28.0632    0.0000 </r>
       <r>   28.0632    0.0000 </r>
       <r>   30.9181    0.0000 </r>
       <r>   46.3820    0.0000 </r>
       <r>   46.3820    0.0000 </r>
      </set>
      <set comment="kpoint 37">
       <r>    3.0413    1.0000 </r>
       <r>    3.6810    1.0000 </r>
       <r>    6.0028    1.0000 </r>
       <r>    6.4711    1.0000 </r>
       <r>    7.8792    1.0294 </r>
       <r>   10.6666   -0.0000 </r>
       <r>   23.2729    0.0000 </r>
       <r>   25.8284    0.0000 </r>
       <r>   27.9936    0.0000 </r>
       <r>   31.4703    0.0000 </r>
       <r>   44.6636    0.0000 </r>
       <r>   45.3536    0.0000 </r>
      </set>
      <set comment="kpoint 38">
       <r>    2.8657    1.0000 </r>
       <r>    3.5270    1.0000 </r>
       <r>    5.8872    1.0000 </r>
       <r>    6.7053    1.0000 </r>
       <r>    8.7027   -0.0006 </r>
       <r>   13.4982   -0.0000 </r>
       <r>   18.9472    0.0000 </r>
       <r>   24.4782    0.0000 </r>
       <r>   27.6886    0.0000 </r>
       <r>   33.3605    0.0000 </r>
       <r>   41.1670    0.0000 </r>
       <r>   44.5625    0.0000 </r>
      </set>
      <set comment="kpoint 39">
       <r>    3.0358    1.0000 </r>
       <r>    3.0718    1.0000 </r>
       <r>    6.1070    1.0000 </r>
       <r>    7.1950    1.0000 </r>
       <r>    8.3141    0.0350 </r>
       <r>   13.3370   -0.0000 </r>
       <r>   21.3677    0.0000 </r>
       <r>   22.0842    0.0000 </r>
       <r>   28.9388    0.0000 </r>
       <r>   30.9957    0.0000 </r>
       <r>   40.5969    0.0000 </r>
       <r>   45.7124    0.0000 </r>
      </set>
      <set comment="kpoint 40">
       <r>    2.8186    1.0000 </r>
       <r>    3.0339    1.0000 </r>
       <r>    6.0341    1.0000 </r>
       <r>    7.5725    1.0001 </r>
       <r>    8.5281   -0.0150 </r>
       <r>   16.1325    0.0000 </r>
       <r>   18.2080    0.0000 </r>
       <r>   21.2029    0.0000 </r>
       <r>   29.2629    0.0000 </r>
       <r>   31.6726    0.0000 </r>
       <r>   38.5347    0.0000 </r>
       <r>   45.5285    0.0000 </r>
      </set>
      <set comment="kpoint 41">
       <r>    2.8129    1.0000 </r>
       <r>    2.9383    1.0000 </r>
       <r>    7.1059    1.0000 </r>
       <r>    7.1060    1.0000 </r>
       <r>    7.9408    1.0345 </r>
       <r>   12.8049   -0.0000 </r>
       <r>   23.3263    0.0000 </r>
       <r>   23.3263    0.0000 </r>
       <r>   26.5958    0.0000 </r>
       <r>   29.1808    0.0000 </r>
       <r>   40.4592    0.0000 </r>
       <r>   48.9793    0.0000 </r>
      </set>
      <set comment="kpoint 42">
       <r>    2.4774    1.0000 </r>
       <r>    2.5608    1.0000 </r>
       <r>    7.3350    1.0000 </r>
       <r>    7.6009    1.0002 </r>
       <r>    8.5900   -0.0058 </r>
       <r>   15.7942    0.0000 </r>
       <r>   19.9116    0.0000 </r>
       <r>   21.7945    0.0000 </r>
       <r>   26.9985    0.0000 </r>
       <r>   29.3503    0.0000 </r>
       <r>   37.1379    0.0000 </r>
       <r>   48.9177    0.0000 </r>
      </set>
      <set comment="kpoint 43">
       <r>    2.3078    1.0000 </r>
       <r>    2.3078    1.0000 </r>
       <r>    7.4782    1.0000 </r>
       <r>    8.4424   -0.0332 </r>
       <r>    8.4425   -0.0332 </r>
       <r>   18.6869    0.0000 </r>
       <r>   18.6869    0.0000 </r>
       <r>   19.7558    0.0000 </r>
       <r>   27.9646    0.0000 </r>
       <r>   27.9646    0.0000 </r>
       <r>   35.5804    0.0000 </r>
       <r>   49.5314    0.0000 </r>
      </set>
      <set comment="kpoint 44">
       <r>    2.0630    1.0000 </r>
       <r>    2.0763    1.0000 </r>
       <r>    8.4068   -0.0351 </r>
       <r>    8.4069   -0.0351 </r>
       <r>    8.5657   -0.0087 </r>
       <r>   18.2004    0.0000 </r>
       <r>   20.1067    0.0000 </r>
       <r>   20.1067    0.0000 </r>
       <r>   26.2032    0.0000 </r>
       <r>   27.1426    0.0000 </r>
       <r>   34.4504    0.0000 </r>
       <r>   51.3380    0.0000 </r>
      </set>
     </set>
     <set comment="spin 2">
      <set comment="kpoint 1">
       <r>   -0.6054    1.0000 </r>
       <r>    6.7794    1.0000 </r>
       <r>    6.7794    1.0000 </r>
       <r>    7.5426    1.0000 </r>
       <r>    9.4124   -0.0000 </r>
       <r>    9.4124   -0.0000 </r>
       <r>   33.0039    0.0000 </r>
       <r>   33.0039    0.0000 </r>
       <r>   35.5986    0.0000 </r>
       <r>   40.6244    0.0000 </r>
       <r>   42.7455    0.0000 </r>
       <r>   42.7455    0.0000 </r>
      </set>
      <set comment="kpoint 2">
       <r>    0.7045    1.0000 </r>
       <r>    6.3104    1.0000 </r>
       <r>    6.5152    1.0000 </r>
       <r>    8.4861   -0.0242 </r>
       <r>    9.1802   -0.0000 </r>
       <r>    9.5393   -0.0000 </r>
       <r>   29.2074    0.0000 </r>
       <r>   31.2725    0.0000 </r>
       <r>   36.3210    0.0000 </r>
       <r>   36.5822    0.0000 </r>
       <r>   42.7850    0.0000 </r>
       <r>   43.6386    0.0000 </r>
      </set>
      <set comment="kpoint 3">
       <r>    2.3454    1.0000 </r>
       <r>    5.8000    1.0000 </r>
       <r>    6.3935    1.0000 </r>
       <r>    9.2089   -0.0000 </r>
       <r>    9.6901   -0.0000 </r>
       <r>    9.7633   -0.0000 </r>
       <r>   24.7817    0.0000 </r>
       <r>   29.4001    0.0000 </r>
       <r>   33.6107    0.0000 </r>
       <r>   36.6044    0.0000 </r>
       <r>   42.4491    0.0000 </r>
       <r>   44.9123    0.0000 </r>
      </set>
      <set comment="kpoint 4">
       <r>    3.1983    1.0000 </r>
       <r>    5.4206    1.0000 </r>
       <r>    7.3028    1.0000 </r>
       <r>    9.3748   -0.0000 </r>
       <r>    9.8281   -0.0000 </r>
       <r>   11.0585   -0.0000 </r>
       <r>   20.7096    0.0000 </r>
       <r>   27.9764    0.0000 </r>
       <r>   31.5916    0.0000 </r>
       <r>   36.6224    0.0000 </r>
       <r>   42.1502    0.0000 </r>
       <r>   47.0539    0.0000 </r>
      </set>
      <set comment="kpoint 5">
       <r>    3.2881    1.0000 </r>
       <r>    5.2825    1.0000 </r>
       <r>    8.1732    0.4912 </r>
       <r>    9.4397   -0.0000 </r>
       <r>    9.8783   -0.0000 </r>
       <r>   11.7630   -0.0000 </r>
       <r>   18.7470    0.0000 </r>
       <r>   27.4498    0.0000 </r>
       <r>   30.8319    0.0000 </r>
       <r>   36.6078    0.0000 </r>
       <r>   42.1653    0.0000 </r>
       <r>   46.6157    0.0000 </r>
      </set>
      <set comment="kpoint 6">
       <r>   -1.0808    1.0000 </r>
       <r>    6.9770    1.0000 </r>
       <r>    6.9770    1.0000 </r>
       <r>    7.0673    1.0000 </r>
       <r>    9.3543   -0.0000 </r>
       <r>    9.5786   -0.0000 </r>
       <r>   33.9066    0.0000 </r>
       <r>   34.9709    0.0000 </r>
       <r>   34.9709    0.0000 </r>
       <r>   40.5942    0.0000 </r>
       <r>   43.6393    0.0000 </r>
       <r>   44.3476    0.0000 </r>
      </set>
      <set comment="kpoint 7">
       <r>    2.1955    1.0000 </r>
       <r>    5.9451    1.0000 </r>
       <r>    5.9601    1.0000 </r>
       <r>    9.1877   -0.0000 </r>
       <r>    9.6545   -0.0000 </r>
       <r>    9.8315   -0.0000 </r>
       <r>   26.8389    0.0000 </r>
       <r>   27.9328    0.0000 </r>
       <r>   32.6624    0.0000 </r>
       <r>   37.8305    0.0000 </r>
       <r>   43.6599    0.0000 </r>
       <r>   45.6912    0.0000 </r>
      </set>
      <set comment="kpoint 8">
       <r>    3.5682    1.0000 </r>
       <r>    5.4934    1.0000 </r>
       <r>    6.0228    1.0000 </r>
       <r>    9.3029   -0.0000 </r>
       <r>    9.8353   -0.0000 </r>
       <r>   11.4522   -0.0000 </r>
       <r>   22.8918    0.0000 </r>
       <r>   25.9449    0.0000 </r>
       <r>   30.3216    0.0000 </r>
       <r>   38.5715    0.0000 </r>
       <r>   44.3587    0.0000 </r>
       <r>   46.4508    0.0000 </r>
      </set>
      <set comment="kpoint 9">
       <r>    3.8683    1.0000 </r>
       <r>    5.2778    1.0000 </r>
       <r>    6.8520    1.0000 </r>
       <r>    9.4720   -0.0000 </r>
       <r>    9.9216   -0.0000 </r>
       <r>   13.1412   -0.0000 </r>
       <r>   19.3768    0.0000 </r>
       <r>   24.9995    0.0000 </r>
       <r>   29.1574    0.0000 </r>
       <r>   38.7520    0.0000 </r>
       <r>   45.2056    0.0000 </r>
       <r>   46.3249    0.0000 </r>
      </set>
      <set comment="kpoint 10">
       <r>   -0.1482    1.0000 </r>
       <r>    6.6833    1.0000 </r>
       <r>    6.8960    1.0000 </r>
       <r>    7.6564    1.0008 </r>
       <r>    8.9864   -0.0000 </r>
       <r>    9.6786   -0.0000 </r>
       <r>   31.2367    0.0000 </r>
       <r>   33.7781    0.0000 </r>
       <r>   34.8606    0.0000 </r>
       <r>   39.6943    0.0000 </r>
       <r>   41.2789    0.0000 </r>
       <r>   42.1066    0.0000 </r>
      </set>
      <set comment="kpoint 11">
       <r>    4.4421    1.0000 </r>
       <r>    5.3245    1.0000 </r>
       <r>    5.9416    1.0000 </r>
       <r>    9.4563   -0.0000 </r>
       <r>    9.8980   -0.0000 </r>
       <r>   13.7330    0.0000 </r>
       <r>   20.9754    0.0000 </r>
       <r>   22.3726    0.0000 </r>
       <r>   28.9190    0.0000 </r>
       <r>   40.0954    0.0000 </r>
       <r>   43.7430    0.0000 </r>
       <r>   50.7243    0.0000 </r>
      </set>
      <set comment="kpoint 12">
       <r>    4.5684    1.0000 </r>
       <r>    5.3504    1.0000 </r>
       <r>    6.0693    1.0000 </r>
       <r>    9.6059   -0.0000 </r>
       <r>    9.8454   -0.0000 </r>
       <r>   15.7642    0.0000 </r>
       <r>   18.5355    0.0000 </r>
       <r>   21.5366    0.0000 </r>
       <r>   28.5165    0.0000 </r>
       <r>   40.8126    0.0000 </r>
       <r>   43.3561    0.0000 </r>
       <r>   50.8707    0.0000 </r>
      </set>
      <set comment="kpoint 13">
       <r>    1.4334    1.0000 </r>
       <r>    6.1917    1.0000 </r>
       <r>    6.6455    1.0000 </r>
       <r>    8.7294   -0.0003 </r>
       <r>    8.8740   -0.0000 </r>
       <r>    9.7863   -0.0000 </r>
       <r>   27.0326    0.0000 </r>
       <r>   31.5042    0.0000 </r>
       <r>   34.3325    0.0000 </r>
       <r>   38.3472    0.0000 </r>
       <r>   40.2675    0.0000 </r>
       <r>   41.9127    0.0000 </r>
      </set>
      <set comment="kpoint 14">
       <r>    1.1059    1.0000 </r>
       <r>    6.5311    1.0000 </r>
       <r>    6.5735    1.0000 </r>
       <r>    8.4386   -0.0338 </r>
       <r>    8.5905   -0.0058 </r>
       <r>    9.8899   -0.0000 </r>
       <r>   28.9567    0.0000 </r>
       <r>   30.6886    0.0000 </r>
       <r>   35.0308    0.0000 </r>
       <r>   37.4953    0.0000 </r>
       <r>   39.8576    0.0000 </r>
       <r>   43.7302    0.0000 </r>
      </set>
      <set comment="kpoint 15">
       <r>    2.8053    1.0000 </r>
       <r>    5.7245    1.0000 </r>
       <r>    6.9201    1.0000 </r>
       <r>    9.1129   -0.0000 </r>
       <r>    9.9388   -0.0000 </r>
       <r>    9.9656   -0.0000 </r>
       <r>   22.6101    0.0000 </r>
       <r>   29.5574    0.0000 </r>
       <r>   32.8943    0.0000 </r>
       <r>   36.9133    0.0000 </r>
       <r>   40.3305    0.0000 </r>
       <r>   43.8421    0.0000 </r>
      </set>
      <set comment="kpoint 16">
       <r>    2.6791    1.0000 </r>
       <r>    6.0211    1.0000 </r>
       <r>    6.3657    1.0000 </r>
       <r>    8.6657   -0.0013 </r>
       <r>    9.5912   -0.0000 </r>
       <r>   10.2368   -0.0000 </r>
       <r>   25.0371    0.0000 </r>
       <r>   28.1832    0.0000 </r>
       <r>   33.8337    0.0000 </r>
       <r>   36.5102    0.0000 </r>
       <r>   40.4256    0.0000 </r>
       <r>   44.4469    0.0000 </r>
      </set>
      <set comment="kpoint 17">
       <r>    3.1755    1.0000 </r>
       <r>    5.4495    1.0000 </r>
       <r>    7.9818    1.0186 </r>
       <r>    9.2917   -0.0000 </r>
       <r>   10.4221   -0.0000 </r>
       <r>   10.7867   -0.0000 </r>
       <r>   19.3029    0.0000 </r>
       <r>   28.4537    0.0000 </r>
       <r>   31.5939    0.0000 </r>
       <r>   36.5451    0.0000 </r>
       <r>   40.6880    0.0000 </r>
       <r>   44.6967    0.0000 </r>
      </set>
      <set comment="kpoint 18">
       <r>    3.5293    1.0000 </r>
       <r>    5.6964    1.0000 </r>
       <r>    6.7028    1.0000 </r>
       <r>    9.0089   -0.0000 </r>
       <r>   10.1087   -0.0000 </r>
       <r>   11.5257   -0.0000 </r>
       <r>   20.8812    0.0000 </r>
       <r>   26.7746    0.0000 </r>
       <r>   31.9922    0.0000 </r>
       <r>   36.8720    0.0000 </r>
       <r>   41.3386    0.0000 </r>
       <r>   44.3200    0.0000 </r>
      </set>
      <set comment="kpoint 19">
       <r>    3.9230    1.0000 </r>
       <r>    5.5296    1.0000 </r>
       <r>    6.2818    1.0000 </r>
       <r>    8.8126   -0.0000 </r>
       <r>    9.9267   -0.0000 </r>
       <r>   11.8960   -0.0000 </r>
       <r>   23.0216    0.0000 </r>
       <r>   24.0745    0.0000 </r>
       <r>   33.6755    0.0000 </r>
       <r>   35.6486    0.0000 </r>
       <r>   40.2804    0.0000 </r>
       <r>   48.9133    0.0000 </r>
      </set>
      <set comment="kpoint 20">
       <r>    3.6149    1.0000 </r>
       <r>    5.5935    1.0000 </r>
       <r>    7.1048    1.0000 </r>
       <r>    9.1105   -0.0000 </r>
       <r>   10.3813   -0.0000 </r>
       <r>   12.5756   -0.0000 </r>
       <r>   18.7581    0.0000 </r>
       <r>   26.2557    0.0000 </r>
       <r>   31.2878    0.0000 </r>
       <r>   37.0506    0.0000 </r>
       <r>   42.0978    0.0000 </r>
       <r>   43.8069    0.0000 </r>
      </set>
      <set comment="kpoint 21">
       <r>    4.3945    1.0000 </r>
       <r>    5.5169    1.0000 </r>
       <r>    6.1708    1.0000 </r>
       <r>    9.1446   -0.0000 </r>
       <r>    9.9942   -0.0000 </r>
       <r>   14.2223    0.0000 </r>
       <r>   19.5158    0.0000 </r>
       <r>   22.7120    0.0000 </r>
       <r>   32.7913    0.0000 </r>
       <r>   36.6342    0.0000 </r>
       <r>   39.8703    0.0000 </r>
       <r>   48.6683    0.0000 </r>
      </set>
      <set comment="kpoint 22">
       <r>    5.0617    1.0000 </r>
       <r>    5.5129    1.0000 </r>
       <r>    5.5129    1.0000 </r>
       <r>    9.6025   -0.0000 </r>
       <r>    9.6025   -0.0000 </r>
       <r>   17.4034    0.0000 </r>
       <r>   17.4034    0.0000 </r>
       <r>   20.6490    0.0000 </r>
       <r>   33.1809    0.0000 </r>
       <r>   37.8911    0.0000 </r>
       <r>   37.8912    0.0000 </r>
       <r>   49.1077    0.0000 </r>
      </set>
      <set comment="kpoint 23">
       <r>    3.7100    1.0000 </r>
       <r>    5.4709    1.0000 </r>
       <r>    5.4709    1.0000 </r>
       <r>    9.6161   -0.0000 </r>
       <r>    9.6161   -0.0000 </r>
       <r>   11.5083   -0.0000 </r>
       <r>   25.0893    0.0000 </r>
       <r>   25.0893    0.0000 </r>
       <r>   28.1181    0.0000 </r>
       <r>   40.7242    0.0000 </r>
       <r>   46.6391    0.0000 </r>
       <r>   46.6391    0.0000 </r>
      </set>
      <set comment="kpoint 24">
       <r>    4.5300    1.0000 </r>
       <r>    5.1980    1.0000 </r>
       <r>    5.7666    1.0000 </r>
       <r>    9.6761   -0.0000 </r>
       <r>    9.8438   -0.0000 </r>
       <r>   13.5360   -0.0000 </r>
       <r>   21.2776    0.0000 </r>
       <r>   23.9182    0.0000 </r>
       <r>   25.9429    0.0000 </r>
       <r>   42.3482    0.0000 </r>
       <r>   47.6468    0.0000 </r>
       <r>   48.6319    0.0000 </r>
      </set>
      <set comment="kpoint 25">
       <r>    4.4780    1.0000 </r>
       <r>    5.1118    1.0000 </r>
       <r>    6.3385    1.0000 </r>
       <r>    9.7267   -0.0000 </r>
       <r>    9.9244   -0.0000 </r>
       <r>   15.1503    0.0000 </r>
       <r>   18.8087    0.0000 </r>
       <r>   23.5092    0.0000 </r>
       <r>   25.3379    0.0000 </r>
       <r>   42.6009    0.0000 </r>
       <r>   48.5525    0.0000 </r>
       <r>   48.9912    0.0000 </r>
      </set>
      <set comment="kpoint 26">
       <r>    0.7214    1.0000 </r>
       <r>    7.0117    1.0000 </r>
       <r>    7.0117    1.0000 </r>
       <r>    7.6749    1.0013 </r>
       <r>    8.1668    0.5181 </r>
       <r>    9.9985   -0.0000 </r>
       <r>   30.4928    0.0000 </r>
       <r>   33.3300    0.0000 </r>
       <r>   33.3300    0.0000 </r>
       <r>   35.2526    0.0000 </r>
       <r>   42.8857    0.0000 </r>
       <r>   42.8857    0.0000 </r>
      </set>
      <set comment="kpoint 27">
       <r>    4.8957    1.0000 </r>
       <r>    5.2989    1.0000 </r>
       <r>    5.6768    1.0000 </r>
       <r>    9.8253   -0.0000 </r>
       <r>    9.9105   -0.0000 </r>
       <r>   16.1950    0.0000 </r>
       <r>   19.6482    0.0000 </r>
       <r>   21.2255    0.0000 </r>
       <r>   24.4217    0.0000 </r>
       <r>   45.3351    0.0000 </r>
       <r>   47.6204    0.0000 </r>
       <r>   51.7072    0.0000 </r>
      </set>
      <set comment="kpoint 28">
       <r>    2.1732    1.0000 </r>
       <r>    6.6931    1.0000 </r>
       <r>    6.7690    1.0000 </r>
       <r>    7.9143    1.0350 </r>
       <r>    8.5935   -0.0055 </r>
       <r>   10.2980   -0.0000 </r>
       <r>   27.5946    0.0000 </r>
       <r>   30.7216    0.0000 </r>
       <r>   31.3721    0.0000 </r>
       <r>   35.2138    0.0000 </r>
       <r>   42.3154    0.0000 </r>
       <r>   43.6952    0.0000 </r>
      </set>
      <set comment="kpoint 29">
       <r>    3.4465    1.0000 </r>
       <r>    6.1924    1.0000 </r>
       <r>    6.3877    1.0000 </r>
       <r>    8.4497   -0.0320 </r>
       <r>    9.8218   -0.0000 </r>
       <r>   10.9378   -0.0000 </r>
       <r>   23.1055    0.0000 </r>
       <r>   29.2402    0.0000 </r>
       <r>   29.4795    0.0000 </r>
       <r>   36.7681    0.0000 </r>
       <r>   41.1425    0.0000 </r>
       <r>   43.8322    0.0000 </r>
      </set>
      <set comment="kpoint 30">
       <r>    3.4590    1.0000 </r>
       <r>    5.9612    1.0000 </r>
       <r>    6.9070    1.0000 </r>
       <r>    8.0162    0.9832 </r>
       <r>    9.4245   -0.0000 </r>
       <r>   10.9944   -0.0000 </r>
       <r>   25.5792    0.0000 </r>
       <r>   26.4736    0.0000 </r>
       <r>   31.8663    0.0000 </r>
       <r>   33.8193    0.0000 </r>
       <r>   41.8544    0.0000 </r>
       <r>   47.3728    0.0000 </r>
      </set>
      <set comment="kpoint 31">
       <r>    3.7826    1.0000 </r>
       <r>    6.1522    1.0000 </r>
       <r>    6.3793    1.0000 </r>
       <r>    8.6624   -0.0014 </r>
       <r>   10.7052   -0.0000 </r>
       <r>   12.4495   -0.0000 </r>
       <r>   19.4454    0.0000 </r>
       <r>   28.2393    0.0000 </r>
       <r>   28.4661    0.0000 </r>
       <r>   38.6757    0.0000 </r>
       <r>   40.5418    0.0000 </r>
       <r>   42.8151    0.0000 </r>
      </set>
      <set comment="kpoint 32">
       <r>    4.2493    1.0000 </r>
       <r>    5.5006    1.0000 </r>
       <r>    6.6369    1.0000 </r>
       <r>    8.5413   -0.0126 </r>
       <r>   10.1300   -0.0000 </r>
       <r>   12.8265   -0.0000 </r>
       <r>   21.4668    0.0000 </r>
       <r>   24.6911    0.0000 </r>
       <r>   31.2516    0.0000 </r>
       <r>   35.1500    0.0000 </r>
       <r>   40.6618    0.0000 </r>
       <r>   46.6055    0.0000 </r>
      </set>
      <set comment="kpoint 33">
       <r>    4.3048    1.0000 </r>
       <r>    5.6767    1.0000 </r>
       <r>    6.3680    1.0000 </r>
       <r>    8.7059   -0.0005 </r>
       <r>   10.4836   -0.0000 </r>
       <r>   14.6275    0.0000 </r>
       <r>   18.8170    0.0000 </r>
       <r>   24.1276    0.0000 </r>
       <r>   30.8352    0.0000 </r>
       <r>   36.6687    0.0000 </r>
       <r>   39.5070    0.0000 </r>
       <r>   45.4323    0.0000 </r>
      </set>
      <set comment="kpoint 34">
       <r>    4.9670    1.0000 </r>
       <r>    5.0133    1.0000 </r>
       <r>    6.2295    1.0000 </r>
       <r>    9.2286   -0.0000 </r>
       <r>    9.9925   -0.0000 </r>
       <r>   15.8053    0.0000 </r>
       <r>   19.6494    0.0000 </r>
       <r>   21.2248    0.0000 </r>
       <r>   33.2995    0.0000 </r>
       <r>   34.5073    0.0000 </r>
       <r>   38.5358    0.0000 </r>
       <r>   45.8371    0.0000 </r>
      </set>
      <set comment="kpoint 35">
       <r>    5.3173    1.0000 </r>
       <r>    5.3173    1.0000 </r>
       <r>    5.3174    1.0000 </r>
       <r>    9.9500   -0.0000 </r>
       <r>    9.9500   -0.0000 </r>
       <r>   19.2001    0.0000 </r>
       <r>   19.2001    0.0000 </r>
       <r>   19.2002    0.0000 </r>
       <r>   22.3617    0.0000 </r>
       <r>   50.9670    0.0000 </r>
       <r>   50.9670    0.0000 </r>
       <r>   50.9671    0.0000 </r>
      </set>
      <set comment="kpoint 36">
       <r>    3.2729    1.0000 </r>
       <r>    6.3272    1.0000 </r>
       <r>    7.5057    1.0000 </r>
       <r>    7.5058    1.0000 </r>
       <r>    8.6885   -0.0008 </r>
       <r>   10.8946   -0.0000 </r>
       <r>   28.4077    0.0000 </r>
       <r>   28.6684    0.0000 </r>
       <r>   28.6685    0.0000 </r>
       <r>   31.3431    0.0000 </r>
       <r>   46.7949    0.0000 </r>
       <r>   46.7949    0.0000 </r>
      </set>
      <set comment="kpoint 37">
       <r>    4.1083    1.0000 </r>
       <r>    5.4000    1.0000 </r>
       <r>    7.5600    1.0001 </r>
       <r>    8.1178    0.7170 </r>
       <r>    9.6708   -0.0000 </r>
       <r>   12.1599   -0.0000 </r>
       <r>   24.0282    0.0000 </r>
       <r>   26.4158    0.0000 </r>
       <r>   28.6271    0.0000 </r>
       <r>   31.9308    0.0000 </r>
       <r>   45.3777    0.0000 </r>
       <r>   45.7973    0.0000 </r>
      </set>
      <set comment="kpoint 38">
       <r>    4.3112    1.0000 </r>
       <r>    5.0439    1.0000 </r>
       <r>    7.4360    1.0000 </r>
       <r>    8.4016   -0.0346 </r>
       <r>   10.5768   -0.0000 </r>
       <r>   14.5646    0.0000 </r>
       <r>   19.8688    0.0000 </r>
       <r>   25.0170    0.0000 </r>
       <r>   28.3382    0.0000 </r>
       <r>   33.7494    0.0000 </r>
       <r>   41.9982    0.0000 </r>
       <r>   45.0066    0.0000 </r>
      </set>
      <set comment="kpoint 39">
       <r>    4.4005    1.0000 </r>
       <r>    4.7154    1.0000 </r>
       <r>    7.6602    1.0009 </r>
       <r>    8.8792   -0.0000 </r>
       <r>   10.1511   -0.0000 </r>
       <r>   14.4331    0.0000 </r>
       <r>   22.1530    0.0000 </r>
       <r>   22.7101    0.0000 </r>
       <r>   29.5592    0.0000 </r>
       <r>   31.4844    0.0000 </r>
       <r>   41.4038    0.0000 </r>
       <r>   46.1975    0.0000 </r>
      </set>
      <set comment="kpoint 40">
       <r>    4.3731    1.0000 </r>
       <r>    4.5621    1.0000 </r>
       <r>    7.5539    1.0001 </r>
       <r>    9.3064   -0.0000 </r>
       <r>   10.3794   -0.0000 </r>
       <r>   17.0187    0.0000 </r>
       <r>   19.0794    0.0000 </r>
       <r>   21.8401    0.0000 </r>
       <r>   29.8562    0.0000 </r>
       <r>   32.1323    0.0000 </r>
       <r>   39.4215    0.0000 </r>
       <r>   46.0121    0.0000 </r>
      </set>
      <set comment="kpoint 41">
       <r>    4.1627    1.0000 </r>
       <r>    4.6228    1.0000 </r>
       <r>    8.7374   -0.0002 </r>
       <r>    8.7375   -0.0002 </r>
       <r>    9.7501   -0.0000 </r>
       <r>   13.8811    0.0000 </r>
       <r>   23.8643    0.0000 </r>
       <r>   23.8643    0.0000 </r>
       <r>   27.4856    0.0000 </r>
       <r>   29.7700    0.0000 </r>
       <r>   41.2928    0.0000 </r>
       <r>   49.3437    0.0000 </r>
      </set>
      <set comment="kpoint 42">
       <r>    4.0280    1.0000 </r>
       <r>    4.1190    1.0000 </r>
       <r>    9.0142   -0.0000 </r>
       <r>    9.2883   -0.0000 </r>
       <r>   10.4539   -0.0000 </r>
       <r>   16.5814    0.0000 </r>
       <r>   20.5445    0.0000 </r>
       <r>   22.2549    0.0000 </r>
       <r>   27.8458    0.0000 </r>
       <r>   29.9702    0.0000 </r>
       <r>   38.0741    0.0000 </r>
       <r>   49.2874    0.0000 </r>
      </set>
      <set comment="kpoint 43">
       <r>    3.8697    1.0000 </r>
       <r>    3.8697    1.0000 </r>
       <r>    9.1570   -0.0000 </r>
       <r>   10.2712   -0.0000 </r>
       <r>   10.2714   -0.0000 </r>
       <r>   19.2835    0.0000 </r>
       <r>   19.2835    0.0000 </r>
       <r>   20.2556    0.0000 </r>
       <r>   28.7145    0.0000 </r>
       <r>   28.7146    0.0000 </r>
       <r>   36.5707    0.0000 </r>
       <r>   49.8889    0.0000 </r>
      </set>
      <set comment="kpoint 44">
       <r>    3.6242    1.0000 </r>
       <r>    3.6364    1.0000 </r>
       <r>   10.2275   -0.0000 </r>
       <r>   10.2276   -0.0000 </r>
       <r>   10.4301   -0.0000 </r>
       <r>   18.6785    0.0000 </r>
       <r>   20.4485    0.0000 </r>
       <r>   20.4485    0.0000 </r>
       <r>   27.2064    0.0000 </r>
       <r>   28.0032    0.0000 </r>
       <r>   35.4660    0.0000 </r>
       <r>   51.6069    0.0000 </r>
      </set>
     </set>
    </set>
   </array>
  </eigenvalues>
  <separator name="orbital magnetization" >
   <v name="MAGDIPOLOUT">      0.00000000      0.00000000      0.00000000</v>
  </separator>
  <dos>
   <i name="efermi">      8.17108099 </i>
   <total>
    <array>
     <dimension dim="1">gridpoints</dimension>
     <dimension dim="2">spin</dimension>
     <field>energy</field>
     <field>total</field>
     <field>integrated</field>
     <set>
      <set comment="spin 1">
       <r>    -3.9474     0.0000     0.0000 </r>
       <r>    -3.7531     0.0000     0.0000 </r>
       <r>    -3.5587     0.0000     0.0000 </r>
       <r>    -3.3644     0.0000     0.0000 </r>
       <r>    -3.1700     0.0000     0.0000 </r>
       <r>    -2.9757    -0.0000    -0.0000 </r>
       <r>    -2.7813    -0.0000    -0.0000 </r>
       <r>    -2.5870    -0.0000    -0.0000 </r>
       <r>    -2.3926    -0.0000    -0.0000 </r>
       <r>    -2.1983    -0.0000    -0.0000 </r>
       <r>    -2.0039    -0.0000    -0.0000 </r>
       <r>    -1.8096    -0.0000    -0.0000 </r>
       <r>    -1.6152    -0.0007    -0.0001 </r>
       <r>    -1.4209     0.0029     0.0004 </r>
       <r>    -1.2265     0.0215     0.0046 </r>
       <r>    -1.0322     0.0070     0.0060 </r>
       <r>    -0.8378     0.0184     0.0096 </r>
       <r>    -0.6435     0.0192     0.0133 </r>
       <r>    -0.4492     0.0312     0.0193 </r>
       <r>    -0.2548     0.0870     0.0363 </r>
       <r>    -0.0605     0.0118     0.0385 </r>
       <r>     0.1339    -0.0063     0.0373 </r>
       <r>     0.3282     0.0146     0.0401 </r>
       <r>     0.5226     0.1059     0.0607 </r>
       <r>     0.7169     0.0546     0.0713 </r>
       <r>     0.9113     0.0832     0.0875 </r>
       <r>     1.1056     0.0913     0.1052 </r>
       <r>     1.3000     0.0584     0.1166 </r>
       <r>     1.4943    -0.0097     0.1147 </r>
       <r>     1.6887     0.0241     0.1194 </r>
       <r>     1.8830     0.2362     0.1653 </r>
       <r>     2.0774     0.3613     0.2355 </r>
       <r>     2.2717     0.4493     0.3228 </r>
       <r>     2.4661     0.3707     0.3949 </r>
       <r>     2.6604     0.6326     0.5178 </r>
       <r>     2.8548     0.7120     0.6562 </r>
       <r>     3.0491     0.7863     0.8090 </r>
       <r>     3.2435     0.7013     0.9453 </r>
       <r>     3.4378     0.4131     1.0256 </r>
       <r>     3.6322     0.4193     1.1071 </r>
       <r>     3.8265     0.3797     1.1809 </r>
       <r>     4.0209     1.0011     1.3755 </r>
       <r>     4.2152     1.3374     1.6354 </r>
       <r>     4.4096     0.6757     1.7667 </r>
       <r>     4.6039     0.5038     1.8646 </r>
       <r>     4.7983     0.8551     2.0308 </r>
       <r>     4.9926     1.4561     2.3138 </r>
       <r>     5.1870     1.0315     2.5143 </r>
       <r>     5.3813     0.5998     2.6309 </r>
       <r>     5.5757     0.3527     2.6994 </r>
       <r>     5.7700     0.2170     2.7416 </r>
       <r>     5.9644     0.6089     2.8599 </r>
       <r>     6.1587     0.5521     2.9672 </r>
       <r>     6.3531     0.1863     3.0034 </r>
       <r>     6.5474     0.3908     3.0794 </r>
       <r>     6.7418     1.0027     3.2743 </r>
       <r>     6.9361     1.1607     3.4999 </r>
       <r>     7.1305     1.3587     3.7639 </r>
       <r>     7.3248     1.6107     4.0770 </r>
       <r>     7.5192     1.8002     4.4268 </r>
       <r>     7.7135     1.0939     4.6394 </r>
       <r>     7.9079     0.3826     4.7138 </r>
       <r>     8.1022     0.8236     4.8739 </r>
       <r>     8.2966     0.7766     5.0248 </r>
       <r>     8.4909     0.4704     5.1162 </r>
       <r>     8.6853     0.3885     5.1917 </r>
       <r>     8.8796     0.2957     5.2492 </r>
       <r>     9.0740     0.3289     5.3131 </r>
       <r>     9.2683     0.1359     5.3395 </r>
       <r>     9.4627     0.0539     5.3500 </r>
       <r>     9.6570     0.0489     5.3595 </r>
       <r>     9.8514     0.1238     5.3836 </r>
       <r>    10.0457     0.3554     5.4526 </r>
       <r>    10.2401     0.0987     5.4718 </r>
       <r>    10.4344     0.1071     5.4926 </r>
       <r>    10.6288     0.0957     5.5112 </r>
       <r>    10.8231     0.0731     5.5254 </r>
       <r>    11.0175     0.0012     5.5257 </r>
       <r>    11.2118     0.0733     5.5399 </r>
       <r>    11.4062     0.2322     5.5850 </r>
       <r>    11.6005     0.1855     5.6211 </r>
       <r>    11.7949     0.0439     5.6296 </r>
       <r>    11.9892     0.1708     5.6628 </r>
       <r>    12.1836     0.0868     5.6797 </r>
       <r>    12.3779     0.1102     5.7011 </r>
       <r>    12.5723     0.0823     5.7171 </r>
       <r>    12.7666     0.0089     5.7188 </r>
       <r>    12.9610     0.1114     5.7405 </r>
       <r>    13.1553     0.1547     5.7706 </r>
       <r>    13.3497     0.0801     5.7861 </r>
       <r>    13.5440     0.2008     5.8252 </r>
       <r>    13.7384     0.1041     5.8454 </r>
       <r>    13.9327    -0.0058     5.8443 </r>
       <r>    14.1271     0.0348     5.8510 </r>
       <r>    14.3214     0.0250     5.8559 </r>
       <r>    14.5158    -0.0037     5.8552 </r>
       <r>    14.7101     0.1318     5.8808 </r>
       <r>    14.9045     0.1212     5.9043 </r>
       <r>    15.0988     0.0417     5.9124 </r>
       <r>    15.2932     0.0778     5.9275 </r>
       <r>    15.4875     0.0012     5.9278 </r>
       <r>    15.6819     0.0129     5.9303 </r>
       <r>    15.8762     0.0847     5.9467 </r>
       <r>    16.0706     0.0597     5.9583 </r>
       <r>    16.2649     0.0955     5.9769 </r>
       <r>    16.4593     0.0687     5.9903 </r>
       <r>    16.6536     0.0115     5.9925 </r>
       <r>    16.8480    -0.0024     5.9920 </r>
       <r>    17.0423    -0.0006     5.9919 </r>
       <r>    17.2367    -0.0080     5.9904 </r>
       <r>    17.4310     0.0414     5.9984 </r>
       <r>    17.6254     0.2364     6.0444 </r>
       <r>    17.8197     0.1912     6.0815 </r>
       <r>    18.0141     0.0339     6.0881 </r>
       <r>    18.2084     0.1974     6.1265 </r>
       <r>    18.4028     0.4283     6.2097 </r>
       <r>    18.5971     0.3070     6.2694 </r>
       <r>    18.7915     0.2516     6.3183 </r>
       <r>    18.9858     0.1620     6.3498 </r>
       <r>    19.1802     0.0376     6.3571 </r>
       <r>    19.3745    -0.0081     6.3555 </r>
       <r>    19.5689    -0.0016     6.3552 </r>
       <r>    19.7632     0.1345     6.3813 </r>
       <r>    19.9576     0.3441     6.4482 </r>
       <r>    20.1519     0.2326     6.4934 </r>
       <r>    20.3463     0.0937     6.5116 </r>
       <r>    20.5406     0.3569     6.5810 </r>
       <r>    20.7350     0.2700     6.6335 </r>
       <r>    20.9293     0.0709     6.6473 </r>
       <r>    21.1237     0.0254     6.6522 </r>
       <r>    21.3180     0.1236     6.6762 </r>
       <r>    21.5124     0.0985     6.6954 </r>
       <r>    21.7067     0.1629     6.7270 </r>
       <r>    21.9011     0.2306     6.7718 </r>
       <r>    22.0954     0.4275     6.8549 </r>
       <r>    22.2898     0.3871     6.9302 </r>
       <r>    22.4841     0.0508     6.9400 </r>
       <r>    22.6785    -0.0111     6.9379 </r>
       <r>    22.8728     0.0286     6.9434 </r>
       <r>    23.0672     0.0226     6.9478 </r>
       <r>    23.2615     0.1324     6.9735 </r>
       <r>    23.4559     0.3175     7.0352 </r>
       <r>    23.6502     0.1273     7.0600 </r>
       <r>    23.8446     0.0735     7.0743 </r>
       <r>    24.0389     0.2253     7.1181 </r>
       <r>    24.2333     0.2388     7.1645 </r>
       <r>    24.4276     0.3457     7.2317 </r>
       <r>    24.6220     0.3088     7.2917 </r>
       <r>    24.8163     0.1143     7.3139 </r>
       <r>    25.0107     0.0605     7.3256 </r>
       <r>    25.2050     0.0167     7.3289 </r>
       <r>    25.3994     0.2253     7.3727 </r>
       <r>    25.5937     0.1329     7.3985 </r>
       <r>    25.7881     0.1408     7.4259 </r>
       <r>    25.9824     0.2047     7.4657 </r>
       <r>    26.1768     0.1005     7.4852 </r>
       <r>    26.3711     0.3279     7.5489 </r>
       <r>    26.5655     0.1383     7.5758 </r>
       <r>    26.7598     0.0050     7.5768 </r>
       <r>    26.9542     0.0980     7.5958 </r>
       <r>    27.1485     0.1847     7.6317 </r>
       <r>    27.3429     0.0860     7.6484 </r>
       <r>    27.5372     0.1404     7.6757 </r>
       <r>    27.7316     0.4250     7.7583 </r>
       <r>    27.9259     0.3529     7.8269 </r>
       <r>    28.1203     0.3198     7.8891 </r>
       <r>    28.3146     0.1846     7.9249 </r>
       <r>    28.5090     0.2323     7.9701 </r>
       <r>    28.7033     0.2765     8.0238 </r>
       <r>    28.8977     0.3099     8.0840 </r>
       <r>    29.0920     0.2399     8.1307 </r>
       <r>    29.2864     0.2159     8.1726 </r>
       <r>    29.4807     0.2204     8.2155 </r>
       <r>    29.6751     0.0948     8.2339 </r>
       <r>    29.8694     0.1605     8.2651 </r>
       <r>    30.0638     0.0140     8.2678 </r>
       <r>    30.2581     0.1550     8.2979 </r>
       <r>    30.4525     0.2616     8.3488 </r>
       <r>    30.6468     0.0398     8.3565 </r>
       <r>    30.8412     0.2906     8.4130 </r>
       <r>    31.0355     0.6601     8.5413 </r>
       <r>    31.2299     0.2358     8.5871 </r>
       <r>    31.4242     0.1733     8.6208 </r>
       <r>    31.6186     0.3417     8.6872 </r>
       <r>    31.8129     0.1945     8.7250 </r>
       <r>    32.0073     0.0620     8.7370 </r>
       <r>    32.2016     0.0801     8.7526 </r>
       <r>    32.3960     0.2509     8.8013 </r>
       <r>    32.5903     0.1104     8.8228 </r>
       <r>    32.7847     0.0566     8.8338 </r>
       <r>    32.9790     0.2640     8.8851 </r>
       <r>    33.1734     0.1439     8.9131 </r>
       <r>    33.3677     0.2461     8.9609 </r>
       <r>    33.5621     0.3276     9.0246 </r>
       <r>    33.7564     0.1122     9.0464 </r>
       <r>    33.9508     0.1113     9.0680 </r>
       <r>    34.1451     0.1152     9.0904 </r>
       <r>    34.3395     0.0631     9.1027 </r>
       <r>    34.5338     0.0034     9.1033 </r>
       <r>    34.7282     0.1997     9.1422 </r>
       <r>    34.9225     0.4325     9.2262 </r>
       <r>    35.1169     0.0968     9.2450 </r>
       <r>    35.3112     0.0301     9.2509 </r>
       <r>    35.5055     0.0917     9.2687 </r>
       <r>    35.6999     0.0658     9.2815 </r>
       <r>    35.8942     0.1091     9.3027 </r>
       <r>    36.0886     0.2074     9.3430 </r>
       <r>    36.2829     0.4620     9.4328 </r>
       <r>    36.4773     0.8619     9.6003 </r>
       <r>    36.6716     0.3123     9.6610 </r>
       <r>    36.8660     0.0248     9.6659 </r>
       <r>    37.0603     0.1044     9.6861 </r>
       <r>    37.2547     0.0930     9.7042 </r>
       <r>    37.4490     0.0064     9.7055 </r>
       <r>    37.6434     0.0318     9.7116 </r>
       <r>    37.8377     0.1891     9.7484 </r>
       <r>    38.0321     0.1930     9.7859 </r>
       <r>    38.2264     0.0287     9.7915 </r>
       <r>    38.4208     0.1864     9.8277 </r>
       <r>    38.6151     0.4819     9.9214 </r>
       <r>    38.8095     0.1067     9.9421 </r>
       <r>    39.0038     0.0629     9.9543 </r>
       <r>    39.1982     0.0396     9.9620 </r>
       <r>    39.3925     0.0894     9.9794 </r>
       <r>    39.5869     0.2116    10.0205 </r>
       <r>    39.7812     0.3389    10.0864 </r>
       <r>    39.9756     0.3718    10.1587 </r>
       <r>    40.1699     0.5736    10.2701 </r>
       <r>    40.3643     0.2215    10.3132 </r>
       <r>    40.5586     0.1460    10.3416 </r>
       <r>    40.7530     0.3217    10.4041 </r>
       <r>    40.9473     0.1270    10.4288 </r>
       <r>    41.1417     0.2197    10.4715 </r>
       <r>    41.3360     0.1562    10.5018 </r>
       <r>    41.5304     0.2818    10.5566 </r>
       <r>    41.7247     0.2409    10.6034 </r>
       <r>    41.9191     0.2196    10.6461 </r>
       <r>    42.1134     0.1485    10.6749 </r>
       <r>    42.3078     0.1274    10.6997 </r>
       <r>    42.5021     0.3148    10.7609 </r>
       <r>    42.6965     0.1361    10.7873 </r>
       <r>    42.8908     0.0024    10.7878 </r>
       <r>    43.0852     0.0887    10.8051 </r>
       <r>    43.2795     0.3936    10.8816 </r>
       <r>    43.4739     0.4478    10.9686 </r>
       <r>    43.6682     0.2109    11.0096 </r>
       <r>    43.8626     0.1890    11.0463 </r>
       <r>    44.0569     0.4167    11.1273 </r>
       <r>    44.2513     0.1657    11.1595 </r>
       <r>    44.4456     0.0129    11.1620 </r>
       <r>    44.6400     0.3223    11.2247 </r>
       <r>    44.8343     0.2874    11.2805 </r>
[...]
      </set>
      <set comment="kpoint 27">
       <set comment="band 1">
        <r>  0.0276  0.0926  0.8171 </r>
       </set>
       <set comment="band 2">
        <r>  0.0000  0.1552  0.7688 </r>
       </set>
       <set comment="band 3">
        <r>  0.0151  0.2401  0.6461 </r>
       </set>
       <set comment="band 4">
        <r>  0.0000  0.0004  0.9855 </r>
       </set>
       <set comment="band 5">
        <r>  0.0002  0.0003  0.9872 </r>
       </set>
       <set comment="band 6">
        <r>  0.0451  0.3044  0.5050 </r>
       </set>
       <set comment="band 7">
        <r>  0.0000  0.3555  0.4428 </r>
       </set>
       <set comment="band 8">
        <r>  0.2977  0.1655  0.3124 </r>
       </set>
       <set comment="band 9">
        <r>  0.3972  0.2496  0.1105 </r>
       </set>
       <set comment="band 10">
        <r>  0.0000  0.0162  0.0948 </r>
       </set>
       <set comment="band 11">
        <r>  0.0010  0.0267  0.1364 </r>
       </set>
       <set comment="band 12">
        <r>  0.0000  0.0591  0.1098 </r>
       </set>
      </set>
      <set comment="kpoint 28">
       <set comment="band 1">
        <r>  0.4724  0.2139  0.1057 </r>
       </set>
       <set comment="band 2">
        <r>  0.0033  0.0410  0.8833 </r>
       </set>
       <set comment="band 3">
        <r>  0.0000  0.0187  0.9536 </r>
       </set>
       <set comment="band 4">
        <r>  0.0004  0.0126  0.9301 </r>
       </set>
       <set comment="band 5">
        <r>  0.0000  0.0097  0.9677 </r>
       </set>
       <set comment="band 6">
        <r>  0.0433  0.0177  0.9177 </r>
       </set>
       <set comment="band 7">
        <r>  0.0339  0.1806  0.4465 </r>
       </set>
       <set comment="band 8">
        <r>  0.0738  0.1225  0.2603 </r>
       </set>
       <set comment="band 9">
        <r>  0.0000  0.3405  0.4142 </r>
       </set>
       <set comment="band 10">
        <r>  0.0469  0.2752  0.1700 </r>
       </set>
       <set comment="band 11">
        <r>  0.0000  0.2753  0.2638 </r>
       </set>
       <set comment="band 12">
        <r>  0.0633  0.2658  0.0760 </r>
       </set>
      </set>
      <set comment="kpoint 29">
       <set comment="band 1">
        <r>  0.2648  0.1734  0.4005 </r>
       </set>
       <set comment="band 2">
        <r>  0.0184  0.1407  0.7184 </r>
       </set>
       <set comment="band 3">
        <r>  0.0000  0.0183  0.9511 </r>
       </set>
       <set comment="band 4">
        <r>  0.0004  0.0342  0.9201 </r>
       </set>
       <set comment="band 5">
        <r>  0.0000  0.0107  0.9690 </r>
       </set>
       <set comment="band 6">
        <r>  0.0876  0.1100  0.7553 </r>
       </set>
       <set comment="band 7">
        <r>  0.1459  0.2385  0.4205 </r>
       </set>
       <set comment="band 8">
        <r>  0.0786  0.0934  0.2471 </r>
       </set>
       <set comment="band 9">
        <r>  0.0000  0.4713  0.3288 </r>
       </set>
       <set comment="band 10">
        <r>  0.0119  0.2382  0.2164 </r>
       </set>
       <set comment="band 11">
        <r>  0.0000  0.2000  0.4225 </r>
       </set>
       <set comment="band 12">
        <r>  0.1239  0.1280  0.2496 </r>
       </set>
      </set>
      <set comment="kpoint 30">
       <set comment="band 1">
        <r>  0.2989  0.2389  0.2788 </r>
       </set>
       <set comment="band 2">
        <r>  0.0000  0.0340  0.8699 </r>
       </set>
       <set comment="band 3">
        <r>  0.0015  0.0537  0.9020 </r>
       </set>
       <set comment="band 4">
        <r>  0.0000  0.0213  0.9342 </r>
       </set>
       <set comment="band 5">
        <r>  0.0014  0.0108  0.9643 </r>
       </set>
       <set comment="band 6">
        <r>  0.1012  0.0886  0.7667 </r>
       </set>
       <set comment="band 7">
        <r>  0.0000  0.2742  0.4819 </r>
       </set>
       <set comment="band 8">
        <r>  0.1636  0.2905  0.2669 </r>
       </set>
       <set comment="band 9">
        <r>  0.0000  0.1591  0.4212 </r>
       </set>
       <set comment="band 10">
        <r>  0.0566  0.3336  0.0963 </r>
       </set>
       <set comment="band 11">
        <r>  0.0528  0.1495  0.3672 </r>
       </set>
       <set comment="band 12">
        <r>  0.0000  0.3001  0.0780 </r>
       </set>
      </set>
      <set comment="kpoint 31">
       <set comment="band 1">
        <r>  0.1261  0.0517  0.7096 </r>
       </set>
       <set comment="band 2">
        <r>  0.0000  0.0184  0.9501 </r>
       </set>
       <set comment="band 3">
        <r>  0.0078  0.2638  0.5814 </r>
       </set>
       <set comment="band 4">
        <r>  0.0184  0.0082  0.9292 </r>
       </set>
       <set comment="band 5">
        <r>  0.0000  0.0020  0.9862 </r>
       </set>
       <set comment="band 6">
        <r>  0.0379  0.3613  0.4984 </r>
       </set>
       <set comment="band 7">
        <r>  0.3029  0.1157  0.4613 </r>
       </set>
       <set comment="band 8">
        <r>  0.0000  0.5524  0.2411 </r>
       </set>
       <set comment="band 9">
        <r>  0.0763  0.1042  0.2327 </r>
       </set>
       <set comment="band 10">
        <r>  0.0004  0.1291  0.2476 </r>
       </set>
       <set comment="band 11">
        <r>  0.0000  0.1698  0.4902 </r>
       </set>
       <set comment="band 12">
        <r>  0.0738  0.2251  0.3076 </r>
       </set>
      </set>
      <set comment="kpoint 32">
       <set comment="band 1">
        <r>  0.1278  0.1420  0.5954 </r>
       </set>
       <set comment="band 2">
        <r>  0.0094  0.1146  0.7572 </r>
       </set>
       <set comment="band 3">
        <r>  0.0010  0.0577  0.8908 </r>
       </set>
       <set comment="band 4">
        <r>  0.0059  0.0237  0.9286 </r>
       </set>
       <set comment="band 5">
        <r>  0.0105  0.0104  0.9589 </r>
       </set>
       <set comment="band 6">
        <r>  0.1025  0.2594  0.5525 </r>
       </set>
       <set comment="band 7">
        <r>  0.1555  0.2738  0.4044 </r>
       </set>
       <set comment="band 8">
        <r>  0.1214  0.3360  0.2952 </r>
       </set>
       <set comment="band 9">
        <r>  0.0191  0.2039  0.3150 </r>
       </set>
       <set comment="band 10">
        <r>  0.0148  0.2311  0.2188 </r>
       </set>
       <set comment="band 11">
        <r>  0.0331  0.1738  0.3929 </r>
       </set>
       <set comment="band 12">
        <r>  0.0227  0.2906  0.3344 </r>
       </set>
      </set>
      <set comment="kpoint 33">
       <set comment="band 1">
        <r>  0.0657  0.0621  0.7611 </r>
       </set>
       <set comment="band 2">
        <r>  0.0000  0.2094  0.6539 </r>
       </set>
       <set comment="band 3">
        <r>  0.0127  0.0267  0.9156 </r>
       </set>
       <set comment="band 4">
        <r>  0.0202  0.0127  0.9240 </r>
       </set>
       <set comment="band 5">
        <r>  0.0000  0.0198  0.9637 </r>
       </set>
       <set comment="band 6">
        <r>  0.0000  0.4603  0.4171 </r>
       </set>
       <set comment="band 7">
        <r>  0.3052  0.1330  0.4413 </r>
       </set>
       <set comment="band 8">
        <r>  0.1167  0.3692  0.2692 </r>
       </set>
       <set comment="band 9">
        <r>  0.0234  0.2187  0.2821 </r>
       </set>
       <set comment="band 10">
        <r>  0.0000  0.0880  0.3154 </r>
       </set>
       <set comment="band 11">
        <r>  0.0079  0.3241  0.3045 </r>
       </set>
       <set comment="band 12">
        <r>  0.0625  0.2831  0.3594 </r>
       </set>
      </set>
      <set comment="kpoint 34">
       <set comment="band 1">
        <r>  0.0362  0.1486  0.6901 </r>
       </set>
       <set comment="band 2">
        <r>  0.0000  0.0984  0.7855 </r>
       </set>
       <set comment="band 3">
        <r>  0.0332  0.0344  0.8740 </r>
       </set>
       <set comment="band 4">
        <r>  0.0000  0.0314  0.9363 </r>
       </set>
       <set comment="band 5">
        <r>  0.0057  0.0244  0.9463 </r>
       </set>
       <set comment="band 6">
        <r>  0.0552  0.3921  0.4347 </r>
       </set>
       <set comment="band 7">
        <r>  0.0000  0.4342  0.4218 </r>
       </set>
       <set comment="band 8">
        <r>  0.3895  0.1586  0.2455 </r>
       </set>
       <set comment="band 9">
        <r>  0.0000  0.1066  0.4023 </r>
       </set>
       <set comment="band 10">
        <r>  0.0088  0.1943  0.2597 </r>
       </set>
       <set comment="band 11">
        <r>  0.0016  0.3909  0.2111 </r>
       </set>
       <set comment="band 12">
        <r>  0.2142  0.1561  0.3619 </r>
       </set>
      </set>
      <set comment="kpoint 35">
       <set comment="band 1">
        <r>  0.0000  0.1689  0.7563 </r>
       </set>
       <set comment="band 2">
        <r>  0.0000  0.1689  0.7563 </r>
       </set>
       <set comment="band 3">
        <r>  0.0000  0.1689  0.7563 </r>
       </set>
       <set comment="band 4">
        <r>  0.0000  0.0000  0.9888 </r>
       </set>
       <set comment="band 5">
        <r>  0.0000  0.0000  0.9888 </r>
       </set>
       <set comment="band 6">
        <r>  0.0000  0.3563  0.4424 </r>
       </set>
       <set comment="band 7">
        <r>  0.0000  0.3563  0.4424 </r>
       </set>
       <set comment="band 8">
        <r>  0.0000  0.3563  0.4424 </r>
       </set>
       <set comment="band 9">
        <r>  0.7984  0.0000  0.0000 </r>
       </set>
       <set comment="band 10">
        <r>  0.0000  0.0000  0.0000 </r>
       </set>
       <set comment="band 11">
        <r>  0.0000  0.0000  0.0000 </r>
       </set>
       <set comment="band 12">
        <r>  0.0000  0.0000  0.0000 </r>
       </set>
      </set>
      <set comment="kpoint 36">
       <set comment="band 1">
        <r>  0.3202  0.2623  0.2222 </r>
       </set>
       <set comment="band 2">
        <r>  0.0000  0.0000  0.8894 </r>
       </set>
       <set comment="band 3">
        <r>  0.0000  0.0443  0.9184 </r>
       </set>
       <set comment="band 4">
        <r>  0.0000  0.0443  0.9184 </r>
       </set>
       <set comment="band 5">
        <r>  0.0000  0.0000  0.9759 </r>
       </set>
       <set comment="band 6">
        <r>  0.1131  0.0611  0.7878 </r>
       </set>
       <set comment="band 7">
        <r>  0.0000  0.0000  0.5798 </r>
       </set>
       <set comment="band 8">
        <r>  0.0000  0.4406  0.3666 </r>
       </set>
       <set comment="band 9">
        <r>  0.0000  0.4406  0.3666 </r>
       </set>
       <set comment="band 10">
        <r>  0.2167  0.1508  0.0433 </r>
       </set>
       <set comment="band 11">
        <r>  0.0000  0.3125  0.0450 </r>
       </set>
       <set comment="band 12">
        <r>  0.0000  0.3126  0.0450 </r>
       </set>
      </set>
      <set comment="kpoint 37">
       <set comment="band 1">
        <r>  0.1463  0.2173  0.4757 </r>
       </set>
       <set comment="band 2">
        <r>  0.0009  0.0248  0.8573 </r>
       </set>
       <set comment="band 3">
        <r>  0.0000  0.0415  0.9194 </r>
       </set>
       <set comment="band 4">
        <r>  0.0044  0.0453  0.9054 </r>
       </set>
       <set comment="band 5">
        <r>  0.0000  0.0078  0.9692 </r>
       </set>
       <set comment="band 6">
        <r>  0.1666  0.1957  0.5570 </r>
       </set>
       <set comment="band 7">
        <r>  0.0760  0.3570  0.3718 </r>
       </set>
       <set comment="band 8">
        <r>  0.0000  0.5284  0.2844 </r>
       </set>
       <set comment="band 9">
        <r>  0.0706  0.0366  0.4816 </r>
       </set>
       <set comment="band 10">
        <r>  0.1133  0.1754  0.2170 </r>
       </set>
       <set comment="band 11">
        <r>  0.0416  0.3798  0.2389 </r>
       </set>
       <set comment="band 12">
        <r>  0.0000  0.1321  0.4033 </r>
       </set>
      </set>
      <set comment="kpoint 38">
       <set comment="band 1">
        <r>  0.0452  0.0738  0.7588 </r>
       </set>
       <set comment="band 2">
        <r>  0.0028  0.1319  0.7345 </r>
       </set>
       <set comment="band 3">
        <r>  0.0000  0.0387  0.9215 </r>
       </set>
       <set comment="band 4">
        <r>  0.0321  0.0256  0.8908 </r>
       </set>
       <set comment="band 5">
        <r>  0.0000  0.0021  0.9841 </r>
       </set>
       <set comment="band 6">
        <r>  0.0769  0.4274  0.3713 </r>
       </set>
       <set comment="band 7">
        <r>  0.2181  0.2636  0.3705 </r>
       </set>
       <set comment="band 8">
        <r>  0.0000  0.5897  0.2085 </r>
       </set>
       <set comment="band 9">
        <r>  0.1017  0.0164  0.4600 </r>
       </set>
       <set comment="band 10">
        <r>  0.0191  0.1190  0.3554 </r>
       </set>
       <set comment="band 11">
        <r>  0.1107  0.4691  0.1441 </r>
       </set>
       <set comment="band 12">
        <r>  0.0000  0.1227  0.4202 </r>
       </set>
      </set>
      <set comment="kpoint 39">
       <set comment="band 1">
        <r>  0.0424  0.1507  0.6703 </r>
       </set>
       <set comment="band 2">
        <r>  0.0000  0.0276  0.8543 </r>
       </set>
       <set comment="band 3">
        <r>  0.0162  0.0394  0.8966 </r>
       </set>
       <set comment="band 4">
        <r>  0.0000  0.0483  0.9131 </r>
       </set>
       <set comment="band 5">
        <r>  0.0069  0.0077  0.9641 </r>
       </set>
       <set comment="band 6">
        <r>  0.1423  0.3548  0.3817 </r>
       </set>
       <set comment="band 7">
        <r>  0.0000  0.4780  0.3549 </r>
       </set>
       <set comment="band 8">
        <r>  0.1704  0.3968  0.2214 </r>
       </set>
       <set comment="band 9">
        <r>  0.0000  0.1022  0.5366 </r>
       </set>
       <set comment="band 10">
        <r>  0.1022  0.1304  0.2940 </r>
       </set>
       <set comment="band 11">
        <r>  0.1494  0.4158  0.1396 </r>
       </set>
       <set comment="band 12">
        <r>  0.0861  0.0578  0.3798 </r>
       </set>
      </set>
      <set comment="kpoint 40">
       <set comment="band 1">
        <r>  0.0075  0.0520  0.8206 </r>
       </set>
       <set comment="band 2">
        <r>  0.0000  0.0996  0.7746 </r>
       </set>
       <set comment="band 3">
        <r>  0.0280  0.0369  0.8839 </r>
       </set>
       <set comment="band 4">
        <r>  0.0070  0.0391  0.9176 </r>
       </set>
       <set comment="band 5">
        <r>  0.0000  0.0161  0.9653 </r>
       </set>
       <set comment="band 6">
        <r>  0.0000  0.5438  0.3097 </r>
       </set>
       <set comment="band 7">
        <r>  0.1934  0.3255  0.3263 </r>
       </set>
       <set comment="band 8">
        <r>  0.1334  0.4403  0.2215 </r>
       </set>
       <set comment="band 9">
        <r>  0.0282  0.0938  0.4902 </r>
       </set>
       <set comment="band 10">
        <r>  0.0000  0.0972  0.4517 </r>
       </set>
       <set comment="band 11">
        <r>  0.2306  0.4647  0.0365 </r>
       </set>
       <set comment="band 12">
        <r>  0.1014  0.0373  0.3823 </r>
       </set>
      </set>
      <set comment="kpoint 41">
       <set comment="band 1">
        <r>  0.0455  0.1487  0.6673 </r>
       </set>
       <set comment="band 2">
        <r>  0.0000  0.0000  0.8806 </r>
       </set>
       <set comment="band 3">
        <r>  0.0000  0.0563  0.9029 </r>
       </set>
       <set comment="band 4">
        <r>  0.0000  0.0563  0.9029 </r>
       </set>
       <set comment="band 5">
        <r>  0.0000  0.0000  0.9778 </r>
       </set>
       <set comment="band 6">
        <r>  0.1946  0.3259  0.3504 </r>
       </set>
       <set comment="band 7">
        <r>  0.0000  0.5941  0.2084 </r>
       </set>
       <set comment="band 8">
        <r>  0.0000  0.5941  0.2084 </r>
       </set>
       <set comment="band 9">
        <r>  0.0000  0.0000  0.7092 </r>
       </set>
       <set comment="band 10">
        <r>  0.2271  0.0126  0.3001 </r>
       </set>
       <set comment="band 11">
        <r>  0.2392  0.3193  0.1608 </r>
       </set>
       <set comment="band 12">
        <r>  0.0000  0.0000  0.3748 </r>
       </set>
      </set>
      <set comment="kpoint 42">
       <set comment="band 1">
        <r>  0.0072  0.0565  0.8138 </r>
       </set>
       <set comment="band 2">
        <r>  0.0002  0.0296  0.8502 </r>
       </set>
       <set comment="band 3">
        <r>  0.0000  0.0415  0.9215 </r>
       </set>
       <set comment="band 4">
        <r>  0.0114  0.0451  0.9036 </r>
       </set>
       <set comment="band 5">
        <r>  0.0000  0.0019  0.9826 </r>
       </set>
       <set comment="band 6">
        <r>  0.1034  0.4962  0.2333 </r>
       </set>
       <set comment="band 7">
        <r>  0.0854  0.5098  0.2103 </r>
       </set>
       <set comment="band 8">
        <r>  0.0000  0.6498  0.1317 </r>
       </set>
       <set comment="band 9">
        <r>  0.0358  0.0109  0.6577 </r>
       </set>
       <set comment="band 10">
        <r>  0.0581  0.0652  0.4928 </r>
       </set>
       <set comment="band 11">
        <r>  0.4157  0.2753  0.0597 </r>
       </set>
       <set comment="band 12">
        <r>  0.0000  0.0450  0.2838 </r>
       </set>
      </set>
      <set comment="kpoint 43">
       <set comment="band 1">
        <r>  0.0000  0.0262  0.8552 </r>
       </set>
       <set comment="band 2">
        <r>  0.0000  0.0262  0.8552 </r>
       </set>
       <set comment="band 3">
        <r>  0.0090  0.0397  0.9119 </r>
       </set>
       <set comment="band 4">
        <r>  0.0000  0.0164  0.9629 </r>
       </set>
       <set comment="band 5">
        <r>  0.0000  0.0164  0.9629 </r>
       </set>
       <set comment="band 6">
        <r>  0.0000  0.6321  0.1710 </r>
       </set>
       <set comment="band 7">
        <r>  0.0000  0.6321  0.1710 </r>
       </set>
       <set comment="band 8">
        <r>  0.1670  0.4877  0.1193 </r>
       </set>
       <set comment="band 9">
        <r>  0.0000  0.0641  0.6254 </r>
       </set>
       <set comment="band 10">
        <r>  0.0000  0.0641  0.6254 </r>
       </set>
       <set comment="band 11">
        <r>  0.5537  0.2002  0.0032 </r>
       </set>
       <set comment="band 12">
        <r>  0.0121  0.0365  0.2248 </r>
       </set>
      </set>
      <set comment="kpoint 44">
       <set comment="band 1">
        <r>  0.0005  0.0176  0.8649 </r>
       </set>
       <set comment="band 2">
        <r>  0.0000  0.0000  0.8839 </r>
       </set>
       <set comment="band 3">
        <r>  0.0000  0.0169  0.9617 </r>
       </set>
       <set comment="band 4">
        <r>  0.0000  0.0169  0.9617 </r>
       </set>
       <set comment="band 5">
        <r>  0.0000  0.0000  0.9847 </r>
       </set>
       <set comment="band 6">
        <r>  0.0539  0.6342  0.0879 </r>
       </set>
       <set comment="band 7">
        <r>  0.0000  0.7148  0.0392 </r>
       </set>
       <set comment="band 8">
        <r>  0.0000  0.7148  0.0391 </r>
       </set>
       <set comment="band 9">
        <r>  0.0000  0.0000  0.7719 </r>
       </set>
       <set comment="band 10">
        <r>  0.0207  0.0264  0.6782 </r>
       </set>
       <set comment="band 11">
        <r>  0.6741  0.0742  0.0079 </r>
       </set>
       <set comment="band 12">
        <r>  0.0000  0.0000  0.0729 </r>
       </set>
      </set>
     </set>
    </set>
   </array>
  </projected>
 </calculation>
 <structure name="finalpos" >
  <crystal>
   <varray name="basis" >
    <v>      -1.32500000       1.32500000       1.32500000 </v>
    <v>       1.32500000      -1.32500000       1.32500000 </v>
    <v>       1.32500000       1.32500000      -1.32500000 </v>
   </varray>
   <i name="volume">      9.30481250 </i>
   <varray name="rec_basis" >
    <v>       0.00000000       0.37735849       0.37735849 </v>
    <v>       0.37735849       0.00000000       0.37735849 </v>
    <v>       0.37735849       0.37735849       0.00000000 </v>
   </varray>
  </crystal>
  <varray name="positions" >
   <v>       0.00000000       0.00000000       0.00000000 </v>
  </varray>
 </structure>
</modeling>
