BCC Fe                                  
   2.84000000000000     
     1.000000    0.000000    0.000000
     0.000000    1.000000    0.000000
     0.000000    0.000000    3.521127
   Fe
     1
Direct
  0.000000  0.000000  0.000000
 
   24   24   80
  698.53      661.26      561.18      427.00      290.35      175.03      93.621      47.832      29.263      22.522    
  18.441      16.186      15.440      16.186      18.441      22.522      29.263      47.832      93.621      175.03    
  290.35      427.00      561.18      661.26      661.26      625.31      529.07      400.72      271.04      162.72    
  87.123      45.162      28.342      21.979      18.072      15.925      15.216      15.925      18.072      21.979    
  28.342      45.162      87.123      162.72      271.04      400.72      529.07      625.31      561.18      529.07    
  443.73      331.63      220.96      131.24      70.781      38.542      25.970      20.481      17.051      15.191    
  14.583      15.191      17.051      20.481      25.970      38.542      70.781      131.24      220.96      331.63    
  443.73      529.07      427.00      400.72      331.63      242.93      158.44      93.146      51.668      30.984    
  22.901      18.369      15.591      14.118      13.642      14.118      15.591      18.369      22.901      30.984    
  51.668      93.146      158.44      242.93      331.63      400.72      290.35      271.04      220.96      158.44    
  101.49      60.182      35.993      24.826      19.600      16.055      13.956      12.872      12.529      12.872    
  13.956      16.055      19.600      24.826      35.993      60.182      101.49      158.44      220.96      271.04    
  175.03      162.72      131.24      93.146      60.182      37.988      26.091      20.392      16.497      13.883    
  12.374      11.611      11.374      11.611      12.374      13.883      16.497      20.392      26.091      37.988    
  60.182      93.146      131.24      162.72      93.621      87.123      70.781      51.668      35.993      26.091    
  20.631      16.766      13.901      12.050      10.983      10.444      10.278      10.444      10.983      12.050    
  13.901      16.766      20.631      26.091      35.993      51.668      70.781      87.123      47.832      45.162    
  38.542      30.984      24.826      20.392      16.766      13.927      11.917      10.614      9.8370      9.4298    
  9.3029      9.4298      9.8370      10.614      11.917      13.927      16.766      20.392      24.826      30.984    
  38.542      45.162      29.263      28.342      25.970      22.901      19.600      16.497      13.901      11.917    
  10.500      9.5409      8.9304      8.5904      8.4809      8.5904      8.9304      9.5409      10.500      11.917    
  13.901      16.497      19.600      22.901      25.970      28.342      22.522      21.979      20.481      18.369    
  16.055      13.883      12.050      10.614      9.5409      8.7674      8.2400      7.9297      7.8267      7.9297    
  8.2400      8.7674      9.5409      10.614      12.050      13.883      16.055      18.369      20.481      21.979    
  18.441      18.072      17.051      15.591      13.956      12.374      10.983      9.8370      8.9304      8.2400    
  7.7480      7.4500      7.3498      7.4500      7.7480      8.2400      8.9304      9.8370      10.983      12.374    
  13.956      15.591      17.051      18.072      16.186      15.925      15.191      14.118      12.872      11.611    
  10.444      9.4298      8.5904      7.9297      7.4500      7.1575      7.0589      7.1575      7.4500      7.9297    
  8.5904      9.4298      10.444      11.611      12.872      14.118      15.191      15.925      15.440      15.216    
  14.583      13.642      12.529      11.374      10.278      9.3029      8.4809      7.8267      7.3498      7.0589    
  6.9610      7.0589      7.3498      7.8267      8.4809      9.3029      10.278      11.374      12.529      13.642    
  14.583      15.216      16.186      15.925      15.191      14.118      12.872      11.611      10.444      9.4298    
  8.5904      7.9297      7.4500      7.1575      7.0589      7.1575      7.4500      7.9297      8.5904      9.4298    
  10.444      11.611      12.872      14.118      15.191      15.925      18.441      18.072      17.051      15.591    
  13.956      12.374      10.983      9.8370      8.9304      8.2400      7.7480      7.4500      7.3498      7.4500    
  7.7480      8.2400      8.9304      9.8370      10.983      12.374      13.956      15.591      17.051      18.072    
  22.522      21.979      20.481      18.369      16.055      13.883      12.050      10.614      9.5409      8.7674    
  8.2400      7.9297      7.8267      7.9297      8.2400      8.7674      9.5409      10.614      12.050      13.883    
  16.055      18.369      20.481      21.979      29.263      28.342      25.970      22.901      19.600      16.497    
  13.901      11.917      10.500      9.5409      8.9304      8.5904      8.4809      8.5904      8.9304      9.5409    
  10.500      11.917      13.901      16.497      19.600      22.901      25.970      28.342      47.832      45.162    
  38.542      30.984      24.826      20.392      16.766      13.927      11.917      10.614      9.8370      9.4298    
  9.3029      9.4298      9.8370      10.614      11.917      13.927      16.766      20.392      24.826      30.984    
  38.542      45.162      93.621      87.123      70.781      51.668      35.993      26.091      20.631      16.766    
  13.901      12.050      10.983      10.444      10.278      10.444      10.983      12.050      13.901      16.766    
  20.631      26.091      35.993      51.668      70.781      87.123      175.03      162.72      131.24      93.146    
  60.182      37.988      26.091      20.392      16.497      13.883      12.374      11.611      11.374      11.611    
  12.374      13.883      16.497      20.392      26.091      37.988      60.182      93.146      131.24      162.72    
  290.35      271.04      220.96      158.44      101.49      60.182      35.993      24.826      19.600      16.055    
  13.956      12.872      12.529      12.872      13.956      16.055      19.600      24.826      35.993      60.182    
  101.49      158.44      220.96      271.04      427.00      400.72      331.63      242.93      158.44      93.146    
  51.668      30.984      22.901      18.369      15.591      14.118      13.642      14.118      15.591      18.369    
  22.901      30.984      51.668      93.146      158.44      242.93      331.63      400.72      561.18      529.07    
  443.73      331.63      220.96      131.24      70.781      38.542      25.970      20.481      17.051      15.191    
  14.583      15.191      17.051      20.481      25.970      38.542      70.781      131.24      220.96      331.63    
  443.73      529.07      661.26      625.31      529.07      400.72      271.04      162.72      87.123      45.162    
  28.342      21.979      18.072      15.925      15.216      15.925      18.072      21.979      28.342      45.162    
  87.123      162.72      271.04      400.72      529.07      625.31      654.57      620.31      527.93      403.07    
  274.73      165.67      88.645      45.715      28.558      22.073      18.107      15.938      15.226      15.938    
  18.107      22.073      28.558      45.715      88.645      165.67      274.73      403.07      527.93      620.31    
  620.31      587.20      498.18      378.55      256.63      154.11      82.574      43.244      27.694      21.546    
  17.750      15.684      15.006      15.684      17.750      21.546      27.694      43.244      82.574      154.11    
  256.63      378.55      498.18      587.20      527.93      498.18      418.83      313.92      209.57      124.53    
  67.300      37.116      25.452      20.092      16.758      14.968      14.386      14.968      16.758      20.092    
  25.452      37.116      67.300      124.53      209.57      313.92      418.83      498.18      403.07      378.55    
  313.92      230.52      150.61      88.657      49.432      30.106      22.489      18.041      15.340      13.919    
  13.463      13.919      15.340      18.041      22.489      30.106      49.432      88.657      150.61      230.52    
  313.92      378.55      274.73      256.63      209.57      150.61      96.708      57.572      34.784      24.349    
  19.264      15.792      13.750      12.700      12.370      12.700      13.750      15.792      19.264      24.349    
  34.784      57.572      96.708      150.61      209.57      256.63      165.67      154.11      124.53      88.657    
  57.572      36.677      25.530      20.069      16.234      13.678      12.206      11.464      11.234      11.464    
  12.206      13.678      16.234      20.069      25.530      36.677      57.572      88.657      124.53      154.11    
  88.645      82.574      67.300      49.432      34.784      25.530      20.318      16.506      13.700      11.890    
  10.846      10.317      10.155      10.317      10.846      11.890      13.700      16.506      20.318      25.530    
  34.784      49.432      67.300      82.574      45.715      43.244      37.116      30.106      24.349      20.069    
  16.506      13.727      11.761      10.486      9.7218      9.3199      9.1945      9.3199      9.7218      10.486    
  11.761      13.727      16.506      20.069      24.349      30.106      37.116      43.244      28.558      27.694    
  25.452      22.489      19.264      16.234      13.700      11.761      10.374      9.4326      8.8301      8.4933    
  8.3846      8.4933      8.8301      9.4326      10.374      11.761      13.700      16.234      19.264      22.489    
  25.452      27.694      22.073      21.546      20.092      18.041      15.792      13.678      11.890      10.486    
  9.4326      8.6707      8.1496      7.8423      7.7402      7.8423      8.1496      8.6707      9.4326      10.486    
  11.890      13.678      15.792      18.041      20.092      21.546      18.107      17.750      16.758      15.340    
  13.750      12.206      10.846      9.7218      8.8301      8.1496      7.6640      7.3697      7.2707      7.3697    
  7.6640      8.1496      8.8301      9.7218      10.846      12.206      13.750      15.340      16.758      17.750    
  15.938      15.684      14.968      13.919      12.700      11.464      10.317      9.3199      8.4933      7.8423    
  7.3697      7.0814      6.9843      7.0814      7.3697      7.8423      8.4933      9.3199      10.317      11.464    
  12.700      13.919      14.968      15.684      15.226      15.006      14.386      13.463      12.370      11.234    
  10.155      9.1945      8.3846      7.7402      7.2707      6.9843      6.8879      6.9843      7.2707      7.7402    
  8.3846      9.1945      10.155      11.234      12.370      13.463      14.386      15.006      15.938      15.684    
  14.968      13.919      12.700      11.464      10.317      9.3199      8.4933      7.8423      7.3697      7.0814    
  6.9843      7.0814      7.3697      7.8423      8.4933      9.3199      10.317      11.464      12.700      13.919    
  14.968      15.684      18.107      17.750      16.758      15.340      13.750      12.206      10.846      9.7218    
  8.8301      8.1496      7.6640      7.3697      7.2707      7.3697      7.6640      8.1496      8.8301      9.7218    
  10.846      12.206      13.750      15.340      16.758      17.750      22.073      21.546      20.092      18.041    
  15.792      13.678      11.890      10.486      9.4326      8.6707      8.1496      7.8423      7.7402      7.8423    
  8.1496      8.6707      9.4326      10.486      11.890      13.678      15.792      18.041      20.092      21.546    
  28.558      27.694      25.452      22.489      19.264      16.234      13.700      11.761      10.374      9.4326    
  8.8301      8.4933      8.3846      8.4933      8.8301      9.4326      10.374      11.761      13.700      16.234    
  19.264      22.489      25.452      27.694      45.715      43.244      37.116      30.106      24.349      20.069    
  16.506      13.727      11.761      10.486      9.7218      9.3199      9.1945      9.3199      9.7218      10.486    
  11.761      13.727      16.506      20.069      24.349      30.106      37.116      43.244      88.645      82.574    
  67.300      49.432      34.784      25.530      20.318      16.506      13.700      11.890      10.846      10.317    
  10.155      10.317      10.846      11.890      13.700      16.506      20.318      25.530      34.784      49.432    
  67.300      82.574      165.67      154.11      124.53      88.657      57.572      36.677      25.530      20.069    
  16.234      13.678      12.206      11.464      11.234      11.464      12.206      13.678      16.234      20.069    
  25.530      36.677      57.572      88.657      124.53      154.11      274.73      256.63      209.57      150.61    
  96.708      57.572      34.784      24.349      19.264      15.792      13.750      12.700      12.370      12.700    
  13.750      15.792      19.264      24.349      34.784      57.572      96.708      150.61      209.57      256.63    
  403.07      378.55      313.92      230.52      150.61      88.657      49.432      30.106      22.489      18.041    
  15.340      13.919      13.463      13.919      15.340      18.041      22.489      30.106      49.432      88.657    
  150.61      230.52      313.92      378.55      527.93      498.18      418.83      313.92      209.57      124.53    
  67.300      37.116      25.452      20.092      16.758      14.968      14.386      14.968      16.758      20.092    
  25.452      37.116      67.300      124.53      209.57      313.92      418.83      498.18      620.31      587.20    
  498.18      378.55      256.63      154.11      82.574      43.244      27.694      21.546      17.750      15.684    
  15.006      15.684      17.750      21.546      27.694      43.244      82.574      154.11      256.63      378.55    
  498.18      587.20      536.44      509.87      437.25      336.77      230.82      139.30      74.885      40.073    
  26.642      20.762      17.144      15.219      14.597      15.219      17.144      20.762      26.642      40.073    
  74.885      139.30      230.82      336.77      437.25      509.87      509.87      484.01      413.61      316.90    
  215.96      129.81      69.985      38.132      25.915      20.282      16.818      14.982      14.391      14.982    
  16.818      20.282      25.915      38.132      69.985      129.81      215.96      316.90      413.61      484.01    
  437.25      413.61      349.90      264.13      177.14      105.46      57.657      33.310      23.968      18.956    
  15.912      14.317      13.807      14.317      15.912      18.956      23.968      33.310      57.657      105.46    
  177.14      264.13      349.90      413.61      336.77      316.90      264.13      195.12      128.08      75.836    
  43.246      27.747      21.248      17.083      14.612      13.338      12.936      13.338      14.612      17.083    
  21.248      27.747      43.246      75.836      128.08      195.12      264.13      316.90      230.82      215.96    
  177.14      128.08      82.893      50.145      31.463      23.003      18.259      15.023      13.147      12.196    
  11.900      12.196      13.147      15.023      18.259      23.003      31.463      50.145      82.893      128.08    
  177.14      215.96      139.30      129.81      105.46      75.836      50.145      33.019      23.973      19.076    
  15.453      13.077      11.715      11.031      10.821      11.031      11.715      13.077      15.453      19.076    
  23.973      33.019      50.145      75.836      105.46      129.81      74.885      69.985      57.657      43.246    
  31.463      23.973      19.343      15.724      13.105      11.420      10.443      9.9450      9.7920      9.9450    
  10.443      11.420      13.105      15.724      19.343      23.973      31.463      43.246      57.657      69.985    
  40.073      38.132      33.310      27.747      23.003      19.076      15.724      13.133      11.303      10.108    
  9.3823      8.9960      8.8746      8.9960      9.3823      10.108      11.303      13.133      15.724      19.076    
  23.003      27.747      33.310      38.132      26.642      25.915      23.968      21.248      18.259      15.453    
  13.105      11.303      10.005      9.1130      8.5343      8.2071      8.1008      8.2071      8.5343      9.1130    
  10.005      11.303      13.105      15.453      18.259      21.248      23.968      25.915      20.762      20.282    
  18.956      17.083      15.023      13.077      11.420      10.108      9.1130      8.3854      7.8831      7.5849    
  7.4856      7.5849      7.8831      8.3854      9.1130      10.108      11.420      13.077      15.023      17.083    
  18.956      20.282      17.144      16.818      15.912      14.612      13.147      11.715      10.443      9.3823    
  8.5343      7.8831      7.4165      7.1332      7.0379      7.1332      7.4165      7.8831      8.5343      9.3823    
  10.443      11.715      13.147      14.612      15.912      16.818      15.219      14.982      14.317      13.338    
  12.196      11.031      9.9450      8.9960      8.2071      7.5849      7.1332      6.8579      6.7652      6.8579    
  7.1332      7.5849      8.2071      8.9960      9.9450      11.031      12.196      13.338      14.317      14.982    
  14.597      14.391      13.807      12.936      11.900      10.821      9.7920      8.8746      8.1008      7.4856    
  7.0379      6.7652      6.6735      6.7652      7.0379      7.4856      8.1008      8.8746      9.7920      10.821    
  11.900      12.936      13.807      14.391      15.219      14.982      14.317      13.338      12.196      11.031    
  9.9450      8.9960      8.2071      7.5849      7.1332      6.8579      6.7652      6.8579      7.1332      7.5849    
  8.2071      8.9960      9.9450      11.031      12.196      13.338      14.317      14.982      17.144      16.818    
  15.912      14.612      13.147      11.715      10.443      9.3823      8.5343      7.8831      7.4165      7.1332    
  7.0379      7.1332      7.4165      7.8831      8.5343      9.3823      10.443      11.715      13.147      14.612    
  15.912      16.818      20.762      20.282      18.956      17.083      15.023      13.077      11.420      10.108    
  9.1130      8.3854      7.8831      7.5849      7.4856      7.5849      7.8831      8.3854      9.1130      10.108    
  11.420      13.077      15.023      17.083      18.956      20.282      26.642      25.915      23.968      21.248    
  18.259      15.453      13.105      11.303      10.005      9.1130      8.5343      8.2071      8.1008      8.2071    
  8.5343      9.1130      10.005      11.303      13.105      15.453      18.259      21.248      23.968      25.915    
  40.073      38.132      33.310      27.747      23.003      19.076      15.724      13.133      11.303      10.108    
  9.3823      8.9960      8.8746      8.9960      9.3823      10.108      11.303      13.133      15.724      19.076    
  23.003      27.747      33.310      38.132      74.885      69.985      57.657      43.246      31.463      23.973    
  19.343      15.724      13.105      11.420      10.443      9.9450      9.7920      9.9450      10.443      11.420    
  13.105      15.724      19.343      23.973      31.463      43.246      57.657      69.985      139.30      129.81    
  105.46      75.836      50.145      33.019      23.973      19.076      15.453      13.077      11.715      11.031    
  10.821      11.031      11.715      13.077      15.453      19.076      23.973      33.019      50.145      75.836    
  105.46      129.81      230.82      215.96      177.14      128.08      82.893      50.145      31.463      23.003    
  18.259      15.023      13.147      12.196      11.900      12.196      13.147      15.023      18.259      23.003    
  31.463      50.145      82.893      128.08      177.14      215.96      336.77      316.90      264.13      195.12    
  128.08      75.836      43.246      27.747      21.248      17.083      14.612      13.338      12.936      13.338    
  14.612      17.083      21.248      27.747      43.246      75.836      128.08      195.12      264.13      316.90    
  437.25      413.61      349.90      264.13      177.14      105.46      57.657      33.310      23.968      18.956    
  15.912      14.317      13.807      14.317      15.912      18.956      23.968      33.310      57.657      105.46    
  177.14      264.13      349.90      413.61      509.87      484.01      413.61      316.90      215.96      129.81    
  69.985      38.132      25.915      20.282      16.818      14.982      14.391      14.982      16.818      20.282    
  25.915      38.132      69.985      129.81      215.96      316.90      413.61      484.01      380.33      362.98    
  314.44      244.77      168.78      102.19      56.274      32.897      23.853      18.724      15.663      14.091    
  13.596      14.091      15.663      18.724      23.853      32.897      56.274      102.19      168.78      244.77    
  314.44      362.98      362.98      345.89      298.37      230.89      158.25      95.535      52.958      31.623    
  23.250      18.315      15.384      13.882      13.411      13.882      15.384      18.315      23.250      31.623    
  52.958      95.535      158.25      230.89      298.37      345.89      314.44      298.37      254.38      193.63    
  130.60      78.432      44.631      28.425      21.585      17.187      14.605      13.292      12.883      13.292    
  14.605      17.187      21.585      28.425      44.631      78.432      130.60      193.63      254.38      298.37    
  244.77      230.89      193.63      144.11      95.395      57.636      34.942      24.589      19.228      15.587    
  13.481      12.421      12.093      12.421      13.481      15.587      19.228      24.589      34.942      57.636    
  95.395      144.11      193.63      230.89      168.78      158.25      130.60      95.395      62.910      39.751    
  27.028      20.889      16.636      13.815      12.202      11.395      11.149      11.395      12.202      13.815    
  16.636      20.889      27.028      39.751      62.910      95.395      130.60      158.25      102.19      95.535    
  78.432      57.636      39.751      28.056      21.715      17.408      14.200      12.127      10.938      10.340    
  10.158      10.340      10.938      12.127      14.200      17.408      21.715      28.056      39.751      57.636    
  78.432      95.535      56.274      52.958      44.631      34.942      27.028      21.715      17.675      14.452    
  12.154      10.672      9.8000      9.3486      9.2092      9.3486      9.8000      10.672      12.154      14.452    
  17.675      21.715      27.028      34.942      44.631      52.958      32.897      31.623      28.425      24.589    
  20.889      17.408      14.452      12.180      10.570      9.5016      8.8376      8.4758      8.3608      8.4758    
  8.8376      9.5016      10.570      12.180      14.452      17.408      20.889      24.589      28.425      31.623    
  23.853      23.250      21.585      19.228      16.636      14.200      12.154      10.570      9.4117      8.5985    
  8.0585      7.7472      7.6451      7.7472      8.0585      8.5985      9.4117      10.570      12.154      14.200    
  16.636      19.228      21.585      23.250      18.724      18.315      17.187      15.587      13.815      12.127    
  10.672      9.5016      8.5985      7.9260      7.4546      7.1720      7.0774      7.1720      7.4546      7.9260    
  8.5985      9.5016      10.672      12.127      13.815      15.587      17.187      18.315      15.663      15.384    
  14.605      13.481      12.202      10.938      9.8000      8.8376      8.0585      7.4546      7.0196      6.7548    
  6.6657      6.7548      7.0196      7.4546      8.0585      8.8376      9.8000      10.938      12.202      13.481    
  14.605      15.384      14.091      13.882      13.292      12.421      11.395      10.340      9.3486      8.4758    
  7.7472      7.1720      6.7548      6.5010      6.4156      6.5010      6.7548      7.1720      7.7472      8.4758    
  9.3486      10.340      11.395      12.421      13.292      13.882      13.596      13.411      12.883      12.093    
  11.149      10.158      9.2092      8.3608      7.6451      7.0774      6.6657      6.4156      6.3316      6.4156    
  6.6657      7.0774      7.6451      8.3608      9.2092      10.158      11.149      12.093      12.883      13.411    
  14.091      13.882      13.292      12.421      11.395      10.340      9.3486      8.4758      7.7472      7.1720    
  6.7548      6.5010      6.4156      6.5010      6.7548      7.1720      7.7472      8.4758      9.3486      10.340    
  11.395      12.421      13.292      13.882      15.663      15.384      14.605      13.481      12.202      10.938    
  9.8000      8.8376      8.0585      7.4546      7.0196      6.7548      6.6657      6.7548      7.0196      7.4546    
  8.0585      8.8376      9.8000      10.938      12.202      13.481      14.605      15.384      18.724      18.315    
  17.187      15.587      13.815      12.127      10.672      9.5016      8.5985      7.9260      7.4546      7.1720    
  7.0774      7.1720      7.4546      7.9260      8.5985      9.5016      10.672      12.127      13.815      15.587    
  17.187      18.315      23.853      23.250      21.585      19.228      16.636      14.200      12.154      10.570    
  9.4117      8.5985      8.0585      7.7472      7.6451      7.7472      8.0585      8.5985      9.4117      10.570    
  12.154      14.200      16.636      19.228      21.585      23.250      32.897      31.623      28.425      24.589    
  20.889      17.408      14.452      12.180      10.570      9.5016      8.8376      8.4758      8.3608      8.4758    
  8.8376      9.5016      10.570      12.180      14.452      17.408      20.889      24.589      28.425      31.623    
  56.274      52.958      44.631      34.942      27.028      21.715      17.675      14.452      12.154      10.672    
  9.8000      9.3486      9.2092      9.3486      9.8000      10.672      12.154      14.452      17.675      21.715    
  27.028      34.942      44.631      52.958      102.19      95.535      78.432      57.636      39.751      28.056    
  21.715      17.408      14.200      12.127      10.938      10.340      10.158      10.340      10.938      12.127    
  14.200      17.408      21.715      28.056      39.751      57.636      78.432      95.535      168.78      158.25    
  130.60      95.395      62.910      39.751      27.028      20.889      16.636      13.815      12.202      11.395    
  11.149      11.395      12.202      13.815      16.636      20.889      27.028      39.751      62.910      95.395    
  130.60      158.25      244.77      230.89      193.63      144.11      95.395      57.636      34.942      24.589    
  19.228      15.587      13.481      12.421      12.093      12.421      13.481      15.587      19.228      24.589    
  34.942      57.636      95.395      144.11      193.63      230.89      314.44      298.37      254.38      193.63    
  130.60      78.432      44.631      28.425      21.585      17.187      14.605      13.292      12.883      13.292    
  14.605      17.187      21.585      28.425      44.631      78.432      130.60      193.63      254.38      298.37    
  362.98      345.89      298.37      230.89      158.25      95.535      52.958      31.623      23.250      18.315    
  15.384      13.882      13.411      13.882      15.384      18.315      23.250      31.623      52.958      95.535    
  158.25      230.89      298.37      345.89      230.18      220.62      193.04      151.77      105.46      65.149    
  38.813      26.398      20.322      16.211      13.838      12.656      12.295      12.656      13.838      16.211    
  20.322      26.398      38.813      65.149      105.46      151.77      193.04      220.62      220.62      211.06    
  183.75      143.52      99.199      61.313      37.010      25.659      19.842      15.889      13.612      12.480    
  12.135      12.480      13.612      15.889      19.842      25.659      37.010      61.313      99.199      143.52    
  183.75      211.06      193.04      183.75      157.84      121.19      82.719      51.497      32.493      23.711    
  18.514      14.995      12.981      11.982      11.678      11.982      12.981      14.995      18.514      23.711    
  32.493      51.497      82.719      121.19      157.84      183.75      151.77      143.52      121.19      91.201    
  61.782      39.697      27.218      21.032      16.633      13.720      12.060      11.239      10.991      11.239    
  12.060      13.720      16.633      21.032      27.218      39.697      61.782      91.201      121.19      143.52    
  105.46      99.199      82.719      61.782      42.780      29.759      22.667      18.047      14.557      12.293    
  11.000      10.357      10.162      10.357      11.000      12.293      14.557      18.047      22.667      29.759    
  42.780      61.782      82.719      99.199      65.149      61.313      51.497      39.697      29.759      23.241    
  18.804      15.203      12.594      10.914      9.9357      9.4376      9.2853      9.4376      9.9357      10.914    
  12.594      15.203      18.804      23.241      29.759      39.697      51.497      61.313      38.813      37.010    