BCC Fe                                  
   2.84000000000000     
     1.000000    0.000000    0.000000
     0.000000    1.000000    0.000000
     0.000000    0.000000    3.521127
   Fe
     1
Direct
  0.000000  0.000000  0.000000
 
   24   24   80
 0.69853151807E+03 0.66125503137E+03 0.56118011752E+03 0.42699596518E+03 0.29034812894E+03
 0.17503411755E+03 0.93621144866E+02 0.47831983451E+02 0.29262744902E+02 0.22522392422E+02
 0.18440752225E+02 0.16185742838E+02 0.15439755892E+02 0.16185742838E+02 0.18440752225E+02
 0.22522392422E+02 0.29262744902E+02 0.47831983451E+02 0.93621144866E+02 0.17503411755E+03
 0.29034812894E+03 0.42699596518E+03 0.56118011752E+03 0.66125503137E+03 0.66125503137E+03
 0.62531229143E+03 0.52907097987E+03 0.40071509296E+03 0.27104350182E+03 0.16271951396E+03
 0.87123423664E+02 0.45161720780E+02 0.28341742108E+02 0.21978843475E+02 0.18072383160E+02
 0.15924572325E+02 0.15215950822E+02 0.15924572325E+02 0.18072383160E+02 0.21978843475E+02
 0.28341742108E+02 0.45161720780E+02 0.87123423664E+02 0.16271951396E+03 0.27104350182E+03
 0.40071509296E+03 0.52907097987E+03 0.62531229143E+03 0.56118011752E+03 0.52907097987E+03
 0.44372912224E+03 0.33162785537E+03 0.22096271181E+03 0.13123869063E+03 0.70780508147E+02
 0.38542310356E+02 0.25969870274E+02 0.20480864160E+02 0.17050591070E+02 0.15191171778E+02
 0.14582768751E+02 0.15191171778E+02 0.17050591070E+02 0.20480864160E+02 0.25969870274E+02
 0.38542310356E+02 0.70780508147E+02 0.13123869063E+03 0.22096271181E+03 0.33162785537E+03
 0.44372912224E+03 0.52907097987E+03 0.42699596518E+03 0.40071509296E+03 0.33162785537E+03
 0.24293118820E+03 0.15843812763E+03 0.93145606685E+02 0.51667670672E+02 0.30983729962E+02
 0.22900756752E+02 0.18369153523E+02 0.15590664835E+02 0.14117533414E+02 0.13642400387E+02
 0.14117533414E+02 0.15590664835E+02 0.18369153523E+02 0.22900756752E+02 0.30983729962E+02
 0.51667670672E+02 0.93145606685E+02 0.15843812763E+03 0.24293118820E+03 0.33162785537E+03
 0.40071509296E+03 0.29034812894E+03 0.27104350182E+03 0.22096271181E+03 0.15843812763E+03
 0.10148797386E+03 0.60181698798E+02 0.35992640456E+02 0.24825743139E+02 0.19600012119E+02
 0.16055311072E+02 0.13956401741E+02 0.12872218772E+02 0.12529393706E+02 0.12872218772E+02
 0.13956401741E+02 0.16055311072E+02 0.19600012119E+02 0.24825743139E+02 0.35992640456E+02
 0.60181698798E+02 0.10148797386E+03 0.15843812763E+03 0.22096271181E+03 0.27104350182E+03
 0.17503411755E+03 0.16271951396E+03 0.13123869063E+03 0.93145606685E+02 0.60181698798E+02
 0.37988133421E+02 0.26091281389E+02 0.20392007423E+02 0.16497173973E+02 0.13882623007E+02
 0.12374062607E+02 0.11610815795E+02 0.11374382462E+02 0.11610815795E+02 0.12374062607E+02
 0.13882623007E+02 0.16497173973E+02 0.20392007423E+02 0.26091281389E+02 0.37988133421E+02
 0.60181698798E+02 0.93145606685E+02 0.13123869063E+03 0.16271951396E+03 0.93621144866E+02
 0.87123423664E+02 0.70780508147E+02 0.51667670672E+02 0.35992640456E+02 0.26091281389E+02
 0.20630830078E+02 0.16765516820E+02 0.13901350026E+02 0.12049905850E+02 0.10983452251E+02
 0.10443695366E+02 0.10278046080E+02 0.10443695366E+02 0.10983452251E+02 0.12049905850E+02
 0.13901350026E+02 0.16765516820E+02 0.20630830078E+02 0.26091281389E+02 0.35992640456E+02
 0.51667670672E+02 0.70780508147E+02 0.87123423664E+02 0.47831983451E+02 0.45161720780E+02
 0.38542310356E+02 0.30983729962E+02 0.24825743139E+02 0.20392007423E+02 0.16765516820E+02
 0.13927258958E+02 0.11916521862E+02 0.10613839683E+02 0.98369581904E+01 0.94297721777E+01
 0.93029462749E+01 0.94297721777E+01 0.98369581904E+01 0.10613839683E+02 0.11916521862E+02
 0.13927258958E+02 0.16765516820E+02 0.20392007423E+02 0.24825743139E+02 0.30983729962E+02
 0.38542310356E+02 0.45161720780E+02 0.29262744902E+02 0.28341742108E+02 0.25969870274E+02
 0.22900756752E+02 0.19600012119E+02 0.16497173973E+02 0.13901350026E+02 0.11916521862E+02
 0.10499529000E+02 0.95409064177E+01 0.89303573229E+01 0.85903594702E+01 0.84808672623E+01
 0.85903594702E+01 0.89303573229E+01 0.95409064177E+01 0.10499529000E+02 0.11916521862E+02
 0.13901350026E+02 0.16497173973E+02 0.19600012119E+02 0.22900756752E+02 0.25969870274E+02
 0.28341742108E+02 0.22522392422E+02 0.21978843475E+02 0.20480864160E+02 0.18369153523E+02
 0.16055311072E+02 0.13882623007E+02 0.12049905850E+02 0.10613839683E+02 0.95409064177E+01
 0.87674120812E+01 0.82399915420E+01 0.79296511356E+01 0.78266953016E+01 0.79296511356E+01
 0.82399915420E+01 0.87674120812E+01 0.95409064177E+01 0.10613839683E+02 0.12049905850E+02
 0.13882623007E+02 0.16055311072E+02 0.18369153523E+02 0.20480864160E+02 0.21978843475E+02
 0.18440752225E+02 0.18072383160E+02 0.17050591070E+02 0.15590664835E+02 0.13956401741E+02
 0.12374062607E+02 0.10983452251E+02 0.98369581904E+01 0.89303573229E+01 0.82399915420E+01
 0.77480056123E+01 0.74500376625E+01 0.73498277729E+01 0.74500376625E+01 0.77480056123E+01
 0.82399915420E+01 0.89303573229E+01 0.98369581904E+01 0.10983452251E+02 0.12374062607E+02
 0.13956401741E+02 0.15590664835E+02 0.17050591070E+02 0.18072383160E+02 0.16185742838E+02
 0.15924572325E+02 0.15191171778E+02 0.14117533414E+02 0.12872218772E+02 0.11610815795E+02
 0.10443695366E+02 0.94297721777E+01 0.85903594702E+01 0.79296511356E+01 0.74500376625E+01
 0.71574646536E+01 0.70589100670E+01 0.71574646536E+01 0.74500376625E+01 0.79296511356E+01
 0.85903594702E+01 0.94297721777E+01 0.10443695366E+02 0.11610815795E+02 0.12872218772E+02
 0.14117533414E+02 0.15191171778E+02 0.15924572325E+02 0.15439755892E+02 0.15215950822E+02
 0.14582768751E+02 0.13642400387E+02 0.12529393706E+02 0.11374382462E+02 0.10278046080E+02
 0.93029462749E+01 0.84808672623E+01 0.78266953016E+01 0.73498277729E+01 0.70589100670E+01
 0.69610075922E+01 0.70589100670E+01 0.73498277729E+01 0.78266953016E+01 0.84808672623E+01
 0.93029462749E+01 0.10278046080E+02 0.11374382462E+02 0.12529393706E+02 0.13642400387E+02
 0.14582768751E+02 0.15215950822E+02 0.16185742838E+02 0.15924572325E+02 0.15191171778E+02
 0.14117533414E+02 0.12872218772E+02 0.11610815795E+02 0.10443695366E+02 0.94297721777E+01
 0.85903594702E+01 0.79296511356E+01 0.74500376625E+01 0.71574646536E+01 0.70589100670E+01
 0.71574646536E+01 0.74500376625E+01 0.79296511356E+01 0.85903594702E+01 0.94297721777E+01
 0.10443695366E+02 0.11610815795E+02 0.12872218772E+02 0.14117533414E+02 0.15191171778E+02
 0.15924572325E+02 0.18440752225E+02 0.18072383160E+02 0.17050591070E+02 0.15590664835E+02
 0.13956401741E+02 0.12374062607E+02 0.10983452251E+02 0.98369581904E+01 0.89303573229E+01
 0.82399915420E+01 0.77480056123E+01 0.74500376625E+01 0.73498277729E+01 0.74500376625E+01
 0.77480056123E+01 0.82399915420E+01 0.89303573229E+01 0.98369581904E+01 0.10983452251E+02
 0.12374062607E+02 0.13956401741E+02 0.15590664835E+02 0.17050591070E+02 0.18072383160E+02
 0.22522392422E+02 0.21978843475E+02 0.20480864160E+02 0.18369153523E+02 0.16055311072E+02
 0.13882623007E+02 0.12049905850E+02 0.10613839683E+02 0.95409064177E+01 0.87674120812E+01
 0.82399915420E+01 0.79296511356E+01 0.78266953016E+01 0.79296511356E+01 0.82399915420E+01
 0.87674120812E+01 0.95409064177E+01 0.10613839683E+02 0.12049905850E+02 0.13882623007E+02
 0.16055311072E+02 0.18369153523E+02 0.20480864160E+02 0.21978843475E+02 0.29262744902E+02
 0.28341742108E+02 0.25969870274E+02 0.22900756752E+02 0.19600012119E+02 0.16497173973E+02
 0.13901350026E+02 0.11916521862E+02 0.10499529000E+02 0.95409064177E+01 0.89303573229E+01
 0.85903594702E+01 0.84808672623E+01 0.85903594702E+01 0.89303573229E+01 0.95409064177E+01
 0.10499529000E+02 0.11916521862E+02 0.13901350026E+02 0.16497173973E+02 0.19600012119E+02
 0.22900756752E+02 0.25969870274E+02 0.28341742108E+02 0.47831983451E+02 0.45161720780E+02
 0.38542310356E+02 0.30983729962E+02 0.24825743139E+02 0.20392007423E+02 0.16765516820E+02
 0.13927258958E+02 0.11916521862E+02 0.10613839683E+02 0.98369581904E+01 0.94297721777E+01
 0.93029462749E+01 0.94297721777E+01 0.98369581904E+01 0.10613839683E+02 0.11916521862E+02
 0.13927258958E+02 0.16765516820E+02 0.20392007423E+02 0.24825743139E+02 0.30983729962E+02
 0.38542310356E+02 0.45161720780E+02 0.93621144866E+02 0.87123423664E+02 0.70780508147E+02
 0.51667670672E+02 0.35992640456E+02 0.26091281389E+02 0.20630830078E+02 0.16765516820E+02
 0.13901350026E+02 0.12049905850E+02 0.10983452251E+02 0.10443695366E+02 0.10278046080E+02
 0.10443695366E+02 0.10983452251E+02 0.12049905850E+02 0.13901350026E+02 0.16765516820E+02
 0.20630830078E+02 0.26091281389E+02 0.35992640456E+02 0.51667670672E+02 0.70780508147E+02
 0.87123423664E+02 0.17503411755E+03 0.16271951396E+03 0.13123869063E+03 0.93145606685E+02
 0.60181698798E+02 0.37988133421E+02 0.26091281389E+02 0.20392007423E+02 0.16497173973E+02
 0.13882623007E+02 0.12374062607E+02 0.11610815795E+02 0.11374382462E+02 0.11610815795E+02
 0.12374062607E+02 0.13882623007E+02 0.16497173973E+02 0.20392007423E+02 0.26091281389E+02
 0.37988133421E+02 0.60181698798E+02 0.93145606685E+02 0.13123869063E+03 0.16271951396E+03
 0.29034812894E+03 0.27104350182E+03 0.22096271181E+03 0.15843812763E+03 0.10148797386E+03
 0.60181698798E+02 0.35992640456E+02 0.24825743139E+02 0.19600012119E+02 0.16055311072E+02
 0.13956401741E+02 0.12872218772E+02 0.12529393706E+02 0.12872218772E+02 0.13956401741E+02
 0.16055311072E+02 0.19600012119E+02 0.24825743139E+02 0.35992640456E+02 0.60181698798E+02
 0.10148797386E+03 0.15843812763E+03 0.22096271181E+03 0.27104350182E+03 0.42699596518E+03
 0.40071509296E+03 0.33162785537E+03 0.24293118820E+03 0.15843812763E+03 0.93145606685E+02
 0.51667670672E+02 0.30983729962E+02 0.22900756752E+02 0.18369153523E+02 0.15590664835E+02
 0.14117533414E+02 0.13642400387E+02 0.14117533414E+02 0.15590664835E+02 0.18369153523E+02
 0.22900756752E+02 0.30983729962E+02 0.51667670672E+02 0.93145606685E+02 0.15843812763E+03
 0.24293118820E+03 0.33162785537E+03 0.40071509296E+03 0.56118011752E+03 0.52907097987E+03
 0.44372912224E+03 0.33162785537E+03 0.22096271181E+03 0.13123869063E+03 0.70780508147E+02
 0.38542310356E+02 0.25969870274E+02 0.20480864160E+02 0.17050591070E+02 0.15191171778E+02
 0.14582768751E+02 0.15191171778E+02 0.17050591070E+02 0.20480864160E+02 0.25969870274E+02
 0.38542310356E+02 0.70780508147E+02 0.13123869063E+03 0.22096271181E+03 0.33162785537E+03
 0.44372912224E+03 0.52907097987E+03 0.66125503137E+03 0.62531229143E+03 0.52907097987E+03
 0.40071509296E+03 0.27104350182E+03 0.16271951396E+03 0.87123423664E+02 0.45161720780E+02
 0.28341742108E+02 0.21978843475E+02 0.18072383160E+02 0.15924572325E+02 0.15215950822E+02
 0.15924572325E+02 0.18072383160E+02 0.21978843475E+02 0.28341742108E+02 0.45161720780E+02
 0.87123423664E+02 0.16271951396E+03 0.27104350182E+03 0.40071509296E+03 0.52907097987E+03
 0.62531229143E+03 0.65456966466E+03 0.62031059670E+03 0.52792835002E+03 0.40306796272E+03
 0.27472787250E+03 0.16567106157E+03 0.88644618183E+02 0.45714849499E+02 0.28557594882E+02
 0.22072932678E+02 0.18107108480E+02 0.15938455006E+02 0.15225681476E+02 0.15938455006E+02
 0.18107108480E+02 0.22072932678E+02 0.28557594882E+02 0.45714849499E+02 0.88644618183E+02
 0.16567106157E+03 0.27472787250E+03 0.40306796272E+03 0.52792835002E+03 0.62031059670E+03
 0.62031059670E+03 0.58720228409E+03 0.49817872674E+03 0.37854971980E+03 0.25662538864E+03
 0.15411172912E+03 0.82574043120E+02 0.43243677715E+02 0.27694261687E+02 0.21545560973E+02
 0.17749825665E+02 0.15683687644E+02 0.15006387689E+02 0.15683687644E+02 0.17749825665E+02
 0.21545560973E+02 0.27694261687E+02 0.43243677715E+02 0.82574043120E+02 0.15411172912E+03
 0.25662538864E+03 0.37854971980E+03 0.49817872674E+03 0.58720228409E+03 0.52792835002E+03
 0.49817872674E+03 0.41882568750E+03 0.31391606881E+03 0.20956921405E+03 0.12452636327E+03
 0.67300240936E+02 0.37115661745E+02 0.25452187174E+02 0.20091782221E+02 0.16758237983E+02
 0.14967858541E+02 0.14385687183E+02 0.14967858541E+02 0.16758237983E+02 0.20091782221E+02
 0.25452187174E+02 0.37115661745E+02 0.67300240936E+02 0.12452636327E+03 0.20956921405E+03
 0.31391606881E+03 0.41882568750E+03 0.49817872674E+03 0.40306796272E+03 0.37854971980E+03
 0.31391606881E+03 0.23051708002E+03 0.15061137298E+03 0.88656742522E+02 0.49432171208E+02
 0.30106335532E+02 0.22489011330E+02 0.18041233762E+02 0.15339892519E+02 0.13918792411E+02
 0.13463076983E+02 0.13918792411E+02 0.15339892519E+02 0.18041233762E+02 0.22489011330E+02
 0.30106335532E+02 0.49432171208E+02 0.88656742522E+02 0.15061137298E+03 0.23051708002E+03
 0.31391606881E+03 0.37854971980E+03 0.27472787250E+03 0.25662538864E+03 0.20956921405E+03
 0.15061137298E+03 0.96707908169E+02 0.57572162984E+02 0.34784306394E+02 0.24349205785E+02
 0.19263974184E+02 0.15792319673E+02 0.13749509837E+02 0.12700124592E+02 0.12369880473E+02
 0.12700124592E+02 0.13749509837E+02 0.15792319673E+02 0.19263974184E+02 0.24349205785E+02
 0.34784306394E+02 0.57572162984E+02 0.96707908169E+02 0.15061137298E+03 0.20956921405E+03
 0.25662538864E+03 0.16567106157E+03 0.15411172912E+03 0.12452636327E+03 0.88656742522E+02
 0.57572162984E+02 0.36676770218E+02 0.25530369321E+02 0.20069228061E+02 0.16234028868E+02
 0.13677606576E+02 0.12206222263E+02 0.11463509332E+02 0.11234094930E+02 0.11463509332E+02
 0.12206222263E+02 0.13677606576E+02 0.16234028868E+02 0.20069228061E+02 0.25530369321E+02
 0.36676770218E+02 0.57572162984E+02 0.88656742522E+02 0.12452636327E+03 0.15411172912E+03
 0.88644618183E+02 0.82574043120E+02 0.67300240936E+02 0.49432171208E+02 0.34784306394E+02
 0.25530369321E+02 0.20318192722E+02 0.16505566558E+02 0.13699951429E+02 0.11890128163E+02
 0.10846275828E+02 0.10317249363E+02 0.10154918665E+02 0.10317249363E+02 0.10846275828E+02
 0.11890128163E+02 0.13699951429E+02 0.16505566558E+02 0.20318192722E+02 0.25530369321E+02
 0.34784306394E+02 0.49432171208E+02 0.67300240936E+02 0.82574043120E+02 0.45714849499E+02
 0.43243677715E+02 0.37115661745E+02 0.30106335532E+02 0.24349205785E+02 0.20069228061E+02
 0.16505566558E+02 0.13726928476E+02 0.11761258333E+02 0.10485591136E+02 0.97217720573E+01
 0.93198844411E+01 0.91944646308E+01 0.93198844411E+01 0.97217720573E+01 0.10485591136E+02
 0.11761258333E+02 0.13726928476E+02 0.16505566558E+02 0.20069228061E+02 0.24349205785E+02
 0.30106335532E+02 0.37115661745E+02 0.43243677715E+02 0.28557594882E+02 0.27694261687E+02
 0.25452187174E+02 0.22489011330E+02 0.19263974184E+02 0.16234028868E+02 0.13699951429E+02
 0.11761258333E+02 0.10374353508E+02 0.94326024164E+01 0.88300853403E+01 0.84932699219E+01
 0.83845765702E+01 0.84932699219E+01 0.88300853403E+01 0.94326024164E+01 0.10374353508E+02
 0.11761258333E+02 0.13699951429E+02 0.16234028868E+02 0.19263974184E+02 0.22489011330E+02
 0.25452187174E+02 0.27694261687E+02 0.22072932678E+02 0.21545560973E+02 0.20091782221E+02
 0.18041233762E+02 0.15792319673E+02 0.13677606576E+02 0.11890128163E+02 0.10485591136E+02
 0.94326024164E+01 0.86707253944E+01 0.81495850398E+01 0.78422728252E+01 0.77402136299E+01
 0.78422728252E+01 0.81495850398E+01 0.86707253944E+01 0.94326024164E+01 0.10485591136E+02
 0.11890128163E+02 0.13677606576E+02 0.15792319673E+02 0.18041233762E+02 0.20091782221E+02
 0.21545560973E+02 0.18107108480E+02 0.17749825665E+02 0.16758237983E+02 0.15339892519E+02
 0.13749509837E+02 0.12206222263E+02 0.10846275828E+02 0.97217720573E+01 0.88300853403E+01
 0.81495850398E+01 0.76639609992E+01 0.73696521923E+01 0.72706510158E+01 0.73696521923E+01
 0.76639609992E+01 0.81495850398E+01 0.88300853403E+01 0.97217720573E+01 0.10846275828E+02
 0.12206222263E+02 0.13749509837E+02 0.15339892519E+02 0.16758237983E+02 0.17749825665E+02
 0.15938455006E+02 0.15683687644E+02 0.14967858541E+02 0.13918792411E+02 0.12700124592E+02
 0.11463509332E+02 0.10317249363E+02 0.93198844411E+01 0.84932699219E+01 0.78422728252E+01
 0.73696521923E+01 0.70813734401E+01 0.69842759607E+01 0.70813734401E+01 0.73696521923E+01
 0.78422728252E+01 0.84932699219E+01 0.93198844411E+01 0.10317249363E+02 0.11463509332E+02
 0.12700124592E+02 0.13918792411E+02 0.14967858541E+02 0.15683687644E+02 0.15225681476E+02
 0.15006387689E+02 0.14385687183E+02 0.13463076983E+02 0.12369880473E+02 0.11234094930E+02
 0.10154918665E+02 0.91944646308E+01 0.83845765702E+01 0.77402136299E+01 0.72706510158E+01
 0.69842759607E+01 0.68879183572E+01 0.69842759607E+01 0.72706510158E+01 0.77402136299E+01
 0.83845765702E+01 0.91944646308E+01 0.10154918665E+02 0.11234094930E+02 0.12369880473E+02
 0.13463076983E+02 0.14385687183E+02 0.15006387689E+02 0.15938455006E+02 0.15683687644E+02
 0.14967858541E+02 0.13918792411E+02 0.12700124592E+02 0.11463509332E+02 0.10317249363E+02
 0.93198844411E+01 0.84932699219E+01 0.78422728252E+01 0.73696521923E+01 0.70813734401E+01
 0.69842759607E+01 0.70813734401E+01 0.73696521923E+01 0.78422728252E+01 0.84932699219E+01
 0.93198844411E+01 0.10317249363E+02 0.11463509332E+02 0.12700124592E+02 0.13918792411E+02
 0.14967858541E+02 0.15683687644E+02 0.18107108480E+02 0.17749825665E+02 0.16758237983E+02
 0.15339892519E+02 0.13749509837E+02 0.12206222263E+02 0.10846275828E+02 0.97217720573E+01
 0.88300853403E+01 0.81495850398E+01 0.76639609992E+01 0.73696521923E+01 0.72706510158E+01
 0.73696521923E+01 0.76639609992E+01 0.81495850398E+01 0.88300853403E+01 0.97217720573E+01
 0.10846275828E+02 0.12206222263E+02 0.13749509837E+02 0.15339892519E+02 0.16758237983E+02
 0.17749825665E+02 0.22072932678E+02 0.21545560973E+02 0.20091782221E+02 0.18041233762E+02
 0.15792319673E+02 0.13677606576E+02 0.11890128163E+02 0.10485591136E+02 0.94326024164E+01
 0.86707253944E+01 0.81495850398E+01 0.78422728252E+01 0.77402136299E+01 0.78422728252E+01
 0.81495850398E+01 0.86707253944E+01 0.94326024164E+01 0.10485591136E+02 0.11890128163E+02
 0.13677606576E+02 0.15792319673E+02 0.18041233762E+02 0.20091782221E+02 0.21545560973E+02
 0.28557594882E+02 0.27694261687E+02 0.25452187174E+02 0.22489011330E+02 0.19263974184E+02
 0.16234028868E+02 0.13699951429E+02 0.11761258333E+02 0.10374353508E+02 0.94326024164E+01
 0.88300853403E+01 0.84932699219E+01 0.83845765702E+01 0.84932699219E+01 0.88300853403E+01
 0.94326024164E+01 0.10374353508E+02 0.11761258333E+02 0.13699951429E+02 0.16234028868E+02
 0.19263974184E+02 0.22489011330E+02 0.25452187174E+02 0.27694261687E+02 0.45714849499E+02
 0.43243677715E+02 0.37115661745E+02 0.30106335532E+02 0.24349205785E+02 0.20069228061E+02
 0.16505566558E+02 0.13726928476E+02 0.11761258333E+02 0.10485591136E+02 0.97217720573E+01
 0.93198844411E+01 0.91944646308E+01 0.93198844411E+01 0.97217720573E+01 0.10485591136E+02
 0.11761258333E+02 0.13726928476E+02 0.16505566558E+02 0.20069228061E+02 0.24349205785E+02
 0.30106335532E+02 0.37115661745E+02 0.43243677715E+02 0.88644618183E+02 0.82574043120E+02
 0.67300240936E+02 0.49432171208E+02 0.34784306394E+02 0.25530369321E+02 0.20318192722E+02
 0.16505566558E+02 0.13699951429E+02 0.11890128163E+02 0.10846275828E+02 0.10317249363E+02
 0.10154918665E+02 0.10317249363E+02 0.10846275828E+02 0.11890128163E+02 0.13699951429E+02
 0.16505566558E+02 0.20318192722E+02 0.25530369321E+02 0.34784306394E+02 0.49432171208E+02
 0.67300240936E+02 0.82574043120E+02 0.16567106157E+03 0.15411172912E+03 0.12452636327E+03
 0.88656742522E+02 0.57572162984E+02 0.36676770218E+02 0.25530369321E+02 0.20069228061E+02
 0.16234028868E+02 0.13677606576E+02 0.12206222263E+02 0.11463509332E+02 0.11234094930E+02
 0.11463509332E+02 0.12206222263E+02 0.13677606576E+02 0.16234028868E+02 0.20069228061E+02
 0.25530369321E+02 0.36676770218E+02 0.57572162984E+02 0.88656742522E+02 0.12452636327E+03
 0.15411172912E+03 0.27472787250E+03 0.25662538864E+03 0.20956921405E+03 0.15061137298E+03
 0.96707908169E+02 0.57572162984E+02 0.34784306394E+02 0.24349205785E+02 0.19263974184E+02
 0.15792319673E+02 0.13749509837E+02 0.12700124592E+02 0.12369880473E+02 0.12700124592E+02
 0.13749509837E+02 0.15792319673E+02 0.19263974184E+02 0.24349205785E+02 0.34784306394E+02
 0.57572162984E+02 0.96707908169E+02 0.15061137298E+03 0.20956921405E+03 0.25662538864E+03
 0.40306796272E+03 0.37854971980E+03 0.31391606881E+03 0.23051708002E+03 0.15061137298E+03
 0.88656742522E+02 0.49432171208E+02 0.30106335532E+02 0.22489011330E+02 0.18041233762E+02
 0.15339892519E+02 0.13918792411E+02 0.13463076983E+02 0.13918792411E+02 0.15339892519E+02
 0.18041233762E+02 0.22489011330E+02 0.30106335532E+02 0.49432171208E+02 0.88656742522E+02
 0.15061137298E+03 0.23051708002E+03 0.31391606881E+03 0.37854971980E+03 0.52792835002E+03
 0.49817872674E+03 0.41882568750E+03 0.31391606881E+03 0.20956921405E+03 0.12452636327E+03
 0.67300240936E+02 0.37115661745E+02 0.25452187174E+02 0.20091782221E+02 0.16758237983E+02
 0.14967858541E+02 0.14385687183E+02 0.14967858541E+02 0.16758237983E+02 0.20091782221E+02
 0.25452187174E+02 0.37115661745E+02 0.67300240936E+02 0.12452636327E+03 0.20956921405E+03
 0.31391606881E+03 0.41882568750E+03 0.49817872674E+03 0.62031059670E+03 0.58720228409E+03
 0.49817872674E+03 0.37854971980E+03 0.25662538864E+03 0.15411172912E+03 0.82574043120E+02
 0.43243677715E+02 0.27694261687E+02 0.21545560973E+02 0.17749825665E+02 0.15683687644E+02
 0.15006387689E+02 0.15683687644E+02 0.17749825665E+02 0.21545560973E+02 0.27694261687E+02
 0.43243677715E+02 0.82574043120E+02 0.15411172912E+03 0.25662538864E+03 0.37854971980E+03
 0.49817872674E+03 0.58720228409E+03 0.53643517705E+03 0.50986673912E+03 0.43724552674E+03
 0.33676708464E+03 0.23082185732E+03 0.13929736232E+03 0.74885080924E+02 0.40073122109E+02
 0.26641584298E+02 0.20761898855E+02 0.17144031103E+02 0.15218594925E+02 0.14597149339E+02
 0.15218594925E+02 0.17144031103E+02 0.20761898855E+02 0.26641584298E+02 0.40073122109E+02
 0.74885080924E+02 0.13929736232E+03 0.23082185732E+03 0.33676708464E+03 0.43724552674E+03
 0.50986673912E+03 0.50986673912E+03 0.48401195672E+03 0.41360734351E+03 0.31690182342E+03
 0.21596259697E+03 0.12980867502E+03 0.69985471036E+02 0.38132235645E+02 0.25914662381E+02
 0.20281581865E+02 0.16818202064E+02 0.14982140112E+02 0.14390986625E+02 0.14982140112E+02
 0.16818202064E+02 0.20281581865E+02 0.25914662381E+02 0.38132235645E+02 0.69985471036E+02
 0.12980867502E+03 0.21596259697E+03 0.31690182342E+03 0.41360734351E+03 0.48401195672E+03
 0.43724552674E+03 0.41360734351E+03 0.34989687034E+03 0.26412988799E+03 0.17714048913E+03
 0.10546131203E+03 0.57656649770E+02 0.33310494685E+02 0.23967552646E+02 0.18956321564E+02
 0.15912352640E+02 0.14316605338E+02 0.13806637591E+02 0.14316605338E+02 0.15912352640E+02
 0.18956321564E+02 0.23967552646E+02 0.33310494685E+02 0.57656649770E+02 0.10546131203E+03
 0.17714048913E+03 0.26412988799E+03 0.34989687034E+03 0.41360734351E+03 0.33676708464E+03
 0.31690182342E+03 0.26412988799E+03 0.19512214761E+03 0.12808364835E+03 0.75836470523E+02
 0.43245504850E+02 0.27747230119E+02 0.21248478849E+02 0.17083487818E+02 0.14612171324E+02
 0.13337988494E+02 0.12935802111E+02 0.13337988494E+02 0.14612171324E+02 0.17083487818E+02
 0.21248478849E+02 0.27747230119E+02 0.43245504850E+02 0.75836470523E+02 0.12808364835E+03
 0.19512214761E+03 0.26412988799E+03 0.31690182342E+03 0.23082185732E+03 0.21596259697E+03
 0.17714048913E+03 0.12808364835E+03 0.82893351968E+02 0.50145416007E+02 0.31463088018E+02
 0.23002506388E+02 0.18259032846E+02 0.15023074505E+02 0.13146741378E+02 0.12195913862E+02
 0.11900446066E+02 0.12195913862E+02 0.13146741378E+02 0.15023074505E+02 0.18259032846E+02
 0.23002506388E+02 0.31463088018E+02 0.50145416007E+02 0.82893351968E+02 0.12808364835E+03
 0.17714048913E+03 0.21596259697E+03 0.13929736232E+03 0.12980867502E+03 0.10546131203E+03
 0.75836470523E+02 0.50145416007E+02 0.33019187126E+02 0.23972820483E+02 0.19075852222E+02
 0.15452605671E+02 0.13076572943E+02 0.11715033409E+02 0.11030807984E+02 0.10820892870E+02
 0.11030807984E+02 0.11715033409E+02 0.13076572943E+02 0.15452605671E+02 0.19075852222E+02
 0.23972820483E+02 0.33019187126E+02 0.50145416007E+02 0.75836470523E+02 0.10546131203E+03
 0.12980867502E+03 0.74885080924E+02 0.69985471036E+02 0.57656649770E+02 0.43245504850E+02
 0.31463088018E+02 0.23972820483E+02 0.19343039752E+02 0.15724475356E+02 0.13104754828E+02
 0.11420395669E+02 0.10443173360E+02 0.99450325796E+01 0.97920220974E+01 0.99450325796E+01
 0.10443173360E+02 0.11420395669E+02 0.13104754828E+02 0.15724475356E+02 0.19343039752E+02
 0.23972820483E+02 0.31463088018E+02 0.43245504850E+02 0.57656649770E+02 0.69985471036E+02
 0.40073122109E+02 0.38132235645E+02 0.33310494685E+02 0.27747230119E+02 0.23002506388E+02
 0.19075852222E+02 0.15724475356E+02 0.13133013594E+02 0.11303188327E+02 0.10107586023E+02
 0.93823489404E+01 0.89960062458E+01 0.88746464018E+01 0.89960062458E+01 0.93823489404E+01
 0.10107586023E+02 0.11303188327E+02 0.13133013594E+02 0.15724475356E+02 0.19075852222E+02
 0.23002506388E+02 0.27747230119E+02 0.33310494685E+02 0.38132235645E+02 0.26641584298E+02
 0.25914662381E+02 0.23967552646E+02 0.21248478849E+02 0.18259032846E+02 0.15452605671E+02
 0.13104754828E+02 0.11303188327E+02 0.10004960716E+02 0.91129543016E+01 0.85343213490E+01
 0.82070704298E+01 0.81007908718E+01 0.82070704298E+01 0.85343213490E+01 0.91129543016E+01
 0.10004960716E+02 0.11303188327E+02 0.13104754828E+02 0.15452605671E+02 0.18259032846E+02
 0.21248478849E+02 0.23967552646E+02 0.25914662381E+02 0.20761898855E+02 0.20281581865E+02
 0.18956321564E+02 0.17083487818E+02 0.15023074505E+02 0.13076572943E+02 0.11420395669E+02
 0.10107586023E+02 0.91129543016E+01 0.83854045363E+01 0.78830603307E+01 0.75849218229E+01
 0.74855984198E+01 0.75849218229E+01 0.78830603307E+01 0.83854045363E+01 0.91129543016E+01
 0.10107586023E+02 0.11420395669E+02 0.13076572943E+02 0.15023074505E+02 0.17083487818E+02
 0.18956321564E+02 0.20281581865E+02 0.17144031103E+02 0.16818202064E+02 0.15912352640E+02
 0.14612171324E+02 0.13146741378E+02 0.11715033409E+02 0.10443173360E+02 0.93823489404E+01
 0.85343213490E+01 0.78830603307E+01 0.74165009181E+01 0.71332378465E+01 0.70378974341E+01
 0.71332378465E+01 0.74165009181E+01 0.78830603307E+01 0.85343213490E+01 0.93823489404E+01
 0.10443173360E+02 0.11715033409E+02 0.13146741378E+02 0.14612171324E+02 0.15912352640E+02
 0.16818202064E+02 0.15218594925E+02 0.14982140112E+02 0.14316605338E+02 0.13337988494E+02
 0.12195913862E+02 0.11030807984E+02 0.99450325796E+01 0.89960062458E+01 0.82070704298E+01
 0.75849218229E+01 0.71332378465E+01 0.68578868013E+01 0.67651878832E+01 0.68578868013E+01
 0.71332378465E+01 0.75849218229E+01 0.82070704298E+01 0.89960062458E+01 0.99450325796E+01
 0.11030807984E+02 0.12195913862E+02 0.13337988494E+02 0.14316605338E+02 0.14982140112E+02
 0.14597149339E+02 0.14390986625E+02 0.13806637591E+02 0.12935802111E+02 0.11900446066E+02
 0.10820892870E+02 0.97920220974E+01 0.88746464018E+01 0.81007908718E+01 0.74855984198E+01
 0.70378974341E+01 0.67651878832E+01 0.66734911619E+01 0.67651878832E+01 0.70378974341E+01
 0.74855984198E+01 0.81007908718E+01 0.88746464018E+01 0.97920220974E+01 0.10820892870E+02
 0.11900446066E+02 0.12935802111E+02 0.13806637591E+02 0.14390986625E+02 0.15218594925E+02
 0.14982140112E+02 0.14316605338E+02 0.13337988494E+02 0.12195913862E+02 0.11030807984E+02
 0.99450325796E+01 0.89960062458E+01 0.82070704298E+01 0.75849218229E+01 0.71332378465E+01
 0.68578868013E+01 0.67651878832E+01 0.68578868013E+01 0.71332378465E+01 0.75849218229E+01
 0.82070704298E+01 0.89960062458E+01 0.99450325796E+01 0.11030807984E+02 0.12195913862E+02
 0.13337988494E+02 0.14316605338E+02 0.14982140112E+02 0.17144031103E+02 0.16818202064E+02
 0.15912352640E+02 0.14612171324E+02 0.13146741378E+02 0.11715033409E+02 0.10443173360E+02
 0.93823489404E+01 0.85343213490E+01 0.78830603307E+01 0.74165009181E+01 0.71332378465E+01
 0.70378974341E+01 0.71332378465E+01 0.74165009181E+01 0.78830603307E+01 0.85343213490E+01
 0.93823489404E+01 0.10443173360E+02 0.11715033409E+02 0.13146741378E+02 0.14612171324E+02
 0.15912352640E+02 0.16818202064E+02 0.20761898855E+02 0.20281581865E+02 0.18956321564E+02
 0.17083487818E+02 0.15023074505E+02 0.13076572943E+02 0.11420395669E+02 0.10107586023E+02
 0.91129543016E+01 0.83854045363E+01 0.78830603307E+01 0.75849218229E+01 0.74855984198E+01
 0.75849218229E+01 0.78830603307E+01 0.83854045363E+01 0.91129543016E+01 0.10107586023E+02
 0.11420395669E+02 0.13076572943E+02 0.15023074505E+02 0.17083487818E+02 0.18956321564E+02
 0.20281581865E+02 0.26641584298E+02 0.25914662381E+02 0.23967552646E+02 0.21248478849E+02
 0.18259032846E+02 0.15452605671E+02 0.13104754828E+02 0.11303188327E+02 0.10004960716E+02
 0.91129543016E+01 0.85343213490E+01 0.82070704298E+01 0.81007908718E+01 0.82070704298E+01
 0.85343213490E+01 0.91129543016E+01 0.10004960716E+02 0.11303188327E+02 0.13104754828E+02
 0.15452605671E+02 0.18259032846E+02 0.21248478849E+02 0.23967552646E+02 0.25914662381E+02
 0.40073122109E+02 0.38132235645E+02 0.33310494685E+02 0.27747230119E+02 0.23002506388E+02
 0.19075852222E+02 0.15724475356E+02 0.13133013594E+02 0.11303188327E+02 0.10107586023E+02
 0.93823489404E+01 0.89960062458E+01 0.88746464018E+01 0.89960062458E+01 0.93823489404E+01
 0.10107586023E+02 0.11303188327E+02 0.13133013594E+02 0.15724475356E+02 0.19075852222E+02
 0.23002506388E+02 0.27747230119E+02 0.33310494685E+02 0.38132235645E+02 0.74885080924E+02
 0.69985471036E+02 0.57656649770E+02 0.43245504850E+02 0.31463088018E+02 0.23972820483E+02
 0.19343039752E+02 0.15724475356E+02 0.13104754828E+02 0.11420395669E+02 0.10443173360E+02
 0.99450325796E+01 0.97920220974E+01 0.99450325796E+01 0.10443173360E+02 0.11420395669E+02
 0.13104754828E+02 0.15724475356E+02 0.19343039752E+02 0.23972820483E+02 0.31463088018E+02
 0.43245504850E+02 0.57656649770E+02 0.69985471036E+02 0.13929736232E+03 0.12980867502E+03
 0.10546131203E+03 0.75836470523E+02 0.50145416007E+02 0.33019187126E+02 0.23972820483E+02
 0.19075852222E+02 0.15452605671E+02 0.13076572943E+02 0.11715033409E+02 0.11030807984E+02
 0.10820892870E+02 0.11030807984E+02 0.11715033409E+02 0.13076572943E+02 0.15452605671E+02
 0.19075852222E+02 0.23972820483E+02 0.33019187126E+02 0.50145416007E+02 0.75836470523E+02