   1   1   1   0
  0.8065600E+02  0.2840000E-09  0.2840000E-09  0.1000000E-08  0.5000000E-15
  1.000000000000000E-004
  CAR 
 BCC Fe                                  
      9.43640998     -8.83634029  301     -2.39211760      1.00000000
     -8.836  0.0000E+00  0.0000E+00  0.0000E+00  0.0000E+00
     -8.775  0.0000E+00  0.0000E+00  0.0000E+00  0.0000E+00
     -8.715  0.0000E+00  0.0000E+00  0.0000E+00  0.0000E+00
     -8.654  0.0000E+00  0.0000E+00  0.0000E+00  0.0000E+00
     -8.593  0.0000E+00  0.0000E+00  0.0000E+00  0.0000E+00
     -8.532  0.0000E+00  0.0000E+00  0.0000E+00  0.0000E+00
     -8.471 -0.2973E-30  0.0000E+00 -0.1811E-31  0.0000E+00
     -8.410 -0.3757E-28  0.0000E+00 -0.2306E-29  0.0000E+00
     -8.349 -0.3963E-26  0.0000E+00 -0.2437E-27  0.0000E+00
     -8.288 -0.3466E-24  0.0000E+00 -0.2136E-25  0.0000E+00
     -8.227 -0.2513E-22  0.0000E+00 -0.1552E-23  0.0000E+00
     -8.166 -0.1509E-20  0.0000E+00 -0.9349E-22  0.0000E+00
     -8.105 -0.7512E-19  0.0000E+00 -0.4669E-20  0.0000E+00
     -8.045 -0.3096E-17  0.0000E+00 -0.1932E-18  0.0000E+00
     -7.984 -0.1027E-15  0.0000E+00 -0.6449E-17  0.0000E+00
     -7.923 -0.2882E-14  0.0000E+00 -0.1820E-15  0.0000E+00
     -7.862 -0.6700E-13 -0.4464E-29 -0.4263E-14 -0.2719E-30
     -7.801 -0.1286E-11 -0.5082E-27 -0.8260E-13 -0.3123E-28
     -7.740 -0.2036E-10 -0.4832E-25 -0.1323E-11 -0.2974E-26
     -7.679 -0.2655E-09 -0.3809E-23 -0.1749E-10 -0.2350E-24
     -7.618 -0.2846E-08 -0.2488E-21 -0.1908E-09 -0.1539E-22
     -7.557 -0.2502E-07 -0.1347E-19 -0.1715E-08 -0.8356E-21
     -7.496 -0.1797E-06 -0.6037E-18 -0.1266E-07 -0.3761E-19
     -7.435 -0.1050E-05 -0.2168E-16 -0.7664E-07 -0.1358E-17
     -7.375 -0.4957E-05 -0.6666E-15 -0.3786E-06 -0.4196E-16
     -7.314 -0.1868E-04 -0.1687E-13 -0.1516E-05 -0.1070E-14
     -7.253 -0.5502E-04 -0.3528E-12 -0.4867E-05 -0.2256E-13
     -7.192 -0.1214E-03 -0.6087E-11 -0.1226E-04 -0.3933E-12
     -7.131 -0.1782E-03 -0.8655E-10 -0.2311E-04 -0.5665E-11
     -7.070 -0.8258E-04 -0.1013E-08 -0.2814E-04 -0.6735E-10
     -7.009  0.3859E-03 -0.9729E-08 -0.4637E-05 -0.6599E-09
     -6.948  0.1317E-02 -0.7651E-07  0.7561E-04 -0.5320E-08
     -6.887  0.2406E-02 -0.4906E-06  0.2221E-03 -0.3520E-07
     -6.826  0.3017E-02 -0.2550E-05  0.4059E-03 -0.1905E-06
     -6.765  0.2769E-02 -0.1064E-04  0.5746E-03 -0.8387E-06
     -6.705  0.2096E-02 -0.3510E-04  0.7022E-03 -0.2977E-05
     -6.644  0.2046E-02 -0.8878E-04  0.8268E-03 -0.8384E-05
     -6.583  0.3270E-02 -0.1602E-03  0.1026E-02 -0.1814E-04
     -6.522  0.5174E-02 -0.1569E-03  0.1341E-02 -0.2770E-04
     -6.461  0.6290E-02  0.1231E-03  0.1724E-02 -0.2020E-04
     -6.400  0.5654E-02  0.8704E-03  0.2069E-02  0.3282E-04
     -6.339  0.3785E-02  0.1986E-02  0.2299E-02  0.1538E-03
     -6.278  0.2196E-02  0.2937E-02  0.2433E-02  0.3327E-03
     -6.217  0.2039E-02  0.3079E-02  0.2557E-02  0.5202E-03
     -6.156  0.3326E-02  0.2303E-02  0.2760E-02  0.6605E-03
     -6.095  0.5179E-02  0.1328E-02  0.3075E-02  0.7413E-03
     -6.035  0.6507E-02  0.1248E-02  0.3471E-02  0.8174E-03
     -5.974  0.6725E-02  0.2614E-02  0.3881E-02  0.9766E-03
     -5.913  0.6419E-02  0.4807E-02  0.4272E-02  0.1269E-02
     -5.852  0.7309E-02  0.6343E-02  0.4717E-02  0.1656E-02
     -5.791  0.1084E-01  0.6065E-02  0.5377E-02  0.2025E-02
     -5.730  0.1656E-01  0.4191E-02  0.6386E-02  0.2280E-02
     -5.669  0.2255E-01  0.2107E-02  0.7759E-02  0.2409E-02
     -5.608  0.2782E-01  0.1137E-02  0.9453E-02  0.2478E-02
     -5.547  0.3385E-01  0.1521E-02  0.1151E-01  0.2571E-02
     -5.486  0.4334E-01  0.2425E-02  0.1415E-01  0.2718E-02
     -5.425  0.5759E-01  0.2811E-02  0.1766E-01  0.2890E-02
     -5.365  0.7505E-01  0.2401E-02  0.2223E-01  0.3036E-02
     -5.304  0.9195E-01  0.1948E-02  0.2783E-01  0.3154E-02
     -5.243  0.1039E+00  0.2487E-02  0.3417E-01  0.3306E-02
     -5.182  0.1082E+00  0.4173E-02  0.4076E-01  0.3560E-02
     -5.121  0.1046E+00  0.5886E-02  0.4713E-01  0.3919E-02
     -5.060  0.9603E-01  0.6180E-02  0.5298E-01  0.4295E-02
     -4.999  0.8627E-01  0.4731E-02  0.5823E-01  0.4583E-02
     -4.938  0.7847E-01  0.2768E-02  0.6301E-01  0.4752E-02
     -4.877  0.7379E-01  0.2005E-02  0.6751E-01  0.4874E-02
     -4.816  0.7181E-01  0.3122E-02  0.7188E-01  0.5064E-02
     -4.755  0.7144E-01  0.5174E-02  0.7623E-01  0.5379E-02
     -4.695  0.7141E-01  0.6407E-02  0.8058E-01  0.5770E-02
     -4.634  0.7013E-01  0.5745E-02  0.8485E-01  0.6119E-02
     -4.573  0.6616E-01  0.3585E-02  0.8888E-01  0.6338E-02
     -4.512  0.5936E-01  0.1224E-02  0.9250E-01  0.6412E-02
     -4.451  0.5106E-01 -0.2450E-03  0.9561E-01  0.6397E-02
     -4.390  0.4269E-01 -0.3698E-03  0.9821E-01  0.6375E-02
     -4.329  0.3442E-01  0.8877E-03  0.1003E+00  0.6429E-02
     -4.268  0.2571E-01  0.3228E-02  0.1019E+00  0.6626E-02
     -4.207  0.1686E-01  0.5815E-02  0.1029E+00  0.6980E-02
     -4.146  0.9407E-02  0.7496E-02  0.1035E+00  0.7436E-02
     -4.085  0.4915E-02  0.7618E-02  0.1038E+00  0.7900E-02
     -4.025  0.3903E-02  0.6618E-02  0.1040E+00  0.8304E-02
     -3.964  0.5825E-02  0.5647E-02  0.1044E+00  0.8647E-02
     -3.903  0.9322E-02  0.5543E-02  0.1049E+00  0.8985E-02
     -3.842  0.1252E-01  0.6117E-02  0.1057E+00  0.9358E-02
     -3.781  0.1377E-01  0.6510E-02  0.1065E+00  0.9754E-02
     -3.720  0.1259E-01  0.6280E-02  0.1073E+00  0.1014E-01
     -3.659  0.9806E-02  0.5876E-02  0.1079E+00  0.1049E-01
     -3.598  0.6914E-02  0.5792E-02  0.1083E+00  0.1085E-01
     -3.537  0.5149E-02  0.5725E-02  0.1086E+00  0.1120E-01
     -3.476  0.4974E-02  0.5211E-02  0.1089E+00  0.1151E-01
     -3.415  0.5876E-02  0.4909E-02  0.1093E+00  0.1181E-01
     -3.355  0.6609E-02  0.6475E-02  0.1097E+00  0.1221E-01
     -3.294  0.6058E-02  0.1090E-01  0.1101E+00  0.1287E-01
     -3.233  0.4173E-02  0.1727E-01  0.1103E+00  0.1392E-01
     -3.172  0.1909E-02  0.2333E-01  0.1104E+00  0.1534E-01
     -3.111  0.2485E-03  0.2716E-01  0.1104E+00  0.1700E-01
     -3.050 -0.5408E-03  0.2869E-01  0.1104E+00  0.1875E-01
     -2.989 -0.6995E-03  0.2969E-01  0.1104E+00  0.2055E-01
     -2.928 -0.3476E-03  0.3223E-01  0.1104E+00  0.2252E-01
     -2.867  0.7536E-03  0.3659E-01  0.1104E+00  0.2475E-01
     -2.806  0.2761E-02  0.4100E-01  0.1106E+00  0.2724E-01
     -2.745  0.5112E-02  0.4365E-01  0.1109E+00  0.2990E-01
     -2.685  0.6553E-02  0.4507E-01  0.1113E+00  0.3265E-01
     -2.624  0.6113E-02  0.4750E-01  0.1116E+00  0.3554E-01
     -2.563  0.4031E-02  0.5172E-01  0.1119E+00  0.3869E-01
     -2.502  0.1592E-02  0.5540E-01  0.1120E+00  0.4206E-01
     -2.441  0.1416E-03  0.5548E-01  0.1120E+00  0.4544E-01
     -2.380  0.3737E-03  0.5167E-01  0.1120E+00  0.4859E-01
     -2.319  0.2179E-02  0.4627E-01  0.1122E+00  0.5141E-01
     -2.258  0.4647E-02  0.4142E-01  0.1124E+00  0.5393E-01
     -2.197  0.6325E-02  0.3769E-01  0.1128E+00  0.5623E-01
     -2.136  0.6085E-02  0.3492E-01  0.1132E+00  0.5835E-01
     -2.075  0.4072E-02  0.3306E-01  0.1134E+00  0.6037E-01
     -2.015  0.1695E-02  0.3248E-01  0.1135E+00  0.6235E-01
     -1.954  0.6500E-03  0.3387E-01  0.1136E+00  0.6441E-01
     -1.893  0.1893E-02  0.3768E-01  0.1137E+00  0.6670E-01
     -1.832  0.5124E-02  0.4323E-01  0.1140E+00  0.6934E-01
     -1.771  0.8858E-02  0.4932E-01  0.1146E+00  0.7234E-01
     -1.710  0.1117E-01  0.5557E-01  0.1152E+00  0.7573E-01
     -1.649  0.1086E-01  0.6201E-01  0.1159E+00  0.7950E-01
     -1.588  0.8220E-02  0.6712E-01  0.1164E+00  0.8359E-01
     -1.527  0.4641E-02  0.6809E-01  0.1167E+00  0.8774E-01
     -1.466  0.1727E-02  0.6427E-01  0.1168E+00  0.9165E-01
     -1.405  0.5785E-03  0.5889E-01  0.1168E+00  0.9524E-01
     -1.345  0.1508E-02  0.5578E-01  0.1169E+00  0.9864E-01
     -1.284  0.3995E-02  0.5474E-01  0.1172E+00  0.1020E+00
     -1.223  0.6908E-02  0.5175E-01  0.1176E+00  0.1051E+00
     -1.162  0.9071E-02  0.4381E-01  0.1181E+00  0.1078E+00
     -1.101  0.9773E-02  0.3244E-01  0.1187E+00  0.1098E+00
     -1.040  0.8899E-02  0.2191E-01  0.1193E+00  0.1111E+00
     -0.979  0.6887E-02  0.1520E-01  0.1197E+00  0.1120E+00
     -0.918  0.4678E-02  0.1225E-01  0.1200E+00  0.1128E+00
     -0.857  0.3247E-02  0.1152E-01  0.1202E+00  0.1135E+00
     -0.796  0.2828E-02  0.1199E-01  0.1203E+00  0.1142E+00
     -0.735  0.2745E-02  0.1326E-01  0.1205E+00  0.1150E+00
     -0.675  0.2241E-02  0.1457E-01  0.1206E+00  0.1159E+00
     -0.614  0.1400E-02  0.1463E-01  0.1207E+00  0.1168E+00
     -0.553  0.1100E-02  0.1258E-01  0.1208E+00  0.1176E+00
     -0.492  0.2081E-02  0.8767E-02  0.1209E+00  0.1181E+00
     -0.431  0.4034E-02  0.4483E-02  0.1212E+00  0.1184E+00
     -0.370  0.5637E-02  0.1102E-02  0.1215E+00  0.1184E+00
     -0.309  0.5745E-02 -0.5233E-03  0.1219E+00  0.1184E+00
     -0.248  0.4721E-02 -0.4618E-04  0.1221E+00  0.1184E+00
     -0.187  0.4420E-02  0.2445E-02  0.1224E+00  0.1185E+00
     -0.126  0.6558E-02  0.6076E-02  0.1228E+00  0.1189E+00
     -0.065  0.1096E-01  0.9015E-02  0.1235E+00  0.1195E+00
     -0.005  0.1535E-01  0.9494E-02  0.1244E+00  0.1200E+00
      0.056  0.1698E-01  0.7445E-02  0.1255E+00  0.1205E+00
      0.117  0.1488E-01  0.4790E-02  0.1264E+00  0.1208E+00
      0.178  0.1070E-01  0.3690E-02  0.1270E+00  0.1210E+00
      0.239  0.7253E-02  0.4535E-02  0.1275E+00  0.1213E+00
      0.300  0.5939E-02  0.5773E-02  0.1278E+00  0.1216E+00
      0.361  0.5819E-02  0.5617E-02  0.1282E+00  0.1220E+00
      0.422  0.5112E-02  0.3798E-02  0.1285E+00  0.1222E+00
      0.483  0.3249E-02  0.1771E-02  0.1287E+00  0.1223E+00
      0.544  0.1264E-02  0.1494E-02  0.1288E+00  0.1224E+00
      0.605  0.6555E-03  0.3927E-02  0.1288E+00  0.1227E+00
      0.665  0.2193E-02  0.8168E-02  0.1289E+00  0.1232E+00
      0.726  0.5541E-02  0.1177E-01  0.1293E+00  0.1239E+00
      0.787  0.9544E-02  0.1239E-01  0.1298E+00  0.1246E+00
      0.848  0.1278E-01  0.9700E-02  0.1306E+00  0.1252E+00
      0.909  0.1415E-01  0.5587E-02  0.1315E+00  0.1256E+00
      0.970  0.1345E-01  0.2453E-02  0.1323E+00  0.1257E+00
      1.031  0.1180E-01  0.1310E-02  0.1330E+00  0.1258E+00
      1.092  0.1119E-01  0.1616E-02  0.1337E+00  0.1259E+00
      1.153  0.1272E-01  0.2645E-02  0.1345E+00  0.1260E+00
      1.214  0.1506E-01  0.4648E-02  0.1354E+00  0.1263E+00
      1.275  0.1541E-01  0.8454E-02  0.1363E+00  0.1268E+00
      1.335  0.1233E-01  0.1401E-01  0.1371E+00  0.1277E+00
      1.396  0.7217E-02  0.1959E-01  0.1375E+00  0.1289E+00
      1.457  0.2876E-02  0.2261E-01  0.1377E+00  0.1303E+00
      1.518  0.9576E-03  0.2153E-01  0.1378E+00  0.1316E+00
      1.579  0.1092E-02  0.1708E-01  0.1378E+00  0.1326E+00
      1.640  0.2021E-02  0.1205E-01  0.1380E+00  0.1334E+00
      1.701  0.3184E-02  0.9440E-02  0.1381E+00  0.1339E+00
      1.762  0.5259E-02  0.1038E-01  0.1385E+00  0.1346E+00
      1.823  0.9271E-02  0.1337E-01  0.1390E+00  0.1354E+00
      1.884  0.1504E-01  0.1560E-01  0.1399E+00  0.1363E+00
      1.945  0.2034E-01  0.1528E-01  0.1412E+00  0.1373E+00
      2.005  0.2203E-01  0.1282E-01  0.1425E+00  0.1380E+00
      2.066  0.1878E-01  0.9947E-02  0.1437E+00  0.1386E+00
      2.127  0.1308E-01  0.7768E-02  0.1445E+00  0.1391E+00
      2.188  0.9614E-02  0.5961E-02  0.1451E+00  0.1395E+00
      2.249  0.1116E-01  0.3961E-02  0.1457E+00  0.1397E+00
      2.310  0.1602E-01  0.2411E-02  0.1467E+00  0.1399E+00
      2.371  0.1966E-01  0.2959E-02  0.1479E+00  0.1400E+00
      2.432  0.1890E-01  0.6632E-02  0.1491E+00  0.1404E+00
      2.493  0.1443E-01  0.1264E-01  0.1499E+00  0.1412E+00
      2.554  0.9539E-02  0.1875E-01  0.1505E+00  0.1424E+00
      2.615  0.6756E-02  0.2256E-01  0.1509E+00  0.1437E+00
      2.675  0.5916E-02  0.2244E-01  0.1513E+00  0.1451E+00
      2.736  0.5190E-02  0.1817E-01  0.1516E+00  0.1462E+00
      2.797  0.3448E-02  0.1130E-01  0.1518E+00  0.1469E+00
      2.858  0.1388E-02  0.4742E-02  0.1519E+00  0.1472E+00
      2.919  0.7691E-03  0.1350E-02  0.1519E+00  0.1473E+00
      2.980  0.2891E-02  0.2329E-02  0.1521E+00  0.1474E+00
      3.041  0.7557E-02  0.6663E-02  0.1526E+00  0.1478E+00
      3.102  0.1307E-01  0.1169E-01  0.1534E+00  0.1485E+00
      3.163  0.1731E-01  0.1469E-01  0.1544E+00  0.1494E+00
      3.224  0.1908E-01  0.1481E-01  0.1556E+00  0.1503E+00
      3.285  0.1857E-01  0.1340E-01  0.1567E+00  0.1511E+00
      3.345  0.1683E-01  0.1232E-01  0.1578E+00  0.1519E+00
      3.406  0.1487E-01  0.1201E-01  0.1587E+00  0.1526E+00
      3.467  0.1298E-01  0.1149E-01  0.1594E+00  0.1533E+00
      3.528  0.1063E-01  0.1016E-01  0.1601E+00  0.1539E+00
      3.589  0.7423E-02  0.8666E-02  0.1605E+00  0.1545E+00
      3.650  0.4009E-02  0.7936E-02  0.1608E+00  0.1550E+00
      3.711  0.1701E-02  0.7861E-02  0.1609E+00  0.1554E+00
      3.772  0.1170E-02  0.7659E-02  0.1610E+00  0.1559E+00
      3.833  0.1800E-02  0.7373E-02  0.1611E+00  0.1563E+00
      3.894  0.2339E-02  0.8262E-02  0.1612E+00  0.1568E+00
      3.955  0.2156E-02  0.1124E-01  0.1614E+00  0.1575E+00
      4.015  0.1921E-02  0.1517E-01  0.1615E+00  0.1585E+00
      4.076  0.3025E-02  0.1741E-01  0.1617E+00  0.1595E+00
      4.137  0.6149E-02  0.1635E-01  0.1620E+00  0.1605E+00
      4.198  0.1034E-01  0.1324E-01  0.1627E+00  0.1613E+00
      4.259  0.1367E-01  0.1089E-01  0.1635E+00  0.1620E+00
      4.320  0.1497E-01  0.1068E-01  0.1644E+00  0.1626E+00
      4.381  0.1465E-01  0.1134E-01  0.1653E+00  0.1633E+00
      4.442  0.1392E-01  0.1078E-01  0.1661E+00  0.1640E+00
      4.503  0.1338E-01  0.8588E-02  0.1670E+00  0.1645E+00
      4.564  0.1261E-01  0.6399E-02  0.1677E+00  0.1649E+00
      4.625  0.1127E-01  0.5810E-02  0.1684E+00  0.1652E+00
      4.685  0.1030E-01  0.6750E-02  0.1690E+00  0.1657E+00
      4.746  0.1181E-01  0.7895E-02  0.1698E+00  0.1661E+00
      4.807  0.1705E-01  0.8191E-02  0.1708E+00  0.1666E+00
      4.868  0.2435E-01  0.7708E-02  0.1723E+00  0.1671E+00
      4.929  0.2952E-01  0.7501E-02  0.1741E+00  0.1676E+00
      4.990  0.2917E-01  0.9122E-02  0.1759E+00  0.1681E+00
      5.051  0.2386E-01  0.1375E-01  0.1773E+00  0.1690E+00
      5.112  0.1785E-01  0.2077E-01  0.1784E+00  0.1702E+00
      5.173  0.1529E-01  0.2692E-01  0.1793E+00  0.1719E+00
      5.234  0.1679E-01  0.2821E-01  0.1803E+00  0.1736E+00
      5.295  0.1949E-01  0.2351E-01  0.1815E+00  0.1750E+00
      5.355  0.2015E-01  0.1632E-01  0.1828E+00  0.1760E+00
      5.416  0.1789E-01  0.1190E-01  0.1839E+00  0.1767E+00
      5.477  0.1423E-01  0.1285E-01  0.1847E+00  0.1775E+00
      5.538  0.1139E-01  0.1739E-01  0.1854E+00  0.1786E+00
      5.599  0.1051E-01  0.2142E-01  0.1861E+00  0.1799E+00
      5.660  0.1109E-01  0.2191E-01  0.1867E+00  0.1812E+00
      5.721  0.1201E-01  0.1860E-01  0.1875E+00  0.1823E+00
      5.782  0.1280E-01  0.1335E-01  0.1882E+00  0.1832E+00
      5.843  0.1376E-01  0.8495E-02  0.1891E+00  0.1837E+00
      5.904  0.1457E-01  0.5698E-02  0.1900E+00  0.1840E+00
      5.965  0.1394E-01  0.5818E-02  0.1908E+00  0.1844E+00
      6.025  0.1124E-01  0.8940E-02  0.1915E+00  0.1849E+00
      6.086  0.7867E-02  0.1417E-01  0.1920E+00  0.1858E+00
      6.147  0.6382E-02  0.1936E-01  0.1924E+00  0.1870E+00
      6.208  0.8057E-02  0.2161E-01  0.1929E+00  0.1883E+00
      6.269  0.1158E-01  0.1931E-01  0.1936E+00  0.1895E+00
      6.330  0.1399E-01  0.1372E-01  0.1944E+00  0.1903E+00
      6.391  0.1302E-01  0.8178E-02  0.1952E+00  0.1908E+00
      6.452  0.8932E-02  0.5478E-02  0.1958E+00  0.1911E+00
      6.513  0.4128E-02  0.6104E-02  0.1960E+00  0.1915E+00
      6.574  0.1164E-02  0.8572E-02  0.1961E+00  0.1920E+00
      6.635  0.1088E-02  0.1093E-01  0.1961E+00  0.1927E+00
      6.695  0.3285E-02  0.1208E-01  0.1963E+00  0.1934E+00
      6.756  0.6202E-02  0.1204E-01  0.1967E+00  0.1942E+00
      6.817  0.8196E-02  0.1101E-01  0.1972E+00  0.1948E+00
      6.878  0.8418E-02  0.8920E-02  0.1977E+00  0.1954E+00
      6.939  0.7383E-02  0.6079E-02  0.1982E+00  0.1957E+00
      7.000  0.6449E-02  0.3819E-02  0.1986E+00  0.1960E+00
      7.061  0.6366E-02  0.3672E-02  0.1990E+00  0.1962E+00
      7.122  0.6500E-02  0.5764E-02  0.1994E+00  0.1965E+00
      7.183  0.5726E-02  0.8444E-02  0.1997E+00  0.1971E+00
      7.244  0.3836E-02  0.9816E-02  0.1999E+00  0.1977E+00
      7.305  0.1699E-02  0.9494E-02  0.2000E+00  0.1982E+00
      7.365  0.2418E-03  0.8487E-02  0.2001E+00  0.1988E+00
      7.426 -0.3188E-03  0.7552E-02  0.2000E+00  0.1992E+00
      7.487 -0.3293E-03  0.6393E-02  0.2000E+00  0.1996E+00
      7.548 -0.1848E-03  0.4550E-02  0.2000E+00  0.1999E+00
      7.609 -0.7389E-04  0.2356E-02  0.2000E+00  0.2000E+00
      7.670 -0.2264E-04  0.6237E-03  0.2000E+00  0.2001E+00
      7.731 -0.5483E-05 -0.2203E-03  0.2000E+00  0.2000E+00
      7.792 -0.1065E-05 -0.3720E-03  0.2000E+00  0.2000E+00
      7.853 -0.1678E-06 -0.2463E-03  0.2000E+00  0.2000E+00
      7.914 -0.2154E-07 -0.1107E-03  0.2000E+00  0.2000E+00
      7.975 -0.2263E-08 -0.3744E-04  0.2000E+00  0.2000E+00
      8.035 -0.1952E-09 -0.9926E-05  0.2000E+00  0.2000E+00
      8.096 -0.1385E-10 -0.2102E-05  0.2000E+00  0.2000E+00
      8.157 -0.8101E-12 -0.3596E-06  0.2000E+00  0.2000E+00
      8.218 -0.3910E-13 -0.5004E-07  0.2000E+00  0.2000E+00
      8.279 -0.1557E-14 -0.5692E-08  0.2000E+00  0.2000E+00
      8.340 -0.5250E-16 -0.5310E-09  0.2000E+00  0.2000E+00
      8.401  0.0000E+00 -0.4072E-10  0.2000E+00  0.2000E+00
      8.462  0.0000E+00 -0.2572E-11  0.2000E+00  0.2000E+00
      8.523  0.0000E+00 -0.1340E-12  0.2000E+00  0.2000E+00
      8.584  0.0000E+00 -0.5769E-14  0.2000E+00  0.2000E+00
      8.645  0.0000E+00 -0.2041E-15  0.2000E+00  0.2000E+00
      8.705  0.0000E+00 -0.5833E-17  0.2000E+00  0.2000E+00
      8.766  0.0000E+00  0.0000E+00  0.2000E+00  0.2000E+00
      8.827  0.0000E+00  0.0000E+00  0.2000E+00  0.2000E+00
      8.888  0.0000E+00  0.0000E+00  0.2000E+00  0.2000E+00
      8.949  0.0000E+00  0.0000E+00  0.2000E+00  0.2000E+00
      9.010  0.0000E+00  0.0000E+00  0.2000E+00  0.2000E+00
      9.071  0.0000E+00  0.0000E+00  0.2000E+00  0.2000E+00
      9.132  0.0000E+00  0.0000E+00  0.2000E+00  0.2000E+00
      9.193  0.0000E+00  0.0000E+00  0.2000E+00  0.2000E+00
      9.254  0.0000E+00  0.0000E+00  0.2000E+00  0.2000E+00
      9.315  0.0000E+00  0.0000E+00  0.2000E+00  0.2000E+00
      9.376  0.0000E+00  0.0000E+00  0.2000E+00  0.2000E+00
      9.436  0.0000E+00  0.0000E+00  0.2000E+00  0.2000E+00
      9.43640998     -8.83634029  301     -2.39211760      1.00000000
     -8.836  0.0000E+00  0.0000E+00  0.0000E+00  0.0000E+00  0.0000E+00  0.0000E+00
     -8.775  0.0000E+00  0.0000E+00  0.0000E+00  0.0000E+00  0.0000E+00  0.0000E+00
     -8.715  0.0000E+00  0.0000E+00  0.0000E+00  0.0000E+00  0.0000E+00  0.0000E+00
     -8.654  0.0000E+00  0.0000E+00  0.0000E+00  0.0000E+00  0.0000E+00  0.0000E+00
     -8.593  0.0000E+00  0.0000E+00  0.0000E+00  0.0000E+00  0.0000E+00  0.0000E+00
     -8.532  0.0000E+00  0.0000E+00  0.0000E+00  0.0000E+00  0.0000E+00  0.0000E+00
     -8.471 -0.3914E-29  0.0000E+00 -0.4614E-31  0.0000E+00 -0.3129E-29  0.0000E+00
     -8.410 -0.4947E-27  0.0000E+00 -0.5832E-29  0.0000E+00 -0.3954E-27  0.0000E+00
     -8.349 -0.5218E-25  0.0000E+00 -0.6152E-27  0.0000E+00 -0.4171E-25  0.0000E+00
     -8.288 -0.4564E-23  0.0000E+00 -0.5380E-25  0.0000E+00 -0.3648E-23  0.0000E+00
     -8.227 -0.3308E-21  0.0000E+00 -0.3900E-23  0.0000E+00 -0.2645E-21  0.0000E+00
     -8.166 -0.1987E-19  0.0000E+00 -0.2343E-21  0.0000E+00 -0.1589E-19  0.0000E+00
     -8.105 -0.9890E-18  0.0000E+00 -0.1166E-19  0.0000E+00 -0.7906E-18  0.0000E+00
     -8.045 -0.4076E-16  0.0000E+00 -0.4805E-18  0.0000E+00 -0.3258E-16  0.0000E+00
     -7.984 -0.1352E-14  0.0000E+00 -0.1594E-16  0.0000E+00 -0.1081E-14  0.0000E+00
     -7.923 -0.3795E-13  0.0000E+00 -0.4474E-15  0.0000E+00 -0.3033E-13  0.0000E+00
     -7.862 -0.8822E-12 -0.6600E-28 -0.1040E-13 -0.7714E-30 -0.7052E-12 -0.9181E-29
     -7.801 -0.1693E-10 -0.7514E-26 -0.1996E-12 -0.8782E-28 -0.1354E-10 -0.1045E-26
     -7.740 -0.2681E-09 -0.7144E-24 -0.3160E-11 -0.8350E-26 -0.2143E-09 -0.9938E-25
     -7.679 -0.3496E-08 -0.5631E-22 -0.4121E-10 -0.6582E-24 -0.2794E-08 -0.7833E-23
     -7.618 -0.3747E-07 -0.3678E-20 -0.4417E-09 -0.4299E-22 -0.2995E-07 -0.5117E-21
     -7.557 -0.3294E-06 -0.1991E-18 -0.3883E-08 -0.2327E-20 -0.2633E-06 -0.2769E-19
     -7.496 -0.2367E-05 -0.8926E-17 -0.2790E-07 -0.1043E-18 -0.1892E-05 -0.1242E-17
     -7.435 -0.1383E-04 -0.3205E-15 -0.1630E-06 -0.3747E-17 -0.1106E-04 -0.4459E-16
     -7.375 -0.6527E-04 -0.9855E-14 -0.7695E-06 -0.1152E-15 -0.5218E-04 -0.1371E-14
     -7.314 -0.2459E-03 -0.2494E-12 -0.2899E-05 -0.2915E-14 -0.1966E-03 -0.3470E-13
     -7.253 -0.7244E-03 -0.5215E-11 -0.8544E-05 -0.6096E-13 -0.5791E-03 -0.7255E-12
     -7.192 -0.1598E-02 -0.8999E-10 -0.1888E-04 -0.1052E-11 -0.1278E-02 -0.1252E-10
     -7.131 -0.2345E-02 -0.1280E-08 -0.2790E-04 -0.1496E-10 -0.1877E-02 -0.1780E-09
     -7.070 -0.1082E-02 -0.1497E-07 -0.1419E-04 -0.1750E-09 -0.8793E-03 -0.2083E-08
     -7.009  0.5104E-02 -0.1438E-06  0.5368E-04 -0.1681E-08  0.4016E-02 -0.2001E-07
     -6.948  0.1743E-01 -0.1131E-05  0.1819E-03 -0.1322E-07  0.1370E-01 -0.1574E-06
     -6.887  0.3191E-01 -0.7254E-05  0.3099E-03 -0.8478E-07  0.2485E-01 -0.1009E-05
     -6.826  0.4021E-01 -0.3770E-04  0.3359E-03 -0.4406E-06  0.3077E-01 -0.5244E-05
     -6.765  0.3710E-01 -0.1573E-03  0.2535E-03 -0.1839E-05  0.2783E-01 -0.2188E-04
     -6.705  0.2772E-01 -0.5189E-03  0.2911E-03 -0.6066E-05  0.2180E-01 -0.7219E-04
     -6.644  0.2510E-01 -0.1313E-02  0.8290E-03 -0.1535E-04  0.2532E-01 -0.1826E-03
     -6.583  0.3761E-01 -0.2368E-02  0.2012E-02 -0.2771E-04  0.4552E-01 -0.3295E-03
     -6.522  0.5885E-01 -0.2319E-02  0.3384E-02 -0.2733E-04  0.7338E-01 -0.3227E-03
     -6.461  0.7181E-01  0.1821E-02  0.4083E-02  0.1997E-04  0.8857E-01  0.2531E-03
     -6.400  0.6505E-01  0.1287E-01  0.3635E-02  0.1442E-03  0.7831E-01  0.1790E-02
     -6.339  0.4390E-01  0.2939E-01  0.2533E-02  0.3198E-03  0.5118E-01  0.4084E-02
     -6.278  0.2472E-01  0.4349E-01  0.1869E-02  0.4380E-03  0.3062E-01  0.6036E-02
     -6.217  0.1960E-01  0.4568E-01  0.2358E-02  0.3775E-03  0.3587E-01  0.6323E-02
     -6.156  0.2814E-01  0.3428E-01  0.3784E-02  0.1685E-03  0.6934E-01  0.4722E-02
     -6.095  0.4149E-01  0.1975E-01  0.5300E-02  0.1181E-03  0.1163E+00  0.2725E-02
     -6.035  0.5049E-01  0.1795E-01  0.6100E-02  0.7057E-03  0.1527E+00  0.2596E-02
     -5.974  0.5057E-01  0.3691E-01  0.5924E-02  0.2166E-02  0.1637E+00  0.5479E-02
     -5.913  0.4320E-01  0.6782E-01  0.5262E-02  0.4033E-02  0.1704E+00  0.1008E-01
     -5.852  0.3480E-01  0.8959E-01  0.5094E-02  0.5225E-02  0.2323E+00  0.1330E-01
     -5.791  0.3156E-01  0.8576E-01  0.6042E-02  0.4903E-02  0.3982E+00  0.1272E-01
     -5.730  0.3353E-01  0.5932E-01  0.7660E-02  0.3331E-02  0.6491E+00  0.8787E-02
     -5.669  0.3504E-01  0.2972E-01  0.8906E-02  0.1772E-02  0.9142E+00  0.4406E-02
     -5.608  0.3202E-01  0.1555E-01  0.9392E-02  0.1437E-02  0.1159E+01  0.2329E-02
     -5.547  0.2703E-01  0.2023E-01  0.9752E-02  0.2472E-02  0.1441E+01  0.3031E-02
     -5.486  0.2636E-01  0.3237E-01  0.1071E-01  0.3847E-02  0.1864E+01  0.4757E-02
     -5.425  0.3367E-01  0.3773E-01  0.1221E-01  0.4295E-02  0.2477E+01  0.5390E-02
     -5.365  0.4738E-01  0.3230E-01  0.1353E-01  0.3603E-02  0.3224E+01  0.4589E-02
     -5.304  0.6304E-01  0.2589E-01  0.1400E-01  0.3056E-02  0.3951E+01  0.4399E-02
     -5.243  0.7707E-01  0.3215E-01  0.1359E-01  0.4300E-02  0.4475E+01  0.7378E-02
     -5.182  0.8851E-01  0.5336E-01  0.1300E-01  0.7470E-02  0.4661E+01  0.1355E-01
     -5.121  0.9810E-01  0.7522E-01  0.1333E-01  0.1053E-01  0.4494E+01  0.1931E-01
     -5.060  0.1061E+00  0.7913E-01  0.1554E-01  0.1094E-01  0.4088E+01  0.2024E-01
     -4.999  0.1111E+00  0.6073E-01  0.1982E-01  0.8249E-02  0.3626E+01  0.1546E-01
     -4.938  0.1106E+00  0.3538E-01  0.2504E-01  0.4967E-02  0.3263E+01  0.9011E-02
     -4.877  0.1021E+00  0.2456E-01  0.2870E-01  0.4518E-02  0.3072E+01  0.6389E-02
     -4.816  0.8457E-01  0.3690E-01  0.2826E-01  0.8180E-02  0.3046E+01  0.9777E-02
     -4.755  0.6008E-01  0.6104E-01  0.2327E-01  0.1366E-01  0.3130E+01  0.1617E-01
     -4.695  0.3418E-01  0.7579E-01  0.1596E-01  0.1676E-01  0.3242E+01  0.1996E-01
     -4.634  0.1419E-01  0.6812E-01  0.9697E-02  0.1497E-01  0.3272E+01  0.1760E-01
     -4.573  0.5826E-02  0.4272E-01  0.6703E-02  0.9379E-02  0.3129E+01  0.1014E-01
     -4.512  0.1073E-01  0.1498E-01  0.7134E-02  0.3324E-02  0.2799E+01  0.1665E-02
     -4.451  0.2555E-01 -0.2288E-02  0.9500E-02 -0.4849E-03  0.2362E+01 -0.3355E-02
     -4.390  0.4236E-01 -0.4254E-02  0.1166E-01 -0.1116E-02  0.1913E+01 -0.8504E-03
     -4.329  0.5142E-01  0.8854E-02  0.1189E-01  0.1305E-02  0.1492E+01  0.1244E-01
     -4.268  0.4684E-01  0.3329E-01  0.9799E-02  0.6137E-02  0.1091E+01  0.3555E-01
     -4.207  0.3093E-01  0.6006E-01  0.6378E-02  0.1196E-01  0.7163E+00  0.5974E-01
     -4.146  0.1223E-01  0.7710E-01  0.3140E-02  0.1670E-01  0.4152E+00  0.7216E-01
     -4.085 -0.5675E-03  0.7769E-01  0.1232E-02  0.1890E-01  0.2376E+00  0.6674E-01
     -4.025 -0.2271E-02  0.6638E-01  0.1603E-02  0.1879E-01  0.1925E+00  0.5081E-01
     -3.964  0.9225E-02  0.5502E-01  0.5543E-02  0.1818E-01  0.2431E+00  0.3902E-01
     -3.903  0.3260E-01  0.5229E-01  0.1392E-01  0.1876E-01  0.3231E+00  0.4001E-01
     -3.842  0.6038E-01  0.5662E-01  0.2513E-01  0.2022E-01  0.3655E+00  0.5018E-01
     -3.781  0.7936E-01  0.5945E-01  0.3420E-01  0.2017E-01  0.3423E+00  0.6190E-01
     -3.720  0.7841E-01  0.5562E-01  0.3563E-01  0.1672E-01  0.2794E+00  0.7639E-01
     -3.659  0.5812E-01  0.4878E-01  0.2819E-01  0.1068E-01  0.2227E+00  0.1018E+00
     -3.598  0.3215E-01  0.4477E-01  0.1694E-01  0.4809E-02  0.1910E+00  0.1344E+00
     -3.537  0.1765E-01  0.4311E-01  0.9724E-02  0.1436E-02  0.1708E+00  0.1511E+00
     -3.476  0.2278E-01  0.3945E-01  0.1100E-01  0.1676E-02  0.1463E+00  0.1358E+00
     -3.415  0.4092E-01  0.3450E-01  0.1839E-01  0.6129E-02  0.1179E+00  0.1133E+00
     -3.355  0.5603E-01  0.3478E-01  0.2485E-01  0.1443E-01  0.9157E-01  0.1434E+00
     -3.294  0.5544E-01  0.4385E-01  0.2455E-01  0.2401E-01  0.6682E-01  0.2728E+00
     -3.233  0.3936E-01  0.5642E-01  0.1744E-01  0.3086E-01  0.4100E-01  0.4897E+00
     -3.172  0.1836E-01  0.6259E-01  0.8137E-02  0.3256E-01  0.1721E-01  0.7257E+00
     -3.111  0.2596E-02  0.5658E-01  0.1150E-02  0.3006E-01  0.1161E-02  0.9065E+00
     -3.050 -0.5127E-02  0.4088E-01 -0.2267E-02  0.2636E-01 -0.5712E-02  0.1012E+01
     -2.989 -0.6892E-02  0.2334E-01 -0.3042E-02  0.2426E-01 -0.6396E-02  0.1094E+01
     -2.928 -0.3384E-02  0.1097E-01 -0.1496E-02  0.2493E-01 -0.3278E-02  0.1223E+01
     -2.867  0.8284E-02  0.5664E-02  0.3626E-02  0.2730E-01  0.4334E-02  0.1411E+01
     -2.806  0.2986E-01  0.4717E-02  0.1308E-01  0.2864E-01  0.1734E-01  0.1597E+01
     -2.745  0.5523E-01  0.4525E-02  0.2416E-01  0.2734E-01  0.3232E-01  0.1718E+01
     -2.685  0.7092E-01  0.3551E-02  0.3089E-01  0.2585E-01  0.4151E-01  0.1792E+01
     -2.624  0.6654E-01  0.2389E-02  0.2857E-01  0.2944E-01  0.3881E-01  0.1895E+01
     -2.563  0.4479E-01  0.2101E-02  0.1825E-01  0.4070E-01  0.2579E-01  0.2047E+01
     -2.502  0.1916E-01  0.3233E-02  0.6267E-02  0.5590E-01  0.1051E-01  0.2163E+01
     -2.441  0.2669E-02  0.6006E-02 -0.5910E-04  0.6788E-01  0.1148E-02  0.2136E+01
     -2.380  0.2806E-03  0.1026E-01  0.4166E-02  0.7193E-01  0.1535E-02  0.1966E+01
     -2.319  0.9377E-02  0.1465E-01  0.1935E-01  0.6770E-01  0.1066E-01  0.1750E+01
     -2.258  0.2289E-01  0.1676E-01  0.3943E-01  0.5713E-01  0.2337E-01  0.1577E+01
     -2.197  0.3215E-01  0.1510E-01  0.5307E-01  0.4348E-01  0.3200E-01  0.1465E+01
     -2.136  0.3116E-01  0.1085E-01  0.5104E-01  0.3246E-01  0.3082E-01  0.1387E+01
     -2.075  0.2088E-01  0.6935E-02  0.3447E-01  0.3042E-01  0.2072E-01  0.1311E+01
     -2.015  0.8871E-02  0.5285E-02  0.1478E-01  0.3847E-01  0.9138E-02  0.1246E+01
     -1.954  0.3970E-02  0.5526E-02  0.5524E-02  0.4915E-01  0.4842E-02  0.1260E+01
     -1.893  0.1081E-01  0.6142E-02  0.1384E-01  0.5201E-01  0.1206E-01  0.1422E+01
     -1.832  0.2740E-01  0.6361E-02  0.3689E-01  0.4316E-01  0.2770E-01  0.1723E+01
     -1.771  0.4641E-01  0.6952E-02  0.6317E-01  0.2806E-01  0.4280E-01  0.2083E+01
     -1.710  0.5935E-01  0.9646E-02  0.7861E-01  0.1510E-01  0.4840E-01  0.2441E+01
     -1.649  0.6112E-01  0.1580E-01  0.7529E-01  0.8556E-02  0.4184E-01  0.2773E+01
     -1.588  0.5176E-01  0.2506E-01  0.5599E-01  0.7431E-02  0.2782E-01  0.3006E+01
     -1.527  0.3533E-01  0.3507E-01  0.3097E-01  0.8800E-02  0.1353E-01  0.3029E+01
     -1.466  0.1765E-01  0.4318E-01  0.1109E-01  0.1117E-01  0.3692E-02  0.2828E+01
     -1.405  0.3733E-02  0.4873E-01  0.3206E-02  0.1560E-01 -0.4028E-03  0.2555E+01
     -1.345 -0.3750E-02  0.5287E-01  0.8939E-02  0.2394E-01  0.7483E-03  0.2378E+01
     -1.284 -0.3717E-02  0.5559E-01  0.2489E-01  0.3508E-01  0.6308E-02  0.2284E+01
     -1.223  0.4988E-02  0.5391E-01  0.4417E-01  0.4351E-01  0.1542E-01  0.2111E+01
     -1.162  0.2218E-01  0.4478E-01  0.5948E-01  0.4310E-01  0.2655E-01  0.1753E+01
     -1.101  0.4240E-01  0.2936E-01  0.6588E-01  0.3277E-01  0.3632E-01  0.1295E+01
     -1.040  0.5512E-01  0.1312E-01  0.6161E-01  0.1763E-01  0.4006E-01  0.9095E+00
     -0.979  0.5233E-01  0.1620E-02  0.4861E-01  0.4847E-02  0.3524E-01  0.6905E+00
     -0.918  0.3609E-01 -0.2483E-02  0.3299E-01 -0.2907E-03  0.2460E-01  0.5998E+00
     -0.857  0.1661E-01  0.1083E-02  0.2189E-01  0.5034E-02  0.1435E-01  0.5489E+00
     -0.796  0.3044E-02  0.1116E-01  0.1776E-01  0.2101E-01  0.8547E-02  0.4885E+00
     -0.735 -0.2420E-02  0.2406E-01  0.1661E-01  0.4321E-01  0.6386E-02  0.4196E+00
     -0.675 -0.2802E-02  0.3327E-01  0.1345E-01  0.6220E-01  0.4924E-02  0.3522E+00
     -0.614 -0.1683E-02  0.3324E-01  0.8398E-02  0.6847E-01  0.3113E-02  0.2818E+00
     -0.553 -0.9325E-03  0.2420E-01  0.6693E-02  0.5920E-01  0.2535E-02  0.2024E+00
     -0.492 -0.1096E-02  0.1187E-01  0.1286E-01  0.3970E-01  0.4910E-02  0.1204E+00