    1    1   50    2
  0.8065600E+02  0.2840000E-09  0.2840000E-09  0.1000000E-08  0.5000000E-15
  1.000000000000000E-004
  CAR 
 BCC Fe                                  
      8     15     10
 
  0.5000000E-01  0.5000000E-01  0.0000000E+00  0.4000000E-01
    1       -6.836340     -6.261001   1.000000   1.000000
    2       -5.427107     -3.237098   1.000000   1.000000
    3       -5.420797     -2.092095   1.000000  -0.027646
    4       -4.615021     -1.874132   1.000000  -0.000768
    5       -4.588201     -1.635181   1.000000  -0.000001
    6       -4.234706     -1.157271   1.000000  -0.000000
    7       -1.700067     -0.801691  -0.000006  -0.000000
    8        0.900313      1.104502  -0.000000  -0.000000
    9        3.875129      4.003833   0.000000   0.000000
   10        4.502708      4.900473   0.000000   0.000000
 
  0.1500000E+00  0.5000000E-01  0.0000000E+00  0.8000000E-01
    1       -6.481154     -5.860329   1.000000   1.000000
    2       -5.340831     -3.111505   1.000000   1.000002
    3       -5.289654     -2.212080   1.000000  -0.011429
    4       -4.804837     -1.986780   1.000000  -0.007327
    5       -4.583132     -1.635497   1.000000  -0.000001
    6       -4.322394     -0.928754   1.000000  -0.000000
    7       -1.218501     -0.558368  -0.000000  -0.000000
    8        1.263221      1.450826  -0.000000  -0.000000
    9        4.267252      4.415763   0.000000   0.000000
   10        4.838703      5.215014   0.000000   0.000000
 
  0.2500000E+00  0.5000000E-01  0.0000000E+00  0.8000000E-01
    1       -5.982338     -5.108484   1.000000   1.000000
    2       -5.196074     -2.878608   1.000000   1.001558
    3       -5.065969     -2.534731   1.000000   0.964352
    4       -4.862755     -1.808693   1.000000  -0.000147
    5       -4.562158     -1.605130   1.000000  -0.000000
    6       -4.441699     -1.122222   1.000000  -0.000000
    7       -0.364144      0.296976  -0.000000  -0.000000
    8        1.990068      2.151741  -0.000000  -0.000000
    9        4.945545      5.203855   0.000000   0.000000
   10        5.024849      5.640995   0.000000   0.000000
 
  0.3500000E+00  0.5000000E-01  0.0000000E+00  0.8000000E-01
    1       -5.702143     -4.177971   1.000000   1.000000
    2       -5.284916     -2.776706   1.000000   1.010173
    3       -5.042721     -2.511645   1.000000   0.918951
    4       -4.633362     -1.623623   1.000000  -0.000000
    5       -4.541196     -1.573330   1.000000  -0.000000
    6       -3.743772     -1.290244   1.000000  -0.000000
    7        0.771461      1.409244  -0.000000  -0.000000
    8        2.318173      3.098393  -0.000000   0.000000
    9        3.121432      3.376014   0.000000   0.000000
   10        5.935256      6.189175   0.000000   0.000000
 
  0.4500000E+00  0.5000000E-01  0.0000000E+00  0.8000000E-01
    1       -5.604076     -3.545131   1.000000   1.000000
    2       -5.407125     -2.907147   1.000000   1.000822
    3       -4.944433     -1.949124   1.000000  -0.003758
    4       -4.710121     -1.554292   1.000000  -0.000000
    5       -4.528843     -1.524598   1.000000  -0.000000
    6       -2.201648     -1.250314  -0.019449  -0.000000
    7        0.036734      1.328171  -0.000000  -0.000000
    8        1.985727      2.662146  -0.000000  -0.000000
    9        4.577554      4.685583   0.000000   0.000000
   10        4.918544      5.202232   0.000000   0.000000
 
  0.1500000E+00  0.1500000E+00  0.0000000E+00  0.4000000E-01
    1       -6.141462     -5.461721   1.000000   1.000000
    2       -5.238815     -2.975431   1.000000   1.000148
    3       -5.182848     -2.288491   1.000000   0.120107
    4       -4.843120     -1.892472   1.000000  -0.001167
    5       -4.699900     -1.795968   1.000000  -0.000104
    6       -4.388814     -1.066838   1.000000  -0.000000
    7       -0.760120     -0.051712  -0.000000  -0.000000
    8        1.627567      1.801786  -0.000000  -0.000000
    9        4.659216      4.826245   0.000000   0.000000
   10        5.181043      5.538897   0.000000   0.000000
 
  0.2500000E+00  0.1500000E+00  0.0000000E+00  0.8000000E-01
    1       -5.720078     -4.718435   1.000000   1.000000
    2       -5.080172     -2.730426   1.000000   1.018918
    3       -5.044356     -2.493859   1.000000   0.874844
    4       -4.887088     -1.834958   1.000000  -0.000294
    5       -4.711877     -1.734388   1.000000  -0.000017
    6       -4.323554     -1.262629   1.000000  -0.000000
    7        0.072885      0.767028  -0.000000  -0.000000
    8        2.357011      2.510058  -0.000000  -0.000000
    9        5.312599      5.614321   0.000000   0.000000
   10        5.417831      6.018661   0.000000   0.000000
 
  0.3500000E+00  0.1500000E+00  0.0000000E+00  0.8000000E-01
    1       -5.512002     -3.806313   1.000000   1.000000
    2       -5.249034     -2.707379   1.000000   1.024163
    3       -4.968397     -2.444758   1.000000   0.714417
    4       -4.805989     -1.802110   1.000000  -0.000123
    5       -4.686837     -1.572725   1.000000  -0.000000
    6       -3.361740     -1.295891   1.000000  -0.000000
    7        1.199627      1.866385  -0.000000  -0.000000
    8        2.678996      3.474084  -0.000000   0.000000
    9        3.481417      3.694259   0.000000   0.000000
   10        6.335557      6.616200   0.000000   0.000000
 
  0.4500000E+00  0.1500000E+00  0.0000000E+00  0.8000000E-01
    1       -5.428809     -3.151322   1.000000   1.000001
    2       -5.365406     -2.831051   1.000000   1.004056
    3       -4.978932     -2.338991   1.000000   0.283755
    4       -4.770675     -1.773148   1.000000  -0.000054
    5       -4.669018     -1.472221   1.000000  -0.000000
    6       -1.764858     -0.694264  -0.000043  -0.000000
    7        0.348091      1.524168  -0.000000  -0.000000
    8        2.429481      3.147086  -0.000000   0.000000
    9        4.944119      5.051278   0.000000   0.000000
   10        5.256900      5.532966   0.000000   0.000000
 
  0.2500000E+00  0.2500000E+00  0.0000000E+00  0.4000000E-01
    1       -5.469295     -4.020961   1.000000   1.000000
    2       -5.062582     -2.484716   1.000000   0.849099
    3       -5.052547     -2.450774   1.000000   0.736756
    4       -4.883348     -2.058260   1.000000  -0.019904
    5       -4.713536     -1.607424   1.000000  -0.000000
    6       -3.830693     -1.428366   1.000000  -0.000000
    7        0.885460      1.576856  -0.000000  -0.000000
    8        3.090854      3.229550   0.000000   0.000000
    9        5.502307      6.203392   0.000000   0.000000
   10        6.179679      6.405200   0.000000   0.000000
 
  0.3500000E+00  0.2500000E+00  0.0000000E+00  0.8000000E-01
    1       -5.356369     -3.272798   1.000000   1.000000
    2       -5.192124     -2.599260   1.000000   1.028447
    3       -5.176046     -2.211057   1.000000  -0.012305
    4       -4.899309     -2.103331   1.000000  -0.030062
    5       -4.485172     -1.469703   1.000000  -0.000000
    6       -2.696181     -1.204666   1.026737  -0.000000
    7        2.005403      2.682660  -0.000000  -0.000000
    8        3.308688      4.095048   0.000000   0.000000
    9        4.203720      4.336014   0.000000   0.000000
   10        7.107571      7.436410   0.000000   0.000000
 
  0.4500000E+00  0.2500000E+00  0.0000000E+00  0.8000000E-01
    1       -5.322566     -2.817158   1.000000   1.005225
    2       -5.298132     -2.706596   1.000000   1.024344
    3       -5.240363     -2.285292   1.000000   0.111738
    4       -4.879283     -2.077716   1.000000  -0.024362
    5       -4.370857     -1.378511   1.000000  -0.000000
    6       -1.050612     -0.055494  -0.000000  -0.000000
    7        0.982646      1.943441  -0.000000  -0.000000
    8        3.261512      4.015155   0.000000   0.000000
    9        5.673046      5.779641   0.000000   0.000000
   10        5.933204      6.195961   0.000000   0.000000
 
  0.3500000E+00  0.3500000E+00  0.0000000E+00  0.4000000E-01
    1       -5.464060     -3.043361   1.000000   1.000021
    2       -5.191132     -2.527800   1.000000   0.952110
    3       -5.160716     -2.320349   1.000000   0.216911
    4       -5.067174     -1.699371   1.000000  -0.000006
    5       -4.099448     -1.367076   1.000000  -0.000000
    6       -1.612130     -0.668403  -0.000000  -0.000000
    7        3.126315      3.805496   0.000000   0.000000
    8        3.505791      4.117853   0.000000   0.000000
    9        5.268918      5.407592   0.000000   0.000000
   10        5.790408      6.768703   0.000000   0.000000
 
  0.4500000E+00  0.3500000E+00  0.0000000E+00  0.8000000E-01
    1       -5.577032     -3.027025   1.000000   1.000034
    2       -5.230669     -2.580385   1.000000   1.017919
    3       -5.153888     -2.340640   1.000000   0.289974
    4       -5.072424     -1.488060   1.000000  -0.000000
    5       -3.887726     -1.283551   1.000000  -0.000000
    6       -0.062554      0.705782  -0.000000  -0.000000
    7        1.848818      2.528962  -0.000000  -0.000000
    8        4.404713      5.187743   0.000000   0.000000
    9        6.322631      6.844096   0.000000   0.000000
   10        6.846720      7.183612   0.000000   0.000000
 
  0.4500000E+00  0.4500000E+00  0.0000000E+00  0.4000000E-01
    1       -5.719811     -3.156003   1.000000   1.000000
    2       -5.193418     -2.508391   1.000000   0.911478
    3       -5.180971     -2.481932   1.000000   0.840859
    4       -5.109169     -1.239693   1.000000  -0.000000
    5       -3.581978     -0.945059   1.000000  -0.000000
    6        1.233102      1.763196  -0.000000  -0.000000
    7        2.297082      2.698420  -0.000000  -0.000000
    8        4.835937      6.192374   0.000000   0.000000
    9        5.665730      6.598162   0.000000   0.000000
   10        6.733894      7.216969   0.000000   0.000000
