 running on    4 total cores
 distrk:  each k-point on    4 cores,    1 groups
 distr:  one band on    4 cores,    1 groups
 using from now: INCAR     
 vasp.5.4.4.18Apr17-6-g9f103f2a35 (build May 18 2018 14:42:58) complex          
  
 POSCAR found type information on POSCAR  Fe
 POSCAR found :  1 types and       1 ions
 scaLAPACK will be used
 LDA part: xc-table for Pade appr. of Perdew
 POSCAR, INCAR and KPOINTS ok, starting setup
 FFT: planning ...
 WAVECAR not read
 entering main loop
       N       E                     dE             d eps       ncg     rms          rms(c)
DAV:   1     0.217702537113E+02    0.21770E+02   -0.19731E+03   600   0.338E+02
DAV:   2    -0.533800018968E+01   -0.27108E+02   -0.25428E+02   622   0.104E+02
DAV:   3    -0.588505544396E+01   -0.54706E+00   -0.54368E+00   674   0.163E+01
DAV:   4    -0.588820036550E+01   -0.31449E-02   -0.31441E-02   656   0.161E+00
DAV:   5    -0.588823226807E+01   -0.31903E-04   -0.31902E-04   658   0.136E-01    0.921E+00
DAV:   6    -0.591793587776E+01   -0.29704E-01   -0.13753E+01   652   0.430E+01    0.989E+00
DAV:   7    -0.556490273028E+01    0.35303E+00   -0.19077E+00   630   0.153E+01    0.286E+00
DAV:   8    -0.557765932912E+01   -0.12757E-01   -0.11068E-01   634   0.301E+00    0.134E+00
DAV:   9    -0.559171096556E+01   -0.14052E-01   -0.20132E-02   612   0.777E-01    0.644E-01
DAV:  10    -0.559668449915E+01   -0.49735E-02   -0.49874E-03   642   0.547E-01    0.405E-01
DAV:  11    -0.560049894729E+01   -0.38144E-02   -0.51428E-03   616   0.769E-01    0.146E-01
DAV:  12    -0.560056355807E+01   -0.64611E-04   -0.61617E-04   616   0.249E-01
   1 F= -.56005636E+01 E0= -.56003572E+01  d E =-.560056E+01  mag=     3.2006
 curvature:   0.00 expect dE= 0.000E+00 dE for cont linesearch  0.000E+00
 trial: gam= 0.00000 g(F)=  0.000E+00 g(S)=  0.000E+00 ort = 0.000E+00 (trialstep = 0.100E+01)
 search vector abs. value=  0.100E-09
 reached required accuracy - stopping structural energy minimisation
 writing wavefunctions
