BCC Fe                                  
   2.84000000000000     
     1.000000    0.000000    0.000000
     0.000000    1.000000    0.000000
     0.000000    0.000000    3.521127
   Fe
     1
Direct
  0.000000  0.000000  0.000000
 
   24   24   80
 -.33701680060E+02 -.33240786820E+02 -.31738950793E+02 -.29423655550E+02 -.26255641801E+02
 -.22594269648E+02 -.18921161568E+02 -.15148668610E+02 -.10072633899E+02 -.57179528808E+01
 -.36823648222E+01 -.24323576795E+01 -.20721965483E+01 -.24323576795E+01 -.36823648222E+01
 -.57179528808E+01 -.10072633899E+02 -.15148668610E+02 -.18921161568E+02 -.22594269648E+02
 -.26255641801E+02 -.29423655550E+02 -.31738950793E+02 -.33240786820E+02 -.33240786820E+02
 -.32792012422E+02 -.31328515483E+02 -.29025387538E+02 -.25868702682E+02 -.22333107479E+02
 -.18685329866E+02 -.14849667108E+02 -.97640178517E+01 -.55358313783E+01 -.35968278312E+01
 -.23360047971E+01 -.20164471978E+01 -.23360047971E+01 -.35968278312E+01 -.55358313783E+01
 -.97640178517E+01 -.14849667108E+02 -.18685329866E+02 -.22333107479E+02 -.25868702682E+02
 -.29025387538E+02 -.31328515483E+02 -.32792012422E+02 -.31738950793E+02 -.31328515483E+02
 -.30015750058E+02 -.27870994986E+02 -.24883852051E+02 -.21416316405E+02 -.17938974718E+02
 -.13949633231E+02 -.88181476470E+01 -.50772373236E+01 -.33034847574E+01 -.20950630706E+01
 -.18161517431E+01 -.20950630706E+01 -.33034847574E+01 -.50772373236E+01 -.88181476470E+01
 -.13949633231E+02 -.17938974718E+02 -.21416316405E+02 -.24883852051E+02 -.27870994986E+02
 -.30015750058E+02 -.31328515483E+02 -.29423655550E+02 -.29025387538E+02 -.27870994986E+02
 -.25827548322E+02 -.23060052166E+02 -.19974754868E+02 -.16609306508E+02 -.12279003976E+02
 -.74126079464E+01 -.44191750728E+01 -.28328958804E+01 -.17217537949E+01 -.14998766195E+01
 -.17217537949E+01 -.28328958804E+01 -.44191750728E+01 -.74126079464E+01 -.12279003976E+02
 -.16609306508E+02 -.19974754868E+02 -.23060052166E+02 -.25827548322E+02 -.27870994986E+02
 -.29025387538E+02 -.26255641801E+02 -.25868702682E+02 -.24883852051E+02 -.23060052166E+02
 -.20776879908E+02 -.17903918319E+02 -.14470883555E+02 -.98886156690E+01 -.58101852356E+01
 -.36960692412E+01 -.21564508874E+01 -.13204908261E+01 -.10235527331E+01 -.13204908261E+01
 -.21564508874E+01 -.36960692412E+01 -.58101852356E+01 -.98886156690E+01 -.14470883555E+02
 -.17903918319E+02 -.20776879908E+02 -.23060052166E+02 -.24883852051E+02 -.25868702682E+02
 -.22594269648E+02 -.22333107479E+02 -.21416316405E+02 -.19974754868E+02 -.17903918319E+02
 -.15177299519E+02 -.11367063057E+02 -.71229967268E+01 -.44747193360E+01 -.27770912726E+01
 -.14717389613E+01 -.81193429770E+00 -.53258652359E+00 -.81193429770E+00 -.14717389613E+01
 -.27770912726E+01 -.44747193360E+01 -.71229967268E+01 -.11367063057E+02 -.15177299519E+02
 -.17903918319E+02 -.19974754868E+02 -.21416316405E+02 -.22333107479E+02 -.18921161568E+02
 -.18685329866E+02 -.17938974718E+02 -.16609306508E+02 -.14470883555E+02 -.11367063057E+02
 -.76612690833E+01 -.49861421825E+01 -.32568026971E+01 -.17790771885E+01 -.83275773136E+00
 -.23024417954E+00 -.71788824728E-01 -.23024417954E+00 -.83275773136E+00 -.17790771885E+01
 -.32568026971E+01 -.49861421825E+01 -.76612690833E+01 -.11367063057E+02 -.14470883555E+02
 -.16609306508E+02 -.17938974718E+02 -.18685329866E+02 -.15148668610E+02 -.14849667108E+02
 -.13949633231E+02 -.12279003976E+02 -.98886156690E+01 -.71229967268E+01 -.49861421825E+01
 -.34359118688E+01 -.20003557432E+01 -.93378829774E+00 -.16403789114E+00 0.27428147460E+00
 0.43206503737E+00 0.27428147460E+00 -.16403789114E+00 -.93378829774E+00 -.20003557432E+01
 -.34359118688E+01 -.49861421825E+01 -.71229967268E+01 -.98886156690E+01 -.12279003976E+02
 -.13949633231E+02 -.14849667108E+02 -.10072633899E+02 -.97640178517E+01 -.88181476470E+01
 -.74126079464E+01 -.58101852356E+01 -.44747193360E+01 -.32568026971E+01 -.20003557432E+01
 -.98504825747E+00 -.17177876505E+00 0.40259691753E+00 0.75226792145E+00 0.86538429635E+00
 0.75226792145E+00 0.40259691753E+00 -.17177876505E+00 -.98504825747E+00 -.20003557432E+01
 -.32568026971E+01 -.44747193360E+01 -.58101852356E+01 -.74126079464E+01 -.88181476470E+01
 -.97640178517E+01 -.57179528808E+01 -.55358313783E+01 -.50772373236E+01 -.44191750728E+01
 -.36960692412E+01 -.27770912726E+01 -.17790771885E+01 -.93378829774E+00 -.17177876505E+00
 0.43173529095E+00 0.87561934235E+00 0.11435323220E+01 0.12338024156E+01 0.11435323220E+01
 0.87561934235E+00 0.43173529095E+00 -.17177876505E+00 -.93378829774E+00 -.17790771885E+01
 -.27770912726E+01 -.36960692412E+01 -.44191750728E+01 -.50772373236E+01 -.55358313783E+01
 -.36823648222E+01 -.35968278312E+01 -.33034847574E+01 -.28328958804E+01 -.21564508874E+01
 -.14717389613E+01 -.83275773136E+00 -.16403789114E+00 0.40259691753E+00 0.87561934235E+00
 0.12237309414E+01 0.14370264876E+01 0.15093863886E+01 0.14370264876E+01 0.12237309414E+01
 0.87561934235E+00 0.40259691753E+00 -.16403789114E+00 -.83275773136E+00 -.14717389613E+01
 -.21564508874E+01 -.28328958804E+01 -.33034847574E+01 -.35968278312E+01 -.24323576795E+01
 -.23360047971E+01 -.20950630706E+01 -.17217537949E+01 -.13204908261E+01 -.81193429770E+00
 -.23024417954E+00 0.27428147460E+00 0.75226792145E+00 0.11435323220E+01 0.14370264876E+01
 0.16186919519E+01 0.16789907317E+01 0.16186919519E+01 0.14370264876E+01 0.11435323220E+01
 0.75226792145E+00 0.27428147460E+00 -.23024417954E+00 -.81193429770E+00 -.13204908261E+01
 -.17217537949E+01 -.20950630706E+01 -.23360047971E+01 -.20721965483E+01 -.20164471978E+01
 -.18161517431E+01 -.14998766195E+01 -.10235527331E+01 -.53258652359E+00 -.71788824728E-01
 0.43206503737E+00 0.86538429635E+00 0.12338024156E+01 0.15093863886E+01 0.16789907317E+01
 0.17375374676E+01 0.16789907317E+01 0.15093863886E+01 0.12338024156E+01 0.86538429635E+00
 0.43206503737E+00 -.71788824728E-01 -.53258652359E+00 -.10235527331E+01 -.14998766195E+01
 -.18161517431E+01 -.20164471978E+01 -.24323576795E+01 -.23360047971E+01 -.20950630706E+01
 -.17217537949E+01 -.13204908261E+01 -.81193429770E+00 -.23024417954E+00 0.27428147460E+00
 0.75226792145E+00 0.11435323220E+01 0.14370264876E+01 0.16186919519E+01 0.16789907317E+01
 0.16186919519E+01 0.14370264876E+01 0.11435323220E+01 0.75226792145E+00 0.27428147460E+00
 -.23024417954E+00 -.81193429770E+00 -.13204908261E+01 -.17217537949E+01 -.20950630706E+01
 -.23360047971E+01 -.36823648222E+01 -.35968278312E+01 -.33034847574E+01 -.28328958804E+01
 -.21564508874E+01 -.14717389613E+01 -.83275773136E+00 -.16403789114E+00 0.40259691753E+00
 0.87561934235E+00 0.12237309414E+01 0.14370264876E+01 0.15093863886E+01 0.14370264876E+01
 0.12237309414E+01 0.87561934235E+00 0.40259691753E+00 -.16403789114E+00 -.83275773136E+00
 -.14717389613E+01 -.21564508874E+01 -.28328958804E+01 -.33034847574E+01 -.35968278312E+01
 -.57179528808E+01 -.55358313783E+01 -.50772373236E+01 -.44191750728E+01 -.36960692412E+01
 -.27770912726E+01 -.17790771885E+01 -.93378829774E+00 -.17177876505E+00 0.43173529095E+00
 0.87561934235E+00 0.11435323220E+01 0.12338024156E+01 0.11435323220E+01 0.87561934235E+00
 0.43173529095E+00 -.17177876505E+00 -.93378829774E+00 -.17790771885E+01 -.27770912726E+01
 -.36960692412E+01 -.44191750728E+01 -.50772373236E+01 -.55358313783E+01 -.10072633899E+02
 -.97640178517E+01 -.88181476470E+01 -.74126079464E+01 -.58101852356E+01 -.44747193360E+01
 -.32568026971E+01 -.20003557432E+01 -.98504825747E+00 -.17177876505E+00 0.40259691753E+00
 0.75226792145E+00 0.86538429635E+00 0.75226792145E+00 0.40259691753E+00 -.17177876505E+00
 -.98504825747E+00 -.20003557432E+01 -.32568026971E+01 -.44747193360E+01 -.58101852356E+01
 -.74126079464E+01 -.88181476470E+01 -.97640178517E+01 -.15148668610E+02 -.14849667108E+02
 -.13949633231E+02 -.12279003976E+02 -.98886156690E+01 -.71229967268E+01 -.49861421825E+01
 -.34359118688E+01 -.20003557432E+01 -.93378829774E+00 -.16403789114E+00 0.27428147460E+00
 0.43206503737E+00 0.27428147460E+00 -.16403789114E+00 -.93378829774E+00 -.20003557432E+01
 -.34359118688E+01 -.49861421825E+01 -.71229967268E+01 -.98886156690E+01 -.12279003976E+02
 -.13949633231E+02 -.14849667108E+02 -.18921161568E+02 -.18685329866E+02 -.17938974718E+02
 -.16609306508E+02 -.14470883555E+02 -.11367063057E+02 -.76612690833E+01 -.49861421825E+01
 -.32568026971E+01 -.17790771885E+01 -.83275773136E+00 -.23024417954E+00 -.71788824728E-01
 -.23024417954E+00 -.83275773136E+00 -.17790771885E+01 -.32568026971E+01 -.49861421825E+01
 -.76612690833E+01 -.11367063057E+02 -.14470883555E+02 -.16609306508E+02 -.17938974718E+02
 -.18685329866E+02 -.22594269648E+02 -.22333107479E+02 -.21416316405E+02 -.19974754868E+02
 -.17903918319E+02 -.15177299519E+02 -.11367063057E+02 -.71229967268E+01 -.44747193360E+01
 -.27770912726E+01 -.14717389613E+01 -.81193429770E+00 -.53258652359E+00 -.81193429770E+00
 -.14717389613E+01 -.27770912726E+01 -.44747193360E+01 -.71229967268E+01 -.11367063057E+02
 -.15177299519E+02 -.17903918319E+02 -.19974754868E+02 -.21416316405E+02 -.22333107479E+02
 -.26255641801E+02 -.25868702682E+02 -.24883852051E+02 -.23060052166E+02 -.20776879908E+02
 -.17903918319E+02 -.14470883555E+02 -.98886156690E+01 -.58101852356E+01 -.36960692412E+01
 -.21564508874E+01 -.13204908261E+01 -.10235527331E+01 -.13204908261E+01 -.21564508874E+01
 -.36960692412E+01 -.58101852356E+01 -.98886156690E+01 -.14470883555E+02 -.17903918319E+02
 -.20776879908E+02 -.23060052166E+02 -.24883852051E+02 -.25868702682E+02 -.29423655550E+02
 -.29025387538E+02 -.27870994986E+02 -.25827548322E+02 -.23060052166E+02 -.19974754868E+02
 -.16609306508E+02 -.12279003976E+02 -.74126079464E+01 -.44191750728E+01 -.28328958804E+01
 -.17217537949E+01 -.14998766195E+01 -.17217537949E+01 -.28328958804E+01 -.44191750728E+01
 -.74126079464E+01 -.12279003976E+02 -.16609306508E+02 -.19974754868E+02 -.23060052166E+02
 -.25827548322E+02 -.27870994986E+02 -.29025387538E+02 -.31738950793E+02 -.31328515483E+02
 -.30015750058E+02 -.27870994986E+02 -.24883852051E+02 -.21416316405E+02 -.17938974718E+02
 -.13949633231E+02 -.88181476470E+01 -.50772373236E+01 -.33034847574E+01 -.20950630706E+01
 -.18161517431E+01 -.20950630706E+01 -.33034847574E+01 -.50772373236E+01 -.88181476470E+01
 -.13949633231E+02 -.17938974718E+02 -.21416316405E+02 -.24883852051E+02 -.27870994986E+02
 -.30015750058E+02 -.31328515483E+02 -.33240786820E+02 -.32792012422E+02 -.31328515483E+02
 -.29025387538E+02 -.25868702682E+02 -.22333107479E+02 -.18685329866E+02 -.14849667108E+02
 -.97640178517E+01 -.55358313783E+01 -.35968278312E+01 -.23360047971E+01 -.20164471978E+01
 -.23360047971E+01 -.35968278312E+01 -.55358313783E+01 -.97640178517E+01 -.14849667108E+02
 -.18685329866E+02 -.22333107479E+02 -.25868702682E+02 -.29025387538E+02 -.31328515483E+02
 -.32792012422E+02 -.33297333576E+02 -.32808031310E+02 -.31276019004E+02 -.28906890613E+02
 -.25754249667E+02 -.22213465486E+02 -.18585349966E+02 -.14793945905E+02 -.97135959263E+01
 -.55186935144E+01 -.35901232658E+01 -.23355291694E+01 -.20171027630E+01 -.23355291694E+01
 -.35901232658E+01 -.55186935144E+01 -.97135959263E+01 -.14793945905E+02 -.18585349966E+02
 -.22213465486E+02 -.25754249667E+02 -.28906890613E+02 -.31276019004E+02 -.32808031310E+02
 -.32808031310E+02 -.32325229785E+02 -.30829444575E+02 -.28485481202E+02 -.25391162121E+02
 -.21953880124E+02 -.18341402331E+02 -.14494240763E+02 -.94056821019E+01 -.53498457714E+01
 -.35019492530E+01 -.22445477091E+01 -.19591386351E+01 -.22445477091E+01 -.35019492530E+01
 -.53498457714E+01 -.94056821019E+01 -.14494240763E+02 -.18341402331E+02 -.21953880124E+02
 -.25391162121E+02 -.28485481202E+02 -.30829444575E+02 -.32325229785E+02 -.31276019004E+02
 -.30829444575E+02 -.29513270224E+02 -.27328444987E+02 -.24416762285E+02 -.21042213258E+02
 -.17590334845E+02 -.13579795956E+02 -.84768337664E+01 -.49220930011E+01 -.32048487653E+01
 -.20158672269E+01 -.17555992339E+01 -.20158672269E+01 -.32048487653E+01 -.49220930011E+01
 -.84768337664E+01 -.13579795956E+02 -.17590334845E+02 -.21042213258E+02 -.24416762285E+02
 -.27328444987E+02 -.29513270224E+02 -.30829444575E+02 -.28906890613E+02 -.28485481202E+02
 -.27328444987E+02 -.25302048832E+02 -.22669193323E+02 -.19593050239E+02 -.16248869717E+02
 -.11898405462E+02 -.71136062930E+01 -.43062820766E+01 -.27246369834E+01 -.16671159143E+01
 -.14283742323E+01 -.16671159143E+01 -.27246369834E+01 -.43062820766E+01 -.71136062930E+01
 -.11898405462E+02 -.16248869717E+02 -.19593050239E+02 -.22669193323E+02 -.25302048832E+02
 -.27328444987E+02 -.28485481202E+02 -.25754249667E+02 -.25391162121E+02 -.24416762285E+02
 -.22669193323E+02 -.20380659353E+02 -.17522538338E+02 -.14108006866E+02 -.95026255187E+01
 -.56111965931E+01 -.35894280993E+01 -.20681436939E+01 -.12692155417E+01 -.96453863495E+00
 -.12692155417E+01 -.20681436939E+01 -.35894280993E+01 -.56111965931E+01 -.95026255187E+01
 -.14108006866E+02 -.17522538338E+02 -.20380659353E+02 -.22669193323E+02 -.24416762285E+02
 -.25391162121E+02 -.22213465486E+02 -.21953880124E+02 -.21042213258E+02 -.19593050239E+02
 -.17522538338E+02 -.14823268164E+02 -.10957919947E+02 -.68425560773E+01 -.43500167830E+01
 -.26707769620E+01 -.14130453554E+01 -.75654256194E+00 -.49521540608E+00 -.75654256194E+00
 -.14130453554E+01 -.26707769620E+01 -.43500167830E+01 -.68425560773E+01 -.10957919947E+02
 -.14823268164E+02 -.17522538338E+02 -.19593050239E+02 -.21042213258E+02 -.21953880124E+02
 -.18585349966E+02 -.18341402331E+02 -.17590334845E+02 -.16248869717E+02 -.14108006866E+02
 -.10957919947E+02 -.73514927659E+01 -.48379907825E+01 -.31437787004E+01 -.17048939853E+01
 -.77934175429E+00 -.19224668930E+00 -.35387077670E-01 -.19224668930E+00 -.77934175429E+00
 -.17048939853E+01 -.31437787004E+01 -.48379907825E+01 -.73514927659E+01 -.10957919947E+02
 -.14108006866E+02 -.16248869717E+02 -.17590334845E+02 -.18341402331E+02 -.14793945905E+02
 -.14494240763E+02 -.13579795956E+02 -.11898405462E+02 -.95026255187E+01 -.68425560773E+01
 -.48379907825E+01 -.33203363577E+01 -.19173695306E+01 -.87772209216E+00 -.12406845143E+00
 0.30421077814E+00 0.45954643435E+00 0.30421077814E+00 -.12406845143E+00 -.87772209216E+00
 -.19173695306E+01 -.33203363577E+01 -.48379907825E+01 -.68425560773E+01 -.95026255187E+01
 -.11898405462E+02 -.13579795956E+02 -.14494240763E+02 -.97135959263E+01 -.94056821019E+01
 -.84768337664E+01 -.71136062930E+01 -.56111965931E+01 -.43500167830E+01 -.31437787004E+01
 -.19173695306E+01 -.92727510413E+00 -.13036282187E+00 0.43133389893E+00 0.77505254234E+00
 0.88512648048E+00 0.77505254234E+00 0.43133389893E+00 -.13036282187E+00 -.92727510413E+00
 -.19173695306E+01 -.31437787004E+01 -.43500167830E+01 -.56111965931E+01 -.71136062930E+01
 -.84768337664E+01 -.94056821019E+01 -.55186935144E+01 -.53498457714E+01 -.49220930011E+01
 -.43062820766E+01 -.35894280993E+01 -.26707769620E+01 -.17048939853E+01 -.87772209216E+00
 -.13036282187E+00 0.46046734267E+00 0.89688252049E+00 0.11592096275E+01 0.12485844244E+01
 0.11592096275E+01 0.89688252049E+00 0.46046734267E+00 -.13036282187E+00 -.87772209216E+00
 -.17048939853E+01 -.26707769620E+01 -.35894280993E+01 -.43062820766E+01 -.49220930011E+01
 -.53498457714E+01 -.35901232658E+01 -.35019492530E+01 -.32048487653E+01 -.27246369834E+01
 -.20681436939E+01 -.14130453554E+01 -.77934175429E+00 -.12406845143E+00 0.43133389893E+00
 0.89688252049E+00 0.12383604199E+01 0.14487674477E+01 0.15193029048E+01 0.14487674477E+01
 0.12383604199E+01 0.89688252049E+00 0.43133389893E+00 -.12406845143E+00 -.77934175429E+00
 -.14130453554E+01 -.20681436939E+01 -.27246369834E+01 -.32048487653E+01 -.35019492530E+01
 -.23355291694E+01 -.22445477091E+01 -.20158672269E+01 -.16671159143E+01 -.12692155417E+01
 -.75654256194E+00 -.19224668930E+00 0.30421077814E+00 0.77505254234E+00 0.11592096275E+01
 0.14487674477E+01 0.16270037521E+01 0.16869840498E+01 0.16270037521E+01 0.14487674477E+01
 0.11592096275E+01 0.77505254234E+00 0.30421077814E+00 -.19224668930E+00 -.75654256194E+00
 -.12692155417E+01 -.16671159143E+01 -.20158672269E+01 -.22445477091E+01 -.20171027630E+01
 -.19591386351E+01 -.17555992339E+01 -.14283742323E+01 -.96453863495E+00 -.49521540608E+00
 -.35387077670E-01 0.45954643435E+00 0.88512648048E+00 0.12485844244E+01 0.15193029048E+01
 0.16869840498E+01 0.17440671559E+01 0.16869840498E+01 0.15193029048E+01 0.12485844244E+01
 0.88512648048E+00 0.45954643435E+00 -.35387077670E-01 -.49521540608E+00 -.96453863495E+00
 -.14283742323E+01 -.17555992339E+01 -.19591386351E+01 -.23355291694E+01 -.22445477091E+01
 -.20158672269E+01 -.16671159143E+01 -.12692155417E+01 -.75654256194E+00 -.19224668930E+00
 0.30421077814E+00 0.77505254234E+00 0.11592096275E+01 0.14487674477E+01 0.16270037521E+01
 0.16869840498E+01 0.16270037521E+01 0.14487674477E+01 0.11592096275E+01 0.77505254234E+00
 0.30421077814E+00 -.19224668930E+00 -.75654256194E+00 -.12692155417E+01 -.16671159143E+01
 -.20158672269E+01 -.22445477091E+01 -.35901232658E+01 -.35019492530E+01 -.32048487653E+01
 -.27246369834E+01 -.20681436939E+01 -.14130453554E+01 -.77934175429E+00 -.12406845143E+00
 0.43133389893E+00 0.89688252049E+00 0.12383604199E+01 0.14487674477E+01 0.15193029048E+01
 0.14487674477E+01 0.12383604199E+01 0.89688252049E+00 0.43133389893E+00 -.12406845143E+00
 -.77934175429E+00 -.14130453554E+01 -.20681436939E+01 -.27246369834E+01 -.32048487653E+01
 -.35019492530E+01 -.55186935144E+01 -.53498457714E+01 -.49220930011E+01 -.43062820766E+01
 -.35894280993E+01 -.26707769620E+01 -.17048939853E+01 -.87772209216E+00 -.13036282187E+00
 0.46046734267E+00 0.89688252049E+00 0.11592096275E+01 0.12485844244E+01 0.11592096275E+01
 0.89688252049E+00 0.46046734267E+00 -.13036282187E+00 -.87772209216E+00 -.17048939853E+01
 -.26707769620E+01 -.35894280993E+01 -.43062820766E+01 -.49220930011E+01 -.53498457714E+01
 -.97135959263E+01 -.94056821019E+01 -.84768337664E+01 -.71136062930E+01 -.56111965931E+01
 -.43500167830E+01 -.31437787004E+01 -.19173695306E+01 -.92727510413E+00 -.13036282187E+00
 0.43133389893E+00 0.77505254234E+00 0.88512648048E+00 0.77505254234E+00 0.43133389893E+00
 -.13036282187E+00 -.92727510413E+00 -.19173695306E+01 -.31437787004E+01 -.43500167830E+01
 -.56111965931E+01 -.71136062930E+01 -.84768337664E+01 -.94056821019E+01 -.14793945905E+02
 -.14494240763E+02 -.13579795956E+02 -.11898405462E+02 -.95026255187E+01 -.68425560773E+01
 -.48379907825E+01 -.33203363577E+01 -.19173695306E+01 -.87772209216E+00 -.12406845143E+00
 0.30421077814E+00 0.45954643435E+00 0.30421077814E+00 -.12406845143E+00 -.87772209216E+00
 -.19173695306E+01 -.33203363577E+01 -.48379907825E+01 -.68425560773E+01 -.95026255187E+01
 -.11898405462E+02 -.13579795956E+02 -.14494240763E+02 -.18585349966E+02 -.18341402331E+02
 -.17590334845E+02 -.16248869717E+02 -.14108006866E+02 -.10957919947E+02 -.73514927659E+01
 -.48379907825E+01 -.31437787004E+01 -.17048939853E+01 -.77934175429E+00 -.19224668930E+00
 -.35387077670E-01 -.19224668930E+00 -.77934175429E+00 -.17048939853E+01 -.31437787004E+01
 -.48379907825E+01 -.73514927659E+01 -.10957919947E+02 -.14108006866E+02 -.16248869717E+02
 -.17590334845E+02 -.18341402331E+02 -.22213465486E+02 -.21953880124E+02 -.21042213258E+02
 -.19593050239E+02 -.17522538338E+02 -.14823268164E+02 -.10957919947E+02 -.68425560773E+01
 -.43500167830E+01 -.26707769620E+01 -.14130453554E+01 -.75654256194E+00 -.49521540608E+00
 -.75654256194E+00 -.14130453554E+01 -.26707769620E+01 -.43500167830E+01 -.68425560773E+01
 -.10957919947E+02 -.14823268164E+02 -.17522538338E+02 -.19593050239E+02 -.21042213258E+02
 -.21953880124E+02 -.25754249667E+02 -.25391162121E+02 -.24416762285E+02 -.22669193323E+02
 -.20380659353E+02 -.17522538338E+02 -.14108006866E+02 -.95026255187E+01 -.56111965931E+01
 -.35894280993E+01 -.20681436939E+01 -.12692155417E+01 -.96453863495E+00 -.12692155417E+01
 -.20681436939E+01 -.35894280993E+01 -.56111965931E+01 -.95026255187E+01 -.14108006866E+02
 -.17522538338E+02 -.20380659353E+02 -.22669193323E+02 -.24416762285E+02 -.25391162121E+02
 -.28906890613E+02 -.28485481202E+02 -.27328444987E+02 -.25302048832E+02 -.22669193323E+02
 -.19593050239E+02 -.16248869717E+02 -.11898405462E+02 -.71136062930E+01 -.43062820766E+01
 -.27246369834E+01 -.16671159143E+01 -.14283742323E+01 -.16671159143E+01 -.27246369834E+01
 -.43062820766E+01 -.71136062930E+01 -.11898405462E+02 -.16248869717E+02 -.19593050239E+02
 -.22669193323E+02 -.25302048832E+02 -.27328444987E+02 -.28485481202E+02 -.31276019004E+02
 -.30829444575E+02 -.29513270224E+02 -.27328444987E+02 -.24416762285E+02 -.21042213258E+02
 -.17590334845E+02 -.13579795956E+02 -.84768337664E+01 -.49220930011E+01 -.32048487653E+01
 -.20158672269E+01 -.17555992339E+01 -.20158672269E+01 -.32048487653E+01 -.49220930011E+01
 -.84768337664E+01 -.13579795956E+02 -.17590334845E+02 -.21042213258E+02 -.24416762285E+02
 -.27328444987E+02 -.29513270224E+02 -.30829444575E+02 -.32808031310E+02 -.32325229785E+02
 -.30829444575E+02 -.28485481202E+02 -.25391162121E+02 -.21953880124E+02 -.18341402331E+02
 -.14494240763E+02 -.94056821019E+01 -.53498457714E+01 -.35019492530E+01 -.22445477091E+01
 -.19591386351E+01 -.22445477091E+01 -.35019492530E+01 -.53498457714E+01 -.94056821019E+01
 -.14494240763E+02 -.18341402331E+02 -.21953880124E+02 -.25391162121E+02 -.28485481202E+02
 -.30829444575E+02 -.32325229785E+02 -.32068146142E+02 -.31546056494E+02 -.29969546363E+02
 -.27571718460E+02 -.24456243488E+02 -.21015360484E+02 -.17661975128E+02 -.13724904222E+02
 -.86569259382E+01 -.50225484506E+01 -.32862124126E+01 -.20966789883E+01 -.18245813977E+01
 -.20966789883E+01 -.32862124126E+01 -.50225484506E+01 -.86569259382E+01 -.13724904222E+02
 -.17661975128E+02 -.21015360484E+02 -.24456243488E+02 -.27571718460E+02 -.29969546363E+02
 -.31546056494E+02 -.31546056494E+02 -.31019105116E+02 -.29505338879E+02 -.27120890674E+02
 -.24098826587E+02 -.20773322951E+02 -.17401401046E+02 -.13411475340E+02 -.83667917295E+01
 -.48825089575E+01 -.31957009023E+01 -.20162454054E+01 -.17649221052E+01 -.20162454054E+01
 -.31957009023E+01 -.48825089575E+01 -.83667917295E+01 -.13411475340E+02 -.17401401046E+02
 -.20773322951E+02 -.24098826587E+02 -.27120890674E+02 -.29505338879E+02 -.31019105116E+02
 -.29969546363E+02 -.29505338879E+02 -.28146423305E+02 -.25962387736E+02 -.23092500571E+02
 -.19891564664E+02 -.16654417984E+02 -.12421876813E+02 -.75355230997E+01 -.45118754565E+01
 -.29050982314E+01 -.18083553762E+01 -.15653251045E+01 -.18083553762E+01 -.29050982314E+01
 -.45118754565E+01 -.75355230997E+01 -.12421876813E+02 -.16654417984E+02 -.19891564664E+02
 -.23092500571E+02 -.25962387736E+02 -.28146423305E+02 -.29505338879E+02 -.27571718460E+02
 -.27120890674E+02 -.25962387736E+02 -.23926935317E+02 -.21397451951E+02 -.18550648604E+02
 -.15215414709E+02 -.10716492917E+02 -.63467679226E+01 -.39626497048E+01 -.24386217575E+01
 -.14911210414E+01 -.12444699042E+01 -.14911210414E+01 -.24386217575E+01 -.39626497048E+01
 -.63467679226E+01 -.10716492917E+02 -.15215414709E+02 -.18550648604E+02 -.21397451951E+02
 -.23926935317E+02 -.25962387736E+02 -.27120890674E+02 -.24456243488E+02 -.24098826587E+02
 -.23092500571E+02 -.21397451951E+02 -.19258847915E+02 -.16509013054E+02 -.12947320362E+02
 -.84296483928E+01 -.50829143006E+01 -.32782566291E+01 -.18224785545E+01 -.11189570260E+01
 -.79994038643E+00 -.11189570260E+01 -.18224785545E+01 -.32782566291E+01 -.50829143006E+01
 -.84296483928E+01 -.12947320362E+02 -.16509013054E+02 -.19258847915E+02 -.21397451951E+02
 -.23092500571E+02 -.24098826587E+02 -.21015360484E+02 -.20773322951E+02 -.19891564664E+02
 -.18550648604E+02 -.16509013054E+02 -.13696112560E+02 -.97668315443E+01 -.61078553195E+01
 -.39930429801E+01 -.23727306090E+01 -.12426812104E+01 -.60238706285E+00 -.38448682356E+00
 -.60238706285E+00 -.12426812104E+01 -.23727306090E+01 -.39930429801E+01 -.61078553195E+01
 -.97668315443E+01 -.13696112560E+02 -.16509013054E+02 -.18550648604E+02 -.19891564664E+02
 -.20773322951E+02 -.17661975128E+02 -.17401401046E+02 -.16654417984E+02 -.15215414709E+02
 -.12947320362E+02 -.97668315443E+01 -.65352230146E+01 -.44272307711E+01 -.28220696363E+01
 -.14936472922E+01 -.62923884295E+00 -.81557791870E-01 0.66348497737E-01 -.81557791870E-01
 -.62923884295E+00 -.14936472922E+01 -.28220696363E+01 -.44272307711E+01 -.65352230146E+01
 -.97668315443E+01 -.12947320362E+02 -.15215414709E+02 -.16654417984E+02 -.17401401046E+02
 -.13724904222E+02 -.13411475340E+02 -.12421876813E+02 -.10716492917E+02 -.84296483928E+01
 -.61078553195E+01 -.44272307711E+01 -.29905526313E+01 -.16813338974E+01 -.72066469747E+00
 -.77051553096E-02 0.38711002318E+00 0.54063251689E+00 0.38711002318E+00 -.77051553096E-02
 -.72066469747E+00 -.16813338974E+01 -.29905526313E+01 -.44272307711E+01 -.61078553195E+01
 -.84296483928E+01 -.10716492917E+02 -.12421876813E+02 -.13411475340E+02 -.86569259382E+01
 -.83667917295E+01 -.75355230997E+01 -.63467679226E+01 -.50829143006E+01 -.39930429801E+01
 -.28220696363E+01 -.16813338974E+01 -.76574561132E+00 -.97507211128E-02 0.51050429076E+00
 0.84283126404E+00 0.93871067900E+00 0.84283126404E+00 0.51050429076E+00 -.97507211128E-02
 -.76574561132E+00 -.16813338974E+01 -.28220696363E+01 -.39930429801E+01 -.50829143006E+01
 -.63467679226E+01 -.75355230997E+01 -.83667917295E+01 -.50225484506E+01 -.48825089575E+01
 -.45118754565E+01 -.39626497048E+01 -.32782566291E+01 -.23727306090E+01 -.14936472922E+01
 -.72066469747E+00 -.97507211128E-02 0.53954631841E+00 0.96024853644E+00 0.12011501460E+01
 0.12933965669E+01 0.12011501460E+01 0.96024853644E+00 0.53954631841E+00 -.97507211128E-02
 -.72066469747E+00 -.14936472922E+01 -.23727306090E+01 -.32782566291E+01 -.39626497048E+01
 -.45118754565E+01 -.48825089575E+01 -.32862124126E+01 -.31957009023E+01 -.29050982314E+01
 -.24386217575E+01 -.18224785545E+01 -.12426812104E+01 -.62923884295E+00 -.77051553096E-02
 0.51050429076E+00 0.96024853644E+00 0.12773108785E+01 0.14847657430E+01 0.15448238398E+01
 0.14847657430E+01 0.12773108785E+01 0.96024853644E+00 0.51050429076E+00 -.77051553096E-02
 -.62923884295E+00 -.12426812104E+01 -.18224785545E+01 -.24386217575E+01 -.29050982314E+01
 -.31957009023E+01 -.20966789883E+01 -.20162454054E+01 -.18083553762E+01 -.14911210414E+01
 -.11189570260E+01 -.60238706285E+00 -.81557791870E-01 0.38711002318E+00 0.84283126404E+00
 0.12011501460E+01 0.14847657430E+01 0.16479522997E+01 0.17121432805E+01 0.16479522997E+01
 0.14847657430E+01 0.12011501460E+01 0.84283126404E+00 0.38711002318E+00 -.81557791870E-01
 -.60238706285E+00 -.11189570260E+01 -.14911210414E+01 -.18083553762E+01 -.20162454054E+01
 -.18245813977E+01 -.17649221052E+01 -.15653251045E+01 -.12444699042E+01 -.79994038643E+00
 -.38448682356E+00 0.66348497737E-01 0.54063251689E+00 0.93871067900E+00 0.12933965669E+01
 0.15448238398E+01 0.17121432805E+01 0.17599334094E+01 0.17121432805E+01 0.15448238398E+01
 0.12933965669E+01 0.93871067900E+00 0.54063251689E+00 0.66348497737E-01 -.38448682356E+00
 -.79994038643E+00 -.12444699042E+01 -.15653251045E+01 -.17649221052E+01 -.20966789883E+01
 -.20162454054E+01 -.18083553762E+01 -.14911210414E+01 -.11189570260E+01 -.60238706285E+00
 -.81557791870E-01 0.38711002318E+00 0.84283126404E+00 0.12011501460E+01 0.14847657430E+01
 0.16479522997E+01 0.17121432805E+01 0.16479522997E+01 0.14847657430E+01 0.12011501460E+01
 0.84283126404E+00 0.38711002318E+00 -.81557791870E-01 -.60238706285E+00 -.11189570260E+01
 -.14911210414E+01 -.18083553762E+01 -.20162454054E+01 -.32862124126E+01 -.31957009023E+01
 -.29050982314E+01 -.24386217575E+01 -.18224785545E+01 -.12426812104E+01 -.62923884295E+00
 -.77051553096E-02 0.51050429076E+00 0.96024853644E+00 0.12773108785E+01 0.14847657430E+01
 0.15448238398E+01 0.14847657430E+01 0.12773108785E+01 0.96024853644E+00 0.51050429076E+00
 -.77051553096E-02 -.62923884295E+00 -.12426812104E+01 -.18224785545E+01 -.24386217575E+01
 -.29050982314E+01 -.31957009023E+01 -.50225484506E+01 -.48825089575E+01 -.45118754565E+01
 -.39626497048E+01 -.32782566291E+01 -.23727306090E+01 -.14936472922E+01 -.72066469747E+00
 -.97507211128E-02 0.53954631841E+00 0.96024853644E+00 0.12011501460E+01 0.12933965669E+01
 0.12011501460E+01 0.96024853644E+00 0.53954631841E+00 -.97507211128E-02 -.72066469747E+00
 -.14936472922E+01 -.23727306090E+01 -.32782566291E+01 -.39626497048E+01 -.45118754565E+01
 -.48825089575E+01 -.86569259382E+01 -.83667917295E+01 -.75355230997E+01 -.63467679226E+01
 -.50829143006E+01 -.39930429801E+01 -.28220696363E+01 -.16813338974E+01 -.76574561132E+00
 -.97507211128E-02 0.51050429076E+00 0.84283126404E+00 0.93871067900E+00 0.84283126404E+00
 0.51050429076E+00 -.97507211128E-02 -.76574561132E+00 -.16813338974E+01 -.28220696363E+01
 -.39930429801E+01 -.50829143006E+01 -.63467679226E+01 -.75355230997E+01 -.83667917295E+01
 -.13724904222E+02 -.13411475340E+02 -.12421876813E+02 -.10716492917E+02 -.84296483928E+01
 -.61078553195E+01 -.44272307711E+01 -.29905526313E+01 -.16813338974E+01 -.72066469747E+00
 -.77051553096E-02 0.38711002318E+00 0.54063251689E+00 0.38711002318E+00 -.77051553096E-02
 -.72066469747E+00 -.16813338974E+01 -.29905526313E+01 -.44272307711E+01 -.61078553195E+01
 -.84296483928E+01 -.10716492917E+02 -.12421876813E+02 -.13411475340E+02 -.17661975128E+02
 -.17401401046E+02 -.16654417984E+02 -.15215414709E+02 -.12947320362E+02 -.97668315443E+01
 -.65352230146E+01 -.44272307711E+01 -.28220696363E+01 -.14936472922E+01 -.62923884295E+00
 -.81557791870E-01 0.66348497737E-01 -.81557791870E-01 -.62923884295E+00 -.14936472922E+01
 -.28220696363E+01 -.44272307711E+01 -.65352230146E+01 -.97668315443E+01 -.12947320362E+02
 -.15215414709E+02 -.16654417984E+02 -.17401401046E+02 -.21015360484E+02 -.20773322951E+02
 -.19891564664E+02 -.18550648604E+02 -.16509013054E+02 -.13696112560E+02 -.97668315443E+01
 -.61078553195E+01 -.39930429801E+01 -.23727306090E+01 -.12426812104E+01 -.60238706285E+00
 -.38448682356E+00 -.60238706285E+00 -.12426812104E+01 -.23727306090E+01 -.39930429801E+01
 -.61078553195E+01 -.97668315443E+01 -.13696112560E+02 -.16509013054E+02 -.18550648604E+02