PROCAR new format
# of k-points:   15         # of bands:   10         # of ions:    1

 k-point     1 :    0.05000000 0.05000000 0.00000000     weight = 0.04000000

band     1 # energy   -6.83634029 # occ.  1.00000000
 
ion      s      p      d    tot
    1  0.263  0.003  0.211  0.477
 
band     2 # energy   -5.42710664 # occ.  1.00000000
 
ion      s      p      d    tot
    1  0.000  0.001  0.906  0.906
 
band     3 # energy   -5.42079745 # occ.  1.00000000
 
ion      s      p      d    tot
    1  0.068  0.000  0.697  0.765
 
band     4 # energy   -4.61502104 # occ.  1.00000000
 
ion      s      p      d    tot
    1  0.000  0.001  0.949  0.951
 
band     5 # energy   -4.58820095 # occ.  1.00000000
 
ion      s      p      d    tot
    1  0.000  0.000  0.960  0.960
 
band     6 # energy   -4.23470556 # occ.  1.00000000
 
ion      s      p      d    tot
    1  0.000  0.000  0.974  0.975
 
band     7 # energy   -1.70006689 # occ. -0.00000566
 
ion      s      p      d    tot
    1  0.000  0.130  0.012  0.142
 
band     8 # energy    0.90031259 # occ. -0.00000000
 
ion      s      p      d    tot
    1  0.016  0.000  0.014  0.030
 
band     9 # energy    3.87512894 # occ.  0.00000000
 
ion      s      p      d    tot
    1  0.000  0.065  0.001  0.066
 
band    10 # energy    4.50270832 # occ.  0.00000000
 
ion      s      p      d    tot
    1  0.037  0.001  0.043  0.080
 

 k-point     2 :    0.15000000 0.05000000 0.00000000     weight = 0.08000000

band     1 # energy   -6.48115444 # occ.  1.00000000
 
ion      s      p      d    tot
    1  0.227  0.013  0.284  0.524
 
band     2 # energy   -5.34083139 # occ.  1.00000000
 
ion      s      p      d    tot
    1  0.073  0.001  0.696  0.769
 
band     3 # energy   -5.28965369 # occ.  1.00000000
 
ion      s      p      d    tot
    1  0.019  0.007  0.836  0.863
 
band     4 # energy   -4.80483718 # occ.  1.00000000
 
ion      s      p      d    tot
    1  0.000  0.004  0.919  0.922
 
band     5 # energy   -4.58313215 # occ.  1.00000000
 
ion      s      p      d    tot
    1  0.000  0.000  0.959  0.960
 
band     6 # energy   -4.32239432 # occ.  1.00000000
 
ion      s      p      d    tot
    1  0.001  0.000  0.967  0.968
 
band     7 # energy   -1.21850116 # occ. -0.00000000
 
ion      s      p      d    tot
    1  0.000  0.126  0.037  0.163
 
band     8 # energy    1.26322052 # occ. -0.00000000
 
ion      s      p      d    tot
    1  0.015  0.001  0.012  0.028
 
band     9 # energy    4.26725171 # occ.  0.00000000
 
ion      s      p      d    tot
    1  0.000  0.067  0.003  0.070
 
band    10 # energy    4.83870286 # occ.  0.00000000
 
ion      s      p      d    tot
    1  0.031  0.005  0.041  0.077
 

 k-point     3 :    0.25000000 0.05000000 0.00000000     weight = 0.08000000

band     1 # energy   -5.98233772 # occ.  1.00000000
 
ion      s      p      d    tot
    1  0.122  0.014  0.568  0.705
 
band     2 # energy   -5.19607365 # occ.  1.00000000
 
ion      s      p      d    tot
    1  0.072  0.001  0.723  0.795
 
band     3 # energy   -5.06596936 # occ.  1.00000000
 
ion      s      p      d    tot
    1  0.000  0.004  0.895  0.898
 
band     4 # energy   -4.86275481 # occ.  1.00000000
 
ion      s      p      d    tot
    1  0.092  0.034  0.560  0.686
 
band     5 # energy   -4.56215840 # occ.  1.00000000
 
ion      s      p      d    tot
    1  0.000  0.000  0.961  0.961
 
band     6 # energy   -4.44169929 # occ.  1.00000000
 
ion      s      p      d    tot
    1  0.012  0.002  0.925  0.939
 
band     7 # energy   -0.36414439 # occ. -0.00000000
 
ion      s      p      d    tot
    1  0.000  0.126  0.049  0.175
 
band     8 # energy    1.99006771 # occ. -0.00000000
 
ion      s      p      d    tot
    1  0.012  0.004  0.010  0.026
 
band     9 # energy    4.94554532 # occ.  0.00000000
 
ion      s      p      d    tot
    1  0.052  0.191  0.096  0.339
 
band    10 # energy    5.02484905 # occ.  0.00000000
 
ion      s      p      d    tot
    1  0.000  0.072  0.004  0.077
 

 k-point     4 :    0.35000000 0.05000000 0.00000000     weight = 0.08000000

band     1 # energy   -5.70214252 # occ.  1.00000000
 
ion      s      p      d    tot
    1  0.039  0.005  0.821  0.864
 
band     2 # energy   -5.28491621 # occ.  1.00000000
 
ion      s      p      d    tot
    1  0.000  0.002  0.885  0.886
 
band     3 # energy   -5.04272065 # occ.  1.00000000
 
ion      s      p      d    tot
    1  0.068  0.001  0.756  0.825
 
band     4 # energy   -4.63336186 # occ.  1.00000000
 
ion      s      p      d    tot
    1  0.001  0.003  0.935  0.940
 
band     5 # energy   -4.54119592 # occ.  1.00000000
 
ion      s      p      d    tot
    1  0.000  0.000  0.963  0.963
 
band     6 # energy   -3.74377216 # occ.  1.00000000
 
ion      s      p      d    tot
    1  0.155  0.086  0.245  0.486
 
band     7 # energy    0.77146093 # occ. -0.00000000
 
ion      s      p      d    tot
    1  0.000  0.135  0.042  0.177
 
band     8 # energy    2.31817319 # occ. -0.00000000
 
ion      s      p      d    tot
    1  0.114  0.166  0.112  0.392
 
band     9 # energy    3.12143217 # occ.  0.00000000
 
ion      s      p      d    tot
    1  0.032  0.000  0.009  0.041
 
band    10 # energy    5.93525648 # occ.  0.00000000
 
ion      s      p      d    tot
    1  0.000  0.097  0.002  0.099
 

 k-point     5 :    0.45000000 0.05000000 0.00000000     weight = 0.08000000

band     1 # energy   -5.60407621 # occ.  1.00000000
 
ion      s      p      d    tot
    1  0.018  0.001  0.885  0.905
 
band     2 # energy   -5.40712534 # occ.  1.00000000
 
ion      s      p      d    tot
    1  0.000  0.000  0.882  0.882
 
band     3 # energy   -4.94443305 # occ.  1.00000000
 
ion      s      p      d    tot
    1  0.067  0.000  0.775  0.843
 
band     4 # energy   -4.71012069 # occ.  1.00000000
 
ion      s      p      d    tot
    1  0.000  0.002  0.941  0.943
 
band     5 # energy   -4.52884345 # occ.  1.00000000
 
ion      s      p      d    tot
    1  0.000  0.000  0.964  0.964
 
band     6 # energy   -2.20164798 # occ. -0.01944908
 
ion      s      p      d    tot
    1  0.103  0.167  0.102  0.372
 
band     7 # energy    0.03673371 # occ. -0.00000000
 
ion      s      p      d    tot
    1  0.210  0.093  0.169  0.472
 
band     8 # energy    1.98572735 # occ. -0.00000000
 
ion      s      p      d    tot
    1  0.000  0.170  0.015  0.185
 
band     9 # energy    4.57755417 # occ.  0.00000000
 
ion      s      p      d    tot
    1  0.014  0.005  0.005  0.025
 
band    10 # energy    4.91854406 # occ.  0.00000000
 
ion      s      p      d    tot
    1  0.000  0.024  0.082  0.106
 

 k-point     6 :    0.15000000 0.15000000 0.00000000     weight = 0.04000000

band     1 # energy   -6.14146190 # occ.  1.00000000
 
ion      s      p      d    tot
    1  0.179  0.023  0.388  0.590
 
band     2 # energy   -5.23881468 # occ.  1.00000000
 
ion      s      p      d    tot
    1  0.118  0.006  0.559  0.683
 
band     3 # energy   -5.18284803 # occ.  1.00000000
 
ion      s      p      d    tot
    1  0.000  0.007  0.901  0.908
 
band     4 # energy   -4.84312034 # occ.  1.00000000
 
ion      s      p      d    tot
    1  0.000  0.005  0.907  0.911
 
band     5 # energy   -4.69989980 # occ.  1.00000000
 
ion      s      p      d    tot
    1  0.000  0.000  0.952  0.952
 
band     6 # energy   -4.38881408 # occ.  1.00000000
 
ion      s      p      d    tot
    1  0.014  0.000  0.931  0.945
 
band     7 # energy   -0.76011990 # occ. -0.00000000
 
ion      s      p      d    tot
    1  0.000  0.123  0.052  0.175
 
band     8 # energy    1.62756653 # occ. -0.00000000
 
ion      s      p      d    tot
    1  0.014  0.002  0.011  0.027
 
band     9 # energy    4.65921615 # occ.  0.00000000
 
ion      s      p      d    tot
    1  0.000  0.068  0.005  0.074
 
band    10 # energy    5.18104295 # occ.  0.00000000
 
ion      s      p      d    tot
    1  0.028  0.008  0.039  0.075
 

 k-point     7 :    0.25000000 0.15000000 0.00000000     weight = 0.08000000

band     1 # energy   -5.72007830 # occ.  1.00000000
 
ion      s      p      d    tot
    1  0.066  0.020  0.702  0.788
 
band     2 # energy   -5.08017227 # occ.  1.00000000
 
ion      s      p      d    tot
    1  0.091  0.008  0.648  0.747
 
band     3 # energy   -5.04435559 # occ.  1.00000000
 
ion      s      p      d    tot
    1  0.000  0.004  0.897  0.901
 
band     4 # energy   -4.88708777 # occ.  1.00000000
 
ion      s      p      d    tot
    1  0.027  0.020  0.787  0.834
 
band     5 # energy   -4.71187694 # occ.  1.00000000
 
ion      s      p      d    tot
    1  0.000  0.001  0.947  0.947
 
band     6 # energy   -4.32355422 # occ.  1.00000000
 
ion      s      p      d    tot
    1  0.107  0.016  0.633  0.755
 
band     7 # energy    0.07288514 # occ. -0.00000000
 
ion      s      p      d    tot
    1  0.000  0.123  0.058  0.181
 
band     8 # energy    2.35701105 # occ. -0.00000000
 
ion      s      p      d    tot
    1  0.012  0.004  0.010  0.026
 
band     9 # energy    5.31259947 # occ.  0.00000000
 
ion      s      p      d    tot
    1  0.044  0.207  0.101  0.352
 
band    10 # energy    5.41783116 # occ.  0.00000000
 
ion      s      p      d    tot
    1  0.000  0.074  0.007  0.080
 

 k-point     8 :    0.35000000 0.15000000 0.00000000     weight = 0.08000000

band     1 # energy   -5.51200224 # occ.  1.00000000
 
ion      s      p      d    tot
    1  0.013  0.008  0.879  0.900
 
band     2 # energy   -5.24903360 # occ.  1.00000000
 
ion      s      p      d    tot
    1  0.000  0.002  0.890  0.892
 
band     3 # energy   -4.96839747 # occ.  1.00000000
 
ion      s      p      d    tot
    1  0.050  0.008  0.766  0.824
 
band     4 # energy   -4.80598916 # occ.  1.00000000
 
ion      s      p      d    tot
    1  0.015  0.007  0.883  0.905
 
band     5 # energy   -4.68683726 # occ.  1.00000000
 
ion      s      p      d    tot
    1  0.000  0.001  0.948  0.949
 
band     6 # energy   -3.36173971 # occ.  1.00000000
 
ion      s      p      d    tot
    1  0.181  0.080  0.229  0.490
 
band     7 # energy    1.19962672 # occ. -0.00000000
 
ion      s      p      d    tot
    1  0.000  0.131  0.050  0.181
 
band     8 # energy    2.67899565 # occ. -0.00000000
 
ion      s      p      d    tot
    1  0.102  0.182  0.111  0.395
 
band     9 # energy    3.48141718 # occ.  0.00000000
 
ion      s      p      d    tot
    1  0.026  0.002  0.007  0.036
 
band    10 # energy    6.33555687 # occ.  0.00000000
 
ion      s      p      d    tot
    1  0.000  0.100  0.004  0.104
 

 k-point     9 :    0.45000000 0.15000000 0.00000000     weight = 0.08000000

band     1 # energy   -5.42880872 # occ.  1.00000000
 
ion      s      p      d    tot
    1  0.003  0.004  0.921  0.928
 
band     2 # energy   -5.36540646 # occ.  1.00000000
 
ion      s      p      d    tot
    1  0.000  0.000  0.888  0.888
 
band     3 # energy   -4.97893150 # occ.  1.00000000
 
ion      s      p      d    tot
    1  0.004  0.007  0.885  0.896
 
band     4 # energy   -4.77067465 # occ.  1.00000000
 
ion      s      p      d    tot
    1  0.058  0.006  0.789  0.853
 
band     5 # energy   -4.66901842 # occ.  1.00000000
 
ion      s      p      d    tot
    1  0.000  0.001  0.950  0.951
 
band     6 # energy   -1.76485757 # occ. -0.00004271
 
ion      s      p      d    tot
    1  0.131  0.149  0.129  0.409
 
band     7 # energy    0.34809130 # occ. -0.00000000
 
ion      s      p      d    tot
    1  0.183  0.122  0.144  0.449
 
band     8 # energy    2.42948083 # occ. -0.00000000
 
ion      s      p      d    tot
    1  0.000  0.166  0.025  0.192
 
band     9 # energy    4.94411851 # occ.  0.00000000
 
ion      s      p      d    tot
    1  0.013  0.007  0.005  0.025
 
band    10 # energy    5.25689998 # occ.  0.00000000
 
ion      s      p      d    tot
    1  0.000  0.026  0.078  0.104
 

 k-point    10 :    0.25000000 0.25000000 0.00000000     weight = 0.04000000

band     1 # energy   -5.46929548 # occ.  1.00000000
 
ion      s      p      d    tot
    1  0.011  0.015  0.859  0.885
 
band     2 # energy   -5.06258250 # occ.  1.00000000
 
ion      s      p      d    tot
    1  0.040  0.012  0.761  0.813
 
band     3 # energy   -5.05254661 # occ.  1.00000000
 
ion      s      p      d    tot
    1  0.000  0.004  0.896  0.900
 
band     4 # energy   -4.88334773 # occ.  1.00000000
 
ion      s      p      d    tot
    1  0.000  0.000  0.938  0.938
 
band     5 # energy   -4.71353595 # occ.  1.00000000
 
ion      s      p      d    tot
    1  0.000  0.014  0.902  0.916
 
band     6 # energy   -3.83069255 # occ.  1.00000000
 
ion      s      p      d    tot
    1  0.221  0.049  0.243  0.512
 
band     7 # energy    0.88546029 # occ. -0.00000000
 
ion      s      p      d    tot
    1  0.000  0.122  0.061  0.183
 
band     8 # energy    3.09085379 # occ.  0.00000000
 
ion      s      p      d    tot
    1  0.011  0.006  0.008  0.025
 
band     9 # energy    5.50230705 # occ.  0.00000000
 
ion      s      p      d    tot
    1  0.000  0.298  0.107  0.405
 
band    10 # energy    6.17967867 # occ.  0.00000000
 
ion      s      p      d    tot
    1  0.000  0.078  0.009  0.087
 

 k-point    11 :    0.35000000 0.25000000 0.00000000     weight = 0.08000000

band     1 # energy   -5.35636937 # occ.  1.00000000
 
ion      s      p      d    tot
    1  0.001  0.010  0.890  0.901
 
band     2 # energy   -5.19212397 # occ.  1.00000000
 
ion      s      p      d    tot
    1  0.000  0.002  0.899  0.900
 
band     3 # energy   -5.17604573 # occ.  1.00000000
 
ion      s      p      d    tot
    1  0.011  0.004  0.868  0.883
 
band     4 # energy   -4.89930862 # occ.  1.00000000
 
ion      s      p      d    tot
    1  0.000  0.001  0.932  0.933
 
band     5 # energy   -4.48517224 # occ.  1.00000000
 
ion      s      p      d    tot
    1  0.016  0.014  0.874  0.904
 
band     6 # energy   -2.69618112 # occ.  1.02673696
 
ion      s      p      d    tot
    1  0.216  0.095  0.127  0.437
 
band     7 # energy    2.00540313 # occ. -0.00000000
 
ion      s      p      d    tot
    1  0.000  0.129  0.054  0.183
 
band     8 # energy    3.30868778 # occ.  0.00000000
 
ion      s      p      d    tot
    1  0.071  0.226  0.101  0.398
 
band     9 # energy    4.20372012 # occ.  0.00000000
 
ion      s      p      d    tot
    1  0.016  0.007  0.006  0.029
 
band    10 # energy    7.10757089 # occ.  0.00000000
 
ion      s      p      d    tot
    1  0.000  0.107  0.007  0.114
 

 k-point    12 :    0.45000000 0.25000000 0.00000000     weight = 0.08000000

band     1 # energy   -5.32256586 # occ.  1.00000000
 
ion      s      p      d    tot
    1  0.000  0.008  0.868  0.876
 
band     2 # energy   -5.29813152 # occ.  1.00000000
 
ion      s      p      d    tot
    1  0.000  0.000  0.898  0.898
 
band     3 # energy   -5.24036310 # occ.  1.00000000
 
ion      s      p      d    tot
    1  0.003  0.002  0.928  0.932
 
band     4 # energy   -4.87928260 # occ.  1.00000000
 
ion      s      p      d    tot
    1  0.000  0.001  0.933  0.934
 
band     5 # energy   -4.37085731 # occ.  1.00000000
 
ion      s      p      d    tot
    1  0.031  0.013  0.846  0.890
 
band     6 # energy   -1.05061215 # occ. -0.00000000
 
ion      s      p      d    tot
    1  0.168  0.143  0.109  0.420
 
band     7 # energy    0.98264556 # occ. -0.00000000
 
ion      s      p      d    tot
    1  0.133  0.177  0.106  0.416
 
band     8 # energy    3.26151208 # occ.  0.00000000
 
ion      s      p      d    tot
    1  0.000  0.163  0.035  0.198
 
band     9 # energy    5.67304620 # occ.  0.00000000
 
ion      s      p      d    tot
    1  0.009  0.012  0.005  0.025
 
band    10 # energy    5.93320419 # occ.  0.00000000
 
ion      s      p      d    tot
    1  0.000  0.029  0.071  0.099
 

 k-point    13 :    0.35000000 0.35000000 0.00000000     weight = 0.04000000

band     1 # energy   -5.46406042 # occ.  1.00000000
 
ion      s      p      d    tot
    1  0.002  0.008  0.846  0.855
 
band     2 # energy   -5.19113192 # occ.  1.00000000
 
ion      s      p      d    tot
    1  0.006  0.000  0.931  0.938
 
band     3 # energy   -5.16071589 # occ.  1.00000000
 
ion      s      p      d    tot
    1  0.000  0.002  0.904  0.906
 
band     4 # energy   -5.06717355 # occ.  1.00000000
 
ion      s      p      d    tot
    1  0.000  0.000  0.924  0.924
 
band     5 # energy   -4.09944820 # occ.  1.00000000
 
ion      s      p      d    tot
    1  0.000  0.014  0.926  0.940
 
band     6 # energy   -1.61212997 # occ. -0.00000026
 
ion      s      p      d    tot
    1  0.210  0.131  0.061  0.402
 
band     7 # energy    3.12631479 # occ.  0.00000000
 
ion      s      p      d    tot
    1  0.000  0.134  0.051  0.185
 
band     8 # energy    3.50579138 # occ.  0.00000000
 
ion      s      p      d    tot
    1  0.000  0.323  0.070  0.393
 
band     9 # energy    5.26891838 # occ.  0.00000000
 
ion      s      p      d    tot
    1  0.000  0.027  0.018  0.045
 
band    10 # energy    5.79040849 # occ.  0.00000000
 
ion      s      p      d    tot
    1  0.216  0.051  0.098  0.365
 

 k-point    14 :    0.45000000 0.35000000 0.00000000     weight = 0.08000000

band     1 # energy   -5.57703208 # occ.  1.00000000
 
ion      s      p      d    tot
    1  0.000  0.004  0.851  0.855
 
band     2 # energy   -5.23066851 # occ.  1.00000000
 
ion      s      p      d    tot
    1  0.000  0.000  0.908  0.908
 
band     3 # energy   -5.15388795 # occ.  1.00000000
 
ion      s      p      d    tot
    1  0.007  0.001  0.934  0.941
 
band     4 # energy   -5.07242371 # occ.  1.00000000
 
ion      s      p      d    tot
    1  0.000  0.001  0.921  0.922
 
band     5 # energy   -3.88772594 # occ.  1.00000000
 
ion      s      p      d    tot
    1  0.005  0.011  0.929  0.946
 
band     6 # energy   -0.06255437 # occ. -0.00000000
 
ion      s      p      d    tot
    1  0.170  0.175  0.057  0.402
 
band     7 # energy    1.84881756 # occ. -0.00000000
 
ion      s      p      d    tot
    1  0.070  0.256  0.062  0.387
 
band     8 # energy    4.40471252 # occ.  0.00000000
 
ion      s      p      d    tot
    1  0.000  0.169  0.036  0.205
 
band     9 # energy    6.32263117 # occ.  0.00000000
 
ion      s      p      d    tot
    1  0.139  0.155  0.082  0.376
 
band    10 # energy    6.84672037 # occ.  0.00000000
 
ion      s      p      d    tot
    1  0.035  0.021  0.019  0.076
 

 k-point    15 :    0.45000000 0.45000000 0.00000000     weight = 0.04000000

band     1 # energy   -5.71981094 # occ.  1.00000000
 
ion      s      p      d    tot
    1  0.000  0.001  0.849  0.850
 
band     2 # energy   -5.19341768 # occ.  1.00000000
 
ion      s      p      d    tot
    1  0.000  0.000  0.913  0.913
 
band     3 # energy   -5.18097061 # occ.  1.00000000
 
ion      s      p      d    tot
    1  0.000  0.000  0.916  0.916
 
band     4 # energy   -5.10916879 # occ.  1.00000000
 
ion      s      p      d    tot
    1  0.009  0.000  0.933  0.943
 
band     5 # energy   -3.58197825 # occ.  1.00000000
 
ion      s      p      d    tot
    1  0.000  0.003  0.974  0.977
 
band     6 # energy    1.23310150 # occ. -0.00000000
 
ion      s      p      d    tot
    1  0.105  0.253  0.022  0.379
 
band     7 # energy    2.29708227 # occ. -0.00000000
 
ion      s      p      d    tot
    1  0.000  0.349  0.013  0.362
 
band     8 # energy    4.83593709 # occ.  0.00000000
 
ion      s      p      d    tot
    1  0.349  0.064  0.074  0.486
 
band     9 # energy    5.66572975 # occ.  0.00000000
 
ion      s      p      d    tot
    1  0.000  0.212  0.021  0.233
 
band    10 # energy    6.73389409 # occ.  0.00000000
 
ion      s      p      d    tot
    1  0.008  0.042  0.182  0.232
 
# of k-points:   15         # of bands:   10         # of ions:    1

 k-point     1 :    0.05000000 0.05000000 0.00000000     weight = 0.04000000

band     1 # energy   -6.26100129 # occ.  1.00000000
 
ion      s      p      d    tot
    1  0.296  0.003  0.041  0.340
 
band     2 # energy   -3.23709838 # occ.  1.00000002
 
ion      s      p      d    tot
    1  0.000  0.001  0.876  0.877
 
band     3 # energy   -2.09209487 # occ. -0.02764636
 
ion      s      p      d    tot
    1  0.004  0.000  0.771  0.775
 
band     4 # energy   -1.87413248 # occ. -0.00076762
 
ion      s      p      d    tot
    1  0.000  0.038  0.623  0.660
 
band     5 # energy   -1.63518148 # occ. -0.00000060
 
ion      s      p      d    tot
    1  0.000  0.000  0.950  0.950
 
band     6 # energy   -1.15727092 # occ. -0.00000000
 
ion      s      p      d    tot
    1  0.000  0.072  0.328  0.399
 
band     7 # energy   -0.80169130 # occ. -0.00000000
 
ion      s      p      d    tot
    1  0.000  0.000  0.969  0.969
 
band     8 # energy    1.10450230 # occ. -0.00000000
 
ion      s      p      d    tot
    1  0.015  0.000  0.050  0.065
 
band     9 # energy    4.00383288 # occ.  0.00000000
 
ion      s      p      d    tot
    1  0.000  0.058  0.002  0.060
 
band    10 # energy    4.90047347 # occ.  0.00000000
 
ion      s      p      d    tot
    1  0.039  0.001  0.078  0.117
 

 k-point     2 :    0.15000000 0.05000000 0.00000000     weight = 0.08000000

band     1 # energy   -5.86032917 # occ.  1.00000000
 
ion      s      p      d    tot
    1  0.283  0.016  0.042  0.341
 
band     2 # energy   -3.11150455 # occ.  1.00000226
 
ion      s      p      d    tot
    1  0.000  0.007  0.865  0.872
 
band     3 # energy   -2.21208040 # occ. -0.01142923
 
ion      s      p      d    tot
    1  0.000  0.028  0.682  0.710
 
band     4 # energy   -1.98678011 # occ. -0.00732710
 
ion      s      p      d    tot
    1  0.005  0.000  0.790  0.795
 
band     5 # energy   -1.63549733 # occ. -0.00000061
 
ion      s      p      d    tot
    1  0.000  0.001  0.945  0.946
 
band     6 # energy   -0.92875369 # occ. -0.00000000
 
ion      s      p      d    tot
    1  0.000  0.000  0.960  0.961
 
band     7 # energy   -0.55836810 # occ. -0.00000000
 
ion      s      p      d    tot
    1  0.000  0.078  0.261  0.339
 
band     8 # energy    1.45082572 # occ. -0.00000000
 
ion      s      p      d    tot
    1  0.014  0.001  0.042  0.057
 
band     9 # energy    4.41576334 # occ.  0.00000000
 
ion      s      p      d    tot
    1  0.000  0.060  0.007  0.067
 
band    10 # energy    5.21501421 # occ.  0.00000000
 
ion      s      p      d    tot
    1  0.034  0.004  0.071  0.109
 

 k-point     3 :    0.25000000 0.05000000 0.00000000     weight = 0.08000000

band     1 # energy   -5.10848380 # occ.  1.00000000
 
ion      s      p      d    tot
    1  0.256  0.036  0.065  0.356
 
band     2 # energy   -2.87860753 # occ.  1.00155757
 
ion      s      p      d    tot
    1  0.001  0.023  0.816  0.840
 
band     3 # energy   -2.53473071 # occ.  0.96435203
 
ion      s      p      d    tot
    1  0.000  0.015  0.745  0.760
 
band     4 # energy   -1.80869254 # occ. -0.00014733
 
ion      s      p      d    tot
    1  0.008  0.001  0.820  0.829
 
band     5 # energy   -1.60512983 # occ. -0.00000020
 
ion      s      p      d    tot
    1  0.000  0.001  0.948  0.949
 
band     6 # energy   -1.12222163 # occ. -0.00000000
 
ion      s      p      d    tot
    1  0.001  0.001  0.946  0.948
 
band     7 # energy    0.29697640 # occ. -0.00000000
 
ion      s      p      d    tot
    1  0.000  0.088  0.175  0.263
 
band     8 # energy    2.15174109 # occ. -0.00000000
 
ion      s      p      d    tot
    1  0.012  0.003  0.030  0.045
 
band     9 # energy    5.20385476 # occ.  0.00000000
 
ion      s      p      d    tot
    1  0.000  0.066  0.010  0.076
 
band    10 # energy    5.64099453 # occ.  0.00000000
 
ion      s      p      d    tot
    1  0.017  0.130  0.125  0.273
 

 k-point     4 :    0.35000000 0.05000000 0.00000000     weight = 0.08000000

band     1 # energy   -4.17797135 # occ.  1.00000000
 
ion      s      p      d    tot
    1  0.207  0.040  0.209  0.456
 
band     2 # energy   -2.77670620 # occ.  1.01017257
 
ion      s      p      d    tot
    1  0.000  0.006  0.784  0.790
 
band     3 # energy   -2.51164475 # occ.  0.91895083
 
ion      s      p      d    tot
    1  0.010  0.071  0.617  0.698
 
band     4 # energy   -1.62362297 # occ. -0.00000039
 
ion      s      p      d    tot
    1  0.011  0.003  0.844  0.858
 
band     5 # energy   -1.57332977 # occ. -0.00000006
 
ion      s      p      d    tot
    1  0.000  0.001  0.952  0.953
 
band     6 # energy   -1.29024448 # occ. -0.00000000
 
ion      s      p      d    tot
    1  0.003  0.002  0.930  0.934
 
band     7 # energy    1.40924373 # occ. -0.00000000
 
ion      s      p      d    tot
    1  0.000  0.101  0.106  0.207
 
band     8 # energy    3.09839341 # occ.  0.00000000
 
ion      s      p      d    tot
    1  0.028  0.078  0.118  0.224
 
band     9 # energy    3.37601443 # occ.  0.00000000
 
ion      s      p      d    tot
    1  0.118  0.044  0.104  0.267
 
band    10 # energy    6.18917545 # occ.  0.00000000
 
ion      s      p      d    tot
    1  0.000  0.090  0.001  0.091
 

 k-point     5 :    0.45000000 0.05000000 0.00000000     weight = 0.08000000

band     1 # energy   -3.54513082 # occ.  1.00000000
 
ion      s      p      d    tot
    1  0.138  0.009  0.538  0.684
 
band     2 # energy   -2.90714745 # occ.  1.00082232
 
ion      s      p      d    tot
    1  0.000  0.001  0.803  0.803
 
band     3 # energy   -1.94912364 # occ. -0.00375781
 
ion      s      p      d    tot
    1  0.011  0.143  0.322  0.476
 
band     4 # energy   -1.55429203 # occ. -0.00000003
 
ion      s      p      d    tot
    1  0.000  0.000  0.955  0.955
 
band     5 # energy   -1.52459798 # occ. -0.00000001
 
ion      s      p      d    tot
    1  0.023  0.001  0.833  0.857
 
band     6 # energy   -1.25031424 # occ. -0.00000000
 
ion      s      p      d    tot
    1  0.004  0.052  0.744  0.800
 
band     7 # energy    1.32817115 # occ. -0.00000000
 
ion      s      p      d    tot
    1  0.191  0.037  0.383  0.610
 
band     8 # energy    2.66214638 # occ. -0.00000000
 
ion      s      p      d    tot
    1  0.000  0.135  0.036  0.171
 
band     9 # energy    4.68558303 # occ.  0.00000000
 
ion      s      p      d    tot
    1  0.014  0.006  0.008  0.028
 
band    10 # energy    5.20223248 # occ.  0.00000000
 
ion      s      p      d    tot
    1  0.000  0.027  0.107  0.135
 

 k-point     6 :    0.15000000 0.15000000 0.00000000     weight = 0.04000000

band     1 # energy   -5.46172065 # occ.  1.00000000
 
ion      s      p      d    tot
    1  0.268  0.030  0.041  0.339
 
band     2 # energy   -2.97543115 # occ.  1.00014778
 
ion      s      p      d    tot
    1  0.000  0.011  0.863  0.874
 
band     3 # energy   -2.28849138 # occ.  0.12010696
 
ion      s      p      d    tot
    1  0.000  0.025  0.699  0.725
 
band     4 # energy   -1.89247214 # occ. -0.00116715
 
ion      s      p      d    tot
    1  0.006  0.000  0.805  0.812
 
band     5 # energy   -1.79596821 # occ. -0.00010397
 
ion      s      p      d    tot
    1  0.000  0.000  0.936  0.936
 
band     6 # energy   -1.06683818 # occ. -0.00000000
 
ion      s      p      d    tot
    1  0.003  0.000  0.944  0.947
 
band     7 # energy   -0.05171160 # occ. -0.00000000
 
ion      s      p      d    tot
    1  0.000  0.078  0.242  0.320
 
band     8 # energy    1.80178592 # occ. -0.00000000
 
ion      s      p      d    tot
    1  0.014  0.001  0.035  0.050
 
band     9 # energy    4.82624452 # occ.  0.00000000
 
ion      s      p      d    tot
    1  0.000  0.062  0.012  0.074
 
band    10 # energy    5.53889685 # occ.  0.00000000
 
ion      s      p      d    tot
    1  0.031  0.006  0.064  0.102
 

 k-point     7 :    0.25000000 0.15000000 0.00000000     weight = 0.08000000

band     1 # energy   -4.71843462 # occ.  1.00000000
 
ion      s      p      d    tot
    1  0.237  0.052  0.063  0.352
 
band     2 # energy   -2.73042562 # occ.  1.01891760
 
ion      s      p      d    tot
    1  0.000  0.023  0.834  0.857
 
band     3 # energy   -2.49385941 # occ.  0.87484358
 
ion      s      p      d    tot
    1  0.000  0.015  0.758  0.773
 
band     4 # energy   -1.83495847 # occ. -0.00029412
 
ion      s      p      d    tot
    1  0.000  0.002  0.922  0.924
 
band     5 # energy   -1.73438756 # occ. -0.00001699
 
ion      s      p      d    tot
    1  0.009  0.001  0.828  0.838
 
band     6 # energy   -1.26262866 # occ. -0.00000000
 
ion      s      p      d    tot
    1  0.011  0.000  0.915  0.926
 
band     7 # energy    0.76702800 # occ. -0.00000000
 
ion      s      p      d    tot
    1  0.000  0.084  0.180  0.265
 
band     8 # energy    2.51005838 # occ. -0.00000000
 
ion      s      p      d    tot
    1  0.013  0.003  0.025  0.041
 
band     9 # energy    5.61432115 # occ.  0.00000000
 
ion      s      p      d    tot
    1  0.000  0.066  0.015  0.082
 
band    10 # energy    6.01866081 # occ.  0.00000000
 
ion      s      p      d    tot
    1  0.012  0.138  0.127  0.277
 

 k-point     8 :    0.35000000 0.15000000 0.00000000     weight = 0.08000000

band     1 # energy   -3.80631287 # occ.  1.00000000
 
ion      s      p      d    tot
    1  0.182  0.059  0.206  0.446
 
band     2 # energy   -2.70737886 # occ.  1.02416259
 
ion      s      p      d    tot
    1  0.000  0.005  0.798  0.804
 
band     3 # energy   -2.44475843 # occ.  0.71441700
 
ion      s      p      d    tot
    1  0.002  0.051  0.717  0.769
 
band     4 # energy   -1.80210994 # occ. -0.00012316
 
ion      s      p      d    tot
    1  0.000  0.002  0.922  0.924
 
band     5 # energy   -1.57272451 # occ. -0.00000006
 
ion      s      p      d    tot
    1  0.019  0.000  0.833  0.852
 
band     6 # energy   -1.29589060 # occ. -0.00000000
 
ion      s      p      d    tot
    1  0.024  0.014  0.844  0.882
 
band     7 # energy    1.86638479 # occ. -0.00000000
 
ion      s      p      d    tot
    1  0.000  0.095  0.119  0.214
 
band     8 # energy    3.47408383 # occ.  0.00000000
 
ion      s      p      d    tot