<?xml version="1.0" encoding="ISO-8859-1"?>
<modeling>
 <generator>
  <i name="program" type="string">vasp </i>
  <i name="version" type="string">5.4.4.18Apr17-6-g9f103f2a35  </i>
  <i name="subversion" type="string">(build May 18 2018 14:42:58) complex            parallel </i>
  <i name="platform" type="string">LinuxIFC </i>
  <i name="date" type="string">2020 07 01 </i>
  <i name="time" type="string">22:14:16 </i>
 </generator>
 <incar>
  <i type="string" name="SYSTEM"> BCC Fe</i>
  <i type="string" name="PREC">normal</i>
  <i type="int" name="ISPIN">     2</i>
  <i type="int" name="IBRION">     2</i>
  <i name="EDIFFG">     -0.01000000</i>
  <i type="int" name="NSW">    50</i>
  <i name="ENCUT">    268.00000000</i>
  <v name="RWIGS">      1.30200000</v>
  <v name="MAGMOM">      3.00000000</v>
  <i type="logical" name="LVHAR"> T  </i>
  <v type="int" name="KPOINT_BSE">    -1     0     0     0</v>
 </incar>
 <structure name="primitive_cell" >
  <crystal>
   <varray name="basis" >
    <v>       2.84000000       0.00000000       0.00000000 </v>
    <v>       0.00000000       2.84000000       0.00000000 </v>
    <v>       0.00000000       0.00000000      10.00000000 </v>
   </varray>
   <i name="volume">     80.65600000 </i>
   <varray name="rec_basis" >
    <v>       0.35211268       0.00000000       0.00000000 </v>
    <v>       0.00000000       0.35211268       0.00000000 </v>
    <v>       0.00000000       0.00000000       0.10000000 </v>
   </varray>
  </crystal>
  <varray name="positions" >
   <v>       0.00000000       0.00000000       0.00000000 </v>
  </varray>
 </structure>
 <varray name="primitive_index" >
  <v type="int" >        1 </v>
 </varray>
 <kpoints>
  <generation param="Monkhorst-Pack">
   <v type="int" name="divisions">      10       10        1 </v>
   <v name="usershift">      0.00000000       0.00000000       0.00000000 </v>
   <v name="genvec1">      0.10000000       0.00000000       0.00000000 </v>
   <v name="genvec2">      0.00000000       0.10000000       0.00000000 </v>
   <v name="genvec3">      0.00000000       0.00000000       1.00000000 </v>
   <v name="shift">      0.50000000       0.50000000       0.00000000 </v>
  </generation>
  <varray name="kpointlist" >
   <v>       0.05000000       0.05000000       0.00000000 </v>
   <v>       0.15000000       0.05000000       0.00000000 </v>
   <v>       0.25000000       0.05000000       0.00000000 </v>
   <v>       0.35000000       0.05000000       0.00000000 </v>
   <v>       0.45000000       0.05000000       0.00000000 </v>
   <v>       0.15000000       0.15000000       0.00000000 </v>
   <v>       0.25000000       0.15000000       0.00000000 </v>
   <v>       0.35000000       0.15000000       0.00000000 </v>
   <v>       0.45000000       0.15000000       0.00000000 </v>
   <v>       0.25000000       0.25000000       0.00000000 </v>
   <v>       0.35000000       0.25000000       0.00000000 </v>
   <v>       0.45000000       0.25000000       0.00000000 </v>
   <v>       0.35000000       0.35000000       0.00000000 </v>
   <v>       0.45000000       0.35000000       0.00000000 </v>
   <v>       0.45000000       0.45000000       0.00000000 </v>
  </varray>
  <varray name="weights" >
   <v>       0.04000000 </v>
   <v>       0.08000000 </v>
   <v>       0.08000000 </v>
   <v>       0.08000000 </v>
   <v>       0.08000000 </v>
   <v>       0.04000000 </v>
   <v>       0.08000000 </v>
   <v>       0.08000000 </v>
   <v>       0.08000000 </v>
   <v>       0.04000000 </v>
   <v>       0.08000000 </v>
   <v>       0.08000000 </v>
   <v>       0.04000000 </v>
   <v>       0.08000000 </v>
   <v>       0.04000000 </v>
  </varray>
 </kpoints>
 <parameters>
  <separator name="general" >
   <i type="string" name="SYSTEM">BCC Fe</i>
   <i type="logical" name="LCOMPAT"> F  </i>
  </separator>
  <separator name="electronic" >
   <i type="string" name="PREC">normal</i>
   <i name="ENMAX">    268.00000000</i>
   <i name="ENAUG">    511.36800000</i>
   <i name="EDIFF">      0.00010000</i>
   <i type="int" name="IALGO">    38</i>
   <i type="int" name="IWAVPR">    11</i>
   <i type="int" name="NBANDS">    10</i>
   <i name="NELECT">      8.00000000</i>
   <i type="int" name="TURBO">     0</i>
   <i type="int" name="IRESTART">     0</i>
   <i type="int" name="NREBOOT">     0</i>
   <i type="int" name="NMIN">     0</i>
   <i name="EREF">      0.00000000</i>
   <separator name="electronic smearing" >
    <i type="int" name="ISMEAR">     1</i>
    <i name="SIGMA">      0.20000000</i>
    <i name="KSPACING">      0.50000000</i>
    <i type="logical" name="KGAMMA"> T  </i>
   </separator>
   <separator name="electronic projectors" >
    <i type="logical" name="LREAL"> F  </i>
    <v name="ROPT">      0.00000000</v>
    <i type="int" name="LMAXPAW">  -100</i>
    <i type="int" name="LMAXMIX">     2</i>
    <i type="logical" name="NLSPLINE"> F  </i>
   </separator>
   <separator name="electronic startup" >
    <i type="int" name="ISTART">     0</i>
    <i type="int" name="ICHARG">     2</i>
    <i type="int" name="INIWAV">     1</i>
   </separator>
   <separator name="electronic spin" >
    <i type="int" name="ISPIN">     2</i>
    <i type="logical" name="LNONCOLLINEAR"> F  </i>
    <v name="MAGMOM">      3.00000000</v>
    <i name="NUPDOWN">     -1.00000000</i>
    <i type="logical" name="LSORBIT"> F  </i>
    <v name="SAXIS">      0.00000000      0.00000000      1.00000000</v>
    <i type="logical" name="LSPIRAL"> F  </i>
    <v name="QSPIRAL">      0.00000000      0.00000000      0.00000000</v>
    <i type="logical" name="LZEROZ"> F  </i>
   </separator>
   <separator name="electronic exchange-correlation" >
    <i type="logical" name="LASPH"> F  </i>
    <i type="logical" name="LMETAGGA"> F  </i>
   </separator>
   <separator name="electronic convergence" >
    <i type="int" name="NELM">    60</i>
    <i type="int" name="NELMDL">    -5</i>
    <i type="int" name="NELMIN">     2</i>
    <i name="ENINI">    268.00000000</i>
    <separator name="electronic convergence detail" >
     <i type="logical" name="LDIAG"> T  </i>
     <i type="logical" name="LSUBROT"> F  </i>
     <i name="WEIMIN">      0.00100000</i>
     <i name="EBREAK">      0.00000250</i>
     <i name="DEPER">      0.30000000</i>
     <i type="int" name="NRMM">     4</i>
     <i name="TIME">      0.40000000</i>
    </separator>
   </separator>
   <separator name="electronic mixer" >
    <i name="AMIX">      0.40000000</i>
    <i name="BMIX">      1.00000000</i>
    <i name="AMIN">      0.10000000</i>
    <i name="AMIX_MAG">      1.60000000</i>
    <i name="BMIX_MAG">      1.00000000</i>
    <separator name="electronic mixer details" >
     <i type="int" name="IMIX">     4</i>
     <i type="logical" name="MIXFIRST"> F  </i>
     <i type="int" name="MAXMIX">   -45</i>
     <i name="WC">    100.00000000</i>
     <i type="int" name="INIMIX">     1</i>
     <i type="int" name="MIXPRE">     1</i>
     <i type="int" name="MREMOVE">     5</i>
    </separator>
   </separator>
   <separator name="electronic dipolcorrection" >
    <i type="logical" name="LDIPOL"> F  </i>
    <i type="logical" name="LMONO"> F  </i>
    <i type="int" name="IDIPOL">     0</i>
    <i name="EPSILON">      1.00000000</i>
    <v name="DIPOL">   -100.00000000   -100.00000000   -100.00000000</v>
    <i name="EFIELD">      0.00000000</i>
   </separator>
  </separator>
  <separator name="grids" >
   <i type="int" name="NGX">    12</i>
   <i type="int" name="NGY">    12</i>
   <i type="int" name="NGZ">    40</i>
   <i type="int" name="NGXF">    24</i>
   <i type="int" name="NGYF">    24</i>
   <i type="int" name="NGZF">    80</i>
   <i type="logical" name="ADDGRID"> F  </i>
  </separator>
  <separator name="ionic" >
   <i type="int" name="NSW">    50</i>
   <i type="int" name="IBRION">     2</i>
   <i type="int" name="MDALGO">     0</i>
   <i type="int" name="ISIF">     2</i>
   <i name="PSTRESS">      0.00000000</i>
   <i name="EDIFFG">     -0.01000000</i>
   <i type="int" name="NFREE">     1</i>
   <i name="POTIM">      0.50000000</i>
   <i name="SMASS">     -3.00000000</i>
   <i name="SCALEE">      1.00000000</i>
  </separator>
  <separator name="ionic md" >
   <i name="TEBEG">      0.00010000</i>
   <i name="TEEND">      0.00010000</i>
   <i type="int" name="NBLOCK">     1</i>
   <i type="int" name="KBLOCK">    50</i>
   <i type="int" name="NPACO">   256</i>
   <i name="APACO">     16.00000000</i>
  </separator>
  <separator name="symmetry" >
   <i type="int" name="ISYM">     2</i>
   <i name="SYMPREC">      0.00001000</i>
  </separator>
  <separator name="dos" >
   <i type="int" name="LORBIT">     0</i>
   <v name="RWIGS">      1.30200000</v>
   <i type="int" name="NEDOS">   301</i>
   <i name="EMIN">     10.00000000</i>
   <i name="EMAX">    -10.00000000</i>
   <i name="EFERMI">      0.00000000</i>
  </separator>
  <separator name="writing" >
   <i type="int" name="NWRITE">     2</i>
   <i type="logical" name="LWAVE"> T  </i>
   <i type="logical" name="LDOWNSAMPLE"> F  </i>
   <i type="logical" name="LCHARG"> T  </i>
   <i type="logical" name="LPARD"> F  </i>
   <i type="logical" name="LVTOT"> F  </i>
   <i type="logical" name="LVHAR"> T  </i>
   <i type="logical" name="LELF"> F  </i>
   <i type="logical" name="LOPTICS"> F  </i>
   <v name="STM">      0.00000000      0.00000000      0.00000000      0.00000000      0.00000000      0.00000000      0.00000000</v>
  </separator>
  <separator name="performance" >
   <i type="int" name="NPAR">     1</i>
   <i type="int" name="NSIM">     4</i>
   <i type="int" name="NBLK">    -1</i>
   <i type="logical" name="LPLANE"> T  </i>
   <i type="logical" name="LSCALAPACK"> T  </i>
   <i type="logical" name="LSCAAWARE"> F  </i>
   <i type="logical" name="LSCALU"> F  </i>
   <i type="logical" name="LASYNC"> F  </i>
   <i type="logical" name="LORBITALREAL"> F  </i>
  </separator>
  <separator name="miscellaneous" >
   <i type="int" name="IDIOT">     3</i>
   <i type="int" name="ISPECIAL">     0</i>
   <i type="logical" name="LMUSIC"> F  </i>
   <v name="POMASS">     55.84700000</v>
   <v name="DARWINR">      0.00000000</v>
   <v name="DARWINV">      1.00000000</v>
   <i type="logical" name="LCORR"> T  </i>
  </separator>
  <i type="logical" name="GGA_COMPAT"> T  </i>
  <i type="logical" name="LBERRY"> F  </i>
  <i type="int" name="ICORELEVEL">     0</i>
  <i type="logical" name="LDAU"> F  </i>
  <i type="int" name="I_CONSTRAINED_M">     0</i>
  <separator name="electronic exchange-correlation" >
   <i type="string" name="GGA">--</i>
   <i type="int" name="VOSKOWN">     0</i>
   <i type="logical" name="LHFCALC"> F  </i>
   <i type="string" name="PRECFOCK"></i>
   <i type="logical" name="LSYMGRAD"> F  </i>
   <i type="logical" name="LHFONE"> F  </i>
   <i type="logical" name="LRHFCALC"> F  </i>
   <i type="logical" name="LTHOMAS"> F  </i>
   <i type="logical" name="LMODELHF"> F  </i>
   <i name="ENCUT4O">     -1.00000000</i>
   <i type="int" name="EXXOEP">     0</i>
   <i type="int" name="FOURORBIT">     0</i>
   <i name="AEXX">      0.00000000</i>
   <i name="HFALPHA">      0.00000000</i>
   <i name="MCALPHA">      0.00000000</i>
   <i name="ALDAX">      1.00000000</i>
   <i name="AGGAX">      1.00000000</i>
   <i name="ALDAC">      1.00000000</i>
   <i name="AGGAC">      1.00000000</i>
   <i type="int" name="NKREDX">     1</i>
   <i type="int" name="NKREDY">     1</i>
   <i type="int" name="NKREDZ">     1</i>
   <i type="logical" name="SHIFTRED"> F  </i>
   <i type="logical" name="ODDONLY"> F  </i>
   <i type="logical" name="EVENONLY"> F  </i>
   <i type="int" name="LMAXFOCK">     0</i>
   <i type="int" name="NMAXFOCKAE">     0</i>
   <i type="logical" name="LFOCKAEDFT"> F  </i>
   <i name="HFSCREEN">      0.00000000</i>
   <i name="HFSCREENC">      0.00000000</i>
   <i type="int" name="NBANDSGWLOW">     0</i>
  </separator>
  <separator name="vdW DFT" >
   <i type="logical" name="LUSE_VDW"> F  </i>
   <i name="Zab_VDW">     -0.84910000</i>
   <i name="PARAM1">      0.12340000</i>
   <i name="PARAM2">      1.00000000</i>
   <i name="PARAM3">      0.00000000</i>
  </separator>
  <separator name="model GW" >
   <i type="int" name="MODEL_GW">     0</i>
   <i name="MODEL_EPS0">     48.39360000</i>
   <i name="MODEL_ALPHA">      1.00000000</i>
  </separator>
  <separator name="linear response parameters" >
   <i type="logical" name="LEPSILON"> F  </i>
   <i type="logical" name="LRPA"> F  </i>
   <i type="logical" name="LNABLA"> F  </i>
   <i type="logical" name="LVEL"> F  </i>
   <i type="int" name="KINTER">     0</i>
   <i name="CSHIFT">      0.10000000</i>
   <i name="OMEGAMAX">     -1.00000000</i>
   <i name="DEG_THRESHOLD">      0.00200000</i>
   <i name="RTIME">     -0.10000000</i>
   <i name="WPLASMAI">      0.00000000</i>
   <v name="DFIELD">      0.00000000      0.00000000      0.00000000</v>
   <v name="WPLASMA">      0.00000000      0.00000000      0.00000000      0.00000000      0.00000000      0.00000000      0.00000000      0.00000000      0.00000000</v>
  </separator>
  <separator name="orbital magnetization" >
   <i type="logical" name="NUCIND"> F  </i>
   <v name="MAGPOS">      0.00000000      0.00000000      0.00000000</v>
   <i type="logical" name="LNICSALL"> T  </i>
   <i type="logical" name="ORBITALMAG"> F  </i>
   <i type="logical" name="LMAGBLOCH"> F  </i>
   <i type="logical" name="LCHIMAG"> F  </i>
   <i type="logical" name="LGAUGE"> T  </i>
   <i type="int" name="MAGATOM">     0</i>
   <v name="MAGDIPOL">      0.00000000      0.00000000      0.00000000</v>
   <v name="AVECCONST">      0.00000000      0.00000000      0.00000000</v>
  </separator>
  <separator name="response functions" >
   <i type="logical" name="LADDER"> F  </i>
   <i type="logical" name="LRPAFORCE"> F  </i>
   <i type="logical" name="LFXC"> F  </i>
   <i type="logical" name="LHARTREE"> T  </i>
   <i type="int" name="IBSE">     0</i>
   <v type="int" name="KPOINT">    -1     0     0     0</v>
   <i type="logical" name="LTCTE"> F  </i>
   <i type="logical" name="LTETE"> F  </i>
   <i type="logical" name="LTRIPLET"> F  </i>
   <i type="logical" name="LFXCEPS"> F  </i>
   <i type="logical" name="LFXHEG"> F  </i>
   <i type="int" name="NATURALO">     2</i>
   <i type="logical" name="L2ORDER"> F  </i>
   <i type="logical" name="LMP2LT"> F  </i>
   <i type="logical" name="LUSEW"> F  </i>
   <i name="ENCUTGW">     -2.00000000</i>
   <i name="ENCUTGWSOFT">     -2.00000000</i>
   <i name="ENCUTLF">     -1.00000000</i>
   <i type="int" name="LMAXMP2">    -1</i>
   <i name="SCISSOR">      0.00000000</i>
   <i type="int" name="NOMEGA">     0</i>
   <i type="int" name="NOMEGAR">     0</i>
   <i type="int" name="NBANDSGW">    -1</i>
   <i type="int" name="NBANDSO">    -1</i>
   <i type="int" name="NBANDSV">    -1</i>
   <i type="int" name="NELM">     1</i>
   <i type="int" name="NELMHF">     1</i>
   <i type="int" name="DIM">     3</i>
   <i type="int" name="ANTIRES">     0</i>
   <i name="OMEGAMAX">    -30.00000000</i>
   <i name="OMEGAMIN">    -30.00000000</i>
   <i name="OMEGATL">   -200.00000000</i>
   <i type="int" name="OMEGAGRID">   140</i>
   <i name="CSHIFT">     -0.10000000</i>
   <i type="logical" name="SELFENERGY"> F  </i>
   <i type="logical" name="LSPECTRAL"> F  </i>
   <i type="logical" name="LSPECTRALGW"> F  </i>
   <i type="logical" name="LSINGLES"> F  </i>
   <i type="logical" name="LFERMIGW"> F  </i>
   <i type="logical" name="ODDONLYGW"> F  </i>
   <i type="logical" name="EVENONLYGW"> F  </i>
   <i type="int" name="NKREDLFX">     1</i>
   <i type="int" name="NKREDLFY">     1</i>
   <i type="int" name="NKREDLFZ">     1</i>
   <i type="int" name="MAXMEM">  2800</i>
   <i type="int" name="TELESCOPE">     0</i>
   <i type="int" name="TAUPAR">     1</i>
   <i type="int" name="OMEGAPAR">    -1</i>
   <i name="LAMBDA">      1.00000000</i>
  </separator>
  <separator name="External order field" >
   <i name="OFIELD_KAPPA">      0.00000000</i>
   <v name="OFIELD_K">      0.00000000      0.00000000      0.00000000</v>
   <i name="OFIELD_Q6_NEAR">      0.00000000</i>
   <i name="OFIELD_Q6_FAR">      0.00000000</i>
   <i name="OFIELD_A">      0.00000000</i>
  </separator>
 </parameters>
 <atominfo>
  <atoms>       1 </atoms>
  <types>       1 </types>
  <array name="atoms" >
   <dimension dim="1">ion</dimension>
   <field type="string">element</field>
   <field type="int">atomtype</field>
   <set>
    <rc><c>Fe</c><c>   1</c></rc>
   </set>
  </array>
  <array name="atomtypes" >
   <dimension dim="1">type</dimension>
   <field type="int">atomspertype</field>
   <field type="string">element</field>
   <field>mass</field>
   <field>valence</field>
   <field type="string">pseudopotential</field>
   <set>
    <rc><c>   1</c><c>Fe</c><c>     55.84700000</c><c>      8.00000000</c><c>  PAW_PBE Fe 06Sep2000                  </c></rc>
   </set>
  </array>
 </atominfo>
 <structure name="initialpos" >
  <crystal>
   <varray name="basis" >
    <v>       2.84000000       0.00000000       0.00000000 </v>
    <v>       0.00000000       2.84000000       0.00000000 </v>
    <v>       0.00000000       0.00000000      10.00000000 </v>
   </varray>
   <i name="volume">     80.65600000 </i>
   <varray name="rec_basis" >
    <v>       0.35211268       0.00000000       0.00000000 </v>
    <v>       0.00000000       0.35211268       0.00000000 </v>
    <v>       0.00000000       0.00000000       0.10000000 </v>
   </varray>
  </crystal>
  <varray name="positions" >
   <v>       0.00000000       0.00000000       0.00000000 </v>
  </varray>
 </structure>
 <calculation>
  <scstep>
   <time name="dav">    0.07    0.08</time>
   <time name="total">    0.09    0.13</time>
   <energy>
    <i name="alphaZ">      8.56895656 </i>
    <i name="ewald">    -34.55131902 </i>
    <i name="hartreedc">   -542.66410597 </i>
    <i name="XCdc">      3.15780367 </i>
    <i name="pawpsdc">    553.75926685 </i>
    <i name="pawaedc">   -561.48528711 </i>
    <i name="eentropy">     -0.00320863 </i>
    <i name="bandstr">      0.70730240 </i>
    <i name="atom">    594.28084496 </i>
    <i name="e_fr_energy">     21.77025371 </i>
    <i name="e_wo_entrp">     21.77346235 </i>
    <i name="e_0_energy">     21.77132326 </i>
   </energy>
  </scstep>
  <scstep>
   <time name="dav">    0.07    0.07</time>
   <time name="total">    0.07    0.07</time>
   <energy>
    <i name="e_fr_energy">     -5.33800019 </i>
    <i name="e_wo_entrp">     -5.32886011 </i>
    <i name="e_0_energy">     -5.33495350 </i>
   </energy>
  </scstep>
  <scstep>
   <time name="dav">    0.07    0.07</time>
   <time name="total">    0.07    0.07</time>
   <energy>
    <i name="e_fr_energy">     -5.88505544 </i>
    <i name="e_wo_entrp">     -5.88093357 </i>
    <i name="e_0_energy">     -5.88368148 </i>
   </energy>
  </scstep>
  <scstep>
   <time name="dav">    0.07    0.07</time>
   <time name="total">    0.07    0.07</time>
   <energy>
    <i name="e_fr_energy">     -5.88820037 </i>
    <i name="e_wo_entrp">     -5.88410483 </i>
    <i name="e_0_energy">     -5.88683519 </i>
   </energy>
  </scstep>
  <scstep>
   <time name="dav">    0.07    0.07</time>
   <time name="total">    0.08    0.08</time>
   <energy>
    <i name="e_fr_energy">     -5.88823227 </i>
    <i name="e_wo_entrp">     -5.88413690 </i>
    <i name="e_0_energy">     -5.88686714 </i>
   </energy>
  </scstep>
  <scstep>
   <time name="dav">    0.07    0.07</time>
   <time name="total">    0.09    0.09</time>
   <energy>
    <i name="e_fr_energy">     -5.91793588 </i>
    <i name="e_wo_entrp">     -5.91480398 </i>
    <i name="e_0_energy">     -5.91689191 </i>
   </energy>
  </scstep>
  <scstep>
   <time name="dav">    0.07    0.07</time>
   <time name="total">    0.09    0.09</time>
   <energy>
    <i name="e_fr_energy">     -5.56490273 </i>
    <i name="e_wo_entrp">     -5.56022300 </i>
    <i name="e_0_energy">     -5.56334282 </i>
   </energy>
  </scstep>
  <scstep>
   <time name="dav">    0.07    0.07</time>
   <time name="total">    0.09    0.09</time>
   <energy>
    <i name="e_fr_energy">     -5.57765933 </i>
    <i name="e_wo_entrp">     -5.57365528 </i>
    <i name="e_0_energy">     -5.57632464 </i>
   </energy>
  </scstep>
  <scstep>
   <time name="dav">    0.07    0.07</time>
   <time name="total">    0.09    0.09</time>
   <energy>
    <i name="e_fr_energy">     -5.59171097 </i>
    <i name="e_wo_entrp">     -5.59156778 </i>
    <i name="e_0_energy">     -5.59166324 </i>
   </energy>
  </scstep>
  <scstep>
   <time name="dav">    0.07    0.07</time>
   <time name="total">    0.09    0.09</time>
   <energy>
    <i name="e_fr_energy">     -5.59668450 </i>
    <i name="e_wo_entrp">     -5.59759228 </i>
    <i name="e_0_energy">     -5.59698709 </i>
   </energy>
  </scstep>
  <scstep>
   <time name="dav">    0.07    0.07</time>
   <time name="total">    0.09    0.09</time>
   <energy>
    <i name="e_fr_energy">     -5.60049895 </i>
    <i name="e_wo_entrp">     -5.59950500 </i>
    <i name="e_0_energy">     -5.60016763 </i>
   </energy>
  </scstep>
  <scstep>
   <time name="dav">    0.07    0.07</time>
   <time name="total">    0.08    0.08</time>
   <energy>
    <i name="alphaZ">      8.56895656 </i>
    <i name="ewald">    -34.55131902 </i>
    <i name="hartreedc">   -533.39646187 </i>
    <i name="XCdc">      3.66731394 </i>
    <i name="pawpsdc">    579.25926991 </i>
    <i name="pawaedc">   -587.88960570 </i>
    <i name="eentropy">     -0.00061915 </i>
    <i name="bandstr">    -35.53894319 </i>
    <i name="atom">    594.28084496 </i>
    <i name="e_fr_energy">     -5.60056356 </i>
    <i name="e_wo_entrp">     -5.59994441 </i>
    <i name="e_0_energy">     -5.60035718 </i>
   </energy>
  </scstep>
  <structure>
   <crystal>
    <varray name="basis" >
     <v>       2.84000000       0.00000000       0.00000000 </v>
     <v>       0.00000000       2.84000000       0.00000000 </v>
     <v>       0.00000000       0.00000000      10.00000000 </v>
    </varray>
    <i name="volume">     80.65600000 </i>
    <varray name="rec_basis" >
     <v>       0.35211268       0.00000000       0.00000000 </v>
     <v>       0.00000000       0.35211268       0.00000000 </v>
     <v>       0.00000000       0.00000000       0.10000000 </v>
    </varray>
   </crystal>
   <varray name="positions" >
    <v>       0.00000000       0.00000000       0.00000000 </v>
   </varray>
  </structure>
  <varray name="forces" >
   <v>       0.00000000       0.00000000       0.00000000 </v>
  </varray>
  <varray name="stress" >
   <v>     -69.24040252       0.00000000       0.00000000 </v>
   <v>       0.00000000     -69.24040252       0.00000000 </v>
   <v>       0.00000000       0.00000000      -2.77239271 </v>
  </varray>
  <energy>
   <i name="e_fr_energy">     -5.60056356 </i>
   <i name="e_wo_entrp">     -5.60035718 </i>
   <i name="e_0_energy">     -0.00061915 </i>
  </energy>
  <time name="totalsc">    1.20    1.31</time>
  <eigenvalues>
   <array>
    <dimension dim="1">band</dimension>
    <dimension dim="2">kpoint</dimension>
    <dimension dim="3">spin</dimension>
    <field>eigene</field>
    <field>occ</field>
    <set>
     <set comment="spin 1">
      <set comment="kpoint 1">
       <r>   -6.8363    1.0000 </r>
       <r>   -5.4271    1.0000 </r>
       <r>   -5.4208    1.0000 </r>
       <r>   -4.6150    1.0000 </r>
       <r>   -4.5882    1.0000 </r>
       <r>   -4.2347    1.0000 </r>
       <r>   -1.7001   -0.0000 </r>
       <r>    0.9003   -0.0000 </r>
       <r>    3.8751    0.0000 </r>
       <r>    4.5027    0.0000 </r>
      </set>
      <set comment="kpoint 2">
       <r>   -6.4812    1.0000 </r>
       <r>   -5.3408    1.0000 </r>
       <r>   -5.2897    1.0000 </r>
       <r>   -4.8048    1.0000 </r>
       <r>   -4.5831    1.0000 </r>
       <r>   -4.3224    1.0000 </r>
       <r>   -1.2185   -0.0000 </r>
       <r>    1.2632   -0.0000 </r>
       <r>    4.2673    0.0000 </r>
       <r>    4.8387    0.0000 </r>
      </set>
      <set comment="kpoint 3">
       <r>   -5.9823    1.0000 </r>
       <r>   -5.1961    1.0000 </r>
       <r>   -5.0660    1.0000 </r>
       <r>   -4.8628    1.0000 </r>
       <r>   -4.5622    1.0000 </r>
       <r>   -4.4417    1.0000 </r>
       <r>   -0.3641   -0.0000 </r>
       <r>    1.9901   -0.0000 </r>
       <r>    4.9455    0.0000 </r>
       <r>    5.0248    0.0000 </r>
      </set>
      <set comment="kpoint 4">
       <r>   -5.7021    1.0000 </r>
       <r>   -5.2849    1.0000 </r>
       <r>   -5.0427    1.0000 </r>
       <r>   -4.6334    1.0000 </r>
       <r>   -4.5412    1.0000 </r>
       <r>   -3.7438    1.0000 </r>
       <r>    0.7715   -0.0000 </r>
       <r>    2.3182   -0.0000 </r>
       <r>    3.1214    0.0000 </r>
       <r>    5.9353    0.0000 </r>
      </set>
      <set comment="kpoint 5">
       <r>   -5.6041    1.0000 </r>
       <r>   -5.4071    1.0000 </r>
       <r>   -4.9444    1.0000 </r>
       <r>   -4.7101    1.0000 </r>
       <r>   -4.5288    1.0000 </r>
       <r>   -2.2016   -0.0194 </r>
       <r>    0.0367   -0.0000 </r>
       <r>    1.9857   -0.0000 </r>
       <r>    4.5776    0.0000 </r>
       <r>    4.9185    0.0000 </r>
      </set>
      <set comment="kpoint 6">
       <r>   -6.1415    1.0000 </r>
       <r>   -5.2388    1.0000 </r>
       <r>   -5.1828    1.0000 </r>
       <r>   -4.8431    1.0000 </r>
       <r>   -4.6999    1.0000 </r>
       <r>   -4.3888    1.0000 </r>
       <r>   -0.7601   -0.0000 </r>
       <r>    1.6276   -0.0000 </r>
       <r>    4.6592    0.0000 </r>
       <r>    5.1810    0.0000 </r>
      </set>
      <set comment="kpoint 7">
       <r>   -5.7201    1.0000 </r>
       <r>   -5.0802    1.0000 </r>
       <r>   -5.0444    1.0000 </r>
       <r>   -4.8871    1.0000 </r>
       <r>   -4.7119    1.0000 </r>
       <r>   -4.3236    1.0000 </r>
       <r>    0.0729   -0.0000 </r>
       <r>    2.3570   -0.0000 </r>
       <r>    5.3126    0.0000 </r>
       <r>    5.4178    0.0000 </r>
      </set>
      <set comment="kpoint 8">
       <r>   -5.5120    1.0000 </r>
       <r>   -5.2490    1.0000 </r>
       <r>   -4.9684    1.0000 </r>
       <r>   -4.8060    1.0000 </r>
       <r>   -4.6868    1.0000 </r>
       <r>   -3.3617    1.0000 </r>
       <r>    1.1996   -0.0000 </r>
       <r>    2.6790   -0.0000 </r>
       <r>    3.4814    0.0000 </r>
       <r>    6.3356    0.0000 </r>
      </set>
      <set comment="kpoint 9">
       <r>   -5.4288    1.0000 </r>
       <r>   -5.3654    1.0000 </r>
       <r>   -4.9789    1.0000 </r>
       <r>   -4.7707    1.0000 </r>
       <r>   -4.6690    1.0000 </r>
       <r>   -1.7649   -0.0000 </r>
       <r>    0.3481   -0.0000 </r>
       <r>    2.4295   -0.0000 </r>
       <r>    4.9441    0.0000 </r>
       <r>    5.2569    0.0000 </r>
      </set>
      <set comment="kpoint 10">
       <r>   -5.4693    1.0000 </r>
       <r>   -5.0626    1.0000 </r>
       <r>   -5.0525    1.0000 </r>
       <r>   -4.8833    1.0000 </r>
       <r>   -4.7135    1.0000 </r>
       <r>   -3.8307    1.0000 </r>
       <r>    0.8855   -0.0000 </r>
       <r>    3.0909    0.0000 </r>
       <r>    5.5023    0.0000 </r>
       <r>    6.1797    0.0000 </r>
      </set>
      <set comment="kpoint 11">
       <r>   -5.3564    1.0000 </r>
       <r>   -5.1921    1.0000 </r>
       <r>   -5.1760    1.0000 </r>
       <r>   -4.8993    1.0000 </r>
       <r>   -4.4852    1.0000 </r>
       <r>   -2.6962    1.0267 </r>
       <r>    2.0054   -0.0000 </r>
       <r>    3.3087    0.0000 </r>
       <r>    4.2037    0.0000 </r>
       <r>    7.1076    0.0000 </r>
      </set>
      <set comment="kpoint 12">
       <r>   -5.3226    1.0000 </r>
       <r>   -5.2981    1.0000 </r>
       <r>   -5.2404    1.0000 </r>
       <r>   -4.8793    1.0000 </r>
       <r>   -4.3709    1.0000 </r>
       <r>   -1.0506   -0.0000 </r>
       <r>    0.9826   -0.0000 </r>
       <r>    3.2615    0.0000 </r>
       <r>    5.6730    0.0000 </r>
       <r>    5.9332    0.0000 </r>
      </set>
      <set comment="kpoint 13">
       <r>   -5.4641    1.0000 </r>
       <r>   -5.1911    1.0000 </r>
       <r>   -5.1607    1.0000 </r>
       <r>   -5.0672    1.0000 </r>
       <r>   -4.0994    1.0000 </r>
       <r>   -1.6121   -0.0000 </r>
       <r>    3.1263    0.0000 </r>
       <r>    3.5058    0.0000 </r>
       <r>    5.2689    0.0000 </r>
       <r>    5.7904    0.0000 </r>
      </set>
      <set comment="kpoint 14">
       <r>   -5.5770    1.0000 </r>
       <r>   -5.2307    1.0000 </r>
       <r>   -5.1539    1.0000 </r>
       <r>   -5.0724    1.0000 </r>
       <r>   -3.8877    1.0000 </r>
       <r>   -0.0626   -0.0000 </r>
       <r>    1.8488   -0.0000 </r>
       <r>    4.4047    0.0000 </r>
       <r>    6.3226    0.0000 </r>
       <r>    6.8467    0.0000 </r>
      </set>
      <set comment="kpoint 15">
       <r>   -5.7198    1.0000 </r>
       <r>   -5.1934    1.0000 </r>
       <r>   -5.1810    1.0000 </r>
       <r>   -5.1092    1.0000 </r>
       <r>   -3.5820    1.0000 </r>
       <r>    1.2331   -0.0000 </r>
       <r>    2.2971   -0.0000 </r>
       <r>    4.8359    0.0000 </r>
       <r>    5.6657    0.0000 </r>
       <r>    6.7339    0.0000 </r>
      </set>
     </set>
     <set comment="spin 2">
      <set comment="kpoint 1">
       <r>   -6.2610    1.0000 </r>
       <r>   -3.2371    1.0000 </r>
       <r>   -2.0921   -0.0276 </r>
       <r>   -1.8741   -0.0008 </r>
       <r>   -1.6352   -0.0000 </r>
       <r>   -1.1573   -0.0000 </r>
       <r>   -0.8017   -0.0000 </r>
       <r>    1.1045   -0.0000 </r>
       <r>    4.0038    0.0000 </r>
       <r>    4.9005    0.0000 </r>
      </set>
      <set comment="kpoint 2">
       <r>   -5.8603    1.0000 </r>
       <r>   -3.1115    1.0000 </r>
       <r>   -2.2121   -0.0114 </r>
       <r>   -1.9868   -0.0073 </r>
       <r>   -1.6355   -0.0000 </r>
       <r>   -0.9288   -0.0000 </r>
       <r>   -0.5584   -0.0000 </r>
       <r>    1.4508   -0.0000 </r>
       <r>    4.4158    0.0000 </r>
       <r>    5.2150    0.0000 </r>
      </set>
      <set comment="kpoint 3">
       <r>   -5.1085    1.0000 </r>
       <r>   -2.8786    1.0016 </r>
       <r>   -2.5347    0.9644 </r>
       <r>   -1.8087   -0.0001 </r>
       <r>   -1.6051   -0.0000 </r>
       <r>   -1.1222   -0.0000 </r>
       <r>    0.2970   -0.0000 </r>
       <r>    2.1517   -0.0000 </r>
       <r>    5.2039    0.0000 </r>
       <r>    5.6410    0.0000 </r>
      </set>
      <set comment="kpoint 4">
       <r>   -4.1780    1.0000 </r>
       <r>   -2.7767    1.0102 </r>
       <r>   -2.5116    0.9190 </r>
       <r>   -1.6236   -0.0000 </r>
       <r>   -1.5733   -0.0000 </r>
       <r>   -1.2902   -0.0000 </r>
       <r>    1.4092   -0.0000 </r>
       <r>    3.0984    0.0000 </r>
       <r>    3.3760    0.0000 </r>
       <r>    6.1892    0.0000 </r>
      </set>
      <set comment="kpoint 5">
       <r>   -3.5451    1.0000 </r>
       <r>   -2.9071    1.0008 </r>
       <r>   -1.9491   -0.0038 </r>
       <r>   -1.5543   -0.0000 </r>
       <r>   -1.5246   -0.0000 </r>
       <r>   -1.2503   -0.0000 </r>
       <r>    1.3282   -0.0000 </r>
       <r>    2.6621   -0.0000 </r>
       <r>    4.6856    0.0000 </r>
       <r>    5.2022    0.0000 </r>
      </set>
      <set comment="kpoint 6">
       <r>   -5.4617    1.0000 </r>
       <r>   -2.9754    1.0001 </r>
       <r>   -2.2885    0.1201 </r>
       <r>   -1.8925   -0.0012 </r>
       <r>   -1.7960   -0.0001 </r>
       <r>   -1.0668   -0.0000 </r>
       <r>   -0.0517   -0.0000 </r>
       <r>    1.8018   -0.0000 </r>
       <r>    4.8262    0.0000 </r>
       <r>    5.5389    0.0000 </r>
      </set>
      <set comment="kpoint 7">
       <r>   -4.7184    1.0000 </r>
       <r>   -2.7304    1.0189 </r>
       <r>   -2.4939    0.8748 </r>
       <r>   -1.8350   -0.0003 </r>
       <r>   -1.7344   -0.0000 </r>
       <r>   -1.2626   -0.0000 </r>
       <r>    0.7670   -0.0000 </r>
       <r>    2.5101   -0.0000 </r>
       <r>    5.6143    0.0000 </r>
       <r>    6.0187    0.0000 </r>
      </set>
      <set comment="kpoint 8">
       <r>   -3.8063    1.0000 </r>
       <r>   -2.7074    1.0242 </r>
       <r>   -2.4448    0.7144 </r>
       <r>   -1.8021   -0.0001 </r>
       <r>   -1.5727   -0.0000 </r>
       <r>   -1.2959   -0.0000 </r>
       <r>    1.8664   -0.0000 </r>
       <r>    3.4741    0.0000 </r>
       <r>    3.6943    0.0000 </r>
       <r>    6.6162    0.0000 </r>
      </set>
      <set comment="kpoint 9">
       <r>   -3.1513    1.0000 </r>
       <r>   -2.8311    1.0041 </r>
       <r>   -2.3390    0.2838 </r>
       <r>   -1.7731   -0.0001 </r>
       <r>   -1.4722   -0.0000 </r>
       <r>   -0.6943   -0.0000 </r>
       <r>    1.5242   -0.0000 </r>
       <r>    3.1471    0.0000 </r>
       <r>    5.0513    0.0000 </r>
       <r>    5.5330    0.0000 </r>
      </set>
      <set comment="kpoint 10">
       <r>   -4.0210    1.0000 </r>
       <r>   -2.4847    0.8491 </r>
       <r>   -2.4508    0.7368 </r>
       <r>   -2.0583   -0.0199 </r>
       <r>   -1.6074   -0.0000 </r>
       <r>   -1.4284   -0.0000 </r>
       <r>    1.5769   -0.0000 </r>
       <r>    3.2296    0.0000 </r>
       <r>    6.2034    0.0000 </r>
       <r>    6.4052    0.0000 </r>
      </set>
      <set comment="kpoint 11">
       <r>   -3.2728    1.0000 </r>
       <r>   -2.5993    1.0284 </r>
       <r>   -2.2111   -0.0123 </r>
       <r>   -2.1033   -0.0301 </r>
       <r>   -1.4697   -0.0000 </r>
       <r>   -1.2047   -0.0000 </r>
       <r>    2.6827   -0.0000 </r>
       <r>    4.0950    0.0000 </r>
       <r>    4.3360    0.0000 </r>
       <r>    7.4364    0.0000 </r>
      </set>
      <set comment="kpoint 12">
       <r>   -2.8172    1.0052 </r>
       <r>   -2.7066    1.0243 </r>
       <r>   -2.2853    0.1117 </r>
       <r>   -2.0777   -0.0244 </r>
       <r>   -1.3785   -0.0000 </r>
       <r>   -0.0555   -0.0000 </r>
       <r>    1.9434   -0.0000 </r>
       <r>    4.0152    0.0000 </r>
       <r>    5.7796    0.0000 </r>
       <r>    6.1960    0.0000 </r>
      </set>
      <set comment="kpoint 13">
       <r>   -3.0434    1.0000 </r>
       <r>   -2.5278    0.9521 </r>
       <r>   -2.3203    0.2169 </r>
       <r>   -1.6994   -0.0000 </r>
       <r>   -1.3671   -0.0000 </r>
       <r>   -0.6684   -0.0000 </r>
       <r>    3.8055    0.0000 </r>
       <r>    4.1179    0.0000 </r>
       <r>    5.4076    0.0000 </r>
       <r>    6.7687    0.0000 </r>
      </set>
      <set comment="kpoint 14">
       <r>   -3.0270    1.0000 </r>
       <r>   -2.5804    1.0179 </r>
       <r>   -2.3406    0.2900 </r>
       <r>   -1.4881   -0.0000 </r>
       <r>   -1.2836   -0.0000 </r>
       <r>    0.7058   -0.0000 </r>
       <r>    2.5290   -0.0000 </r>
       <r>    5.1877    0.0000 </r>
       <r>    6.8441    0.0000 </r>
       <r>    7.1836    0.0000 </r>
      </set>
      <set comment="kpoint 15">
       <r>   -3.1560    1.0000 </r>
       <r>   -2.5084    0.9115 </r>
       <r>   -2.4819    0.8409 </r>
       <r>   -1.2397   -0.0000 </r>
       <r>   -0.9451   -0.0000 </r>
       <r>    1.7632   -0.0000 </r>
       <r>    2.6984   -0.0000 </r>
       <r>    6.1924    0.0000 </r>
       <r>    6.5982    0.0000 </r>
       <r>    7.2170    0.0000 </r>
      </set>
     </set>
    </set>
   </array>
  </eigenvalues>
  <separator name="orbital magnetization" >
   <v name="MAGDIPOLOUT">      0.00000000      0.00000000      0.00000000</v>
  </separator>
  <dos>
   <i name="efermi">     -2.39211760 </i>
   <total>
    <array>
     <dimension dim="1">gridpoints</dimension>
     <dimension dim="2">spin</dimension>
     <field>energy</field>
     <field>total</field>
     <field>integrated</field>
     <set>
      <set comment="spin 1">
       <r>    -8.8363     0.0000     0.0000 </r>
       <r>    -8.7754     0.0000     0.0000 </r>
       <r>    -8.7145     0.0000     0.0000 </r>
       <r>    -8.6536     0.0000     0.0000 </r>
       <r>    -8.5927     0.0000     0.0000 </r>
       <r>    -8.5318     0.0000     0.0000 </r>
       <r>    -8.4709    -0.0000    -0.0000 </r>
       <r>    -8.4100    -0.0000    -0.0000 </r>
       <r>    -8.3491    -0.0000    -0.0000 </r>
       <r>    -8.2882    -0.0000    -0.0000 </r>
       <r>    -8.2272    -0.0000    -0.0000 </r>
       <r>    -8.1663    -0.0000    -0.0000 </r>
       <r>    -8.1054    -0.0000    -0.0000 </r>
       <r>    -8.0445    -0.0000    -0.0000 </r>
       <r>    -7.9836    -0.0000    -0.0000 </r>
       <r>    -7.9227    -0.0000    -0.0000 </r>
       <r>    -7.8618    -0.0000    -0.0000 </r>
       <r>    -7.8009    -0.0000    -0.0000 </r>
       <r>    -7.7400    -0.0000    -0.0000 </r>
       <r>    -7.6791    -0.0000    -0.0000 </r>
       <r>    -7.6182    -0.0000    -0.0000 </r>
       <r>    -7.5572    -0.0000    -0.0000 </r>
       <r>    -7.4963    -0.0000    -0.0000 </r>
       <r>    -7.4354    -0.0001    -0.0000 </r>
       <r>    -7.3745    -0.0002    -0.0000 </r>
       <r>    -7.3136    -0.0009    -0.0001 </r>
       <r>    -7.2527    -0.0028    -0.0002 </r>
       <r>    -7.1918    -0.0061    -0.0006 </r>
       <r>    -7.1309    -0.0089    -0.0012 </r>
       <r>    -7.0700    -0.0041    -0.0014 </r>
       <r>    -7.0091     0.0193    -0.0002 </r>
       <r>    -6.9482     0.0659     0.0038 </r>
       <r>    -6.8872     0.1203     0.0111 </r>
       <r>    -6.8263     0.1509     0.0203 </r>
       <r>    -6.7654     0.1384     0.0287 </r>
       <r>    -6.7045     0.1048     0.0351 </r>
       <r>    -6.6436     0.1023     0.0413 </r>
       <r>    -6.5827     0.1635     0.0513 </r>
       <r>    -6.5218     0.2587     0.0671 </r>
       <r>    -6.4609     0.3145     0.0862 </r>
       <r>    -6.4000     0.2827     0.1034 </r>
       <r>    -6.3391     0.1893     0.1150 </r>
       <r>    -6.2782     0.1098     0.1216 </r>
       <r>    -6.2172     0.1019     0.1279 </r>
       <r>    -6.1563     0.1663     0.1380 </r>
       <r>    -6.0954     0.2589     0.1538 </r>
       <r>    -6.0345     0.3254     0.1736 </r>
       <r>    -5.9736     0.3363     0.1941 </r>
       <r>    -5.9127     0.3209     0.2136 </r>
       <r>    -5.8518     0.3654     0.2359 </r>
       <r>    -5.7909     0.5419     0.2689 </r>
       <r>    -5.7300     0.8278     0.3193 </r>
       <r>    -5.6691     1.1273     0.3879 </r>
       <r>    -5.6082     1.3909     0.4727 </r>
       <r>    -5.5472     1.6925     0.5757 </r>
       <r>    -5.4863     2.1670     0.7077 </r>
       <r>    -5.4254     2.8793     0.8831 </r>
       <r>    -5.3645     3.7527     1.1117 </r>
       <r>    -5.3036     4.5973     1.3917 </r>
       <r>    -5.2427     5.1974     1.7083 </r>
       <r>    -5.1818     5.4097     2.0378 </r>
       <r>    -5.1209     5.2323     2.3565 </r>
       <r>    -5.0600     4.8016     2.6489 </r>
       <r>    -4.9991     4.3137     2.9117 </r>
       <r>    -4.9382     3.9235     3.1507 </r>
       <r>    -4.8772     3.6897     3.3754 </r>
       <r>    -4.8163     3.5903     3.5941 </r>
       <r>    -4.7554     3.5719     3.8116 </r>
       <r>    -4.6945     3.5705     4.0291 </r>
       <r>    -4.6336     3.5063     4.2427 </r>
       <r>    -4.5727     3.3079     4.4442 </r>
       <r>    -4.5118     2.9680     4.6249 </r>
       <r>    -4.4509     2.5530     4.7804 </r>
       <r>    -4.3900     2.1343     4.9104 </r>
       <r>    -4.3291     1.7209     5.0153 </r>
       <r>    -4.2682     1.2853     5.0935 </r>
       <r>    -4.2072     0.8428     5.1449 </r>
       <r>    -4.1463     0.4703     5.1735 </r>
       <r>    -4.0854     0.2458     5.1885 </r>
       <r>    -4.0245     0.1952     5.2004 </r>
       <r>    -3.9636     0.2912     5.2181 </r>
       <r>    -3.9027     0.4661     5.2465 </r>
       <r>    -3.8418     0.6260     5.2846 </r>
       <r>    -3.7809     0.6887     5.3266 </r>
       <r>    -3.7200     0.6293     5.3649 </r>
       <r>    -3.6591     0.4903     5.3948 </r>
       <r>    -3.5982     0.3457     5.4158 </r>
       <r>    -3.5372     0.2575     5.4315 </r>
       <r>    -3.4763     0.2487     5.4467 </r>
       <r>    -3.4154     0.2938     5.4646 </r>
       <r>    -3.3545     0.3304     5.4847 </r>
       <r>    -3.2936     0.3029     5.5031 </r>
       <r>    -3.2327     0.2086     5.5158 </r>
       <r>    -3.1718     0.0955     5.5217 </r>
       <r>    -3.1109     0.0124     5.5224 </r>
       <r>    -3.0500    -0.0270     5.5208 </r>
       <r>    -2.9891    -0.0350     5.5186 </r>
       <r>    -2.9282    -0.0174     5.5176 </r>
       <r>    -2.8672     0.0377     5.5199 </r>
       <r>    -2.8063     0.1381     5.5283 </r>
       <r>    -2.7454     0.2556     5.5438 </r>
       <r>    -2.6845     0.3277     5.5638 </r>
       <r>    -2.6236     0.3056     5.5824 </r>
       <r>    -2.5627     0.2015     5.5947 </r>
       <r>    -2.5018     0.0796     5.5995 </r>
       <r>    -2.4409     0.0071     5.6000 </r>
       <r>    -2.3800     0.0187     5.6011 </r>
       <r>    -2.3191     0.1089     5.6078 </r>
       <r>    -2.2582     0.2323     5.6219 </r>
       <r>    -2.1972     0.3162     5.6412 </r>
       <r>    -2.1363     0.3042     5.6597 </r>
       <r>    -2.0754     0.2036     5.6721 </r>
       <r>    -2.0145     0.0847     5.6773 </r>
       <r>    -1.9536     0.0325     5.6792 </r>
       <r>    -1.8927     0.0947     5.6850 </r>
       <r>    -1.8318     0.2562     5.7006 </r>
       <r>    -1.7709     0.4429     5.7276 </r>
       <r>    -1.7100     0.5583     5.7616 </r>
       <r>    -1.6491     0.5431     5.7947 </r>
       <r>    -1.5881     0.4110     5.8197 </r>
       <r>    -1.5272     0.2321     5.8338 </r>
       <r>    -1.4663     0.0864     5.8391 </r>
       <r>    -1.4054     0.0289     5.8409 </r>
       <r>    -1.3445     0.0754     5.8454 </r>
       <r>    -1.2836     0.1997     5.8576 </r>
       <r>    -1.2227     0.3454     5.8787 </r>
       <r>    -1.1618     0.4535     5.9063 </r>
       <r>    -1.1009     0.4887     5.9360 </r>
       <r>    -1.0400     0.4449     5.9631 </r>
       <r>    -0.9791     0.3444     5.9841 </r>
       <r>    -0.9181     0.2339     5.9984 </r>
       <r>    -0.8572     0.1623     6.0083 </r>
       <r>    -0.7963     0.1414     6.0169 </r>
       <r>    -0.7354     0.1372     6.0252 </r>
       <r>    -0.6745     0.1120     6.0320 </r>
       <r>    -0.6136     0.0700     6.0363 </r>
       <r>    -0.5527     0.0550     6.0397 </r>
       <r>    -0.4918     0.1041     6.0460 </r>
       <r>    -0.4309     0.2017     6.0583 </r>
       <r>    -0.3700     0.2818     6.0755 </r>
       <r>    -0.3091     0.2872     6.0929 </r>
       <r>    -0.2481     0.2360     6.1073 </r>
       <r>    -0.1872     0.2210     6.1208 </r>
       <r>    -0.1263     0.3279     6.1408 </r>
       <r>    -0.0654     0.5479     6.1741 </r>
       <r>    -0.0045     0.7673     6.2209 </r>
       <r>     0.0564     0.8489     6.2726 </r>
       <r>     0.1173     0.7439     6.3179 </r>
       <r>     0.1782     0.5351     6.3505 </r>
       <r>     0.2391     0.3626     6.3726 </r>
       <r>     0.3000     0.2970     6.3906 </r>
       <r>     0.3609     0.2909     6.4084 </r>
       <r>     0.4219     0.2556     6.4239 </r>
       <r>     0.4828     0.1624     6.4338 </r>
       <r>     0.5437     0.0632     6.4377 </r>
       <r>     0.6046     0.0328     6.4397 </r>
       <r>     0.6655     0.1097     6.4464 </r>
       <r>     0.7264     0.2771     6.4632 </r>
       <r>     0.7873     0.4772     6.4923 </r>
       <r>     0.8482     0.6390     6.5312 </r>
       <r>     0.9091     0.7075     6.5743 </r>
       <r>     0.9700     0.6724     6.6153 </r>
       <r>     1.0309     0.5901     6.6512 </r>
       <r>     1.0919     0.5597     6.6853 </r>
       <r>     1.1528     0.6360     6.7240 </r>
       <r>     1.2137     0.7530     6.7699 </r>
       <r>     1.2746     0.7706     6.8168 </r>
       <r>     1.3355     0.6164     6.8544 </r>
       <r>     1.3964     0.3608     6.8764 </r>
       <r>     1.4573     0.1438     6.8851 </r>
       <r>     1.5182     0.0479     6.8880 </r>
       <r>     1.5791     0.0546     6.8914 </r>
       <r>     1.6400     0.1010     6.8975 </r>
       <r>     1.7009     0.1592     6.9072 </r>
       <r>     1.7619     0.2630     6.9232 </r>
       <r>     1.8228     0.4636     6.9515 </r>
       <r>     1.8837     0.7520     6.9973 </r>
       <r>     1.9446     1.0172     7.0592 </r>
       <r>     2.0055     1.1015     7.1263 </r>
       <r>     2.0664     0.9392     7.1835 </r>
       <r>     2.1273     0.6540     7.2234 </r>
       <r>     2.1882     0.4807     7.2526 </r>
       <r>     2.2491     0.5582     7.2866 </r>
       <r>     2.3100     0.8012     7.3354 </r>
       <r>     2.3709     0.9832     7.3953 </r>
       <r>     2.4319     0.9452     7.4529 </r>
       <r>     2.4928     0.7216     7.4969 </r>
       <r>     2.5537     0.4770     7.5259 </r>
       <r>     2.6146     0.3378     7.5465 </r>
       <r>     2.6755     0.2958     7.5645 </r>
       <r>     2.7364     0.2595     7.5803 </r>
       <r>     2.7973     0.1724     7.5908 </r>
       <r>     2.8582     0.0694     7.5950 </r>
       <r>     2.9191     0.0385     7.5974 </r>
       <r>     2.9800     0.1446     7.6062 </r>
       <r>     3.0409     0.3778     7.6292 </r>
       <r>     3.1019     0.6534     7.6690 </r>
       <r>     3.1628     0.8654     7.7217 </r>
       <r>     3.2237     0.9540     7.7798 </r>
       <r>     3.2846     0.9286     7.8364 </r>
       <r>     3.3455     0.8413     7.8876 </r>
       <r>     3.4064     0.7436     7.9329 </r>
       <r>     3.4673     0.6492     7.9724 </r>
       <r>     3.5282     0.5316     8.0048 </r>
       <r>     3.5891     0.3711     8.0274 </r>
       <r>     3.6500     0.2005     8.0396 </r>
       <r>     3.7109     0.0851     8.0448 </r>
       <r>     3.7719     0.0585     8.0484 </r>
       <r>     3.8328     0.0900     8.0539 </r>
       <r>     3.8937     0.1169     8.0610 </r>
       <r>     3.9546     0.1078     8.0676 </r>
       <r>     4.0155     0.0961     8.0734 </r>
       <r>     4.0764     0.1513     8.0826 </r>
       <r>     4.1373     0.3075     8.1013 </r>
       <r>     4.1982     0.5169     8.1328 </r>
       <r>     4.2591     0.6837     8.1745 </r>
       <r>     4.3200     0.7485     8.2201 </r>
       <r>     4.3809     0.7324     8.2647 </r>
       <r>     4.4419     0.6962     8.3071 </r>
       <r>     4.5028     0.6690     8.3478 </r>
       <r>     4.5637     0.6307     8.3862 </r>
       <r>     4.6246     0.5634     8.4206 </r>
       <r>     4.6855     0.5149     8.4519 </r>
       <r>     4.7464     0.5904     8.4879 </r>
       <r>     4.8073     0.8526     8.5398 </r>
       <r>     4.8682     1.2174     8.6140 </r>
       <r>     4.9291     1.4758     8.7039 </r>
       <r>     4.9900     1.4583     8.7927 </r>
       <r>     5.0509     1.1932     8.8654 </r>
       <r>     5.1119     0.8925     8.9197 </r>
       <r>     5.1728     0.7645     8.9663 </r>
       <r>     5.2337     0.8395     9.0174 </r>
       <r>     5.2946     0.9744     9.0768 </r>
       <r>     5.3555     1.0076     9.1381 </r>
       <r>     5.4164     0.8943     9.1926 </r>
       <r>     5.4773     0.7114     9.2359 </r>
       <r>     5.5382     0.5696     9.2706 </r>
       <r>     5.5991     0.5253     9.3026 </r>
       <r>     5.6600     0.5546     9.3364 </r>
       <r>     5.7210     0.6003     9.3730 </r>
       <r>     5.7819     0.6402     9.4120 </r>
       <r>     5.8428     0.6881     9.4539 </r>
       <r>     5.9037     0.7284     9.4983 </r>
       <r>     5.9646     0.6972     9.5407 </r>
       <r>     6.0255     0.5618     9.5749 </r>
       <r>     6.0864     0.3934     9.5989 </r>
       <r>     6.1473     0.3191     9.6183 </r>
       <r>     6.2082     0.4028     9.6429 </r>
       <r>     6.2691     0.5790     9.6781 </r>
       <r>     6.3300     0.6994     9.7207 </r>
       <r>     6.3910     0.6511     9.7604 </r>
       <r>     6.4519     0.4466     9.7876 </r>
       <r>     6.5128     0.2064     9.8002 </r>
       <r>     6.5737     0.0582     9.8037 </r>
       <r>     6.6346     0.0544     9.8070 </r>
       <r>     6.6955     0.1642     9.8170 </r>
       <r>     6.7564     0.3101     9.8359 </r>
       <r>     6.8173     0.4098     9.8609 </r>
       <r>     6.8782     0.4209     9.8865 </r>
       <r>     6.9391     0.3691     9.9090 </r>
       <r>     7.0000     0.3224     9.9286 </r>
       <r>     7.0610     0.3183     9.9480 </r>
       <r>     7.1219     0.3250     9.9678 </r>
       <r>     7.1828     0.2863     9.9853 </r>
       <r>     7.2437     0.1918     9.9969 </r>
       <r>     7.3046     0.0849    10.0021 </r>
       <r>     7.3655     0.0121    10.0029 </r>
       <r>     7.4264    -0.0159    10.0019 </r>
       <r>     7.4873    -0.0165    10.0009 </r>
       <r>     7.5482    -0.0092    10.0003 </r>
       <r>     7.6091    -0.0037    10.0001 </r>
       <r>     7.6700    -0.0011    10.0000 </r>
       <r>     7.7310    -0.0003    10.0000 </r>
       <r>     7.7919    -0.0001    10.0000 </r>
       <r>     7.8528    -0.0000    10.0000 </r>
       <r>     7.9137    -0.0000    10.0000 </r>
       <r>     7.9746    -0.0000    10.0000 </r>
       <r>     8.0355    -0.0000    10.0000 </r>
       <r>     8.0964    -0.0000    10.0000 </r>
       <r>     8.1573    -0.0000    10.0000 </r>
       <r>     8.2182    -0.0000    10.0000 </r>
       <r>     8.2791    -0.0000    10.0000 </r>
       <r>     8.3400    -0.0000    10.0000 </r>
       <r>     8.4010     0.0000    10.0000 </r>
       <r>     8.4619     0.0000    10.0000 </r>
       <r>     8.5228     0.0000    10.0000 </r>
       <r>     8.5837     0.0000    10.0000 </r>
       <r>     8.6446     0.0000    10.0000 </r>
       <r>     8.7055     0.0000    10.0000 </r>
       <r>     8.7664     0.0000    10.0000 </r>
       <r>     8.8273     0.0000    10.0000 </r>
       <r>     8.8882     0.0000    10.0000 </r>
       <r>     8.9491     0.0000    10.0000 </r>
       <r>     9.0100     0.0000    10.0000 </r>
       <r>     9.0710     0.0000    10.0000 </r>
       <r>     9.1319     0.0000    10.0000 </r>
       <r>     9.1928     0.0000    10.0000 </r>
       <r>     9.2537     0.0000    10.0000 </r>
       <r>     9.3146     0.0000    10.0000 </r>
       <r>     9.3755     0.0000    10.0000 </r>
       <r>     9.4364     0.0000    10.0000 </r>
      </set>
      <set comment="spin 2">
       <r>    -8.8363     0.0000     0.0000 </r>
       <r>    -8.7754     0.0000     0.0000 </r>
       <r>    -8.7145     0.0000     0.0000 </r>
       <r>    -8.6536     0.0000     0.0000 </r>
       <r>    -8.5927     0.0000     0.0000 </r>
       <r>    -8.5318     0.0000     0.0000 </r>
       <r>    -8.4709     0.0000     0.0000 </r>
       <r>    -8.4100     0.0000     0.0000 </r>
       <r>    -8.3491     0.0000     0.0000 </r>
       <r>    -8.2882     0.0000     0.0000 </r>
       <r>    -8.2272     0.0000     0.0000 </r>
       <r>    -8.1663     0.0000     0.0000 </r>
       <r>    -8.1054     0.0000     0.0000 </r>
       <r>    -8.0445     0.0000     0.0000 </r>
       <r>    -7.9836     0.0000     0.0000 </r>
       <r>    -7.9227     0.0000     0.0000 </r>
       <r>    -7.8618    -0.0000    -0.0000 </r>
       <r>    -7.8009    -0.0000    -0.0000 </r>
       <r>    -7.7400    -0.0000    -0.0000 </r>
       <r>    -7.6791    -0.0000    -0.0000 </r>
       <r>    -7.6182    -0.0000    -0.0000 </r>
       <r>    -7.5572    -0.0000    -0.0000 </r>
       <r>    -7.4963    -0.0000    -0.0000 </r>
       <r>    -7.4354    -0.0000    -0.0000 </r>
       <r>    -7.3745    -0.0000    -0.0000 </r>
       <r>    -7.3136    -0.0000    -0.0000 </r>
       <r>    -7.2527    -0.0000    -0.0000 </r>
       <r>    -7.1918    -0.0000    -0.0000 </r>
       <r>    -7.1309    -0.0000    -0.0000 </r>
       <r>    -7.0700    -0.0000    -0.0000 </r>
       <r>    -7.0091    -0.0000    -0.0000 </r>
       <r>    -6.9482    -0.0000    -0.0000 </r>
       <r>    -6.8872    -0.0000    -0.0000 </r>
       <r>    -6.8263    -0.0001    -0.0000 </r>
       <r>    -6.7654    -0.0005    -0.0000 </r>
       <r>    -6.7045    -0.0018    -0.0001 </r>
       <r>    -6.6436    -0.0044    -0.0004 </r>
       <r>    -6.5827    -0.0080    -0.0009 </r>
       <r>    -6.5218    -0.0078    -0.0014 </r>
       <r>    -6.4609     0.0062    -0.0010 </r>
       <r>    -6.4000     0.0435     0.0016 </r>
       <r>    -6.3391     0.0993     0.0077 </r>
       <r>    -6.2782     0.1468     0.0166 </r>
       <r>    -6.2172     0.1539     0.0260 </r>
       <r>    -6.1563     0.1151     0.0330 </r>
       <r>    -6.0954     0.0664     0.0371 </r>
       <r>    -6.0345     0.0624     0.0409 </r>
       <r>    -5.9736     0.1307     0.0488 </r>
       <r>    -5.9127     0.2404     0.0635 </r>
       <r>    -5.8518     0.3172     0.0828 </r>
       <r>    -5.7909     0.3033     0.1013 </r>
       <r>    -5.7300     0.2095     0.1140 </r>
       <r>    -5.6691     0.1054     0.1204 </r>
       <r>    -5.6082     0.0569     0.1239 </r>
       <r>    -5.5472     0.0760     0.1285 </r>
       <r>    -5.4863     0.1212     0.1359 </r>
       <r>    -5.4254     0.1405     0.1445 </r>
       <r>    -5.3645     0.1200     0.1518 </r>
       <r>    -5.3036     0.0974     0.1577 </r>
       <r>    -5.2427     0.1244     0.1653 </r>
       <r>    -5.1818     0.2087     0.1780 </r>
       <r>    -5.1209     0.2943     0.1959 </r>
       <r>    -5.0600     0.3090     0.2148 </r>
       <r>    -4.9991     0.2365     0.2292 </r>
       <r>    -4.9382     0.1384     0.2376 </r>
       <r>    -4.8772     0.1003     0.2437 </r>
       <r>    -4.8163     0.1561     0.2532 </r>
       <r>    -4.7554     0.2587     0.2690 </r>
       <r>    -4.6945     0.3204     0.2885 </r>
       <r>    -4.6336     0.2873     0.3060 </r>
       <r>    -4.5727     0.1792     0.3169 </r>
       <r>    -4.5118     0.0612     0.3206 </r>
       <r>    -4.4509    -0.0123     0.3199 </r>
       <r>    -4.3900    -0.0185     0.3187 </r>
       <r>    -4.3291     0.0444     0.3214 </r>
       <r>    -4.2682     0.1614     0.3313 </r>
       <r>    -4.2072     0.2908     0.3490 </r>
       <r>    -4.1463     0.3748     0.3718 </r>
       <r>    -4.0854     0.3809     0.3950 </r>
       <r>    -4.0245     0.3309     0.4152 </r>
       <r>    -3.9636     0.2824     0.4324 </r>
       <r>    -3.9027     0.2771     0.4493 </r>
       <r>    -3.8418     0.3058     0.4679 </r>
       <r>    -3.7809     0.3255     0.4877 </r>
       <r>    -3.7200     0.3140     0.5068 </r>
       <r>    -3.6591     0.2938     0.5247 </r>
       <r>    -3.5982     0.2896     0.5424 </r>
       <r>    -3.5372     0.2862     0.5598 </r>
       <r>    -3.4763     0.2605     0.5757 </r>
       <r>    -3.4154     0.2454     0.5906 </r>
       <r>    -3.3545     0.3237     0.6103 </r>
       <r>    -3.2936     0.5450     0.6435 </r>
       <r>    -3.2327     0.8636     0.6961 </r>
       <r>    -3.1718     1.1663     0.7672 </r>
       <r>    -3.1109     1.3579     0.8499 </r>
       <r>    -3.0500     1.4344     0.9373 </r>
       <r>    -2.9891     1.4847     1.0277 </r>
       <r>    -2.9282     1.6115     1.1258 </r>
       <r>    -2.8672     1.8296     1.2373 </r>
       <r>    -2.8063     2.0499     1.3621 </r>
       <r>    -2.7454     2.1826     1.4951 </r>
       <r>    -2.6845     2.2535     1.6323 </r>
       <r>    -2.6236     2.3748     1.7770 </r>
       <r>    -2.5627     2.5862     1.9345 </r>
       <r>    -2.5018     2.7698     2.1032 </r>
       <r>    -2.4409     2.7739     2.2722 </r>
       <r>    -2.3800     2.5834     2.4295 </r>
       <r>    -2.3191     2.3136     2.5704 </r>
       <r>    -2.2582     2.0709     2.6966 </r>
       <r>    -2.1972     1.8846     2.8114 </r>
       <r>    -2.1363     1.7460     2.9177 </r>
       <r>    -2.0754     1.6532     3.0184 </r>
       <r>    -2.0145     1.6238     3.1173 </r>
       <r>    -1.9536     1.6935     3.2205 </r>
       <r>    -1.8927     1.8838     3.3352 </r>
       <r>    -1.8318     2.1616     3.4669 </r>
       <r>    -1.7709     2.4662     3.6171 </r>
       <r>    -1.7100     2.7784     3.7863 </r>
       <r>    -1.6491     3.1003     3.9752 </r>
       <r>    -1.5881     3.3558     4.1796 </r>
       <r>    -1.5272     3.4046     4.3869 </r>
       <r>    -1.4663     3.2135     4.5827 </r>
       <r>    -1.4054     2.9444     4.7620 </r>
       <r>    -1.3445     2.7889     4.9319 </r>
       <r>    -1.2836     2.7371     5.0986 </r>
       <r>    -1.2227     2.5875     5.2562 </r>
       <r>    -1.1618     2.1906     5.3896 </r>
       <r>    -1.1009     1.6219     5.4884 </r>
       <r>    -1.0400     1.0956     5.5551 </r>
       <r>    -0.9791     0.7599     5.6014 </r>
       <r>    -0.9181     0.6123     5.6387 </r>
       <r>    -0.8572     0.5760     5.6738 </r>
       <r>    -0.7963     0.5996     5.7103 </r>
       <r>    -0.7354     0.6631     5.7507 </r>
       <r>    -0.6745     0.7285     5.7951 </r>
       <r>    -0.6136     0.7315     5.8396 </r>
       <r>    -0.5527     0.6290     5.8779 </r>
       <r>    -0.4918     0.4383     5.9046 </r>
       <r>    -0.4309     0.2242     5.9183 </r>
       <r>    -0.3700     0.0551     5.9217 </r>
       <r>    -0.3091    -0.0262     5.9201 </r>
       <r>    -0.2481    -0.0023     5.9199 </r>
       <r>    -0.1872     0.1223     5.9274 </r>
       <r>    -0.1263     0.3038     5.9459 </r>
       <r>    -0.0654     0.4507     5.9733 </r>
       <r>    -0.0045     0.4747     6.0022 </r>
       <r>     0.0564     0.3723     6.0249 </r>
       <r>     0.1173     0.2395     6.0395 </r>
       <r>     0.1782     0.1845     6.0507 </r>
       <r>     0.2391     0.2268     6.0646 </r>
       <r>     0.3000     0.2887     6.0821 </r>
       <r>     0.3609     0.2809     6.0992 </r>
       <r>     0.4219     0.1899     6.1108 </r>
       <r>     0.4828     0.0885     6.1162 </r>
       <r>     0.5437     0.0747     6.1208 </r>
       <r>     0.6046     0.1964     6.1327 </r>
       <r>     0.6655     0.4084     6.1576 </r>
       <r>     0.7264     0.5884     6.1934 </r>
       <r>     0.7873     0.6197     6.2312 </r>
       <r>     0.8482     0.4850     6.2607 </r>
       <r>     0.9091     0.2793     6.2777 </r>
       <r>     0.9700     0.1227     6.2852 </r>
       <r>     1.0309     0.0655     6.2892 </r>
       <r>     1.0919     0.0808     6.2941 </r>
       <r>     1.1528     0.1322     6.3022 </r>
       <r>     1.2137     0.2324     6.3163 </r>
       <r>     1.2746     0.4227     6.3421 </r>
       <r>     1.3355     0.7006     6.3847 </r>
       <r>     1.3964     0.9794     6.4444 </r>
       <r>     1.4573     1.1307     6.5133 </r>
       <r>     1.5182     1.0763     6.5788 </r>
       <r>     1.5791     0.8540     6.6308 </r>
       <r>     1.6400     0.6025     6.6675 </r>
       <r>     1.7009     0.4720     6.6963 </r>
       <r>     1.7619     0.5189     6.7279 </r>
       <r>     1.8228     0.6683     6.7686 </r>
       <r>     1.8837     0.7802     6.8161 </r>
       <r>     1.9446     0.7641     6.8627 </r>
       <r>     2.0055     0.6409     6.9017 </r>
       <r>     2.0664     0.4973     6.9320 </r>
       <r>     2.1273     0.3884     6.9556 </r>
       <r>     2.1882     0.2981     6.9738 </r>
       <r>     2.2491     0.1981     6.9859 </r>
       <r>     2.3100     0.1205     6.9932 </r>
       <r>     2.3709     0.1479     7.0022 </r>
       <r>     2.4319     0.3316     7.0224 </r>
       <r>     2.4928     0.6320     7.0609 </r>
       <r>     2.5537     0.9377     7.1180 </r>
       <r>     2.6146     1.1279     7.1867 </r>
       <r>     2.6755     1.1221     7.2551 </r>
       <r>     2.7364     0.9086     7.3104 </r>
       <r>     2.7973     0.5648     7.3448 </r>
       <r>     2.8582     0.2371     7.3592 </r>
       <r>     2.9191     0.0675     7.3634 </r>
       <r>     2.9800     0.1164     7.3704 </r>
       <r>     3.0409     0.3332     7.3907 </r>
       <r>     3.1019     0.5843     7.4263 </r>
       <r>     3.1628     0.7346     7.4711 </r>
       <r>     3.2237     0.7404     7.5162 </r>
       <r>     3.2846     0.6698     7.5570 </r>
       <r>     3.3455     0.6161     7.5945 </r>
       <r>     3.4064     0.6004     7.6311 </r>
       <r>     3.4673     0.5746     7.6661 </r>
       <r>     3.5282     0.5080     7.6970 </r>
       <r>     3.5891     0.4333     7.7234 </r>
       <r>     3.6500     0.3968     7.7476 </r>
       <r>     3.7109     0.3930     7.7715 </r>
       <r>     3.7719     0.3829     7.7948 </r>
       <r>     3.8328     0.3686     7.8173 </r>
       <r>     3.8937     0.4131     7.8424 </r>
       <r>     3.9546     0.5620     7.8767 </r>
       <r>     4.0155     0.7586     7.9229 </r>
       <r>     4.0764     0.8705     7.9759 </r>
       <r>     4.1373     0.8177     8.0257 </r>
       <r>     4.1982     0.6621     8.0660 </r>
       <r>     4.2591     0.5443     8.0992 </r>
       <r>     4.3200     0.5339     8.1317 </r>
       <r>     4.3809     0.5672     8.1663 </r>
       <r>     4.4419     0.5388     8.1991 </r>
       <r>     4.5028     0.4294     8.2252 </r>
       <r>     4.5637     0.3199     8.2447 </r>
       <r>     4.6246     0.2905     8.2624 </r>
       <r>     4.6855     0.3375     8.2830 </r>
       <r>     4.7464     0.3947     8.3070 </r>
       <r>     4.8073     0.4096     8.3320 </r>
       <r>     4.8682     0.3854     8.3554 </r>
       <r>     4.9291     0.3750     8.3783 </r>
       <r>     4.9900     0.4561     8.4061 </r>
       <r>     5.0509     0.6877     8.4479 </r>
       <r>     5.1119     1.0383     8.5112 </r>
       <r>     5.1728     1.3461     8.5932 </r>
       <r>     5.2337     1.4103     8.6791 </r>
       <r>     5.2946     1.1757     8.7507 </r>
       <r>     5.3555     0.8159     8.8004 </r>
       <r>     5.4164     0.5950     8.8366 </r>
       <r>     5.4773     0.6427     8.8758 </r>
       <r>     5.5382     0.8694     8.9287 </r>
       <r>     5.5991     1.0710     8.9940 </r>
       <r>     5.6600     1.0954     9.0607 </r>
       <r>     5.7210     0.9298     9.1173 </r>
       <r>     5.7819     0.6677     9.1580 </r>
       <r>     5.8428     0.4248     9.1839 </r>
       <r>     5.9037     0.2849     9.2012 </r>
       <r>     5.9646     0.2909     9.2189 </r>
       <r>     6.0255     0.4470     9.2462 </r>
       <r>     6.0864     0.7087     9.2893 </r>
       <r>     6.1473     0.9678     9.3483 </r>
       <r>     6.2082     1.0806     9.4141 </r>
       <r>     6.2691     0.9655     9.4729 </r>
       <r>     6.3300     0.6859     9.5147 </r>
       <r>     6.3910     0.4089     9.5396 </r>
       <r>     6.4519     0.2739     9.5563 </r>
       <r>     6.5128     0.3052     9.5749 </r>
       <r>     6.5737     0.4286     9.6010 </r>
       <r>     6.6346     0.5463     9.6342 </r>
       <r>     6.6955     0.6042     9.6710 </r>
       <r>     6.7564     0.6020     9.7077 </r>
       <r>     6.8173     0.5505     9.7412 </r>
       <r>     6.8782     0.4460     9.7684 </r>
       <r>     6.9391     0.3039     9.7869 </r>
       <r>     7.0000     0.1909     9.7985 </r>
       <r>     7.0610     0.1836     9.8097 </r>
       <r>     7.1219     0.2882     9.8273 </r>
       <r>     7.1828     0.4222     9.8530 </r>
       <r>     7.2437     0.4908     9.8829 </r>
       <r>     7.3046     0.4747     9.9118 </r>
       <r>     7.3655     0.4243     9.9376 </r>
       <r>     7.4264     0.3776     9.9606 </r>
       <r>     7.4873     0.3197     9.9801 </r>
       <r>     7.5482     0.2275     9.9940 </r>
       <r>     7.6091     0.1178    10.0011 </r>
       <r>     7.6700     0.0312    10.0030 </r>
       <r>     7.7310    -0.0110    10.0024 </r>
       <r>     7.7919    -0.0186    10.0012 </r>
       <r>     7.8528    -0.0123    10.0005 </r>
       <r>     7.9137    -0.0055    10.0002 </r>
       <r>     7.9746    -0.0019    10.0000 </r>
       <r>     8.0355    -0.0005    10.0000 </r>
       <r>     8.0964    -0.0001    10.0000 </r>
       <r>     8.1573    -0.0000    10.0000 </r>
       <r>     8.2182    -0.0000    10.0000 </r>
       <r>     8.2791    -0.0000    10.0000 </r>
       <r>     8.3400    -0.0000    10.0000 </r>
       <r>     8.4010    -0.0000    10.0000 </r>
       <r>     8.4619    -0.0000    10.0000 </r>
       <r>     8.5228    -0.0000    10.0000 </r>
       <r>     8.5837    -0.0000    10.0000 </r>
       <r>     8.6446    -0.0000    10.0000 </r>
       <r>     8.7055    -0.0000    10.0000 </r>
       <r>     8.7664     0.0000    10.0000 </r>
       <r>     8.8273     0.0000    10.0000 </r>
       <r>     8.8882     0.0000    10.0000 </r>
       <r>     8.9491     0.0000    10.0000 </r>
       <r>     9.0100     0.0000    10.0000 </r>
       <r>     9.0710     0.0000    10.0000 </r>
       <r>     9.1319     0.0000    10.0000 </r>
       <r>     9.1928     0.0000    10.0000 </r>
       <r>     9.2537     0.0000    10.0000 </r>
       <r>     9.3146     0.0000    10.0000 </r>
       <r>     9.3755     0.0000    10.0000 </r>
       <r>     9.4364     0.0000    10.0000 </r>
      </set>
     </set>
    </array>
   </total>
   <partial>
    <array>
     <dimension dim="1">gridpoints</dimension>
     <dimension dim="2">spin</dimension>
     <dimension dim="3">ion</dimension>
     <field>energy</field>
     <field>  s  </field>
     <field>  p  </field>
     <field>  d  </field>
     <set>
      <set comment="ion 1">
       <set comment="spin 1">
        <r>    -8.8363     0.0000     0.0000     0.0000 </r>
        <r>    -8.7754     0.0000     0.0000     0.0000 </r>
        <r>    -8.7145     0.0000     0.0000     0.0000 </r>
        <r>    -8.6536     0.0000     0.0000     0.0000 </r>
        <r>    -8.5927     0.0000     0.0000     0.0000 </r>
        <r>    -8.5318     0.0000     0.0000     0.0000 </r>
        <r>    -8.4709    -0.0000    -0.0000    -0.0000 </r>
        <r>    -8.4100    -0.0000    -0.0000    -0.0000 </r>
        <r>    -8.3491    -0.0000    -0.0000    -0.0000 </r>
        <r>    -8.2882    -0.0000    -0.0000    -0.0000 </r>
        <r>    -8.2272    -0.0000    -0.0000    -0.0000 </r>
        <r>    -8.1663    -0.0000    -0.0000    -0.0000 </r>
        <r>    -8.1054    -0.0000    -0.0000    -0.0000 </r>
        <r>    -8.0445    -0.0000    -0.0000    -0.0000 </r>
        <r>    -7.9836    -0.0000    -0.0000    -0.0000 </r>
        <r>    -7.9227    -0.0000    -0.0000    -0.0000 </r>
        <r>    -7.8618    -0.0000    -0.0000    -0.0000 </r>
        <r>    -7.8009    -0.0000    -0.0000    -0.0000 </r>
        <r>    -7.7400    -0.0000    -0.0000    -0.0000 </r>
        <r>    -7.6791    -0.0000    -0.0000    -0.0000 </r>
        <r>    -7.6182    -0.0000    -0.0000    -0.0000 </r>
        <r>    -7.5572    -0.0000    -0.0000    -0.0000 </r>
        <r>    -7.4963    -0.0000    -0.0000    -0.0000 </r>
        <r>    -7.4354    -0.0000    -0.0000    -0.0000 </r>
        <r>    -7.3745    -0.0001    -0.0000    -0.0001 </r>
        <r>    -7.3136    -0.0002    -0.0000    -0.0002 </r>
        <r>    -7.2527    -0.0007    -0.0000    -0.0006 </r>
        <r>    -7.1918    -0.0016    -0.0000    -0.0013 </r>
        <r>    -7.1309    -0.0023    -0.0000    -0.0019 </r>
        <r>    -7.0700    -0.0011    -0.0000    -0.0009 </r>
        <r>    -7.0091     0.0051     0.0001     0.0040 </r>
        <r>    -6.9482     0.0174     0.0002     0.0137 </r>
        <r>    -6.8872     0.0319     0.0003     0.0248 </r>
        <r>    -6.8263     0.0402     0.0003     0.0308 </r>
        <r>    -6.7654     0.0371     0.0003     0.0278 </r>
        <r>    -6.7045     0.0277     0.0003     0.0218 </r>
        <r>    -6.6436     0.0251     0.0008     0.0253 </r>
        <r>    -6.5827     0.0376     0.0020     0.0455 </r>
        <r>    -6.5218     0.0588     0.0034     0.0734 </r>
        <r>    -6.4609     0.0718     0.0041     0.0886 </r>
        <r>    -6.4000     0.0651     0.0036     0.0783 </r>
        <r>    -6.3391     0.0439     0.0025     0.0512 </r>
        <r>    -6.2782     0.0247     0.0019     0.0306 </r>
        <r>    -6.2172     0.0196     0.0024     0.0359 </r>
        <r>    -6.1563     0.0281     0.0038     0.0693 </r>
        <r>    -6.0954     0.0415     0.0053     0.1163 </r>
        <r>    -6.0345     0.0505     0.0061     0.1527 </r>
        <r>    -5.9736     0.0506     0.0059     0.1637 </r>
        <r>    -5.9127     0.0432     0.0053     0.1704 </r>
        <r>    -5.8518     0.0348     0.0051     0.2323 </r>
        <r>    -5.7909     0.0316     0.0060     0.3982 </r>
        <r>    -5.7300     0.0335     0.0077     0.6491 </r>
        <r>    -5.6691     0.0350     0.0089     0.9142 </r>
        <r>    -5.6082     0.0320     0.0094     1.1591 </r>
        <r>    -5.5472     0.0270     0.0098     1.4410 </r>
        <r>    -5.4863     0.0264     0.0107     1.8635 </r>
        <r>    -5.4254     0.0337     0.0122     2.4773 </r>
        <r>    -5.3645     0.0474     0.0135     3.2236 </r>
        <r>    -5.3036     0.0630     0.0140     3.9505 </r>
        <r>    -5.2427     0.0771     0.0136     4.4747 </r>
        <r>    -5.1818     0.0885     0.0130     4.6614 </r>
        <r>    -5.1209     0.0981     0.0133     4.4945 </r>
        <r>    -5.0600     0.1061     0.0155     4.0883 </r>
        <r>    -4.9991     0.1111     0.0198     3.6255 </r>
        <r>    -4.9382     0.1106     0.0250     3.2626 </r>
        <r>    -4.8772     0.1021     0.0287     3.0719 </r>
        <r>    -4.8163     0.0846     0.0283     3.0456 </r>
        <r>    -4.7554     0.0601     0.0233     3.1303 </r>
        <r>    -4.6945     0.0342     0.0160     3.2420 </r>
        <r>    -4.6336     0.0142     0.0097     3.2720 </r>
        <r>    -4.5727     0.0058     0.0067     3.1285 </r>
        <r>    -4.5118     0.0107     0.0071     2.7993 </r>
        <r>    -4.4509     0.0256     0.0095     2.3618 </r>
        <r>    -4.3900     0.0424     0.0117     1.9128 </r>
        <r>    -4.3291     0.0514     0.0119     1.4924 </r>
        <r>    -4.2682     0.0468     0.0098     1.0913 </r>
        <r>    -4.2072     0.0309     0.0064     0.7163 </r>
        <r>    -4.1463     0.0122     0.0031     0.4152 </r>
        <r>    -4.0854    -0.0006     0.0012     0.2376 </r>
        <r>    -4.0245    -0.0023     0.0016     0.1925 </r>
        <r>    -3.9636     0.0092     0.0055     0.2431 </r>
        <r>    -3.9027     0.0326     0.0139     0.3231 </r>
        <r>    -3.8418     0.0604     0.0251     0.3655 </r>
        <r>    -3.7809     0.0794     0.0342     0.3423 </r>
        <r>    -3.7200     0.0784     0.0356     0.2794 </r>
        <r>    -3.6591     0.0581     0.0282     0.2227 </r>
        <r>    -3.5982     0.0322     0.0169     0.1910 </r>
        <r>    -3.5372     0.0177     0.0097     0.1708 </r>
        <r>    -3.4763     0.0228     0.0110     0.1463 </r>
        <r>    -3.4154     0.0409     0.0184     0.1179 </r>
        <r>    -3.3545     0.0560     0.0249     0.0916 </r>
        <r>    -3.2936     0.0554     0.0246     0.0668 </r>
        <r>    -3.2327     0.0394     0.0174     0.0410 </r>
        <r>    -3.1718     0.0184     0.0081     0.0172 </r>
        <r>    -3.1109     0.0026     0.0011     0.0012 </r>
        <r>    -3.0500    -0.0051    -0.0023    -0.0057 </r>
        <r>    -2.9891    -0.0069    -0.0030    -0.0064 </r>
        <r>    -2.9282    -0.0034    -0.0015    -0.0033 </r>
        <r>    -2.8672     0.0083     0.0036     0.0043 </r>
        <r>    -2.8063     0.0299     0.0131     0.0173 </r>
        <r>    -2.7454     0.0552     0.0242     0.0323 </r>
        <r>    -2.6845     0.0709     0.0309     0.0415 </r>
        <r>    -2.6236     0.0665     0.0286     0.0388 </r>
        <r>    -2.5627     0.0448     0.0183     0.0258 </r>
        <r>    -2.5018     0.0192     0.0063     0.0105 </r>
        <r>    -2.4409     0.0027    -0.0001     0.0011 </r>
        <r>    -2.3800     0.0003     0.0042     0.0015 </r>
        <r>    -2.3191     0.0094     0.0193     0.0107 </r>
        <r>    -2.2582     0.0229     0.0394     0.0234 </r>
        <r>    -2.1972     0.0321     0.0531     0.0320 </r>
        <r>    -2.1363     0.0312     0.0510     0.0308 </r>
        <r>    -2.0754     0.0209     0.0345     0.0207 </r>
        <r>    -2.0145     0.0089     0.0148     0.0091 </r>
        <r>    -1.9536     0.0040     0.0055     0.0048 </r>
        <r>    -1.8927     0.0108     0.0138     0.0121 </r>
        <r>    -1.8318     0.0274     0.0369     0.0277 </r>
        <r>    -1.7709     0.0464     0.0632     0.0428 </r>
        <r>    -1.7100     0.0594     0.0786     0.0484 </r>
        <r>    -1.6491     0.0611     0.0753     0.0418 </r>
        <r>    -1.5881     0.0518     0.0560     0.0278 </r>
        <r>    -1.5272     0.0353     0.0310     0.0135 </r>
        <r>    -1.4663     0.0176     0.0111     0.0037 </r>
        <r>    -1.4054     0.0037     0.0032    -0.0004 </r>
        <r>    -1.3445    -0.0037     0.0089     0.0007 </r>
        <r>    -1.2836    -0.0037     0.0249     0.0063 </r>
        <r>    -1.2227     0.0050     0.0442     0.0154 </r>
        <r>    -1.1618     0.0222     0.0595     0.0265 </r>
        <r>    -1.1009     0.0424     0.0659     0.0363 </r>
        <r>    -1.0400     0.0551     0.0616     0.0401 </r>
        <r>    -0.9791     0.0523     0.0486     0.0352 </r>
        <r>    -0.9181     0.0361     0.0330     0.0246 </r>
        <r>    -0.8572     0.0166     0.0219     0.0143 </r>
        <r>    -0.7963     0.0030     0.0178     0.0085 </r>
        <r>    -0.7354    -0.0024     0.0166     0.0064 </r>
        <r>    -0.6745    -0.0028     0.0135     0.0049 </r>
        <r>    -0.6136    -0.0017     0.0084     0.0031 </r>
        <r>    -0.5527    -0.0009     0.0067     0.0025 </r>
        <r>    -0.4918    -0.0011     0.0129     0.0049 </r>
        <r>    -0.4309    -0.0023     0.0249     0.0095 </r>
        <r>    -0.3700    -0.0043     0.0348     0.0128 </r>
        <r>    -0.3091    -0.0049     0.0360     0.0122 </r>
        <r>    -0.2481     0.0006     0.0316     0.0095 </r>
        <r>    -0.1872     0.0183     0.0335     0.0111 </r>
        <r>    -0.1263     0.0496     0.0508     0.0241 </r>
        <r>    -0.0654     0.0857     0.0793     0.0482 </r>
        <r>    -0.0045     0.1094     0.1030     0.0732 </r>
        <r>     0.0564     0.1075     0.1069     0.0844 </r>
        <r>     0.1173     0.0830     0.0888     0.0758 </r>
        <r>     0.1782     0.0548     0.0615     0.0565 </r>
        <r>     0.2391     0.0418     0.0414     0.0425 </r>
        <r>     0.3000     0.0465     0.0351     0.0406 </r>
        <r>     0.3609     0.0551     0.0354     0.0435 </r>
        <r>     0.4219     0.0524     0.0314     0.0398 </r>
        <r>     0.4828     0.0363     0.0201     0.0269 </r>
        <r>     0.5437     0.0160     0.0083     0.0116 </r>
        <r>     0.6046     0.0013     0.0052     0.0023 </r>
        <r>     0.6655    -0.0050     0.0149     0.0021 </r>
        <r>     0.7264    -0.0047     0.0340     0.0090 </r>
        <r>     0.7873     0.0013     0.0551     0.0198 </r>
        <r>     0.8482     0.0135     0.0718     0.0318 </r>
        <r>     0.9091     0.0295     0.0808     0.0420 </r>
        <r>     0.9700     0.0426     0.0821     0.0470 </r>
        <r>     1.0309     0.0462     0.0790     0.0450 </r>
        <r>     1.0919     0.0402     0.0779     0.0383 </r>
        <r>     1.1528     0.0314     0.0827     0.0314 </r>
        <r>     1.2137     0.0252     0.0872     0.0264 </r>
        <r>     1.2746     0.0212     0.0802     0.0214 </r>
        <r>     1.3355     0.0161     0.0578     0.0147 </r>
        <r>     1.3964     0.0093     0.0288     0.0073 </r>
        <r>     1.4573     0.0031     0.0054     0.0016 </r>
        <r>     1.5182    -0.0003    -0.0071    -0.0011 </r>
        <r>     1.5791    -0.0006    -0.0103    -0.0012 </r>
        <r>     1.6400     0.0016    -0.0049     0.0005 </r>
        <r>     1.7009     0.0067     0.0125     0.0045 </r>
        <r>     1.7619     0.0141     0.0447     0.0117 </r>
        <r>     1.8228     0.0214     0.0870     0.0213 </r>
        <r>     1.8837     0.0246     0.1257     0.0305 </r>
        <r>     1.9446     0.0214     0.1448     0.0356 </r>
        <r>     2.0055     0.0135     0.1354     0.0340 </r>
        <r>     2.0664     0.0061     0.1040     0.0269 </r>
        <r>     2.1273     0.0047     0.0726     0.0200 </r>
        <r>     2.1882     0.0120     0.0653     0.0200 </r>
        <r>     2.2491     0.0255     0.0884     0.0290 </r>
        <r>     2.3100     0.0371     0.1231     0.0404 </r>
        <r>     2.3709     0.0391     0.1408     0.0446 </r>
        <r>     2.4319     0.0307     0.1280     0.0383 </r>
        <r>     2.4928     0.0201     0.0960     0.0280 </r>
        <r>     2.5537     0.0168     0.0677     0.0232 </r>
        <r>     2.6146     0.0226     0.0563     0.0271 </r>
        <r>     2.6755     0.0303     0.0561     0.0335 </r>
        <r>     2.7364     0.0313     0.0525     0.0336 </r>
        <r>     2.7973     0.0234     0.0378     0.0248 </r>
        <r>     2.8582     0.0117     0.0173     0.0121 </r>
        <r>     2.9191     0.0032     0.0015     0.0025 </r>
        <r>     2.9800     0.0012    -0.0031    -0.0001 </r>
        <r>     3.0409     0.0046     0.0057     0.0038 </r>
        <r>     3.1019     0.0105     0.0285     0.0128 </r>
        <r>     3.1628     0.0168     0.0639     0.0251 </r>
        <r>     3.2237     0.0225     0.1037     0.0381 </r>
        <r>     3.2846     0.0267     0.1323     0.0474 </r>
        <r>     3.3455     0.0277     0.1371     0.0487 </r>
        <r>     3.4064     0.0249     0.1200     0.0417 </r>
        <r>     3.4673     0.0190     0.0934     0.0305 </r>
        <r>     3.5282     0.0124     0.0676     0.0198 </r>
        <r>     3.5891     0.0066     0.0447     0.0115 </r>
        <r>     3.6500     0.0025     0.0245     0.0054 </r>
        <r>     3.7109     0.0002     0.0100     0.0014 </r>
        <r>     3.7719    -0.0007     0.0041    -0.0005 </r>
        <r>     3.8328    -0.0008     0.0049    -0.0010 </r>
        <r>     3.8937    -0.0007     0.0072    -0.0008 </r>
        <r>     3.9546    -0.0004     0.0067    -0.0005 </r>
        <r>     4.0155     0.0003     0.0038    -0.0003 </r>
        <r>     4.0764     0.0016     0.0022     0.0000 </r>
        <r>     4.1373     0.0033     0.0060     0.0008 </r>
        <r>     4.1982     0.0045     0.0175     0.0024 </r>
        <r>     4.2591     0.0046     0.0355     0.0053 </r>
        <r>     4.3200     0.0040     0.0547     0.0097 </r>
        <r>     4.3809     0.0038     0.0668     0.0144 </r>
        <r>     4.4419     0.0046     0.0654     0.0173 </r>
        <r>     4.5028     0.0055     0.0510     0.0162 </r>
        <r>     4.5637     0.0059     0.0314     0.0114 </r>
        <r>     4.6246     0.0086     0.0159     0.0066 </r>
        <r>     4.6855     0.0191     0.0101     0.0076 </r>
        <r>     4.7464     0.0401     0.0163     0.0196 </r>
        <r>     4.8073     0.0654     0.0355     0.0419 </r>
        <r>     4.8682     0.0812     0.0636     0.0657 </r>
        <r>     4.9291     0.0773     0.0883     0.0777 </r>
        <r>     4.9900     0.0564     0.0950     0.0708 </r>
        <r>     5.0509     0.0311     0.0798     0.0515 </r>
        <r>     5.1119     0.0135     0.0565     0.0361 </r>
        <r>     5.1728     0.0077     0.0456     0.0360 </r>
        <r>     5.2337     0.0101     0.0566     0.0490 </r>
        <r>     5.2946     0.0141     0.0812     0.0617 </r>
[...]
       </set>
       <set comment="band 7">
        <r>  0.1830  0.1224  0.1437 </r>
       </set>
       <set comment="band 8">
        <r>  0.0000  0.1664  0.0251 </r>
       </set>
       <set comment="band 9">
        <r>  0.0129  0.0070  0.0050 </r>
       </set>
       <set comment="band 10">
        <r>  0.0000  0.0257  0.0780 </r>
       </set>
      </set>
      <set comment="kpoint 10">
       <set comment="band 1">
        <r>  0.0108  0.0147  0.8589 </r>
       </set>
       <set comment="band 2">
        <r>  0.0404  0.0117  0.7610 </r>
       </set>
       <set comment="band 3">
        <r>  0.0000  0.0041  0.8956 </r>
       </set>
       <set comment="band 4">
        <r>  0.0000  0.0000  0.9379 </r>
       </set>
       <set comment="band 5">
        <r>  0.0000  0.0141  0.9020 </r>
       </set>
       <set comment="band 6">
        <r>  0.2207  0.0487  0.2428 </r>
       </set>
       <set comment="band 7">
        <r>  0.0000  0.1222  0.0611 </r>
       </set>
       <set comment="band 8">
        <r>  0.0110  0.0058  0.0082 </r>
       </set>
       <set comment="band 9">
        <r>  0.0000  0.2975  0.1073 </r>
       </set>
       <set comment="band 10">
        <r>  0.0000  0.0782  0.0088 </r>
       </set>
      </set>
      <set comment="kpoint 11">
       <set comment="band 1">
        <r>  0.0013  0.0102  0.8896 </r>
       </set>
       <set comment="band 2">
        <r>  0.0000  0.0017  0.8986 </r>
       </set>
       <set comment="band 3">
        <r>  0.0109  0.0041  0.8685 </r>
       </set>
       <set comment="band 4">
        <r>  0.0000  0.0009  0.9321 </r>
       </set>
       <set comment="band 5">
        <r>  0.0158  0.0142  0.8741 </r>
       </set>
       <set comment="band 6">
        <r>  0.2159  0.0946  0.1266 </r>
       </set>
       <set comment="band 7">
        <r>  0.0000  0.1289  0.0545 </r>
       </set>
       <set comment="band 8">
        <r>  0.0706  0.2265  0.1009 </r>
       </set>
       <set comment="band 9">
        <r>  0.0157  0.0070  0.0060 </r>
       </set>
       <set comment="band 10">
        <r>  0.0001  0.1074  0.0066 </r>
       </set>
      </set>
      <set comment="kpoint 12">
       <set comment="band 1">
        <r>  0.0002  0.0078  0.8685 </r>
       </set>
       <set comment="band 2">
        <r>  0.0000  0.0002  0.8976 </r>
       </set>
       <set comment="band 3">
        <r>  0.0025  0.0016  0.9279 </r>
       </set>
       <set comment="band 4">
        <r>  0.0000  0.0012  0.9333 </r>
       </set>
       <set comment="band 5">
        <r>  0.0314  0.0134  0.8456 </r>
       </set>
       <set comment="band 6">
        <r>  0.1679  0.1427  0.1092 </r>
       </set>
       <set comment="band 7">
        <r>  0.1334  0.1769  0.1057 </r>
       </set>
       <set comment="band 8">
        <r>  0.0000  0.1631  0.0348 </r>
       </set>
       <set comment="band 9">
        <r>  0.0088  0.0116  0.0050 </r>
       </set>
       <set comment="band 10">
        <r>  0.0000  0.0286  0.0708 </r>
       </set>
      </set>
      <set comment="kpoint 13">
       <set comment="band 1">
        <r>  0.0018  0.0078  0.8457 </r>
       </set>
       <set comment="band 2">
        <r>  0.0063  0.0003  0.9309 </r>
       </set>
       <set comment="band 3">
        <r>  0.0000  0.0017  0.9041 </r>
       </set>
       <set comment="band 4">
        <r>  0.0000  0.0000  0.9242 </r>
       </set>
       <set comment="band 5">
        <r>  0.0000  0.0143  0.9256 </r>
       </set>
       <set comment="band 6">
        <r>  0.2100  0.1307  0.0612 </r>
       </set>
       <set comment="band 7">
        <r>  0.0000  0.1337  0.0512 </r>
       </set>
       <set comment="band 8">
        <r>  0.0000  0.3226  0.0703 </r>
       </set>
       <set comment="band 9">
        <r>  0.0003  0.0269  0.0177 </r>
       </set>
       <set comment="band 10">
        <r>  0.2160  0.0506  0.0985 </r>
       </set>
      </set>
      <set comment="kpoint 14">
       <set comment="band 1">
        <r>  0.0002  0.0039  0.8506 </r>
       </set>
       <set comment="band 2">
        <r>  0.0000  0.0002  0.9076 </r>
       </set>
       <set comment="band 3">
        <r>  0.0069  0.0005  0.9340 </r>
       </set>
       <set comment="band 4">
        <r>  0.0000  0.0006  0.9211 </r>
       </set>
       <set comment="band 5">
        <r>  0.0053  0.0112  0.9293 </r>
       </set>
       <set comment="band 6">
        <r>  0.1697  0.1749  0.0570 </r>
       </set>
       <set comment="band 7">
        <r>  0.0696  0.2556  0.0618 </r>
       </set>
       <set comment="band 8">
        <r>  0.0000  0.1688  0.0361 </r>
       </set>
       <set comment="band 9">
        <r>  0.1389  0.1555  0.0815 </r>
       </set>
       <set comment="band 10">
        <r>  0.0354  0.0210  0.0194 </r>
       </set>
      </set>
      <set comment="kpoint 15">
       <set comment="band 1">
        <r>  0.0000  0.0008  0.8487 </r>
       </set>
       <set comment="band 2">
        <r>  0.0000  0.0002  0.9133 </r>
       </set>
       <set comment="band 3">
        <r>  0.0000  0.0000  0.9158 </r>
       </set>
       <set comment="band 4">
        <r>  0.0091  0.0001  0.9334 </r>
       </set>
       <set comment="band 5">
        <r>  0.0000  0.0031  0.9741 </r>
       </set>
       <set comment="band 6">
        <r>  0.1047  0.2531  0.0217 </r>
       </set>
       <set comment="band 7">
        <r>  0.0000  0.3490  0.0126 </r>
       </set>
       <set comment="band 8">
        <r>  0.3491  0.0635  0.0736 </r>
       </set>
       <set comment="band 9">
        <r>  0.0000  0.2118  0.0209 </r>
       </set>
       <set comment="band 10">
        <r>  0.0083  0.0416  0.1818 </r>
       </set>
      </set>
     </set>
     <set comment="spin2">
      <set comment="kpoint 1">
       <set comment="band 1">
        <r>  0.2957  0.0035  0.0411 </r>
       </set>
       <set comment="band 2">
        <r>  0.0000  0.0013  0.8757 </r>
       </set>
       <set comment="band 3">
        <r>  0.0041  0.0001  0.7706 </r>
       </set>
       <set comment="band 4">
        <r>  0.0000  0.0375  0.6225 </r>
       </set>
       <set comment="band 5">
        <r>  0.0000  0.0000  0.9502 </r>
       </set>
       <set comment="band 6">
        <r>  0.0000  0.0716  0.3278 </r>
       </set>
       <set comment="band 7">
        <r>  0.0000  0.0001  0.9693 </r>
       </set>
       <set comment="band 8">
        <r>  0.0147  0.0001  0.0497 </r>
       </set>
       <set comment="band 9">
        <r>  0.0000  0.0584  0.0018 </r>
       </set>
       <set comment="band 10">
        <r>  0.0387  0.0007  0.0775 </r>
       </set>
      </set>
      <set comment="kpoint 2">
       <set comment="band 1">
        <r>  0.2826  0.0164  0.0419 </r>
       </set>
       <set comment="band 2">
        <r>  0.0001  0.0071  0.8650 </r>
       </set>
       <set comment="band 3">
        <r>  0.0000  0.0279  0.6818 </r>
       </set>
       <set comment="band 4">
        <r>  0.0052  0.0003  0.7897 </r>
       </set>
       <set comment="band 5">
        <r>  0.0000  0.0006  0.9454 </r>
       </set>
       <set comment="band 6">
        <r>  0.0004  0.0004  0.9599 </r>
       </set>
       <set comment="band 7">
        <r>  0.0000  0.0780  0.2608 </r>
       </set>
       <set comment="band 8">
        <r>  0.0142  0.0007  0.0416 </r>
       </set>
       <set comment="band 9">
        <r>  0.0000  0.0604  0.0070 </r>
       </set>
       <set comment="band 10">
        <r>  0.0341  0.0041  0.0706 </r>
       </set>
      </set>
      <set comment="kpoint 3">
       <set comment="band 1">
        <r>  0.2556  0.0360  0.0649 </r>
       </set>
       <set comment="band 2">
        <r>  0.0013  0.0232  0.8157 </r>
       </set>
       <set comment="band 3">
        <r>  0.0000  0.0155  0.7450 </r>
       </set>
       <set comment="band 4">
        <r>  0.0075  0.0010  0.8203 </r>
       </set>
       <set comment="band 5">
        <r>  0.0000  0.0006  0.9484 </r>
       </set>
       <set comment="band 6">
        <r>  0.0011  0.0005  0.9462 </r>
       </set>
       <set comment="band 7">
        <r>  0.0000  0.0877  0.1751 </r>
       </set>
       <set comment="band 8">
        <r>  0.0123  0.0027  0.0296 </r>
       </set>
       <set comment="band 9">
        <r>  0.0000  0.0657  0.0104 </r>
       </set>
       <set comment="band 10">
        <r>  0.0174  0.1303  0.1249 </r>
       </set>
      </set>
      <set comment="kpoint 4">
       <set comment="band 1">
        <r>  0.2069  0.0402  0.2086 </r>
       </set>
       <set comment="band 2">
        <r>  0.0000  0.0059  0.7843 </r>
       </set>
       <set comment="band 3">
        <r>  0.0100  0.0708  0.6171 </r>
       </set>
       <set comment="band 4">
        <r>  0.0114  0.0028  0.8441 </r>
       </set>
       <set comment="band 5">
        <r>  0.0000  0.0005  0.9523 </r>
       </set>
       <set comment="band 6">
        <r>  0.0027  0.0018  0.9295 </r>
       </set>
       <set comment="band 7">
        <r>  0.0000  0.1009  0.1057 </r>
       </set>
       <set comment="band 8">
        <r>  0.0281  0.0781  0.1180 </r>
       </set>
       <set comment="band 9">
        <r>  0.1180  0.0445  0.1043 </r>
       </set>
       <set comment="band 10">
        <r>  0.0000  0.0897  0.0009 </r>
       </set>
      </set>
      <set comment="kpoint 5">
       <set comment="band 1">
        <r>  0.1382  0.0085  0.5376 </r>
       </set>
       <set comment="band 2">
        <r>  0.0000  0.0007  0.8026 </r>
       </set>
       <set comment="band 3">
        <r>  0.0106  0.1434  0.3219 </r>
       </set>
       <set comment="band 4">
        <r>  0.0000  0.0005  0.9546 </r>
       </set>
       <set comment="band 5">
        <r>  0.0229  0.0013  0.8326 </r>
       </set>
       <set comment="band 6">
        <r>  0.0039  0.0517  0.7445 </r>
       </set>
       <set comment="band 7">
        <r>  0.1906  0.0365  0.3829 </r>
       </set>
       <set comment="band 8">
        <r>  0.0000  0.1351  0.0355 </r>
       </set>
       <set comment="band 9">
        <r>  0.0137  0.0059  0.0082 </r>
       </set>
       <set comment="band 10">
        <r>  0.0000  0.0274  0.1075 </r>
       </set>
      </set>
      <set comment="kpoint 6">
       <set comment="band 1">
        <r>  0.2681  0.0303  0.0412 </r>
       </set>
       <set comment="band 2">
        <r>  0.0000  0.0110  0.8630 </r>
       </set>
       <set comment="band 3">
        <r>  0.0000  0.0254  0.6991 </r>
       </set>
       <set comment="band 4">
        <r>  0.0065  0.0004  0.8048 </r>
       </set>
       <set comment="band 5">
        <r>  0.0000  0.0000  0.9362 </r>
       </set>
       <set comment="band 6">
        <r>  0.0033  0.0003  0.9436 </r>
       </set>
       <set comment="band 7">
        <r>  0.0000  0.0782  0.2420 </r>
       </set>
       <set comment="band 8">
        <r>  0.0140  0.0013  0.0350 </r>
       </set>
       <set comment="band 9">
        <r>  0.0000  0.0619  0.0120 </r>
       </set>
       <set comment="band 10">
        <r>  0.0313  0.0063  0.0642 </r>
       </set>
      </set>
      <set comment="kpoint 7">
       <set comment="band 1">
        <r>  0.2372  0.0517  0.0627 </r>
       </set>
       <set comment="band 2">
        <r>  0.0005  0.0226  0.8344 </r>
       </set>
       <set comment="band 3">
        <r>  0.0000  0.0148  0.7579 </r>
       </set>
       <set comment="band 4">
        <r>  0.0000  0.0016  0.9224 </r>
       </set>
       <set comment="band 5">
        <r>  0.0093  0.0006  0.8284 </r>
       </set>
       <set comment="band 6">
        <r>  0.0106  0.0003  0.9147 </r>
       </set>
       <set comment="band 7">
        <r>  0.0000  0.0842  0.1804 </r>
       </set>
       <set comment="band 8">
        <r>  0.0125  0.0031  0.0253 </r>
       </set>
       <set comment="band 9">
        <r>  0.0000  0.0663  0.0154 </r>
       </set>
       <set comment="band 10">
        <r>  0.0122  0.1380  0.1271 </r>
       </set>
      </set>
      <set comment="kpoint 8">
       <set comment="band 1">
        <r>  0.1816  0.0590  0.2055 </r>
       </set>
       <set comment="band 2">
        <r>  0.0000  0.0055  0.7981 </r>
       </set>
       <set comment="band 3">
        <r>  0.0016  0.0509  0.7170 </r>
       </set>
       <set comment="band 4">
        <r>  0.0000  0.0025  0.9220 </r>
       </set>
       <set comment="band 5">
        <r>  0.0189  0.0004  0.8326 </r>
       </set>
       <set comment="band 6">
        <r>  0.0244  0.0139  0.8439 </r>
       </set>
       <set comment="band 7">
        <r>  0.0000  0.0950  0.1188 </r>
       </set>
       <set comment="band 8">
        <r>  0.0295  0.0954  0.1256 </r>
       </set>
       <set comment="band 9">
        <r>  0.0980  0.0482  0.0869 </r>
       </set>
       <set comment="band 10">
        <r>  0.0000  0.0910  0.0066 </r>
       </set>
      </set>
      <set comment="kpoint 9">
       <set comment="band 1">
        <r>  0.1143  0.0258  0.5471 </r>
       </set>
       <set comment="band 2">
        <r>  0.0000  0.0006  0.8153 </r>
       </set>
       <set comment="band 3">
        <r>  0.0000  0.0719  0.5879 </r>
       </set>
       <set comment="band 4">
        <r>  0.0000  0.0025  0.9258 </r>
       </set>
       <set comment="band 5">
        <r>  0.0259  0.0001  0.8335 </r>
       </set>
       <set comment="band 6">
        <r>  0.0289  0.1095  0.4996 </r>
       </set>
       <set comment="band 7">
        <r>  0.1765  0.0618  0.3398 </r>
       </set>
       <set comment="band 8">
        <r>  0.0000  0.1266  0.0564 </r>
       </set>
       <set comment="band 9">
        <r>  0.0121  0.0074  0.0076 </r>
       </set>
       <set comment="band 10">
        <r>  0.0000  0.0298  0.1006 </r>
       </set>
      </set>
      <set comment="kpoint 10">
       <set comment="band 1">
        <r>  0.1930  0.0743  0.0980 </r>
       </set>
       <set comment="band 2">
        <r>  0.0000  0.0123  0.7813 </r>
       </set>
       <set comment="band 3">
        <r>  0.0000  0.0250  0.8493 </r>
       </set>
       <set comment="band 4">
        <r>  0.0000  0.0000  0.9138 </r>
       </set>
       <set comment="band 5">
        <r>  0.0128  0.0002  0.8419 </r>
       </set>
       <set comment="band 6">
        <r>  0.0350  0.0033  0.8393 </r>
       </set>
       <set comment="band 7">
        <r>  0.0000  0.0844  0.1542 </r>
       </set>
       <set comment="band 8">
        <r>  0.0119  0.0045  0.0185 </r>
       </set>
       <set comment="band 9">
        <r>  0.0000  0.2629  0.1514 </r>
       </set>
       <set comment="band 10">
        <r>  0.0000  0.0688  0.0196 </r>
       </set>
      </set>
      <set comment="kpoint 11">
       <set comment="band 1">
        <r>  0.1079  0.0742  0.3004 </r>
       </set>
       <set comment="band 2">
        <r>  0.0000  0.0050  0.8196 </r>
       </set>
       <set comment="band 3">
        <r>  0.0061  0.0278  0.8257 </r>
       </set>
       <set comment="band 4">
        <r>  0.0000  0.0019  0.8998 </r>
       </set>
       <set comment="band 5">
        <r>  0.0192  0.0001  0.8490 </r>
       </set>
       <set comment="band 6">
        <r>  0.0805  0.0410  0.6272 </r>
       </set>
       <set comment="band 7">
        <r>  0.0000  0.0901  0.1148 </r>
       </set>
       <set comment="band 8">
        <r>  0.0513  0.1862  0.1673 </r>
       </set>
       <set comment="band 9">
        <r>  0.0297  0.0134  0.0177 </r>
       </set>
       <set comment="band 10">
        <r>  0.0000  0.0955  0.0125 </r>
       </set>
      </set>
      <set comment="kpoint 12">
       <set comment="band 1">
        <r>  0.0200  0.0459  0.5930 </r>
       </set>
       <set comment="band 2">
        <r>  0.0000  0.0005  0.8366 </r>
       </set>
       <set comment="band 3">
        <r>  0.0451  0.0300  0.7365 </r>
       </set>
       <set comment="band 4">
        <r>  0.0000  0.0029  0.8987 </r>
       </set>
       <set comment="band 5">
        <r>  0.0232  0.0002  0.8553 </r>
       </set>
       <set comment="band 6">
        <r>  0.0727  0.1327  0.3434 </r>
       </set>
       <set comment="band 7">
        <r>  0.1373  0.1215  0.2541 </r>
       </set>
       <set comment="band 8">
        <r>  0.0000  0.1163  0.0696 </r>
       </set>
       <set comment="band 9">
        <r>  0.0088  0.0111  0.0065 </r>
       </set>
       <set comment="band 10">
        <r>  0.0000  0.0350  0.0867 </r>
       </set>
      </set>
      <set comment="kpoint 13">
       <set comment="band 1">
        <r>  0.0259  0.0405  0.5740 </r>
       </set>
       <set comment="band 2">
        <r>  0.0000  0.0040  0.8400 </r>
       </set>
       <set comment="band 3">
        <r>  0.0000  0.0000  0.8917 </r>
       </set>
       <set comment="band 4">
        <r>  0.0000  0.0311  0.8633 </r>
       </set>
       <set comment="band 5">
        <r>  0.0107  0.0006  0.8925 </r>
       </set>
       <set comment="band 6">
        <r>  0.1511  0.1016  0.2749 </r>
       </set>
       <set comment="band 7">
        <r>  0.0000  0.0903  0.0952 </r>
       </set>
       <set comment="band 8">
        <r>  0.0000  0.2841  0.1283 </r>
       </set>
       <set comment="band 9">
        <r>  0.0058  0.0124  0.0095 </r>
       </set>
       <set comment="band 10">
        <r>  0.1954  0.0337  0.1597 </r>
       </set>
      </set>
      <set comment="kpoint 14">
       <set comment="band 1">
        <r>  0.0021  0.0170  0.6983 </r>
       </set>
       <set comment="band 2">
        <r>  0.0000  0.0005  0.8588 </r>
       </set>
       <set comment="band 3">
        <r>  0.0000  0.0014  0.8837 </r>
       </set>
       <set comment="band 4">
        <r>  0.0081  0.0302  0.8563 </r>
       </set>
       <set comment="band 5">
        <r>  0.0217  0.0016  0.8717 </r>
       </set>
       <set comment="band 6">
        <r>  0.1091  0.1729  0.1668 </r>
       </set>
       <set comment="band 7">
        <r>  0.0661  0.2228  0.1395 </r>
       </set>
       <set comment="band 8">
        <r>  0.0000  0.1102  0.0665 </r>
       </set>
       <set comment="band 9">
        <r>  0.0000  0.0281  0.0105 </r>
       </set>
       <set comment="band 10">
        <r>  0.0000  0.0453  0.0639 </r>
       </set>
      </set>
      <set comment="kpoint 15">
       <set comment="band 1">
        <r>  0.0002  0.0033  0.7352 </r>
       </set>
       <set comment="band 2">
        <r>  0.0000  0.0004  0.8723 </r>
       </set>
       <set comment="band 3">
        <r>  0.0000  0.0000  0.8783 </r>
       </set>
       <set comment="band 4">
        <r>  0.0146  0.0001  0.9012 </r>
       </set>
       <set comment="band 5">
        <r>  0.0000  0.0099  0.9505 </r>
       </set>
       <set comment="band 6">
        <r>  0.0669  0.2591  0.0415 </r>
       </set>
       <set comment="band 7">
        <r>  0.0000  0.3220  0.0343 </r>
       </set>
       <set comment="band 8">
        <r>  0.3210  0.0289  0.1217 </r>
       </set>
       <set comment="band 9">
        <r>  0.0000  0.1297  0.0457 </r>
       </set>
       <set comment="band 10">
        <r>  0.0291  0.0499  0.2028 </r>
       </set>
      </set>
     </set>
    </set>
   </array>
  </projected>
 </calculation>
 <structure name="finalpos" >
  <crystal>
   <varray name="basis" >
    <v>       2.84000000       0.00000000       0.00000000 </v>
    <v>       0.00000000       2.84000000       0.00000000 </v>
    <v>       0.00000000       0.00000000      10.00000000 </v>
   </varray>
   <i name="volume">     80.65600000 </i>
   <varray name="rec_basis" >
    <v>       0.35211268       0.00000000       0.00000000 </v>
    <v>       0.00000000       0.35211268       0.00000000 </v>
    <v>       0.00000000       0.00000000       0.10000000 </v>
   </varray>
  </crystal>
  <varray name="positions" >
   <v>       0.00000000       0.00000000       0.00000000 </v>
  </varray>
 </structure>
</modeling>
