BCC Fe                                  
           1
     2.840000    0.000000    0.000000
     0.000000    2.840000    0.000000
     0.000000    0.000000   10.000000
   Fe
   1
Direct configuration=     1
   0.00000000  0.00000000  0.00000000
