fcc Au                                  
   4.20000000000000     
     0.000000    0.500000    0.500000
     0.500000    0.000000    0.500000
     0.500000    0.500000    0.000000
   Au
     1
Direct
  0.000000  0.000000  0.000000
 
   24   24   24
  89.930      86.320      77.057      65.404      53.682      42.343      31.272      21.198      13.451      8.6618    
  6.1299      4.8106      4.3992      4.8106      6.1299      8.6618      13.451      21.198      31.272      42.343    
  53.682      65.404      77.057      86.320      86.320      79.919      69.622      58.246      47.032      35.989    
  25.437      16.569      10.480      7.0793      5.2719      4.4492      4.4491      5.2716      7.0791      10.480    
  16.570      25.441      35.996      47.036      58.239      69.605      79.899      86.311      77.057      69.622    
  59.898      49.547      39.036      28.630      19.299      12.297      8.0497      5.7742      4.5810      4.2116    
  4.5810      5.7741      8.0493      12.296      19.301      28.636      39.043      49.549      59.887      69.602    
  77.041      79.899      65.404      58.246      49.547      40.088      30.333      21.152      13.775      8.9333    
  6.2425      4.7508      4.0837      4.0838      4.7510      6.2426      8.9326      13.773      21.151      30.335    
  40.092      49.549      58.243      65.399      69.602      69.605      53.682      47.032      39.036      30.333    
  21.806      14.604      9.5629      6.6039      4.9092      4.0286      3.7599      4.0287      4.9097      6.6046    
  9.5629      14.602      21.802      30.330      39.036      47.036      53.687      58.243      59.887      58.239    
  42.343      35.989      28.630      21.152      14.604      9.7920      6.8023      5.0179      4.0094      3.5675    
  3.5673      4.0092      5.0185      6.8042      9.7943      14.605      21.149      28.625      35.984      42.341    
  47.036      49.549      49.549      47.036      31.272      25.437      19.299      13.775      9.5629      6.8023    
  5.0560      4.0033      3.4672      3.3048      3.4668      4.0027      5.0560      6.8045      9.5677      13.780    
  19.301      25.433      31.262      35.984      39.036      40.092      39.043      35.996      21.198      16.569    
  12.297      8.9333      6.6039      5.0179      4.0033      3.4359      3.1875      3.1875      3.4354      4.0015    
  5.0155      6.6037      8.9378      12.305      16.576      21.197      25.433      28.625      30.330      30.335    
  28.636      25.441      13.451      10.480      8.0497      6.2425      4.9092      4.0094      3.4672      3.1875    
  3.1024      3.1881      3.4672      4.0071      4.9045      6.2380      8.0498      10.486      13.460      16.576    
  19.301      21.149      21.802      21.151      19.301      16.570      8.6618      7.0793      5.7742      4.7508    
  4.0286      3.5675      3.3048      3.1875      3.1881      3.3065      3.5697      4.0288      4.7465      5.7666    
  7.0732      8.6617      10.486      12.305      13.780      14.605      14.602      13.773      12.296      10.480    
  6.1299      5.2719      4.5810      4.0837      3.7599      3.5673      3.4668      3.4354      3.4672      3.5697    
  3.7647      4.0881      4.5810      5.2658      6.1210      7.0732      8.0498      8.9378      9.5677      9.7943    
  9.5629      8.9326      8.0493      7.0791      4.8106      4.4492      4.2116      4.0838      4.0287      4.0092    
  4.0027      4.0015      4.0071      4.0288      4.0881      4.2190      4.4552      4.8107      5.2658      5.7666    
  6.2380      6.6037      6.8045      6.8042      6.6046      6.2426      5.7741      5.2716      4.3992      4.4491    
  4.5810      4.7510      4.9097      5.0185      5.0560      5.0155      4.9045      4.7465      4.5810      4.4552    
  4.4082      4.4552      4.5810      4.7465      4.9045      5.0155      5.0560      5.0185      4.9097      4.7510    
  4.5810      4.4491      4.8106      5.2716      5.7741      6.2426      6.6046      6.8042      6.8045      6.6037    
  6.2380      5.7666      5.2658      4.8107      4.4552      4.2190      4.0881      4.0288      4.0071      4.0015    
  4.0027      4.0092      4.0287      4.0838      4.2116      4.4492      6.1299      7.0791      8.0493      8.9326    
  9.5629      9.7943      9.5677      8.9378      8.0498      7.0732      6.1210      5.2658      4.5810      4.0881    
  3.7647      3.5697      3.4672      3.4354      3.4668      3.5673      3.7599      4.0837      4.5810      5.2719    
  8.6618      10.480      12.296      13.773      14.602      14.605      13.780      12.305      10.486      8.6617    
  7.0732      5.7666      4.7465      4.0288      3.5697      3.3065      3.1881      3.1875      3.3048      3.5675    
  4.0286      4.7508      5.7742      7.0793      13.451      16.570      19.301      21.151      21.802      21.149    
  19.301      16.576      13.460      10.486      8.0498      6.2380      4.9045      4.0071      3.4672      3.1881    
  3.1024      3.1875      3.4672      4.0094      4.9092      6.2425      8.0497      10.480      21.198      25.441    
  28.636      30.335      30.330      28.625      25.433      21.197      16.576      12.305      8.9378      6.6037    
  5.0155      4.0015      3.4354      3.1875      3.1875      3.4359      4.0033      5.0179      6.6039      8.9333    
  12.297      16.569      31.272      35.996      39.043      40.092      39.036      35.984      31.262      25.433    
  19.301      13.780      9.5677      6.8045      5.0560      4.0027      3.4668      3.3048      3.4672      4.0033    
  5.0560      6.8023      9.5629      13.775      19.299      25.437      42.343      47.036      49.549      49.549    
  47.036      42.341      35.984      28.625      21.149      14.605      9.7943      6.8042      5.0185      4.0092    
  3.5673      3.5675      4.0094      5.0179      6.8023      9.7920      14.604      21.152      28.630      35.989    
  53.682      58.239      59.887      58.243      53.687      47.036      39.036      30.330      21.802      14.602    
  9.5629      6.6046      4.9097      4.0287      3.7599      4.0286      4.9092      6.6039      9.5629      14.604    
  21.806      30.333      39.036      47.032      65.404      69.605      69.602      65.399      58.243      49.549    
  40.092      30.335      21.151      13.773      8.9326      6.2426      4.7510      4.0838      4.0837      4.7508    
  6.2425      8.9333      13.775      21.152      30.333      40.088      49.547      58.246      77.057      79.899    
  77.041      69.602      59.887      49.549      39.043      28.636      19.301      12.296      8.0493      5.7741    
  4.5810      4.2116      4.5810      5.7742      8.0497      12.297      19.299      28.630      39.036      49.547    
  59.898      69.622      86.320      86.311      79.899      69.605      58.239      47.036      35.996      25.441    
  16.570      10.480      7.0791      5.2716      4.4491      4.4492      5.2719      7.0793      10.480      16.569    
  25.437      35.989      47.032      58.246      69.622      79.919      86.320      79.919      69.622      58.246    
  47.032      35.989      25.437      16.569      10.480      7.0793      5.2719      4.4492      4.4491      5.2716    
  7.0791      10.480      16.570      25.441      35.996      47.036      58.239      69.605      79.899      86.311    
  79.919      71.897      61.555      50.776      40.022      29.430      19.885      12.659      8.2466      5.8928    
  4.6600      4.2774      4.6600      5.8927      8.2460      12.659      19.888      29.438      40.031      50.776    
  61.538      71.867      79.895      83.002      69.622      61.555      52.089      42.135      32.016      22.435    
  14.616      9.4044      6.5086      4.9210      4.2067      4.2068      4.9212      6.5083      9.4030      14.615    
  22.438      32.023      42.143      52.088      61.541      69.604      74.453      74.461      58.246      50.776    
  42.135      32.907      23.812      15.972      10.356      7.0357      5.1776      4.2053      3.9073      4.2053    
  5.1778      7.0356      10.354      15.969      23.811      32.909      42.141      50.781      58.248      63.568    
  65.532      63.568      47.032      40.022      32.016      23.812      16.456      10.896      7.4003      5.3780    
  4.2322      3.7278      3.7277      4.2323      5.3788      7.4012      10.895      16.452      23.808      32.013    
  40.025      47.040      52.378      55.316      55.312      52.369      35.989      29.430      22.435      15.972    
  10.896      7.5319      5.4871      4.2572      3.6291      3.4387      3.6289      4.2572      5.4880      7.5341    
  10.898      15.972      22.432      29.425      35.986      41.312      44.794      46.007      44.793      41.312    
  25.437      19.885      14.616      10.356      7.4003      5.4871      4.2667      3.5851      3.2874      3.2873    
  3.5845      4.2657      5.4869      7.4029      10.361      14.621      19.886      25.433      30.425      34.153    
  36.138      36.141      34.161      30.433      16.569      12.659      9.4044      7.0357      5.3780      4.2572    
  3.5851      3.2407      3.1361      3.2407      3.5842      4.2548      5.3752      7.0354      9.4088      12.667    
  16.576      20.574      24.000      26.293      27.099      26.298      24.006      20.574      10.480      8.2466    
  6.5086      5.1776      4.2322      3.6291      3.2874      3.1361      3.1366      3.2884      3.6292      4.2295    
  5.1720      6.5034      8.2463      10.485      13.067      15.604      17.628      18.748      18.748      17.625    
  15.597      13.059      7.0793      5.8928      4.9210      4.2053      3.7278      3.4387      3.2873      3.2407    
  3.2884      3.4412      3.7306      4.2054      4.9162      5.8848      7.0731      8.4477      9.9279      11.288    
  12.251      12.597      12.245      11.280      9.9220      8.4478      5.2719      4.6600      4.2067      3.9073    
  3.7277      3.6289      3.5845      3.5842      3.6292      3.7306      3.9129      4.2116      4.6600      5.2658    
  5.9942      6.7674      7.5002      8.0949      8.4312      8.4291      8.0912      7.4999      6.7728      6.0028    
  4.4492      4.2774      4.2068      4.2053      4.2323      4.2572      4.2657      4.2548      4.2295      4.2054    
  4.2116      4.2853      4.4552      4.7256      5.0688      5.4317      5.7503      5.9672      6.0439      5.9684    
  5.7544      5.4382      5.0742      4.7255      4.4491      4.6600      4.9212      5.1778      5.3788      5.4880    
  5.4869      5.3752      5.1720      4.9162      4.6600      4.4552      4.3368      4.3114      4.3570      4.4354    
  4.5091      4.5525      4.5541      4.5131      4.4392      4.3570      4.3059      4.3283      5.2716      5.8927    
  6.5083      7.0356      7.4012      7.5341      7.4029      7.0354      6.5034      5.8848      5.2658      4.7256    
  4.3114      4.0307      3.8603      3.7655      3.7187      3.7052      3.7199      3.7654      3.8567      4.0244    
  4.3061      4.7255      7.0791      8.2460      9.4030      10.354      10.895      10.898      10.361      9.4088    
  8.2463      7.0731      5.9942      5.0688      4.3570      3.8603      3.5421      3.3578      3.2740      3.2737    
  3.3562      3.5385      3.8566      4.3570      5.0744      6.0028      10.480      12.659      14.615      15.969    
  16.452      15.972      14.621      12.667      10.485      8.4477      6.7674      5.4317      4.4354      3.7655    
  3.3578      3.1439      3.0775      3.1429      3.3564      3.7655      4.4388      5.4381      6.7729      8.4478    
  16.570      19.888      22.438      23.811      23.808      22.432      19.886      16.576      13.067      9.9279    
  7.5002      5.7503      4.5091      3.7187      3.2740      3.0775      3.0773      3.2739      3.7203      4.5128    
  5.7540      7.5001      9.9220      13.059      25.441      29.438      32.023      32.909      32.013      29.425    
  25.433      20.574      15.604      11.288      8.0949      5.9672      4.5525      3.7052      3.2737      3.1429    
  3.2739      3.7063      4.5541      5.9673      8.0914      11.281      15.597      20.574      35.996      40.031    
  42.143      42.141      40.025      35.986      30.425      24.000      17.628      12.251      8.4312      6.0439    
  4.5541      3.7199      3.3562      3.3564      3.7203      4.5541      6.0423      8.4276      12.247      17.627    
  24.004      30.433      47.036      50.776      52.088      50.781      47.040      41.312      34.153      26.293    
  18.748      12.597      8.4291      5.9684      4.5131      3.7654      3.5385      3.7655      4.5128      5.9673    
  8.4276      12.597      18.751      26.298      34.158      41.312      58.239      61.538      61.541      58.248    
  52.378      44.794      36.138      27.099      18.748      12.245      8.0912      5.7544      4.4392      3.8567    
  3.8566      4.4388      5.7540      8.0914      12.247      18.751      27.102      36.139      44.790      52.369    
  69.605      71.867      69.604      63.568      55.316      46.007      36.141      26.298      17.625      11.280    
  7.4999      5.4382      4.3570      4.0244      4.3570      5.4381      7.5001      11.281      17.627      26.298    
  36.139      46.004      55.313      63.568      79.899      79.895      74.453      65.532      55.312      44.793    
  34.161      24.006      15.597      9.9220      6.7728      5.0742      4.3059      4.3061      5.0744      6.7729    
  9.9220      15.597      24.004      34.158      44.790      55.313      65.539      74.461      86.311      83.002    
  74.461      63.568      52.369      41.312      30.433      20.574      13.059      8.4478      6.0028      4.7255    
  4.3283      4.7255      6.0028      8.4478      13.059      20.574      30.433      41.312      52.369      63.568    
  74.461      83.002      77.057      69.622      59.898      49.547      39.036      28.630      19.299      12.297    
  8.0497      5.7742      4.5810      4.2116      4.5810      5.7741      8.0493      12.296      19.301      28.636    
  39.043      49.549      59.887      69.602      77.041      79.899      69.622      61.555      52.089      42.135    
  32.016      22.435      14.616      9.4044      6.5086      4.9210      4.2067      4.2068      4.9212      6.5083    
  9.4030      14.615      22.438      32.023      42.143      52.088      61.541      69.604      74.453      74.461    
  59.898      52.089      43.197      33.786      24.507      16.455      10.640      7.1897      5.2727      4.2676    
  3.9590      4.2676      5.2727      7.1891      10.638      16.452      24.507      33.791      43.204      52.094    
  59.898      65.537      67.636      65.539      49.547      42.135      33.786      25.228      17.466      11.513    
  7.7338      5.5756      4.3543      3.8147      3.8146      4.3543      5.5761      7.7337      11.510      17.461    
  25.223      33.787      42.145      49.562      55.327      58.558      58.552      55.313      39.036      32.016    
  24.507      17.466      11.828      8.0412      5.7796      4.4296      3.7377      3.5277      3.7377      4.4300    
  5.7807      8.0421      11.826      17.461      24.501      32.014      39.043      44.804      48.626      49.969    
  48.615      44.790      28.630      22.435      16.455      11.513      8.0412      5.8517      4.4718      3.7001    
  3.3631      3.3631      3.6999      4.4718      5.8528      8.0438      11.515      16.453      22.431      28.626    
  34.157      38.289      40.496      40.494      38.287      34.158      19.299      14.616      10.640      7.7338    
  5.7796      4.4718      3.6888      3.2889      3.1674      3.2885      3.6877      4.4705      5.7797      7.7367    
  10.645      14.620      19.299      24.000      27.977      30.619      31.544      30.623      27.983      24.004    
  12.297      9.4044      7.1897      5.5756      4.4296      3.7001      3.2889      3.1073      3.1075      3.2888    
  3.6988      4.4266      5.5725      7.1892      9.4083      12.303      15.602      18.790      21.299      22.676    
  22.677      21.301      18.789      15.597      8.0497      6.5086      5.2727      4.3543      3.7377      3.3631    
  3.1674      3.1075      3.1685      3.3646      3.7377      4.3511      5.2667      6.5035      8.0493      9.9271    
  11.966      13.825      15.129      15.597      15.126      13.819      11.958      9.9220      5.7742      4.9210    
  4.2676      3.8147      3.5277      3.3631      3.2885      3.2888      3.3646      3.5308      3.8179      4.2676    
  4.9162      5.7667      6.7673      7.8505      8.9282      9.8193      10.326      10.324      9.8133      8.9233    
  7.8507      6.7729      4.5810      4.2067      3.9590      3.8146      3.7377      3.6999      3.6877      3.6988    
  3.7377      3.8179      3.9650      4.2116      4.5810      5.0689      5.6349      6.2077      6.7025      7.0437    
  7.1657      7.0420      6.7025      6.2120      5.6422      5.0744      4.2116      4.2068      4.2676      4.3543    
  4.4300      4.4718      4.4705      4.4266      4.3511      4.2676      4.2116      4.2191      4.3114      4.4843    
  4.7075      4.9346      5.1173      5.2186      5.2195      5.1204      4.9396      4.7119      4.4843      4.3061    
  4.5810      4.9212      5.2727      5.5761      5.7807      5.8528      5.7797      5.5725      5.2667      4.9162    
  4.5810      4.3114      4.1341      4.0463      4.0228      4.0313      4.0459      4.0531      4.0483      4.0340    
  4.0229      4.0418      4.1268      4.3059      5.7741      6.5083      7.1891      7.7337      8.0421      8.0438    
  7.7367      7.1892      6.5035      5.7667      5.0689      4.4843      4.0463      3.7481      3.5604      3.4522    
  3.4028      3.4031      3.4521      3.5579      3.7432      4.0419      4.4843      5.0742      8.0493      9.4030    
  10.638      11.510      11.826      11.515      10.645      9.4083      8.0493      6.7673      5.6349      4.7075    
  4.0228      3.5604      3.2741      3.1204      3.0720      3.1194      3.2718      3.5579      4.0228      4.7120    
  5.6422      6.7728      12.296      14.615      16.452      17.461      17.461      16.453      14.620      12.303    
  9.9271      7.8505      6.2077      4.9346      4.0313      3.4522      3.1204      2.9715      2.9711      3.1196    
  3.4522      4.0338      4.9394      6.2121      7.8507      9.9220      19.301      22.438      24.507      25.223    
  24.501      22.431      19.299      15.602      11.966      8.9282      6.7025      5.1173      4.0459      3.4028    
  3.0720      2.9711      3.0721      3.4037      4.0483      5.1198      6.7025      8.9236      11.958      15.597    
  28.636      32.023      33.791      33.787      32.014      28.626      24.000      18.790      13.825      9.8193    
  7.0437      5.2186      4.0531      3.4031      3.1194      3.1196      3.4037      4.0539      5.2186      7.0413    
  9.8143      13.820      18.789      24.006      39.043      42.143      43.204      42.145      39.043      34.157    
  27.977      21.299      15.129      10.326      7.1657      5.2195      4.0483      3.4521      3.2718      3.4522    
  4.0483      5.2186      7.1634      10.324      15.129      21.303      27.983      34.161      49.549      52.088    
  52.094      49.562      44.804      38.289      30.619      22.676      15.597      10.324      7.0420      5.1204    
  4.0340      3.5579      3.5579      4.0338      5.1198      7.0413      10.324      15.600      22.682      30.624    
  38.287      44.793      59.887      61.541      59.898      55.327      48.626      40.496      31.544      22.677    
  15.126      9.8133      6.7025      4.9396      4.0229      3.7432      4.0228      4.9394      6.7025      9.8143    
  15.129      22.682      31.547      40.492      48.615      55.312      69.602      69.604      65.537      58.558    
  49.969      40.494      30.623      21.301      13.819      8.9233      6.2120      4.7119      4.0418      4.0419    
  4.7120      6.2121      8.9236      13.820      21.303      30.624      40.492      49.964      58.552      65.532    
  77.041      74.453      67.636      58.552      48.615      38.287      27.983      18.789      11.958      7.8507    
  5.6422      4.4843      4.1268      4.4843      5.6422      7.8507      11.958      18.789      27.983      38.287    
  48.615      58.552      67.636      74.453      79.899      74.461      65.539      55.313      44.790      34.158    
  24.004      15.597      9.9220      6.7729      5.0744      4.3061      4.3059      5.0742      6.7728      9.9220    
  15.597      24.006      34.161      44.793      55.312      65.532      74.453      79.895      65.404      58.246    
  49.547      40.088      30.333      21.152      13.775      8.9333      6.2425      4.7508      4.0837      4.0838    
  4.7510      6.2426      8.9326      13.773      21.151      30.335      40.092      49.549      58.243      65.399    
  69.602      69.605      58.246      50.776      42.135      32.907      23.812      15.972      10.356      7.0357    
  5.1776      4.2053      3.9073      4.2053      5.1778      7.0356      10.354      15.969      23.811      32.909    
  42.141      50.781      58.248      63.568      65.532      63.568      49.547      42.135      33.786      25.228    
  17.466      11.513      7.7338      5.5756      4.3543      3.8147      3.8146      4.3543      5.5761      7.7337    
  11.510      17.461      25.223      33.787      42.145      49.562      55.327      58.558      58.552      55.313    
  40.088      32.907      25.228      17.994      12.162      8.2247      5.8834      4.4909      3.7761      3.5590    
  3.7761      4.4913      5.8844      8.2250      12.159      17.987      25.220      32.907      40.101      46.024    
  49.980      51.375      49.964      46.004      30.333      23.812      17.466      12.162      8.4026      6.0514    
  4.5844      3.7629      3.4041      3.4041      3.7630      4.5852      6.0532      8.4043      12.161      17.460    
  23.804      30.330      36.146      40.504      42.839      42.834      40.492      36.139      21.152      15.972    
  11.513      8.2247      6.0514      4.6176      3.7591      3.3215      3.1887      3.3213      3.7586      4.6177    
  6.0534      8.2283      11.515      15.969      21.146      26.292      30.621      33.490      34.492      33.490    
  30.624      26.298      13.775      10.356      7.7338      5.8834      4.5844      3.7591      3.2956      3.0913    
  3.0912      3.2950      3.7577      4.5831      5.8840      7.7372      10.360      13.777      17.625      21.297    
  24.161      25.725      25.727      24.167      21.303      17.627      8.9333      7.0357      5.5756      4.4909    
  3.7629      3.3215      3.0913      3.0206      3.0917      3.3215      3.7613      4.4877      5.5728      7.0357    
  8.9370      11.286      13.823      16.112      17.704      18.274      17.705      16.112      13.820      11.281    
  6.2425      5.1776      4.3543      3.7761      3.4041      3.1887      3.0912      3.0917      3.1902      3.4057    
  3.7760      4.3511      5.1722      6.2382      7.4998      8.9275      10.370      11.562      12.239      12.238    
  11.558      10.364      8.9236      7.5001      4.7508      4.2053      3.8147      3.5590      3.4041      3.3213    
  3.2950      3.3215      3.4057      3.5623      3.8179      4.2053      4.7466      5.4319      6.2077      6.9873    
  7.6845      8.1796      8.3586      8.1766      7.6814      6.9874      6.2121      5.4381      4.0837      3.9073    
  3.8146      3.7761      3.7630      3.7586      3.7577      3.7613      3.7760      3.8179      3.9129      4.0881    
  4.3570      4.7076      5.1009      5.4784      5.7760      5.9396      5.9393      5.7764      5.4817      5.1064    
  4.7120      4.3570      4.0838      4.2053      4.3543      4.4913      4.5852      4.6177      4.5831      4.4877    
  4.3511      4.2053      4.0881      4.0308      4.0463      4.1247      4.2378      4.3503      4.4309      4.4606    
  4.4328      4.3536      4.2409      4.1247      4.0419      4.0244      4.7510      5.1778      5.5761      5.8844    
  6.0532      6.0534      5.8840      5.5728      5.1722      4.7466      4.3570      4.0463      3.8299      3.6977    
  3.6254      3.5892      3.5744      3.5753      3.5908      3.6255      3.6945      3.8243      4.0418      4.3570    
  6.2426      7.0356      7.7337      8.2250      8.4043      8.2283      7.7372      7.0357      6.2382      5.4319    
  4.7076      4.1247      3.6977      3.4081      3.2255      3.1249      3.0928      3.1248      3.2240      3.4049    
  3.6946      4.1247      4.7119      5.4382      8.9326      10.354      11.510      12.159      12.161      11.515    
  10.360      8.9370      7.4998      6.2077      5.1009      4.2378      3.6254      3.2255      2.9896      2.8808    
  2.8804      2.9883      3.2239      3.6255      4.2411      5.1064      6.2120      7.4999      13.773      15.969    
  17.461      17.987      17.460      15.969      13.777      11.286      8.9275      6.9873      5.4784      4.3503    
  3.5892      3.1249      2.8808      2.8052      2.8805      3.1249      3.5906      4.3534      5.4816      6.9874    
  8.9233      11.280      21.151      23.811      25.223      25.220      23.804      21.146      17.625      13.823    
  10.370      7.6845      5.7760      4.4309      3.5744      3.0928      2.8804      2.8805      3.0933      3.5757    
  4.4324      5.7759      7.6814      10.364      13.819      17.625      30.335      32.909      33.787      32.907    
  30.330      26.292      21.297      16.112      11.562      8.1796      5.9396      4.4606      3.5753      3.1248    
  2.9883      3.1249      3.5757      4.4607      5.9381      8.1763      11.559      16.112      21.301      26.298    
  40.092      42.141      42.145      40.101      36.146      30.621      24.161      17.704      12.239      8.3586    
  5.9393      4.4328      3.5908      3.2240      3.2239      3.5906      4.4324      5.9381      8.3571      12.240    
  17.708      24.167      30.623      36.141      49.549      50.781      49.562      46.024      40.504      33.490    
  25.725      18.274      12.238      8.1766      5.7764      4.3536      3.6255      3.4049      3.6255      4.3534    
  5.7759      8.1763      12.240      18.279      25.731      33.490      40.494      46.007      58.243      58.248    
  55.327      49.980      42.839      34.492      25.727      17.705      11.558      7.6814      5.4817      4.2409    
  3.6945      3.6946      4.2411      5.4816      7.6814      11.559      17.708      25.731      34.493      42.834    
  49.969      55.316      65.399      63.568      58.558      51.375      42.834      33.490      24.167      16.112    
  10.364      6.9874      5.1064      4.1247      3.8243      4.1247      5.1064      6.9874      10.364      16.112    
  24.167      33.490      42.834      51.375      58.558      63.568      69.602      65.532      58.552      49.964    
  40.492      30.624      21.303      13.820      8.9236      6.2121      4.7120      4.0419      4.0418      4.7119    
  6.2120      8.9233      13.819      21.301      30.623      40.494      49.969      58.558      65.537      69.604    
  69.605      63.568      55.313      46.004      36.139      26.298      17.627      11.281      7.5001      5.4381    
  4.3570      4.0244      4.3570      5.4382      7.4999      11.280      17.625      26.298      36.141      46.007    
  55.316      63.568      69.604      71.867      53.682      47.032      39.036      30.333      21.806      14.604    
  9.5629      6.6039      4.9092      4.0286      3.7599      4.0287      4.9097      6.6046      9.5629      14.602    
  21.802      30.330      39.036      47.036      53.687      58.243      59.887      58.239      47.032      40.022    
  32.016      23.812      16.456      10.896      7.4003      5.3780      4.2322      3.7278      3.7277      4.2323    
  5.3788      7.4012      10.895      16.452      23.808      32.013      40.025      47.040      52.378      55.316    
  55.312      52.369      39.036      32.016      24.507      17.466      11.828      8.0412      5.7796      4.4296    
  3.7377      3.5277      3.7377      4.4300      5.7807      8.0421      11.826      17.461      24.501      32.014    
  39.043      44.804      48.626      49.969      48.615      44.790      30.333      23.812      17.466      12.162    
  8.4026      6.0514      4.5844      3.7629      3.4041      3.4041      3.7630      4.5852      6.0532      8.4043    
  12.161      17.460      23.804      30.330      36.146      40.504      42.839      42.834      40.492      36.139    
  21.806      16.456      11.828      8.4026      6.1474      4.6690      3.7838      3.3330      3.1962      3.3329    
  3.7838      4.6700      6.1503      8.4060      11.828      16.450      21.797      27.097      31.547      34.495    
  35.524      34.493      31.547      27.102      14.604      10.896      8.0412      6.0514      4.6690      3.7915    
  3.2999      3.0836      3.0835      3.2995      3.7909      4.6695      6.0543      8.0458      10.899      14.602    
  18.744      22.673      25.724      27.385      27.388      25.731      22.682      18.751      9.5629      7.4003    