fcc Au                                  
   4.20000000000000     
     0.000000    0.500000    0.500000
     0.500000    0.000000    0.500000
     0.500000    0.500000    0.000000
   Au
     1
Direct
  0.000000  0.000000  0.000000
 
   24   24   24
 0.89929548727E+02 0.86319590960E+02 0.77057247847E+02 0.65403820782E+02 0.53681531996E+02
 0.42343224027E+02 0.31272226259E+02 0.21197559997E+02 0.13450768645E+02 0.86617666864E+01
 0.61299161074E+01 0.48105662413E+01 0.43992281400E+01 0.48105662413E+01 0.61299161074E+01
 0.86617666864E+01 0.13450768645E+02 0.21197559997E+02 0.31272226259E+02 0.42343224027E+02
 0.53681531996E+02 0.65403820782E+02 0.77057247847E+02 0.86319590960E+02 0.86319590960E+02
 0.79918571964E+02 0.69622255011E+02 0.58245700258E+02 0.47032261435E+02 0.35989494829E+02
 0.25437462952E+02 0.16569378597E+02 0.10479557115E+02 0.70792703928E+01 0.52718883070E+01
 0.44492375658E+01 0.44490839051E+01 0.52716336567E+01 0.70791321712E+01 0.10479602197E+02
 0.16570438390E+02 0.25441159154E+02 0.35995512452E+02 0.47035628867E+02 0.58239351302E+02
 0.69604701068E+02 0.79898579964E+02 0.86310735412E+02 0.77057247847E+02 0.69622255011E+02
 0.59897632737E+02 0.49547101543E+02 0.39036226470E+02 0.28630281008E+02 0.19299260323E+02
 0.12296550663E+02 0.80497234599E+01 0.57742083679E+01 0.45810407413E+01 0.42116130707E+01
 0.45809587814E+01 0.57741009624E+01 0.80493348527E+01 0.12296128187E+02 0.19300747318E+02
 0.28635707445E+02 0.39043434133E+02 0.49548575945E+02 0.59886795702E+02 0.69602154567E+02
 0.77040997225E+02 0.79898579964E+02 0.65403820782E+02 0.58245700258E+02 0.49547101543E+02
 0.40088302792E+02 0.30332628780E+02 0.21151620562E+02 0.13774771516E+02 0.89333486972E+01
 0.62425339694E+01 0.47507661683E+01 0.40836821553E+01 0.40837732637E+01 0.47510223178E+01
 0.62426104798E+01 0.89325841541E+01 0.13773303195E+02 0.21151138560E+02 0.30334815579E+02
 0.40092183543E+02 0.49549048201E+02 0.58243181335E+02 0.65398812957E+02 0.69602154567E+02
 0.69604701068E+02 0.53681531996E+02 0.47032261435E+02 0.39036226470E+02 0.30332628780E+02
 0.21805588224E+02 0.14604244191E+02 0.95629330840E+01 0.66038715091E+01 0.49092400533E+01
 0.40286369684E+01 0.37598788581E+01 0.40287003986E+01 0.49096836402E+01 0.66045597158E+01
 0.95628952334E+01 0.14602482093E+02 0.21802396607E+02 0.30329932565E+02 0.39036291143E+02
 0.47035782120E+02 0.53686779750E+02 0.58243181335E+02 0.59886795702E+02 0.58239351302E+02
 0.42343224027E+02 0.35989494829E+02 0.28630281008E+02 0.21151620562E+02 0.14604244191E+02
 0.97919779532E+01 0.68022849060E+01 0.50178993050E+01 0.40093980410E+01 0.35675344551E+01
 0.35673340348E+01 0.40091882081E+01 0.50185456550E+01 0.68042339218E+01 0.97943136992E+01
 0.14604837070E+02 0.21148855392E+02 0.28624919523E+02 0.35984419412E+02 0.42340875536E+02
 0.47035782120E+02 0.49549048201E+02 0.49548575945E+02 0.47035628867E+02 0.31272226259E+02
 0.25437462952E+02 0.19299260323E+02 0.13774771516E+02 0.95629330840E+01 0.68022849060E+01
 0.50560174240E+01 0.40033465524E+01 0.34671904710E+01 0.33047521281E+01 0.34667900891E+01
 0.40026727043E+01 0.50560165857E+01 0.68044918528E+01 0.95677166097E+01 0.13779874059E+02
 0.19300743416E+02 0.25432693013E+02 0.31262182426E+02 0.35984419412E+02 0.39036291143E+02
 0.40092183543E+02 0.39043434133E+02 0.35995512452E+02 0.21197559997E+02 0.16569378597E+02
 0.12296550663E+02 0.89333486972E+01 0.66038715091E+01 0.50178993050E+01 0.40033465524E+01
 0.34358635144E+01 0.31874700128E+01 0.31875200297E+01 0.34354046205E+01 0.40015391856E+01
 0.50155167014E+01 0.66036684458E+01 0.89378025838E+01 0.12304675545E+02 0.16576053310E+02
 0.21197121395E+02 0.25432693013E+02 0.28624919523E+02 0.30329932565E+02 0.30334815579E+02
 0.28635707445E+02 0.25441159154E+02 0.13450768645E+02 0.10479557115E+02 0.80497234599E+01
 0.62425339694E+01 0.49092400533E+01 0.40093980410E+01 0.34671904710E+01 0.31874700128E+01
 0.31023909208E+01 0.31880624736E+01 0.34671784214E+01 0.40071356755E+01 0.49044860778E+01
 0.62380192779E+01 0.80497503180E+01 0.10485794566E+02 0.13459653218E+02 0.16576053310E+02
 0.19300743416E+02 0.21148855392E+02 0.21802396607E+02 0.21151138560E+02 0.19300747318E+02
 0.16570438390E+02 0.86617666864E+01 0.70792703928E+01 0.57742083679E+01 0.47507661683E+01
 0.40286369684E+01 0.35675344551E+01 0.33047521281E+01 0.31875200297E+01 0.31880624736E+01
 0.33064816378E+01 0.35697259602E+01 0.40287734960E+01 0.47464654928E+01 0.57665761887E+01
 0.70731531265E+01 0.86617097322E+01 0.10485794566E+02 0.12304675545E+02 0.13779874059E+02
 0.14604837070E+02 0.14602482093E+02 0.13773303195E+02 0.12296128187E+02 0.10479602197E+02
 0.61299161074E+01 0.52718883070E+01 0.45810407413E+01 0.40836821553E+01 0.37598788581E+01
 0.35673340348E+01 0.34667900891E+01 0.34354046205E+01 0.34671784214E+01 0.35697259602E+01
 0.37646821954E+01 0.40881298878E+01 0.45809613646E+01 0.52657724203E+01 0.61210153202E+01
 0.70731531265E+01 0.80497503180E+01 0.89378025838E+01 0.95677166097E+01 0.97943136992E+01
 0.95628952334E+01 0.89325841541E+01 0.80493348527E+01 0.70791321712E+01 0.48105662413E+01
 0.44492375658E+01 0.42116130707E+01 0.40837732637E+01 0.40287003986E+01 0.40091882081E+01
 0.40026727043E+01 0.40015391856E+01 0.40071356755E+01 0.40287734960E+01 0.40881298878E+01
 0.42190244867E+01 0.44551723986E+01 0.48106757072E+01 0.52657724203E+01 0.57665761887E+01
 0.62380192779E+01 0.66036684458E+01 0.68044918528E+01 0.68042339218E+01 0.66045597158E+01
 0.62426104798E+01 0.57741009624E+01 0.52716336567E+01 0.43992281400E+01 0.44490839051E+01
 0.45809587814E+01 0.47510223178E+01 0.49096836402E+01 0.50185456550E+01 0.50560165857E+01
 0.50155167014E+01 0.49044860778E+01 0.47464654928E+01 0.45809613646E+01 0.44551723986E+01
 0.44081719022E+01 0.44551723986E+01 0.45809613646E+01 0.47464654928E+01 0.49044860778E+01
 0.50155167014E+01 0.50560165857E+01 0.50185456550E+01 0.49096836402E+01 0.47510223178E+01
 0.45809587814E+01 0.44490839051E+01 0.48105662413E+01 0.52716336567E+01 0.57741009624E+01
 0.62426104798E+01 0.66045597158E+01 0.68042339218E+01 0.68044918528E+01 0.66036684458E+01
 0.62380192779E+01 0.57665761887E+01 0.52657724203E+01 0.48106757072E+01 0.44551723986E+01
 0.42190244867E+01 0.40881298878E+01 0.40287734960E+01 0.40071356755E+01 0.40015391856E+01
 0.40026727043E+01 0.40091882081E+01 0.40287003986E+01 0.40837732637E+01 0.42116130707E+01
 0.44492375658E+01 0.61299161074E+01 0.70791321712E+01 0.80493348527E+01 0.89325841541E+01
 0.95628952334E+01 0.97943136992E+01 0.95677166097E+01 0.89378025838E+01 0.80497503180E+01
 0.70731531265E+01 0.61210153202E+01 0.52657724203E+01 0.45809613646E+01 0.40881298878E+01
 0.37646821954E+01 0.35697259602E+01 0.34671784214E+01 0.34354046205E+01 0.34667900891E+01
 0.35673340348E+01 0.37598788581E+01 0.40836821553E+01 0.45810407413E+01 0.52718883070E+01
 0.86617666864E+01 0.10479602197E+02 0.12296128187E+02 0.13773303195E+02 0.14602482093E+02
 0.14604837070E+02 0.13779874059E+02 0.12304675545E+02 0.10485794566E+02 0.86617097322E+01
 0.70731531265E+01 0.57665761887E+01 0.47464654928E+01 0.40287734960E+01 0.35697259602E+01
 0.33064816378E+01 0.31880624736E+01 0.31875200297E+01 0.33047521281E+01 0.35675344551E+01
 0.40286369684E+01 0.47507661683E+01 0.57742083679E+01 0.70792703928E+01 0.13450768645E+02
 0.16570438390E+02 0.19300747318E+02 0.21151138560E+02 0.21802396607E+02 0.21148855392E+02
 0.19300743416E+02 0.16576053310E+02 0.13459653218E+02 0.10485794566E+02 0.80497503180E+01
 0.62380192779E+01 0.49044860778E+01 0.40071356755E+01 0.34671784214E+01 0.31880624736E+01
 0.31023909208E+01 0.31874700128E+01 0.34671904710E+01 0.40093980410E+01 0.49092400533E+01
 0.62425339694E+01 0.80497234599E+01 0.10479557115E+02 0.21197559997E+02 0.25441159154E+02
 0.28635707445E+02 0.30334815579E+02 0.30329932565E+02 0.28624919523E+02 0.25432693013E+02
 0.21197121395E+02 0.16576053310E+02 0.12304675545E+02 0.89378025838E+01 0.66036684458E+01
 0.50155167014E+01 0.40015391856E+01 0.34354046205E+01 0.31875200297E+01 0.31874700128E+01
 0.34358635144E+01 0.40033465524E+01 0.50178993050E+01 0.66038715091E+01 0.89333486972E+01
 0.12296550663E+02 0.16569378597E+02 0.31272226259E+02 0.35995512452E+02 0.39043434133E+02
 0.40092183543E+02 0.39036291143E+02 0.35984419412E+02 0.31262182426E+02 0.25432693013E+02
 0.19300743416E+02 0.13779874059E+02 0.95677166097E+01 0.68044918528E+01 0.50560165857E+01
 0.40026727043E+01 0.34667900891E+01 0.33047521281E+01 0.34671904710E+01 0.40033465524E+01
 0.50560174240E+01 0.68022849060E+01 0.95629330840E+01 0.13774771516E+02 0.19299260323E+02
 0.25437462952E+02 0.42343224027E+02 0.47035628867E+02 0.49548575945E+02 0.49549048201E+02
 0.47035782120E+02 0.42340875536E+02 0.35984419412E+02 0.28624919523E+02 0.21148855392E+02
 0.14604837070E+02 0.97943136992E+01 0.68042339218E+01 0.50185456550E+01 0.40091882081E+01
 0.35673340348E+01 0.35675344551E+01 0.40093980410E+01 0.50178993050E+01 0.68022849060E+01
 0.97919779532E+01 0.14604244191E+02 0.21151620562E+02 0.28630281008E+02 0.35989494829E+02
 0.53681531996E+02 0.58239351302E+02 0.59886795702E+02 0.58243181335E+02 0.53686779750E+02
 0.47035782120E+02 0.39036291143E+02 0.30329932565E+02 0.21802396607E+02 0.14602482093E+02
 0.95628952334E+01 0.66045597158E+01 0.49096836402E+01 0.40287003986E+01 0.37598788581E+01
 0.40286369684E+01 0.49092400533E+01 0.66038715091E+01 0.95629330840E+01 0.14604244191E+02
 0.21805588224E+02 0.30332628780E+02 0.39036226470E+02 0.47032261435E+02 0.65403820782E+02
 0.69604701068E+02 0.69602154567E+02 0.65398812957E+02 0.58243181335E+02 0.49549048201E+02
 0.40092183543E+02 0.30334815579E+02 0.21151138560E+02 0.13773303195E+02 0.89325841541E+01
 0.62426104798E+01 0.47510223178E+01 0.40837732637E+01 0.40836821553E+01 0.47507661683E+01
 0.62425339694E+01 0.89333486972E+01 0.13774771516E+02 0.21151620562E+02 0.30332628780E+02
 0.40088302792E+02 0.49547101543E+02 0.58245700258E+02 0.77057247847E+02 0.79898579964E+02
 0.77040997225E+02 0.69602154567E+02 0.59886795702E+02 0.49548575945E+02 0.39043434133E+02
 0.28635707445E+02 0.19300747318E+02 0.12296128187E+02 0.80493348527E+01 0.57741009624E+01
 0.45809587814E+01 0.42116130707E+01 0.45810407413E+01 0.57742083679E+01 0.80497234599E+01
 0.12296550663E+02 0.19299260323E+02 0.28630281008E+02 0.39036226470E+02 0.49547101543E+02
 0.59897632737E+02 0.69622255011E+02 0.86319590960E+02 0.86310735412E+02 0.79898579964E+02
 0.69604701068E+02 0.58239351302E+02 0.47035628867E+02 0.35995512452E+02 0.25441159154E+02
 0.16570438390E+02 0.10479602197E+02 0.70791321712E+01 0.52716336567E+01 0.44490839051E+01
 0.44492375658E+01 0.52718883070E+01 0.70792703928E+01 0.10479557115E+02 0.16569378597E+02
 0.25437462952E+02 0.35989494829E+02 0.47032261435E+02 0.58245700258E+02 0.69622255011E+02
 0.79918571964E+02 0.86319590960E+02 0.79918571964E+02 0.69622255011E+02 0.58245700258E+02
 0.47032261435E+02 0.35989494829E+02 0.25437462952E+02 0.16569378597E+02 0.10479557115E+02
 0.70792703928E+01 0.52718883070E+01 0.44492375658E+01 0.44490839051E+01 0.52716336567E+01
 0.70791321712E+01 0.10479602197E+02 0.16570438390E+02 0.25441159154E+02 0.35995512452E+02
 0.47035628867E+02 0.58239351302E+02 0.69604701068E+02 0.79898579964E+02 0.86310735412E+02
 0.79918571964E+02 0.71897334884E+02 0.61555414714E+02 0.50775735927E+02 0.40021743723E+02
 0.29430139526E+02 0.19884726020E+02 0.12659015710E+02 0.82466343272E+01 0.58928419380E+01
 0.46599867033E+01 0.42774139402E+01 0.46599553015E+01 0.58926756639E+01 0.82460363472E+01
 0.12658716961E+02 0.19887585868E+02 0.29438411091E+02 0.40031482778E+02 0.50776085951E+02
 0.61537794506E+02 0.71867037844E+02 0.79894639405E+02 0.83001726638E+02 0.69622255011E+02
 0.61555414714E+02 0.52089133436E+02 0.42135447038E+02 0.32015902000E+02 0.22435473526E+02
 0.14616223451E+02 0.94043778737E+01 0.65086216467E+01 0.49210221675E+01 0.42066907649E+01
 0.42067760982E+01 0.49211627030E+01 0.65082654036E+01 0.94030331417E+01 0.14615213649E+02
 0.22438089723E+02 0.32023473420E+02 0.42143010981E+02 0.52087753859E+02 0.61541458409E+02
 0.69603840212E+02 0.74452731435E+02 0.74461254741E+02 0.58245700258E+02 0.50775735927E+02
 0.42135447038E+02 0.32907114681E+02 0.23812365751E+02 0.15971627094E+02 0.10355644082E+02
 0.70356679574E+01 0.51775619498E+01 0.42052765409E+01 0.39072618516E+01 0.42052946675E+01
 0.51777961486E+01 0.70355762110E+01 0.10354177231E+02 0.15969039570E+02 0.23810995536E+02
 0.32909249131E+02 0.42140519153E+02 0.50780610067E+02 0.58247995068E+02 0.63567765542E+02
 0.65532308763E+02 0.63567504374E+02 0.47032261435E+02 0.40021743723E+02 0.32015902000E+02
 0.23812365751E+02 0.16455652403E+02 0.10895630622E+02 0.74002734939E+01 0.53780112172E+01
 0.42322148899E+01 0.37277944937E+01 0.37276854934E+01 0.42322926991E+01 0.53787991862E+01
 0.74012167195E+01 0.10895070614E+02 0.16452467660E+02 0.23807807308E+02 0.32013464642E+02
 0.40024561392E+02 0.47040050513E+02 0.52377763588E+02 0.55315868689E+02 0.55312226153E+02
 0.52369311227E+02 0.35989494829E+02 0.29430139526E+02 0.22435473526E+02 0.15971627094E+02
 0.10895630622E+02 0.75319056580E+01 0.54870708217E+01 0.42572412902E+01 0.36291151560E+01
 0.34386667551E+01 0.36289186393E+01 0.42572321869E+01 0.54880123397E+01 0.75341464272E+01
 0.10897974605E+02 0.15971703643E+02 0.22432087819E+02 0.29425085656E+02 0.35986158162E+02
 0.41312238953E+02 0.44793992790E+02 0.46007441763E+02 0.44792738264E+02 0.41312362743E+02
 0.25437462952E+02 0.19884726020E+02 0.14616223451E+02 0.10355644082E+02 0.74002734939E+01
 0.54870708217E+01 0.42667227462E+01 0.35851499987E+01 0.32874103588E+01 0.32872910678E+01
 0.35845407588E+01 0.42656682761E+01 0.54869350453E+01 0.74028652268E+01 0.10360901612E+02
 0.14621227951E+02 0.19885642493E+02 0.25432715985E+02 0.30424692310E+02 0.34153141013E+02
 0.36138321977E+02 0.36141377171E+02 0.34160790156E+02 0.30433039739E+02 0.16569378597E+02
 0.12659015710E+02 0.94043778737E+01 0.70356679574E+01 0.53780112172E+01 0.42572412902E+01
 0.35851499987E+01 0.32407083161E+01 0.31360757836E+01 0.32407083293E+01 0.35842033298E+01
 0.42547500618E+01 0.53751782340E+01 0.70353743651E+01 0.94087835107E+01 0.12666746552E+02
 0.16575566275E+02 0.20574397895E+02 0.24000375601E+02 0.26292875796E+02 0.27098844649E+02
 0.26298178743E+02 0.24005628526E+02 0.20574167688E+02 0.10479557115E+02 0.82466343272E+01
 0.65086216467E+01 0.51775619498E+01 0.42322148899E+01 0.36291151560E+01 0.32874103588E+01
 0.31360757836E+01 0.31365511034E+01 0.32883940235E+01 0.36291535721E+01 0.42294706971E+01
 0.51719805868E+01 0.65034360857E+01 0.82463100168E+01 0.10485435344E+02 0.13067296833E+02
 0.15603681008E+02 0.17627652699E+02 0.18748038477E+02 0.18747688458E+02 0.17625184533E+02
 0.15597296042E+02 0.13058705936E+02 0.70792703928E+01 0.58928419380E+01 0.49210221675E+01
 0.42052765409E+01 0.37277944937E+01 0.34386667551E+01 0.32872910678E+01 0.32407083293E+01
 0.32883940235E+01 0.34412225819E+01 0.37306379674E+01 0.42053602488E+01 0.49161836156E+01
 0.58848332212E+01 0.70731097100E+01 0.84476552108E+01 0.99278630857E+01 0.11288129772E+02
 0.12250927799E+02 0.12597155475E+02 0.12245430925E+02 0.11280057560E+02 0.99219501959E+01
 0.84477737349E+01 0.52718883070E+01 0.46599867033E+01 0.42066907649E+01 0.39072618516E+01
 0.37276854934E+01 0.36289186393E+01 0.35845407588E+01 0.35842033298E+01 0.36291535721E+01
 0.37306379674E+01 0.39128886471E+01 0.42116215079E+01 0.46599700469E+01 0.52658033581E+01
 0.59942320399E+01 0.67674028993E+01 0.75002405169E+01 0.80949273737E+01 0.84312142773E+01
 0.84291361334E+01 0.80911967489E+01 0.74998585096E+01 0.67728280538E+01 0.60027709536E+01
 0.44492375658E+01 0.42774139402E+01 0.42067760982E+01 0.42052946675E+01 0.42322926991E+01
 0.42572321869E+01 0.42656682761E+01 0.42547500618E+01 0.42294706971E+01 0.42053602488E+01
 0.42116215079E+01 0.42852610369E+01 0.44552030053E+01 0.47255898951E+01 0.50688208347E+01
 0.54316861876E+01 0.57503330745E+01 0.59671515575E+01 0.60439460065E+01 0.59684269883E+01
 0.57543567043E+01 0.54382023956E+01 0.50741708372E+01 0.47255281409E+01 0.44490839051E+01
 0.46599553015E+01 0.49211627030E+01 0.51777961486E+01 0.53787991862E+01 0.54880123397E+01
 0.54869350453E+01 0.53751782340E+01 0.51719805868E+01 0.49161836156E+01 0.46599700469E+01
 0.44552030053E+01 0.43368425833E+01 0.43113844617E+01 0.43569512189E+01 0.44353882504E+01
 0.45090873933E+01 0.45525342789E+01 0.45541342647E+01 0.45130704962E+01 0.44391732007E+01
 0.43569849600E+01 0.43059036500E+01 0.43283326922E+01 0.52716336567E+01 0.58926756639E+01
 0.65082654036E+01 0.70355762110E+01 0.74012167195E+01 0.75341464272E+01 0.74028652268E+01
 0.70353743651E+01 0.65034360857E+01 0.58848332212E+01 0.52658033581E+01 0.47255898951E+01
 0.43113844617E+01 0.40307321044E+01 0.38602660122E+01 0.37655050781E+01 0.37187445713E+01
 0.37052154688E+01 0.37198791501E+01 0.37654322629E+01 0.38567400536E+01 0.40243773832E+01
 0.43060743038E+01 0.47255281409E+01 0.70791321712E+01 0.82460363472E+01 0.94030331417E+01
 0.10354177231E+02 0.10895070614E+02 0.10897974605E+02 0.10360901612E+02 0.94087835107E+01
 0.82463100168E+01 0.70731097100E+01 0.59942320399E+01 0.50688208347E+01 0.43569512189E+01
 0.38602660122E+01 0.35421068897E+01 0.33578019477E+01 0.32739619947E+01 0.32736643841E+01
 0.33561690965E+01 0.35385153369E+01 0.38566122610E+01 0.43569881183E+01 0.50744279355E+01
 0.60027709536E+01 0.10479602197E+02 0.12658716961E+02 0.14615213649E+02 0.15969039570E+02
 0.16452467660E+02 0.15971703643E+02 0.14621227951E+02 0.12666746552E+02 0.10485435344E+02
 0.84476552108E+01 0.67674028993E+01 0.54316861876E+01 0.44353882504E+01 0.37655050781E+01
 0.33578019477E+01 0.31438871957E+01 0.30775139138E+01 0.31428835069E+01 0.33563769591E+01
 0.37654772879E+01 0.44388249894E+01 0.54381456927E+01 0.67729026083E+01 0.84477737349E+01
 0.16570438390E+02 0.19887585868E+02 0.22438089723E+02 0.23810995536E+02 0.23807807308E+02
 0.22432087819E+02 0.19885642493E+02 0.16575566275E+02 0.13067296833E+02 0.99278630857E+01
 0.75002405169E+01 0.57503330745E+01 0.45090873933E+01 0.37187445713E+01 0.32739619947E+01
 0.30775139138E+01 0.30772518352E+01 0.32738946029E+01 0.37203343645E+01 0.45127727395E+01
 0.57540055677E+01 0.75001071922E+01 0.99220141956E+01 0.13058705936E+02 0.25441159154E+02
 0.29438411091E+02 0.32023473420E+02 0.32909249131E+02 0.32013464642E+02 0.29425085656E+02
 0.25432715985E+02 0.20574397895E+02 0.15603681008E+02 0.11288129772E+02 0.80949273737E+01
 0.59671515575E+01 0.45525342789E+01 0.37052154688E+01 0.32736643841E+01 0.31428835069E+01
 0.32738946029E+01 0.37062531865E+01 0.45541230434E+01 0.59673346973E+01 0.80914189186E+01
 0.11281130340E+02 0.15597248287E+02 0.20574167688E+02 0.35995512452E+02 0.40031482778E+02
 0.42143010981E+02 0.42140519153E+02 0.40024561392E+02 0.35986158162E+02 0.30424692310E+02
 0.24000375601E+02 0.17627652699E+02 0.12250927799E+02 0.84312142773E+01 0.60439460065E+01
 0.45541342647E+01 0.37198791501E+01 0.33561690965E+01 0.33563769591E+01 0.37203343645E+01
 0.45541230434E+01 0.60423130367E+01 0.84275845509E+01 0.12246998892E+02 0.17626623545E+02
 0.24004442721E+02 0.30433039739E+02 0.47035628867E+02 0.50776085951E+02 0.52087753859E+02
 0.50780610067E+02 0.47040050513E+02 0.41312238953E+02 0.34153141013E+02 0.26292875796E+02
 0.18748038477E+02 0.12597155475E+02 0.84291361334E+01 0.59684269883E+01 0.45130704962E+01
 0.37654322629E+01 0.35385153369E+01 0.37654772879E+01 0.45127727395E+01 0.59673346973E+01
 0.84275845509E+01 0.12596820688E+02 0.18750788340E+02 0.26298325518E+02 0.34157818179E+02
 0.41312362743E+02 0.58239351302E+02 0.61537794506E+02 0.61541458409E+02 0.58247995068E+02
 0.52377763588E+02 0.44793992790E+02 0.36138321977E+02 0.27098844649E+02 0.18747688458E+02
 0.12245430925E+02 0.80911967489E+01 0.57543567043E+01 0.44391732007E+01 0.38567400536E+01
 0.38566122610E+01 0.44388249894E+01 0.57540055677E+01 0.80914189186E+01 0.12246998892E+02
 0.18750788340E+02 0.27102138357E+02 0.36139054717E+02 0.44789844125E+02 0.52369311227E+02
 0.69604701068E+02 0.71867037844E+02 0.69603840212E+02 0.63567765542E+02 0.55315868689E+02
 0.46007441763E+02 0.36141377171E+02 0.26298178743E+02 0.17625184533E+02 0.11280057560E+02
 0.74998585096E+01 0.54382023956E+01 0.43569849600E+01 0.40243773832E+01 0.43569881183E+01
 0.54381456927E+01 0.75001071922E+01 0.11281130340E+02 0.17626623545E+02 0.26298325518E+02
 0.36139054717E+02 0.46003690210E+02 0.55313213616E+02 0.63567504374E+02 0.79898579964E+02
 0.79894639405E+02 0.74452731435E+02 0.65532308763E+02 0.55312226153E+02 0.44792738264E+02
 0.34160790156E+02 0.24005628526E+02 0.15597296042E+02 0.99219501959E+01 0.67728280538E+01
 0.50741708372E+01 0.43059036500E+01 0.43060743038E+01 0.50744279355E+01 0.67729026083E+01
 0.99220141956E+01 0.15597248287E+02 0.24004442721E+02 0.34157818179E+02 0.44789844125E+02
 0.55313213616E+02 0.65538863294E+02 0.74461254741E+02 0.86310735412E+02 0.83001726638E+02
 0.74461254741E+02 0.63567504374E+02 0.52369311227E+02 0.41312362743E+02 0.30433039739E+02
 0.20574167688E+02 0.13058705936E+02 0.84477737349E+01 0.60027709536E+01 0.47255281409E+01
 0.43283326922E+01 0.47255281409E+01 0.60027709536E+01 0.84477737349E+01 0.13058705936E+02
 0.20574167688E+02 0.30433039739E+02 0.41312362743E+02 0.52369311227E+02 0.63567504374E+02
 0.74461254741E+02 0.83001726638E+02 0.77057247847E+02 0.69622255011E+02 0.59897632737E+02
 0.49547101543E+02 0.39036226470E+02 0.28630281008E+02 0.19299260323E+02 0.12296550663E+02
 0.80497234599E+01 0.57742083679E+01 0.45810407413E+01 0.42116130707E+01 0.45809587814E+01
 0.57741009624E+01 0.80493348527E+01 0.12296128187E+02 0.19300747318E+02 0.28635707445E+02
 0.39043434133E+02 0.49548575945E+02 0.59886795702E+02 0.69602154567E+02 0.77040997225E+02
 0.79898579964E+02 0.69622255011E+02 0.61555414714E+02 0.52089133436E+02 0.42135447038E+02
 0.32015902000E+02 0.22435473526E+02 0.14616223451E+02 0.94043778737E+01 0.65086216467E+01
 0.49210221675E+01 0.42066907649E+01 0.42067760982E+01 0.49211627030E+01 0.65082654036E+01
 0.94030331417E+01 0.14615213649E+02 0.22438089723E+02 0.32023473420E+02 0.42143010981E+02
 0.52087753859E+02 0.61541458409E+02 0.69603840212E+02 0.74452731435E+02 0.74461254741E+02
 0.59897632737E+02 0.52089133436E+02 0.43197018810E+02 0.33786185478E+02 0.24507123834E+02
 0.16454519282E+02 0.10640203751E+02 0.71897010248E+01 0.52726992365E+01 0.42676414592E+01
 0.39590416331E+01 0.42675888627E+01 0.52727008519E+01 0.71890827715E+01 0.10638071846E+02
 0.16451869839E+02 0.24507148141E+02 0.33790972848E+02 0.43204313120E+02 0.52093952519E+02
 0.59897623541E+02 0.65536810748E+02 0.67636374152E+02 0.65538863294E+02 0.49547101543E+02
 0.42135447038E+02 0.33786185478E+02 0.25227533074E+02 0.17466405624E+02 0.11512524912E+02
 0.77338308108E+01 0.55756441450E+01 0.43543012199E+01 0.38147476307E+01 0.38145906483E+01
 0.43542675236E+01 0.55761004877E+01 0.77337034360E+01 0.11509911338E+02 0.17461132811E+02
 0.25222837142E+02 0.33787077995E+02 0.42144679471E+02 0.49562195808E+02 0.55327241387E+02
 0.58557532341E+02 0.58551835181E+02 0.55313213616E+02 0.39036226470E+02 0.32015902000E+02
 0.24507123834E+02 0.17466405624E+02 0.11827755919E+02 0.80412105378E+01 0.57796410817E+01
 0.44295651922E+01 0.37376836539E+01 0.35276761286E+01 0.37376896141E+01 0.44299941340E+01
 0.57807422064E+01 0.80420849704E+01 0.11826251306E+02 0.17461180542E+02 0.24500557684E+02
 0.32013938461E+02 0.39043400087E+02 0.44803630720E+02 0.48625797055E+02 0.49969060064E+02
 0.48614656222E+02 0.44789844125E+02 0.28630281008E+02 0.22435473526E+02 0.16454519282E+02
 0.11512524912E+02 0.80412105378E+01 0.58517219320E+01 0.44718399850E+01 0.37000874477E+01
 0.33631186482E+01 0.33630926420E+01 0.36999136291E+01 0.44718050743E+01 0.58528395831E+01
 0.80437878377E+01 0.11514649808E+02 0.16453403423E+02 0.22430902451E+02 0.28625669553E+02
 0.34156713405E+02 0.38288843121E+02 0.40495624514E+02 0.40494231199E+02 0.38286845994E+02
 0.34157818179E+02 0.19299260323E+02 0.14616223451E+02 0.10640203751E+02 0.77338308108E+01
 0.57796410817E+01 0.44718399850E+01 0.36888096260E+01 0.32888787432E+01 0.31673881413E+01
 0.32885294798E+01 0.36877174941E+01 0.44704509777E+01 0.57796717534E+01 0.77367210310E+01
 0.10645137217E+02 0.14620147176E+02 0.19299222156E+02 0.24000046542E+02 0.27976699093E+02
 0.30618739190E+02 0.31543984725E+02 0.30623128533E+02 0.27982932681E+02 0.24004442721E+02
 0.12296550663E+02 0.94043778737E+01 0.71897010248E+01 0.55756441450E+01 0.44295651922E+01
 0.37000874477E+01 0.32888787432E+01 0.31073163262E+01 0.31074710867E+01 0.32888358053E+01
 0.36987852895E+01 0.44266155781E+01 0.55725057274E+01 0.71892313933E+01 0.94083374349E+01
 0.12303261875E+02 0.15602417856E+02 0.18790012609E+02 0.21298561936E+02 0.22675732508E+02
 0.22677308893E+02 0.21301077065E+02 0.18789357066E+02 0.15597248287E+02 0.80497234599E+01
 0.65086216467E+01 0.52726992365E+01 0.43543012199E+01 0.37376836539E+01 0.33631186482E+01
 0.31673881413E+01 0.31074710867E+01 0.31684973482E+01 0.33645776286E+01 0.37376892684E+01
 0.43510634207E+01 0.52667351296E+01 0.65034839239E+01 0.80493334904E+01 0.99270529053E+01
 0.11965618517E+02 0.13824587537E+02 0.15128748778E+02 0.15596957243E+02 0.15125826103E+02
 0.13818611008E+02 0.11958225797E+02 0.99220141956E+01 0.57742083679E+01 0.49210221675E+01
 0.42676414592E+01 0.38147476307E+01 0.35276761286E+01 0.33630926420E+01 0.32885294798E+01
 0.32888358053E+01 0.33645776286E+01 0.35307806707E+01 0.38178706416E+01 0.42676378860E+01
 0.49162140202E+01 0.57666846600E+01 0.67673237083E+01 0.78505258212E+01 0.89281881350E+01
 0.98193126612E+01 0.10326137946E+02 0.10323509061E+02 0.98133279208E+01 0.89232996393E+01
 0.78506558172E+01 0.67729026083E+01 0.45810407413E+01 0.42066907649E+01 0.39590416331E+01
 0.38145906483E+01 0.37376896141E+01 0.36999136291E+01 0.36877174941E+01 0.36987852895E+01
 0.37376892684E+01 0.38178706416E+01 0.39649935662E+01 0.42116264875E+01 0.45810111948E+01
 0.50688971281E+01 0.56348818611E+01 0.62076822673E+01 0.67025147062E+01 0.70437454489E+01
 0.71656947361E+01 0.70420449941E+01 0.67024804872E+01 0.62120382450E+01 0.56421906098E+01
 0.50744279355E+01 0.42116130707E+01 0.42067760982E+01 0.42675888627E+01 0.43542675236E+01
 0.44299941340E+01 0.44718050743E+01 0.44704509777E+01 0.44266155781E+01 0.43510634207E+01
 0.42676378860E+01 0.42116264875E+01 0.42190944280E+01 0.43114363577E+01 0.44843471621E+01
 0.47075288046E+01 0.49345535459E+01 0.51173010207E+01 0.52186498764E+01 0.52195424775E+01
 0.51203633185E+01 0.49395628864E+01 0.47118671870E+01 0.44843434818E+01 0.43060743038E+01
 0.45809587814E+01 0.49211627030E+01 0.52727008519E+01 0.55761004877E+01 0.57807422064E+01
 0.58528395831E+01 0.57796717534E+01 0.55725057274E+01 0.52667351296E+01 0.49162140202E+01
 0.45810111948E+01 0.43114363577E+01 0.41340560453E+01 0.40462516504E+01 0.40228464343E+01
 0.40313033473E+01 0.40459294498E+01 0.40530625738E+01 0.40482782530E+01 0.40340057097E+01
 0.40228794535E+01 0.40418200073E+01 0.41267962641E+01 0.43059036500E+01 0.57741009624E+01
 0.65082654036E+01 0.71890827715E+01 0.77337034360E+01 0.80420849704E+01 0.80437878377E+01
 0.77367210310E+01 0.71892313933E+01 0.65034839239E+01 0.57666846600E+01 0.50688971281E+01
 0.44843471621E+01 0.40462516504E+01 0.37480719346E+01 0.35604219598E+01 0.34521539518E+01
 0.34027914753E+01 0.34031484106E+01 0.34520794229E+01 0.35579413367E+01 0.37431865388E+01
 0.40419389528E+01 0.44843434818E+01 0.50741708372E+01 0.80493348527E+01 0.94030331417E+01
 0.10638071846E+02 0.11509911338E+02 0.11826251306E+02 0.11514649808E+02 0.10645137217E+02
 0.94083374349E+01 0.80493334904E+01 0.67673237083E+01 0.56348818611E+01 0.47075288046E+01
 0.40228464343E+01 0.35604219598E+01 0.32740654773E+01 0.31204268214E+01 0.30720292233E+01
 0.31194421335E+01 0.32717583067E+01 0.35578641805E+01 0.40228452707E+01 0.47120279805E+01
 0.56421906098E+01 0.67728280538E+01 0.12296128187E+02 0.14615213649E+02 0.16451869839E+02
 0.17461132811E+02 0.17461180542E+02 0.16453403423E+02 0.14620147176E+02 0.12303261875E+02
 0.99270529053E+01 0.78505258212E+01 0.62076822673E+01 0.49345535459E+01 0.40313033473E+01
 0.34521539518E+01 0.31204268214E+01 0.29714890445E+01 0.29710686577E+01 0.31195757029E+01
 0.34521732785E+01 0.40337658458E+01 0.49394191405E+01 0.62120821124E+01 0.78506558172E+01
 0.99219501959E+01 0.19300747318E+02 0.22438089723E+02 0.24507148141E+02 0.25222837142E+02
 0.24500557684E+02 0.22430902451E+02 0.19299222156E+02 0.15602417856E+02 0.11965618517E+02
 0.89281881350E+01 0.67025147062E+01 0.51173010207E+01 0.40459294498E+01 0.34027914753E+01
 0.30720292233E+01 0.29710686577E+01 0.30720614237E+01 0.34037138714E+01 0.40482549955E+01
 0.51198316393E+01 0.67024806436E+01 0.89236424249E+01 0.11958225797E+02 0.15597296042E+02
 0.28635707445E+02 0.32023473420E+02 0.33790972848E+02 0.33787077995E+02 0.32013938461E+02
 0.28625669553E+02 0.24000046542E+02 0.18790012609E+02 0.13824587537E+02 0.98193126612E+01
 0.70437454489E+01 0.52186498764E+01 0.40530625738E+01 0.34031484106E+01 0.31194421335E+01
 0.31195757029E+01 0.34037138714E+01 0.40539431781E+01 0.52186473305E+01 0.70412670140E+01
 0.98143473597E+01 0.13819809672E+02 0.18789357066E+02 0.24005628526E+02 0.39043434133E+02
 0.42143010981E+02 0.43204313120E+02 0.42144679471E+02 0.39043400087E+02 0.34156713405E+02
 0.27976699093E+02 0.21298561936E+02 0.15128748778E+02 0.10326137946E+02 0.71656947361E+01
 0.52195424775E+01 0.40482782530E+01 0.34520794229E+01 0.32717583067E+01 0.34521732785E+01
 0.40482549955E+01 0.52186473305E+01 0.71633744005E+01 0.10323594364E+02 0.15128787475E+02
 0.21302753192E+02 0.27982932681E+02 0.34160790156E+02 0.49548575945E+02 0.52087753859E+02
 0.52093952519E+02 0.49562195808E+02 0.44803630720E+02 0.38288843121E+02 0.30618739190E+02
 0.22675732508E+02 0.15596957243E+02 0.10323509061E+02 0.70420449941E+01 0.51203633185E+01
 0.40340057097E+01 0.35579413367E+01 0.35578641805E+01 0.40337658458E+01 0.51198316393E+01
 0.70412670140E+01 0.10323594364E+02 0.15599856679E+02 0.22681651323E+02 0.30623727007E+02