   1   1   1   0
  0.1852200E+02  0.2969849E-09  0.2969849E-09  0.2969849E-09  0.5000000E-15
  1.000000000000000E-004
  CAR 
 fcc Au                                  
     35.29257570     -6.50067932  301      4.41725821      1.00000000
     -6.501  0.0000E+00  0.0000E+00
     -6.361  0.0000E+00  0.0000E+00
     -6.222 -0.4692E-33 -0.6537E-34
     -6.083 -0.4279E-28 -0.5961E-29
     -5.943 -0.1467E-23 -0.2044E-24
     -5.804 -0.1889E-19 -0.2631E-20
     -5.665 -0.8788E-16 -0.1224E-16
     -5.526 -0.1578E-12 -0.2200E-13
     -5.386 -0.1043E-09 -0.1455E-10
     -5.247 -0.2523E-07 -0.3529E-08
     -5.108 -0.2188E-05 -0.3083E-06
     -4.968 -0.6498E-04 -0.9361E-05
     -4.829 -0.5773E-03 -0.8979E-04
     -4.690 -0.5448E-03 -0.1657E-03
     -4.550  0.6578E-02  0.7506E-03
     -4.411  0.2298E-01  0.3952E-02
     -4.272  0.4704E-01  0.1051E-01
     -4.132  0.5820E-01  0.1861E-01
     -3.993  0.6012E-01  0.2699E-01
     -3.854  0.7407E-01  0.3731E-01
     -3.714  0.1027E+00  0.5162E-01
     -3.575  0.1101E+00  0.6695E-01
     -3.436  0.7795E-01  0.7781E-01
     -3.297  0.1002E+00  0.9176E-01
     -3.157  0.1692E+00  0.1153E+00
     -3.018  0.1664E+00  0.1385E+00
     -2.879  0.1193E+00  0.1551E+00
     -2.739  0.1665E+00  0.1783E+00
     -2.600  0.2075E+00  0.2072E+00
     -2.461  0.2044E+00  0.2357E+00
     -2.321  0.2691E+00  0.2732E+00
     -2.182  0.3985E+00  0.3287E+00
     -2.043  0.5560E+00  0.4062E+00
     -1.903  0.6555E+00  0.4975E+00
     -1.764  0.9079E+00  0.6240E+00
     -1.625  0.1231E+01  0.7954E+00
     -1.485  0.1587E+01  0.1016E+01
     -1.346  0.1948E+01  0.1288E+01
     -1.207  0.2036E+01  0.1571E+01
     -1.068  0.1942E+01  0.1842E+01
     -0.928  0.1752E+01  0.2086E+01
     -0.789  0.1676E+01  0.2320E+01
     -0.650  0.1392E+01  0.2513E+01
     -0.510  0.1487E+01  0.2721E+01
     -0.371  0.1966E+01  0.2995E+01
     -0.232  0.2187E+01  0.3299E+01
     -0.092  0.2178E+01  0.3603E+01
      0.047  0.2299E+01  0.3923E+01
      0.186  0.2546E+01  0.4278E+01
      0.326  0.2687E+01  0.4652E+01
      0.465  0.3258E+01  0.5106E+01
      0.604  0.3490E+01  0.5592E+01
      0.743  0.2638E+01  0.5960E+01
      0.883  0.1826E+01  0.6214E+01
      1.022  0.1696E+01  0.6450E+01
      1.161  0.1940E+01  0.6720E+01
      1.301  0.2269E+01  0.7037E+01
      1.440  0.2559E+01  0.7393E+01
      1.579  0.2211E+01  0.7701E+01
      1.719  0.2110E+01  0.7995E+01
      1.858  0.2098E+01  0.8287E+01
      1.997  0.1761E+01  0.8533E+01
      2.137  0.1904E+01  0.8798E+01
      2.276  0.2031E+01  0.9081E+01
      2.415  0.2621E+01  0.9446E+01
      2.555  0.3104E+01  0.9878E+01
      2.694  0.2578E+01  0.1024E+02
      2.833  0.1534E+01  0.1045E+02
      2.972  0.8100E+00  0.1056E+02
      3.112  0.3252E+00  0.1061E+02
      3.251  0.1324E+00  0.1063E+02
      3.390  0.1842E+00  0.1065E+02
      3.530  0.4121E+00  0.1071E+02
      3.669  0.4238E+00  0.1077E+02
      3.808  0.2515E+00  0.1080E+02
      3.948  0.1108E+00  0.1082E+02
      4.087  0.2367E+00  0.1085E+02
      4.226  0.5373E+00  0.1093E+02
      4.366  0.4219E+00  0.1099E+02
      4.505  0.2202E+00  0.1102E+02
      4.644  0.1857E+00  0.1104E+02
      4.783  0.1828E+00  0.1107E+02
      4.923  0.3243E+00  0.1111E+02
      5.062  0.4512E+00  0.1118E+02
      5.201  0.3046E+00  0.1122E+02
      5.341  0.2602E+00  0.1126E+02
      5.480  0.3154E+00  0.1130E+02
      5.619  0.2744E+00  0.1134E+02
      5.759  0.2456E+00  0.1137E+02
      5.898  0.2504E+00  0.1141E+02
      6.037  0.3208E+00  0.1145E+02
      6.177  0.3259E+00  0.1150E+02
      6.316  0.3077E+00  0.1154E+02
      6.455  0.2271E+00  0.1157E+02
      6.595  0.1959E+00  0.1160E+02
      6.734  0.3386E+00  0.1165E+02
      6.873  0.3589E+00  0.1170E+02
      7.012  0.2481E+00  0.1173E+02
      7.152  0.2151E+00  0.1176E+02
      7.291  0.4923E+00  0.1183E+02
      7.430  0.6152E+00  0.1191E+02
      7.570  0.3931E+00  0.1197E+02
      7.709  0.2190E+00  0.1200E+02
      7.848  0.1848E+00  0.1203E+02
      7.988  0.2695E+00  0.1206E+02
      8.127  0.4108E+00  0.1212E+02
      8.266  0.4158E+00  0.1218E+02
      8.406  0.3578E+00  0.1223E+02
      8.545  0.2329E+00  0.1226E+02
      8.684  0.6409E-01  0.1227E+02
      8.824  0.1462E+00  0.1229E+02
      8.963  0.3666E+00  0.1234E+02
      9.102  0.4753E+00  0.1241E+02
      9.241  0.4201E+00  0.1247E+02
      9.381  0.3866E+00  0.1252E+02
      9.520  0.3994E+00  0.1258E+02
      9.659  0.3167E+00  0.1262E+02
      9.799  0.3575E+00  0.1267E+02
      9.938  0.4120E+00  0.1273E+02
     10.077  0.4101E+00  0.1278E+02
     10.217  0.3845E+00  0.1284E+02
     10.356  0.2672E+00  0.1287E+02
     10.495  0.1585E+00  0.1290E+02
     10.635  0.2926E+00  0.1294E+02
     10.774  0.4927E+00  0.1301E+02
     10.913  0.3767E+00  0.1306E+02
     11.052  0.9677E-01  0.1307E+02
     11.192  0.1234E+00  0.1309E+02
     11.331  0.4020E+00  0.1315E+02
     11.470  0.4328E+00  0.1321E+02
     11.610  0.3221E+00  0.1325E+02
     11.749  0.4283E+00  0.1331E+02
     11.888  0.3749E+00  0.1336E+02
     12.028  0.4160E+00  0.1342E+02
     12.167  0.6487E+00  0.1351E+02
     12.306  0.3929E+00  0.1357E+02
     12.446  0.3404E-01  0.1357E+02
     12.585  0.3965E-01  0.1358E+02
     12.724  0.3079E+00  0.1362E+02
     12.864  0.5523E+00  0.1370E+02
     13.003  0.4366E+00  0.1376E+02
     13.142  0.2954E+00  0.1380E+02
     13.281  0.4306E+00  0.1386E+02
     13.421  0.4501E+00  0.1392E+02
     13.560  0.4677E+00  0.1399E+02
     13.699  0.5362E+00  0.1406E+02
     13.839  0.3389E+00  0.1411E+02
     13.978  0.3078E+00  0.1415E+02
     14.117  0.4909E+00  0.1422E+02
     14.257  0.4407E+00  0.1428E+02
     14.396  0.3653E+00  0.1433E+02
     14.535  0.6155E+00  0.1442E+02
     14.675  0.8015E+00  0.1453E+02
     14.814  0.4964E+00  0.1460E+02
     14.953  0.2947E+00  0.1464E+02
     15.093  0.4068E+00  0.1469E+02
     15.232  0.3928E+00  0.1475E+02
     15.371  0.4681E+00  0.1481E+02
     15.510  0.7019E+00  0.1491E+02
     15.650  0.8415E+00  0.1503E+02
     15.789  0.8125E+00  0.1514E+02
     15.928  0.4759E+00  0.1521E+02
     16.068  0.2413E+00  0.1524E+02
     16.207  0.1944E+00  0.1527E+02
     16.346  0.3891E+00  0.1532E+02
     16.486  0.5240E+00  0.1540E+02
     16.625  0.5469E+00  0.1547E+02
     16.764  0.6296E+00  0.1556E+02
     16.904  0.5625E+00  0.1564E+02
     17.043  0.4494E+00  0.1570E+02
     17.182  0.4564E+00  0.1577E+02
     17.321  0.6171E+00  0.1585E+02
     17.461  0.4960E+00  0.1592E+02
     17.600  0.3747E+00  0.1597E+02
     17.739  0.5283E+00  0.1605E+02
     17.879  0.5779E+00  0.1613E+02
     18.018  0.4185E+00  0.1619E+02
     18.157  0.3946E+00  0.1624E+02
     18.297  0.5445E+00  0.1632E+02
     18.436  0.5335E+00  0.1639E+02
     18.575  0.3071E+00  0.1643E+02
     18.715  0.2570E+00  0.1647E+02
     18.854  0.5364E+00  0.1654E+02
     18.993  0.6306E+00  0.1663E+02
     19.133  0.5678E+00  0.1671E+02
     19.272  0.5861E+00  0.1679E+02
     19.411  0.6336E+00  0.1688E+02
     19.550  0.6735E+00  0.1697E+02
     19.690  0.4993E+00  0.1704E+02
     19.829  0.4028E+00  0.1710E+02
     19.968  0.4813E+00  0.1717E+02
     20.108  0.5977E+00  0.1725E+02
     20.247  0.5477E+00  0.1733E+02
     20.386  0.3524E+00  0.1738E+02
     20.526  0.2240E+00  0.1741E+02
     20.665  0.4904E+00  0.1748E+02
     20.804  0.1016E+01  0.1762E+02
     20.944  0.1136E+01  0.1778E+02
     21.083  0.8111E+00  0.1789E+02
     21.222  0.7330E+00  0.1799E+02
     21.361  0.7589E+00  0.1810E+02
     21.501  0.7208E+00  0.1820E+02
     21.640  0.9654E+00  0.1833E+02
     21.779  0.1136E+01  0.1849E+02
     21.919  0.1003E+01  0.1863E+02
     22.058  0.7789E+00  0.1874E+02
     22.197  0.6377E+00  0.1883E+02
     22.337  0.4988E+00  0.1890E+02
     22.476  0.5664E+00  0.1897E+02
     22.615  0.8464E+00  0.1909E+02
     22.755  0.7100E+00  0.1919E+02
     22.894  0.5284E+00  0.1927E+02
     23.033  0.7552E+00  0.1937E+02
     23.173  0.9382E+00  0.1950E+02
     23.312  0.7527E+00  0.1961E+02
     23.451  0.4411E+00  0.1967E+02
     23.590  0.4319E+00  0.1973E+02
     23.730  0.6040E+00  0.1981E+02
     23.869  0.5255E+00  0.1988E+02
     24.008  0.3835E+00  0.1994E+02
     24.148  0.4798E+00  0.2001E+02
     24.287  0.3718E+00  0.2006E+02
     24.426  0.3140E+00  0.2010E+02
     24.566  0.5492E+00  0.2018E+02
     24.705  0.7252E+00  0.2028E+02
     24.844  0.4950E+00  0.2035E+02
     24.984  0.3777E+00  0.2040E+02
     25.123  0.4002E+00  0.2046E+02
     25.262  0.3037E+00  0.2050E+02
     25.402  0.1799E+00  0.2052E+02
     25.541  0.2342E+00  0.2056E+02
     25.680  0.3677E+00  0.2061E+02
     25.819  0.3017E+00  0.2065E+02
     25.959  0.2921E+00  0.2069E+02
     26.098  0.6676E+00  0.2078E+02
     26.237  0.9177E+00  0.2091E+02
     26.377  0.5391E+00  0.2099E+02
     26.516  0.1923E+00  0.2101E+02
     26.655  0.2390E+00  0.2105E+02
     26.795  0.3091E+00  0.2109E+02
     26.934  0.2444E+00  0.2112E+02
     27.073  0.2857E+00  0.2116E+02
     27.213  0.5350E+00  0.2124E+02
     27.352  0.6838E+00  0.2133E+02
     27.491  0.5623E+00  0.2141E+02
     27.630  0.4258E+00  0.2147E+02
     27.770  0.5744E+00  0.2155E+02
     27.909  0.9377E+00  0.2168E+02
     28.048  0.1229E+01  0.2185E+02
     28.188  0.1057E+01  0.2200E+02
     28.327  0.7027E+00  0.2210E+02
     28.466  0.5175E+00  0.2217E+02
     28.606  0.5452E+00  0.2224E+02
     28.745  0.5189E+00  0.2232E+02
     28.884  0.4965E+00  0.2239E+02
     29.024  0.6750E+00  0.2248E+02
     29.163  0.7105E+00  0.2258E+02
     29.302  0.6030E+00  0.2266E+02
     29.442  0.9322E+00  0.2279E+02
     29.581  0.1174E+01  0.2296E+02
     29.720  0.8344E+00  0.2307E+02
     29.859  0.4720E+00  0.2314E+02
     29.999  0.5294E+00  0.2321E+02
     30.138  0.6363E+00  0.2330E+02
     30.277  0.5628E+00  0.2338E+02
     30.417  0.5227E+00  0.2345E+02
     30.556  0.3593E+00  0.2350E+02
     30.695  0.2926E+00  0.2354E+02
     30.835  0.4329E+00  0.2360E+02
     30.974  0.4849E+00  0.2367E+02
     31.113  0.4869E+00  0.2374E+02
     31.253  0.3768E+00  0.2379E+02
     31.392  0.2083E+00  0.2382E+02
     31.531  0.1101E+00  0.2384E+02
     31.670  0.7326E-01  0.2385E+02
     31.810  0.8677E-01  0.2386E+02
     31.949  0.1149E+00  0.2387E+02
     32.088  0.9290E-01  0.2389E+02
     32.228  0.1280E+00  0.2390E+02
     32.367  0.2180E+00  0.2394E+02
     32.506  0.1811E+00  0.2396E+02
     32.646  0.3696E-01  0.2397E+02
     32.785 -0.1185E-01  0.2396E+02
     32.924 -0.3141E-03  0.2396E+02
     33.064  0.3799E-01  0.2397E+02
     33.203  0.8860E-01  0.2398E+02
     33.342  0.9936E-01  0.2400E+02
     33.482  0.3793E-01  0.2400E+02
     33.621 -0.2460E-02  0.2400E+02
     33.760 -0.2480E-02  0.2400E+02
     33.899 -0.2507E-03  0.2400E+02
     34.039 -0.7807E-05  0.2400E+02
     34.178 -0.8522E-07  0.2400E+02
     34.317 -0.3393E-09  0.2400E+02
     34.457 -0.5004E-12  0.2400E+02
     34.596 -0.2869E-15  0.2400E+02
     34.735  0.0000E+00  0.2400E+02
     34.875  0.0000E+00  0.2400E+02
     35.014  0.0000E+00  0.2400E+02
     35.153  0.0000E+00  0.2400E+02
     35.293  0.0000E+00  0.2400E+02
     35.29257570     -6.50067932  301      4.41725821      1.00000000
     -6.501  0.0000E+00  0.0000E+00  0.0000E+00
     -6.361  0.0000E+00  0.0000E+00  0.0000E+00
     -6.222 -0.2944E-33 -0.1881E-35 -0.4392E-37
     -6.083 -0.2685E-28 -0.1715E-30 -0.4005E-32
     -5.943 -0.9206E-24 -0.5881E-26 -0.1373E-27
     -5.804 -0.1185E-19 -0.7570E-22 -0.1768E-23
     -5.665 -0.5513E-16 -0.3522E-18 -0.8225E-20
     -5.526 -0.9903E-13 -0.6327E-15 -0.1478E-16
     -5.386 -0.6543E-10 -0.4181E-12 -0.9769E-14
     -5.247 -0.1583E-07 -0.1012E-09 -0.2370E-11
     -5.108 -0.1373E-05 -0.8817E-08 -0.2087E-09
     -4.968 -0.4076E-04 -0.2675E-06 -0.6667E-08
     -4.829 -0.3618E-03 -0.2691E-05 -0.8531E-07
     -4.690 -0.3351E-03 -0.8736E-05 -0.6042E-06
     -4.550  0.4155E-02 -0.1152E-05 -0.2006E-05
     -4.411  0.1436E-01  0.1529E-03  0.3968E-05
     -4.272  0.2909E-01  0.6025E-03  0.3488E-04
     -4.132  0.3568E-01  0.1024E-02  0.1049E-03
     -3.993  0.3638E-01  0.1468E-02  0.2170E-03
     -3.854  0.4415E-01  0.2371E-02  0.4294E-03
     -3.714  0.6033E-01  0.3953E-02  0.9399E-03
     -3.575  0.6394E-01  0.4636E-02  0.1457E-02
     -3.436  0.4460E-01  0.3625E-02  0.1541E-02
     -3.297  0.5576E-01  0.5669E-02  0.2712E-02
     -3.157  0.9262E-01  0.1029E-01  0.5768E-02
     -3.018  0.8985E-01  0.1053E-01  0.6815E-02
     -2.879  0.6256E-01  0.8010E-02  0.6954E-02
     -2.739  0.8396E-01  0.1193E-01  0.1347E-01
     -2.600  0.1017E+00  0.1512E-01  0.2032E-01
     -2.461  0.9638E-01  0.1582E-01  0.2371E-01
     -2.321  0.1207E+00  0.2088E-01  0.4024E-01
     -2.182  0.1548E+00  0.2532E-01  0.1021E+00
     -2.043  0.1768E+00  0.2538E-01  0.2125E+00
     -1.903  0.1785E+00  0.2635E-01  0.2965E+00
     -1.764  0.2162E+00  0.3890E-01  0.4440E+00
     -1.625  0.2352E+00  0.4703E-01  0.6835E+00
     -1.485  0.2231E+00  0.5054E-01  0.1007E+01
     -1.346  0.2068E+00  0.5357E-01  0.1348E+01
     -1.207  0.1730E+00  0.5489E-01  0.1477E+01
     -1.068  0.1265E+00  0.5204E-01  0.1467E+01
     -0.928  0.8958E-01  0.5323E-01  0.1350E+01
     -0.789  0.5869E-01  0.5598E-01  0.1321E+01
     -0.650  0.2710E-01  0.5212E-01  0.1118E+01
     -0.510  0.1658E-01  0.6457E-01  0.1201E+01
     -0.371  0.1864E-01  0.8500E-01  0.1599E+01
     -0.232  0.1979E-01  0.8263E-01  0.1807E+01
     -0.092  0.2412E-01  0.6959E-01  0.1828E+01
      0.047  0.3366E-01  0.7503E-01  0.1933E+01
      0.186  0.4522E-01  0.9475E-01  0.2123E+01
      0.326  0.4857E-01  0.8934E-01  0.2270E+01
      0.465  0.4603E-01  0.1019E+00  0.2795E+01
      0.604  0.4931E-01  0.1261E+00  0.2976E+01
      0.743  0.4959E-01  0.1070E+00  0.2219E+01
      0.883  0.3389E-01  0.6941E-01  0.1548E+01
      1.022  0.1904E-01  0.6420E-01  0.1458E+01
      1.161  0.2361E-01  0.7389E-01  0.1670E+01
      1.301  0.2984E-01  0.7317E-01  0.1980E+01
      1.440  0.3116E-01  0.6926E-01  0.2265E+01
      1.579  0.2172E-01  0.4519E-01  0.1994E+01
      1.719  0.1752E-01  0.4082E-01  0.1920E+01
      1.858  0.1997E-01  0.5025E-01  0.1895E+01
      1.997  0.1509E-01  0.3758E-01  0.1606E+01
      2.137  0.1432E-01  0.3140E-01  0.1762E+01
      2.276  0.1923E-01  0.3178E-01  0.1883E+01
      2.415  0.2169E-01  0.2735E-01  0.2466E+01
      2.555  0.1599E-01  0.1903E-01  0.2964E+01
      2.694  0.9656E-02  0.1361E-01  0.2476E+01
      2.833  0.2225E-01  0.1755E-01  0.1440E+01
      2.972  0.4201E-01  0.2721E-01  0.6917E+00
      3.112  0.3467E-01  0.2969E-01  0.2218E+00
      3.251  0.2017E-01  0.2800E-01  0.5389E-01
      3.390  0.2181E-01  0.2305E-01  0.1119E+00
      3.530  0.4989E-01  0.3350E-01  0.2826E+00
      3.669  0.5526E-01  0.4010E-01  0.2760E+00
      3.808  0.3796E-01  0.3304E-01  0.1416E+00
      3.948  0.1927E-01  0.1740E-01  0.5463E-01
      4.087  0.3369E-01  0.4145E-01  0.1167E+00
      4.226  0.7645E-01  0.9412E-01  0.2649E+00
      4.366  0.6729E-01  0.7102E-01  0.2057E+00
      4.505  0.4150E-01  0.3800E-01  0.9950E-01
      4.644  0.3528E-01  0.3230E-01  0.8331E-01
      4.783  0.3397E-01  0.3109E-01  0.8333E-01
      4.923  0.6181E-01  0.5925E-01  0.1379E+00
      5.062  0.8813E-01  0.8616E-01  0.1835E+00
      5.201  0.6090E-01  0.6053E-01  0.1189E+00
      5.341  0.4631E-01  0.5735E-01  0.9857E-01
      5.480  0.5049E-01  0.7659E-01  0.1145E+00
      5.619  0.5349E-01  0.6540E-01  0.9116E-01
      5.759  0.5937E-01  0.5401E-01  0.7480E-01
      5.898  0.6501E-01  0.4927E-01  0.8011E-01
      6.037  0.7991E-01  0.6199E-01  0.1086E+00
      6.177  0.7309E-01  0.7123E-01  0.1065E+00
      6.316  0.6279E-01  0.8075E-01  0.8812E-01
      6.455  0.4511E-01  0.6543E-01  0.5695E-01
      6.595  0.5167E-01  0.4404E-01  0.5175E-01
      6.734  0.1026E+00  0.6371E-01  0.9373E-01
      6.873  0.1057E+00  0.7208E-01  0.9712E-01
      7.012  0.7644E-01  0.4891E-01  0.6543E-01
      7.152  0.8148E-01  0.2915E-01  0.6065E-01
      7.291  0.1977E+00  0.6279E-01  0.1307E+00
      7.430  0.2571E+00  0.7657E-01  0.1502E+00
      7.570  0.1554E+00  0.5701E-01  0.9261E-01
      7.709  0.7014E-01  0.4760E-01  0.4704E-01
      7.848  0.7721E-01  0.2850E-01  0.3611E-01
      7.988  0.1180E+00  0.3460E-01  0.5711E-01
      8.127  0.1412E+00  0.8263E-01  0.8534E-01
      8.266  0.1125E+00  0.1030E+00  0.9143E-01
      8.406  0.1047E+00  0.8342E-01  0.7676E-01
      8.545  0.8201E-01  0.4797E-01  0.4206E-01
      8.684  0.1722E-01  0.1762E-01  0.1056E-01
      8.824  0.1219E-01  0.5663E-01  0.3234E-01
      8.963  0.7583E-01  0.1115E+00  0.7432E-01
      9.102  0.1228E+00  0.1322E+00  0.8638E-01
      9.241  0.1040E+00  0.1220E+00  0.7324E-01
      9.381  0.1116E+00  0.1054E+00  0.6042E-01
      9.520  0.1377E+00  0.9753E-01  0.5802E-01
      9.659  0.1185E+00  0.6828E-01  0.4965E-01
      9.799  0.1120E+00  0.8685E-01  0.6484E-01
      9.938  0.9779E-01  0.1259E+00  0.6935E-01
     10.077  0.8122E-01  0.1380E+00  0.6678E-01
     10.217  0.7096E-01  0.1259E+00  0.7385E-01
     10.356  0.5470E-01  0.8309E-01  0.5087E-01
     10.495  0.4340E-01  0.4659E-01  0.2048E-01
     10.635  0.7825E-01  0.8548E-01  0.4022E-01
     10.774  0.1296E+00  0.1453E+00  0.6874E-01
     10.913  0.1087E+00  0.1112E+00  0.4148E-01
     11.052  0.3278E-01  0.2846E-01  0.5402E-02
     11.192  0.3348E-01  0.3931E-01  0.1532E-01
     11.331  0.9885E-01  0.1261E+00  0.5595E-01
     11.470  0.1107E+00  0.1289E+00  0.6170E-01
     11.610  0.7149E-01  0.9829E-01  0.5530E-01
     11.749  0.6706E-01  0.1404E+00  0.8864E-01
     11.888  0.5913E-01  0.1251E+00  0.7294E-01
     12.028  0.6455E-01  0.1539E+00  0.6271E-01
     12.167  0.9664E-01  0.2399E+00  0.9865E-01
     12.306  0.6645E-01  0.1376E+00  0.5771E-01
     12.446  0.1086E-01  0.8229E-02  0.3296E-02
     12.585  0.7397E-02  0.1073E-01  0.8799E-02
     12.724  0.3104E-01  0.1165E+00  0.5773E-01
     12.864  0.5621E-01  0.2170E+00  0.9267E-01
     13.003  0.6557E-01  0.1645E+00  0.5836E-01
     13.142  0.6483E-01  0.9928E-01  0.3060E-01
     13.281  0.7688E-01  0.1505E+00  0.5969E-01
     13.421  0.5359E-01  0.1689E+00  0.7808E-01
     13.560  0.3093E-01  0.1909E+00  0.8315E-01
     13.699  0.3405E-01  0.2181E+00  0.9877E-01
     13.839  0.1869E-01  0.1265E+00  0.7431E-01
     13.978  0.1951E-01  0.1079E+00  0.6446E-01
     14.117  0.3932E-01  0.1862E+00  0.7987E-01
     14.257  0.4402E-01  0.1672E+00  0.5995E-01
     14.396  0.4804E-01  0.1408E+00  0.3587E-01
     14.535  0.4924E-01  0.2620E+00  0.7087E-01
     14.675  0.3257E-01  0.3343E+00  0.1338E+00
     14.814  0.1169E-01  0.1974E+00  0.9711E-01
     14.953  0.5516E-02  0.1262E+00  0.4301E-01
     15.093  0.1803E-01  0.1675E+00  0.6563E-01
     15.232  0.2616E-01  0.1498E+00  0.6894E-01
     15.371  0.3260E-01  0.1745E+00  0.7529E-01
     15.510  0.4486E-01  0.2704E+00  0.1099E+00
     15.650  0.4607E-01  0.3461E+00  0.1238E+00
     15.789  0.3650E-01  0.3373E+00  0.1206E+00
     15.928  0.1848E-01  0.1915E+00  0.7413E-01
     16.068  0.1067E-01  0.9171E-01  0.4372E-01
     16.207  0.1092E-01  0.7529E-01  0.3521E-01
     16.346  0.1339E-01  0.1580E+00  0.6461E-01
     16.486  0.1342E-01  0.2044E+00  0.8755E-01
     16.625  0.2182E-01  0.2018E+00  0.8939E-01
     16.764  0.2835E-01  0.2406E+00  0.1026E+00
     16.904  0.2335E-01  0.2245E+00  0.8905E-01
     17.043  0.2090E-01  0.1823E+00  0.6448E-01
     17.182  0.1914E-01  0.1823E+00  0.6920E-01
     17.321  0.2054E-01  0.2419E+00  0.9763E-01
     17.461  0.1340E-01  0.1905E+00  0.7925E-01
     17.600  0.9392E-02  0.1394E+00  0.6237E-01
     17.739  0.1532E-01  0.1967E+00  0.8771E-01
     17.879  0.2111E-01  0.1945E+00  0.1040E+00
     18.018  0.1840E-01  0.1326E+00  0.7127E-01
     18.157  0.1472E-01  0.1408E+00  0.5607E-01
     18.297  0.1154E-01  0.1930E+00  0.8574E-01
     18.436  0.9943E-02  0.1782E+00  0.8380E-01
     18.575  0.5860E-02  0.1095E+00  0.4004E-01
     18.715  0.2537E-02  0.1014E+00  0.3316E-01
     18.854  0.5821E-02  0.1903E+00  0.8327E-01
     18.993  0.1109E-01  0.2117E+00  0.9105E-01
     19.133  0.1608E-01  0.1519E+00  0.6235E-01
     19.272  0.1588E-01  0.1281E+00  0.6820E-01
     19.411  0.1526E-01  0.1468E+00  0.8647E-01
     19.550  0.1426E-01  0.1621E+00  0.8669E-01
     19.690  0.9276E-02  0.1133E+00  0.6259E-01
     19.829  0.6580E-02  0.8190E-01  0.5271E-01
     19.968  0.5899E-02  0.1016E+00  0.5263E-01
     20.108  0.8036E-02  0.1283E+00  0.5738E-01
     20.247  0.8278E-02  0.1077E+00  0.5373E-01
     20.386  0.4546E-02  0.5963E-01  0.3233E-01
     20.526  0.2239E-02  0.2894E-01  0.1758E-01
     20.665  0.8652E-02  0.1072E+00  0.4408E-01
     20.804  0.2723E-01  0.2504E+00  0.1006E+00
     20.944  0.3703E-01  0.2540E+00  0.1204E+00
     21.083  0.3004E-01  0.1606E+00  0.9862E-01
     21.222  0.2205E-01  0.1560E+00  0.9554E-01
     21.361  0.1695E-01  0.1666E+00  0.9780E-01
     21.501  0.1804E-01  0.1631E+00  0.9168E-01
     21.640  0.3909E-01  0.2040E+00  0.1353E+00
     21.779  0.6320E-01  0.2079E+00  0.1886E+00
     21.919  0.5273E-01  0.1864E+00  0.1699E+00
     22.058  0.2744E-01  0.1852E+00  0.1149E+00
     22.197  0.1786E-01  0.1718E+00  0.8467E-01
     22.337  0.9781E-02  0.1382E+00  0.5069E-01
     22.476  0.5216E-02  0.1629E+00  0.4052E-01
     22.615  0.8944E-02  0.2405E+00  0.7973E-01
     22.755  0.7637E-02  0.2152E+00  0.7733E-01
     22.894  0.1164E-01  0.1325E+00  0.7812E-01
     23.033  0.2395E-01  0.1357E+00  0.1377E+00
     23.173  0.2502E-01  0.1623E+00  0.1676E+00
     23.312  0.1384E-01  0.1292E+00  0.1388E+00
     23.451  0.5893E-02  0.8186E-01  0.8733E-01
     23.590  0.9030E-02  0.9880E-01  0.8433E-01
     23.730  0.1293E-01  0.1481E+00  0.1194E+00
     23.869  0.8076E-02  0.1234E+00  0.9230E-01
     24.008  0.3221E-02  0.8620E-01  0.3624E-01
     24.148  0.3922E-02  0.1141E+00  0.3393E-01
     24.287  0.4499E-02  0.8860E-01  0.3586E-01
     24.426  0.6551E-02  0.6218E-01  0.4594E-01
     24.566  0.1865E-01  0.9022E-01  0.1080E+00
     24.705  0.2670E-01  0.9603E-01  0.1745E+00
     24.844  0.1728E-01  0.9115E-01  0.1119E+00
     24.984  0.1270E-01  0.1483E+00  0.2974E-01
     25.123  0.1216E-01  0.1540E+00  0.1736E-01
     25.262  0.6013E-02  0.8456E-01  0.1849E-01
     25.402  0.1260E-02  0.2902E-01  0.1495E-01
     25.541  0.3088E-03  0.5124E-01  0.2453E-01
     25.680  0.1415E-02  0.9388E-01  0.4001E-01
     25.819  0.2074E-02  0.6324E-01  0.4210E-01
     25.959  0.4959E-02  0.4770E-01  0.4699E-01
     26.098  0.1992E-01  0.1393E+00  0.9301E-01
     26.237  0.2927E-01  0.1885E+00  0.1249E+00
     26.377  0.1554E-01  0.9569E-01  0.6726E-01
     26.516  0.2983E-02  0.1796E-01  0.2537E-01
     26.655 -0.2343E-03  0.1120E-01  0.4422E-01
     26.795  0.1531E-03  0.2402E-01  0.5586E-01
     26.934  0.2192E-02  0.3535E-01  0.3684E-01
     27.073  0.4154E-02  0.5008E-01  0.4285E-01
     27.213  0.4490E-02  0.5442E-01  0.1018E+00
     27.352  0.3108E-02  0.5002E-01  0.1422E+00
     27.491  0.2688E-02  0.3962E-01  0.1163E+00
     27.630  0.8234E-02  0.3300E-01  0.8984E-01
     27.770  0.1696E-01  0.4343E-01  0.1268E+00
     27.909  0.1791E-01  0.5527E-01  0.2255E+00
     28.048  0.1305E-01  0.7230E-01  0.3049E+00
     28.188  0.1038E-01  0.5977E-01  0.2853E+00
     28.327  0.7742E-02  0.2747E-01  0.2208E+00
     28.466  0.5236E-02  0.2672E-01  0.1453E+00
     28.606  0.4481E-02  0.3810E-01  0.1432E+00
     28.745  0.3857E-02  0.4179E-01  0.1451E+00
     28.884  0.4745E-02  0.4448E-01  0.1220E+00
     29.024  0.8343E-02  0.4010E-01  0.1616E+00
     29.163  0.1205E-01  0.3714E-01  0.1731E+00
     29.302  0.1691E-01  0.2552E-01  0.1337E+00
     29.442  0.2996E-01  0.2952E-01  0.1996E+00
     29.581  0.3527E-01  0.4611E-01  0.2624E+00
     29.720  0.2506E-01  0.4438E-01  0.1836E+00
     29.859  0.1344E-01  0.2647E-01  0.8707E-01
     29.999  0.1330E-01  0.1864E-01  0.9293E-01
     30.138  0.1564E-01  0.2226E-01  0.1229E+00
     30.277  0.1675E-01  0.2308E-01  0.1174E+00
     30.417  0.2008E-01  0.2364E-01  0.1074E+00
     30.556  0.9861E-02  0.1220E-01  0.6977E-01
     30.695  0.5223E-02  0.9691E-02  0.5417E-01
     30.835  0.1639E-01  0.2005E-01  0.7902E-01
     30.974  0.1595E-01  0.1835E-01  0.7096E-01
     31.113  0.4525E-02  0.9585E-02  0.5035E-01
     31.253  0.4752E-02  0.8938E-02  0.4115E-01
     31.392  0.1097E-01  0.1176E-01  0.2726E-01
     31.531  0.1274E-01  0.1002E-01  0.1325E-01
     31.670  0.7130E-02  0.5013E-02  0.7749E-02
     31.810  0.7126E-03  0.1365E-02  0.8142E-02
     31.949  0.2437E-03  0.1438E-02  0.1073E-01
     32.088  0.2718E-03  0.7702E-03  0.7629E-02
     32.228  0.9794E-04  0.4461E-03  0.7942E-02
     32.367  0.2728E-03  0.1633E-02  0.1128E-01
     32.506  0.1801E-03  0.1895E-02  0.7780E-02
     32.646  0.1332E-04  0.5259E-03  0.1187E-02
     32.785 -0.1005E-04 -0.8579E-04 -0.4597E-03
     32.924 -0.1877E-05 -0.4899E-04 -0.1548E-03
     33.064 -0.1060E-06 -0.1728E-04  0.3278E-03
     33.203 -0.1637E-08  0.2335E-03  0.2042E-02
     33.342  0.1482E-08  0.5852E-03  0.3524E-02
     33.482  0.8661E-09  0.3205E-03  0.1621E-02
     33.621  0.7218E-11 -0.4224E-06 -0.5286E-04
     33.760 -0.5186E-10 -0.1924E-04 -0.9982E-04
     33.899 -0.6158E-11 -0.2228E-05 -0.1072E-04
     34.039 -0.2091E-12 -0.7470E-07 -0.3449E-06
     34.178 -0.2414E-14 -0.8558E-09 -0.3849E-08
     34.317 -0.9983E-17 -0.3521E-11 -0.1556E-10
     34.457 -0.1511E-19 -0.5311E-14 -0.2320E-13
     34.596 -0.8545E-23 -0.3009E-17 -0.1322E-16
     34.735  0.0000E+00  0.0000E+00  0.0000E+00
     34.875  0.0000E+00  0.0000E+00  0.0000E+00
     35.014  0.0000E+00  0.0000E+00  0.0000E+00
     35.153  0.0000E+00  0.0000E+00  0.0000E+00
     35.293  0.0000E+00  0.0000E+00  0.0000E+00
