    1    1    1    1
  0.1852200E+02  0.2969848E-09  0.2969848E-09  0.2969848E-09  0.5000000E-15
  1.000000000000000E-004
  CAR 
 fcc Au                                  
     11    110     12
 
  0.5000000E-01  0.5000000E-01  0.5000000E-01  0.2000000E-02
    1       -4.500679   1.000000
    2        0.187931   1.000000
    3        0.239849   1.000000
    4        0.239849   1.000000
    5        1.534188   1.000000
    6        1.534188   1.000000
    7       19.864793   0.000000
    8       22.445513   0.000000
    9       23.185673   0.000000
   10       23.185673   0.000000
   11       27.824818   0.000000
   12       30.212535   0.000000
 
  0.1500000E+00  0.5000000E-01  0.5000000E-01  0.6000000E-02
    1       -4.079157   1.000000
    2        0.059306   1.000000
    3        0.360497   1.000000
    4        0.388260   1.000000
    5        1.407089   1.000000
    6        1.577741   1.000000
    7       19.906995   0.000000
    8       20.621800   0.000000
    9       22.695805   0.000000
   10       24.016077   0.000000
   11       26.949835   0.000000
   12       29.515497   0.000000
 
  0.2500000E+00  0.5000000E-01  0.5000000E-01  0.6000000E-02
    1       -3.158774   1.000000
    2       -0.030425   1.000000
    3        0.494892   1.000000
    4        0.511890   1.000000
    5        1.419693   1.000000
    6        1.765522   1.000000
    7       16.516245   0.000000
    8       20.527295   0.000000
    9       22.671133   0.000000
   10       24.903442   0.000000
   11       25.312955   0.000000
   12       27.396986   0.000000
 
  0.3500000E+00  0.5000000E-01  0.5000000E-01  0.6000000E-02
    1       -2.313201   1.000000
    2        0.343247   1.000000
    3        0.414157   1.000000
    4        0.592618   1.000000
    5        1.840986   1.000000
    6        2.262979   1.000000
    7       12.563970   0.000000
    8       19.938570   0.000000
    9       21.680188   0.000000
   10       23.667736   0.000000
   11       26.404349   0.000000
   12       27.318304   0.000000
 
  0.4500000E+00  0.5000000E-01  0.5000000E-01  0.6000000E-02
    1       -2.086908   1.000000
    2        0.210814   1.000000
    3        0.270448   1.000000
    4        1.948502   1.000000
    5        2.351403   1.000000
    6        3.150542   1.000000
    7        8.899355  -0.000000
    8       19.298897   0.000000
    9       20.847533   0.000000
   10       21.895681   0.000000
   11       27.877542   0.000000
   12       28.028054   0.000000
 
 -0.4500000E+00  0.5000000E-01  0.5000000E-01  0.6000000E-02
    1       -2.077143   1.000000
    2        0.153860   1.000000
    3        0.236456   1.000000
    4        2.246106   1.000000
    5        2.590175   1.000000
    6        4.162402   1.035105
    7        7.210552  -0.000000
    8       19.129631   0.000000
    9       20.911842   0.000000
   10       21.044844   0.000000
   11       28.245917   0.000000
   12       28.296105   0.000000
 
 -0.3500000E+00  0.5000000E-01  0.5000000E-01  0.6000000E-02
    1       -2.116472   1.000000
    2        0.237062   1.000000
    3        0.330915   1.000000
    4        1.451949   1.000000
    5        2.418130   1.000000
    6        2.602481   1.000000
    7       10.043630   0.000000
    8       19.531858   0.000000
    9       21.253907   0.000000
   10       22.018627   0.000000
   11       27.811645   0.000000
   12       28.052863   0.000000
 
 -0.2500000E+00  0.5000000E-01  0.5000000E-01  0.6000000E-02
    1       -2.530378   1.000000
    2        0.202719   1.000000
    3        0.433559   1.000000
    4        0.479288   1.000000
    5        1.770398   1.000000
    6        1.989717   1.000000
    7       13.876115   0.000000
    8       20.328337   0.000000
    9       22.074869   0.000000
   10       23.798536   0.000000
   11       26.063995   0.000000
   12       27.885759   0.000000
 
 -0.1500000E+00  0.5000000E-01  0.5000000E-01  0.6000000E-02
    1       -3.498733   1.000000
    2       -0.045486   1.000000
    3        0.486722   1.000000
    4        0.496081   1.000000
    5        1.381901   1.000000
    6        1.655725   1.000000
    7       17.803010   0.000000
    8       20.718000   0.000000
    9       22.658356   0.000000
   10       24.377430   0.000000
   11       25.715640   0.000000
   12       28.417479   0.000000
 
 -0.5000000E-01  0.5000000E-01  0.5000000E-01  0.6000000E-02
    1       -4.286537   1.000000
    2        0.096497   1.000000
    3        0.322495   1.000000
    4        0.326894   1.000000
    5        1.427574   1.000000
    6        1.583803   1.000000
    7       20.032728   0.000000
    8       21.543139   0.000000
    9       22.831809   0.000000
   10       23.261524   0.000000
   11       28.103648   0.000000
   12       29.579495   0.000000
 
  0.1500000E+00  0.1500000E+00  0.5000000E-01  0.6000000E-02
    1       -3.869596   1.000000
    2       -0.086757   1.000000
    3        0.496785   1.000000
    4        0.499963   1.000000
    5        1.245388   1.000000
    6        1.682797   1.000000
    7       20.172337   0.000000
    8       20.770784   0.000000
    9       22.038907   0.000000
   10       22.799064   0.000000
   11       26.987104   0.000000
   12       29.113310   0.000000
 
  0.2500000E+00  0.1500000E+00  0.5000000E-01  0.1200000E-01
    1       -3.106446   1.000000
    2       -0.296345   1.000000
    3        0.586076   1.000000
    4        0.741717   1.000000
    5        1.205729   1.000000
    6        1.870913   1.000000
    7       18.033089   0.000000
    8       19.849412   0.000000
    9       21.912953   0.000000
   10       23.099972   0.000000
   11       24.957769   0.000000
   12       28.354411   0.000000
 
  0.3500000E+00  0.1500000E+00  0.5000000E-01  0.1200000E-01
    1       -2.154772   1.000000
    2       -0.210578   1.000000
    3        0.332583   1.000000
    4        0.751894   1.000000
    5        1.782670   1.000000
    6        2.381785   1.000000
    7       14.099270   0.000000
    8       19.265295   0.000000
    9       20.898424   0.000000
   10       22.594003   0.000000
   11       26.174622   0.000000
   12       28.104940   0.000000
 
  0.4500000E+00  0.1500000E+00  0.5000000E-01  0.1200000E-01
    1       -1.774975   1.000000
    2        0.074274   1.000000
    3        0.548731   1.000000
    4        0.697977   1.000000
    5        2.411316   1.000000
    6        3.499159   1.000000
    7       10.261577   0.000000
    8       18.909321   0.000000
    9       19.550274   0.000000
   10       21.430653   0.000000
   11       28.037825   0.000000
   12       28.985751   0.000000
 
 -0.4500000E+00  0.1500000E+00  0.5000000E-01  0.1200000E-01
    1       -1.747175   1.000000
    2       -0.036624   1.000000
    3        0.496085   1.000000
    4        1.365560   1.000000
    5        2.551354   1.000000
    6        5.405695  -0.000000
    7        7.233810  -0.000000
    8       18.520391   0.000000
    9       19.118484   0.000000
   10       20.869123   0.000000
   11       28.288838   0.000000
   12       29.417189   0.000000
 
 -0.3500000E+00  0.1500000E+00  0.5000000E-01  0.1200000E-01
    1       -1.737051   1.000000
    2        0.031887   1.000000
    3        0.518434   1.000000
    4        1.086859   1.000000
    5        2.287938   1.000000
    6        4.162014   1.035077
    7        9.154436  -0.000000
    8       18.055932   0.000000
    9       19.809824   0.000000
   10       21.615905   0.000000
   11       27.647724   0.000000
   12       29.018521   0.000000
 
 -0.2500000E+00  0.1500000E+00  0.5000000E-01  0.1200000E-01
    1       -1.924548   1.000000
    2        0.034868   1.000000
    3        0.303639   1.000000
    4        0.680569   1.000000
    5        1.699031   1.000000
    6        2.864522   1.000000
    7       12.809148   0.000000
    8       18.231414   0.000000
    9       20.928078   0.000000
   10       23.399073   0.000000
   11       26.041895   0.000000
   12       28.166382   0.000000
 
 -0.1500000E+00  0.1500000E+00  0.5000000E-01  0.1200000E-01
    1       -2.774459   1.000000
    2       -0.255456   1.000000
    3        0.498826   1.000000
    4        0.761304   1.000000
    5        1.198946   1.000000
    6        2.101517   1.000000
    7       16.652119   0.000000
    8       18.843357   0.000000
    9       22.530026   0.000000
   10       23.486028   0.000000
   11       26.140834   0.000000
   12       27.121540   0.000000
 
 -0.5000000E-01  0.1500000E+00  0.5000000E-01  0.1200000E-01
    1       -3.675934   1.000000
    2       -0.081517   1.000000
    3        0.500254   1.000000
    4        0.507560   1.000000
    5        1.278125   1.000000
    6        1.687501   1.000000
    7       19.082256   0.000000
    8       20.310085   0.000000
    9       22.280914   0.000000
   10       24.056260   0.000000
   11       26.046113   0.000000
   12       28.801448   0.000000
 
  0.2500000E+00  0.2500000E+00  0.5000000E-01  0.6000000E-02
    1       -2.591552   1.000000
    2       -0.604587   1.000000
    3        0.726092   1.000000
    4        1.072749   1.000000
    5        1.244038   1.000000
    6        1.971578   1.000000
    7       18.416855   0.000000
    8       19.474926   0.000000
    9       20.900389   0.000000
   10       21.601871   0.000000
   11       22.130986   0.000000
   12       29.994470   0.000000
 
  0.3500000E+00  0.2500000E+00  0.5000000E-01  0.1200000E-01
    1       -1.835208   1.000000
    2       -0.797296   1.000000
    3        0.508730   1.000000
    4        1.375706   1.000000
    5        1.821240   1.000000
    6        2.399401   1.000000
    7       15.755143   0.000000
    8       17.656572   0.000000
    9       19.275784   0.000000
   10       21.836717   0.000000
   11       23.234753   0.000000
   12       29.990260   0.000000
 
  0.4500000E+00  0.2500000E+00  0.5000000E-01  0.1200000E-01
    1       -1.389504   1.000000
    2       -0.559028   1.000000
    3        0.297841   1.000000
    4        1.262550   1.000000
    5        2.483483   1.000000
    6        3.737330   1.000008
    7       11.880318   0.000000
    8       16.958121   0.000000
    9       17.628860   0.000000
   10       21.583975   0.000000
   11       26.267129   0.000000
   12       29.776263   0.000000
 
 -0.4500000E+00  0.2500000E+00  0.5000000E-01  0.1200000E-01
    1       -1.281854   1.000000
    2       -0.323397   1.000000
    3        0.488671   1.000000
    4        1.093403   1.000000
    5        2.582335   1.000000
    6        6.025140  -0.000000
    7        8.482910  -0.000000
    8       15.709730   0.000000
    9       17.695073   0.000000
   10       21.316421   0.000000
   11       28.870176   0.000000
   12       30.120127   0.000000
 
 -0.3500000E+00  0.2500000E+00  0.5000000E-01  0.1200000E-01
    1       -1.134899   1.000000
    2       -0.271478   1.000000
    3        0.520875   1.000000
    4        1.003136   1.000000
    5        2.246044   1.000000
    6        5.872315  -0.000000
    7        8.940447  -0.000000
    8       14.690457   0.000000
    9       18.839164   0.000000
   10       21.505590   0.000000
   11       28.155596   0.000000
   12       30.403998   0.000000
 
 -0.2500000E+00  0.2500000E+00  0.5000000E-01  0.1200000E-01
    1       -1.073510   1.000000
    2       -0.217456   1.000000
    3        0.026656   1.000000
    4        1.074478   1.000000
    5        1.660515   1.000000
    6        4.148139   1.033559
    7       12.175716   0.000000
    8       14.592478   0.000000
    9       20.203108   0.000000
   10       22.659968   0.000000
   11       26.249356   0.000000
   12       30.126756   0.000000
 
 -0.1500000E+00  0.2500000E+00  0.5000000E-01  0.1200000E-01
    1       -1.794527   1.000000
    2       -0.319078   1.000000
    3        0.274374   1.000000
    4        0.963532   1.000000
    5        1.320033   1.000000
    6        2.938604   1.000000
    7       14.226100   0.000000
    8       16.736228   0.000000
    9       21.340168   0.000000
   10       24.116033   0.000000
   11       24.970949   0.000000
   12       28.615500   0.000000
 
 -0.5000000E-01  0.2500000E+00  0.5000000E-01  0.1200000E-01
    1       -2.689553   1.000000
    2       -0.093664   1.000000
    3        0.474335   1.000000
    4        0.596252   1.000000
    5        1.478792   1.000000
    6        2.038204   1.000000
    7       15.281724   0.000000
    8       20.054039   0.000000
    9       21.860608   0.000000
   10       24.196362   0.000000
   11       25.640319   0.000000
   12       27.366166   0.000000
 
  0.3500000E+00  0.3500000E+00  0.5000000E-01  0.6000000E-02
    1       -1.677526   1.000000
    2       -1.127329   1.000000
    3        1.308109   1.000000
    4        1.828747   1.000000
    5        2.239819   1.000000
    6        2.326020   1.000000
    7       15.634512   0.000000
    8       16.789048   0.000000
    9       16.866901   0.000000
   10       20.764508   0.000000
   11       22.612207   0.000000
   12       32.418679   0.000000
 
  0.4500000E+00  0.3500000E+00  0.5000000E-01  0.1200000E-01
    1       -1.527715   1.000000
    2       -1.221444   1.000000
    3        1.337558   1.000000
    4        2.091797   1.000000
    5        2.496973   1.000000
    6        3.828433   1.000127
    7       12.949679   0.000000
    8       15.108976   0.000000
    9       15.755092   0.000000
   10       21.689157   0.000000
   11       23.520884   0.000000
   12       31.885662   0.000000
 
 -0.4500000E+00  0.3500000E+00  0.5000000E-01  0.1200000E-01
    1       -1.377392   1.000000
    2       -0.938149   1.000000
    3        1.025227   1.000000
    4        1.832644   1.000000
    5        2.664631   1.000000
    6        6.249072  -0.000000
    7        9.994815   0.000000
    8       13.339179   0.000000
    9       15.889548   0.000000
   10       21.935259   0.000000
   11       26.135541   0.000000
   12       30.886885   0.000000
 
 -0.3500000E+00  0.3500000E+00  0.5000000E-01  0.1200000E-01
    1       -1.124597   1.000000
    2       -0.483295   1.000000
    3        0.549714   1.000000
    4        1.548658   1.000000
    5        2.394861   1.000000
    6        7.362368  -0.000000
    7        9.460957  -0.000000
    8       11.735410   0.000000
    9       17.094060   0.000000
   10       21.826606   0.000000
   11       29.364448   0.000000
   12       29.749030   0.000000
 
 -0.2500000E+00  0.3500000E+00  0.5000000E-01  0.1200000E-01
    1       -0.888019   1.000000
    2       -0.223698   1.000000
    3        0.121065   1.000000
    4        1.239934   1.000000
    5        2.043495   1.000000
    6        5.685464  -0.000000
    7       10.710902   0.000000
    8       12.723277   0.000000
    9       18.793023   0.000000
   10       21.815889   0.000000
   11       27.992673   0.000000
   12       30.708395   0.000000
 
 -0.1500000E+00  0.3500000E+00  0.5000000E-01  0.1200000E-01
    1       -1.418029   1.000000
    2       -0.051602   1.000000
    3        0.412630   1.000000
    4        0.811765   1.000000
    5        1.970700   1.000000
    6        4.154672   1.034398
    7       10.638209   0.000000
    8       16.296011   0.000000
    9       20.041671   0.000000
   10       22.175063   0.000000
   11       26.889398   0.000000
   12       29.519015   0.000000
 
 -0.5000000E-01  0.3500000E+00  0.5000000E-01  0.1200000E-01
    1       -2.054981   1.000000
    2        0.240575   1.000000
    3        0.453742   1.000000
    4        0.733407   1.000000
    5        2.088214   1.000000
    6        2.720450   1.000000
    7       11.358619   0.000000
    8       19.503006   0.000000
    9       20.682972   0.000000
   10       22.637554   0.000000
   11       27.175136   0.000000
   12       27.919766   0.000000
 
  0.4500000E+00  0.4500000E+00  0.5000000E-01  0.6000000E-02
    1       -1.752077   1.000000
    2       -1.475375   1.000000
    3        2.404182   1.000000
    4        2.442554   1.000000
    5        2.694028   1.000000
    6        4.422682   0.477057
    7       11.469114   0.000000
    8       14.571466   0.000000
    9       14.917072   0.000000
   10       20.982812   0.000000
   11       23.169940   0.000000
   12       33.237024   0.000000
 
 -0.4500000E+00  0.4500000E+00  0.5000000E-01  0.1200000E-01
    1       -1.683911   1.000000
    2       -1.430812   1.000000
    3        2.123992   1.000000
    4        2.368998   1.000000
    5        2.816150   1.000000
    6        6.338794  -0.000000
    7        9.665589  -0.000000
    8       13.555627   0.000000
    9       14.512426   0.000000
   10       21.850094   0.000000
   11       23.745715   0.000000
   12       32.396027   0.000000
 
 -0.3500000E+00  0.4500000E+00  0.5000000E-01  0.1200000E-01
    1       -1.421304   1.000000
    2       -1.019060   1.000000
    3        1.280880   1.000000
    4        1.975205   1.000000
    5        2.664052   1.000000
    6        7.659937  -0.000000
    7        9.066534  -0.000000
    8       12.140856   0.000000
    9       15.569675   0.000000
   10       22.074028   0.000000
   11       26.122019   0.000000
   12       31.113158   0.000000
 
 -0.2500000E+00  0.4500000E+00  0.5000000E-01  0.1200000E-01
    1       -1.159270   1.000000
    2       -0.442758   1.000000
    3        0.511178   1.000000
    4        1.356218   1.000000
    5        2.496403   1.000000
    6        7.344591  -0.000000
    7        8.142179  -0.000000
    8       13.646699   0.000000
    9       17.292218   0.000000
   10       21.614987   0.000000
   11       29.126075   0.000000
   12       29.932277   0.000000
 
 -0.1500000E+00  0.4500000E+00  0.5000000E-01  0.1200000E-01
    1       -1.458345   1.000000
    2       -0.178428   1.000000
    3        0.726829   1.000000
    4        0.951743   1.000000
    5        2.446486   1.000000
    6        6.111751  -0.000000
    7        7.438181  -0.000000
    8       16.685283   0.000000
    9       18.937994   0.000000
   10       21.094551   0.000000
   11       28.297779   0.000000
   12       29.963718   0.000000
 
 -0.5000000E-01  0.4500000E+00  0.5000000E-01  0.1200000E-01
    1       -1.961911   1.000000
    2        0.104971   1.000000
    3        0.337627   1.000000
    4        1.738828   1.000000
    5        2.516306   1.000000
    6        4.166966   1.035352
    7        7.942839  -0.000000
    8       19.141720   0.000000
    9       20.067679   0.000000
   10       21.193267   0.000000
   11       28.137789   0.000000
   12       28.651782   0.000000
 
 -0.4500000E+00 -0.4500000E+00  0.5000000E-01  0.6000000E-02
    1       -1.816187   1.000000
    2       -1.549983   1.000000
    3        2.498622   1.000000
    4        2.670015   1.000000
    5        2.824770   1.000000
    6        5.669400  -0.000000
    7        9.825306  -0.000000
    8       14.127060   0.000000
    9       14.496580   0.000000
   10       21.065672   0.000000
   11       23.280212   0.000000
   12       33.068895   0.000000
 
 -0.3500000E+00 -0.4500000E+00  0.5000000E-01  0.1200000E-01
    1       -1.617791   1.000000
    2       -1.359303   1.000000
    3        1.815861   1.000000
    4        2.320499   1.000000
    5        2.687811   1.000000
    6        5.076093  -0.000016
    7       11.213657   0.000000
    8       14.071902   0.000000
    9       14.924408   0.000000
   10       21.776022   0.000000
   11       23.668374   0.000000
   12       32.303674   0.000000
 
 -0.2500000E+00 -0.4500000E+00  0.5000000E-01  0.1200000E-01
    1       -1.334124   1.000000
    2       -0.776499   1.000000
    3        0.643074   1.000000
    4        1.569026   1.000000
    5        2.623038   1.000000
    6        4.889345  -0.002111
    7       10.889555   0.000000
    8       15.141676   0.000000
    9       16.529817   0.000000
   10       21.731100   0.000000
   11       26.184601   0.000000
   12       30.430504   0.000000
 
 -0.1500000E+00 -0.4500000E+00  0.5000000E-01  0.1200000E-01
    1       -1.502178   1.000000
    2       -0.131735   1.000000
    3        0.520831   1.000000
    4        0.841207   1.000000
    5        2.568359   1.000000
    6        4.643047  -0.033852
    7        9.286852  -0.000000
    8       17.725213   0.000000
    9       18.305512   0.000000
   10       21.125873   0.000000
   11       28.537828   0.000000
   12       30.040654   0.000000
 
 -0.3500000E+00 -0.3500000E+00  0.5000000E-01  0.6000000E-02
    1       -1.667833   1.000000
    2       -1.331055   1.000000
    3        1.979501   1.000000
    4        2.178740   1.000000
    5        2.505335   1.000000
    6        3.135084   1.000000
    7       13.584044   0.000000
    8       15.438737   0.000000
    9       15.707988   0.000000
   10       20.849093   0.000000
   11       22.946841   0.000000
   12       33.292576   0.000000
 
 -0.2500000E+00 -0.3500000E+00  0.5000000E-01  0.1200000E-01
    1       -1.532588   1.000000
    2       -1.028759   1.000000
    3        0.810766   1.000000
    4        1.744908   1.000000
    5        2.230509   1.000000
    6        2.910051   1.000000
    7       14.457344   0.000000
    8       16.408201   0.000000
    9       17.223149   0.000000
   10       21.678462   0.000000
   11       23.340504   0.000000
   12       31.032176   0.000000
 
 -0.1500000E+00 -0.3500000E+00  0.5000000E-01  0.1200000E-01
    1       -1.670121   1.000000
    2       -0.356299   1.000000
    3        0.193572   1.000000
    4        0.978824   1.000000
    5        2.197010   1.000000
    6        2.889424   1.000000
    7       12.960994   0.000000
    8       18.203112   0.000000
    9       19.436462   0.000000
   10       21.700051   0.000000
   11       26.326850   0.000000
   12       28.977316   0.000000
 
 -0.2500000E+00 -0.2500000E+00  0.5000000E-01  0.6000000E-02
    1       -1.978180   1.000000
    2       -0.878303   1.000000
    3        0.813816   1.000000
    4        1.442058   1.000000
    5        1.667480   1.000000
    6        2.147651   1.000000
    7       17.164870   0.000000
    8       18.076650   0.000000
    9       19.088852   0.000000
   10       20.833392   0.000000
   11       22.222568   0.000000
   12       31.091536   0.000000
 
 -0.1500000E+00 -0.2500000E+00  0.5000000E-01  0.1200000E-01
    1       -2.439474   1.000000
    2       -0.544766   1.000000
    3        0.522097   1.000000
    4        1.035182   1.000000
    5        1.411721   1.000000
    6        2.103724   1.000000
    7       16.938071   0.000000
    8       18.873139   0.000000
    9       21.210364   0.000000
   10       22.168129   0.000000
   11       23.619185   0.000000
   12       29.004309   0.000000
 
 -0.1500000E+00 -0.1500000E+00  0.5000000E-01  0.6000000E-02
    1       -3.280069   1.000000
    2       -0.330785   1.000000
    3        0.707396   1.000000
    4        0.751725   1.000000
    5        1.078027   1.000000
    6        1.813368   1.000000
    7       19.468792   0.000000
    8       20.854094   0.000000
    9       20.888874   0.000000
   10       22.090573   0.000000
   11       24.546025   0.000000
   12       29.295744   0.000000
 
  0.1500000E+00  0.1500000E+00  0.1500000E+00  0.2000000E-02
    1       -3.881563   1.000000
    2        0.048618   1.000000
    3        0.403124   1.000000
    4        0.403124   1.000000
    5        1.494770   1.000000
    6        1.494770   1.000000
    7       18.948754   0.000000
    8       20.651097   0.000000
    9       23.593107   0.000000
   10       23.593107   0.000000
   11       26.663016   0.000000
   12       28.804421   0.000000
 
  0.2500000E+00  0.1500000E+00  0.1500000E+00  0.6000000E-02
    1       -3.301002   1.000000
    2       -0.126254   1.000000
    3        0.518826   1.000000
    4        0.583415   1.000000
    5        1.231907   1.000000
    6        1.828723   1.000000
    7       17.841401   0.000000
    8       19.680221   0.000000
    9       22.568041   0.000000
   10       24.537737   0.000000
   11       25.578834   0.000000
   12       27.957804   0.000000
 
  0.3500000E+00  0.1500000E+00  0.1500000E+00  0.6000000E-02
    1       -2.317918   1.000000
    2       -0.256933   1.000000
    3        0.435410   1.000000
    4        0.830046   1.000000
    5        1.157394   1.000000
    6        2.474169   1.000000
    7       15.381966   0.000000
    8       17.803389   0.000000
    9       22.279405   0.000000
   10       24.042211   0.000000
   11       25.545658   0.000000
   12       27.692599   0.000000
 
  0.4500000E+00  0.1500000E+00  0.1500000E+00  0.6000000E-02
    1       -1.674846   1.000000
    2        0.070993   1.000000
    3        0.435775   1.000000
    4        0.656814   1.000000
    5        1.735371   1.000000
    6        3.436034   1.000000
    7       11.655333   0.000000
    8       17.225127   0.000000
    9       20.837694   0.000000
   10       22.852181   0.000000
   11       26.226217   0.000000
   12       28.768172   0.000000
 
 -0.4500000E+00  0.1500000E+00  0.1500000E+00  0.6000000E-02
    1       -1.631959   1.000000
    2       -0.046250   1.000000
    3        0.562223   1.000000
    4        1.176226   1.000000
    5        2.321351   1.000000
    6        5.016313  -0.000096
    7        8.214244  -0.000000
    8       17.305803   0.000000
    9       20.181677   0.000000
   10       20.739677   0.000000
   11       28.187985   0.000000
   12       29.041774   0.000000
 
 -0.3500000E+00  0.1500000E+00  0.1500000E+00  0.6000000E-02
    1       -1.664876   1.000000
    2       -0.066940   1.000000
    3        0.603757   1.000000
    4        1.015886   1.000000
    5        2.617461   1.000000
    6        5.015799  -0.000097
    7        8.064312  -0.000000
    8       18.114772   0.000000
    9       19.558277   0.000000
   10       20.233324   0.000000
   11       29.140223   0.000000
   12       29.205655   0.000000
 
 -0.2500000E+00  0.1500000E+00  0.1500000E+00  0.6000000E-02
    1       -1.748998   1.000000
    2        0.034708   1.000000
    3        0.215648   1.000000
    4        0.742639   1.000000
    5        2.488662   1.000000
    6        3.007470   1.000000
    7       11.538754   0.000000
    8       19.378699   0.000000
    9       19.426702   0.000000
   10       20.862117   0.000000
   11       28.049346   0.000000
   12       29.211586   0.000000
 
 -0.1500000E+00  0.1500000E+00  0.1500000E+00  0.6000000E-02
    1       -2.337447   1.000000
    2       -0.430259   1.000000
    3        0.437339   1.000000
    4        0.857402   1.000000
    5        1.723349   1.000000
    6        2.102316   1.000000
    7       15.510961   0.000000
    8       19.930970   0.000000
    9       20.674958   0.000000
   10       21.933862   0.000000
   11       24.935947   0.000000
   12       29.310621   0.000000
 
  0.2500000E+00  0.2500000E+00  0.1500000E+00  0.6000000E-02
    1       -2.961480   1.000000
    2       -0.219326   1.000000
    3        0.536968   1.000000
    4        0.647857   1.000000
    5        1.399015   1.000000
    6        1.867820   1.000000
    7       16.658810   0.000000
    8       20.763662   0.000000
    9       21.356379   0.000000
   10       23.788048   0.000000
   11       25.064340   0.000000
   12       28.659196   0.000000
 
  0.3500000E+00  0.2500000E+00  0.1500000E+00  0.1200000E-01
    1       -2.157852   1.000000
    2       -0.439710   1.000000
    3        0.354020   1.000000
    4        1.009680   1.000000
    5        1.386155   1.000000
    6        2.456480   1.000000
    7       15.504331   0.000000
    8       17.829113   0.000000
    9       21.283980   0.000000
   10       23.236070   0.000000
   11       25.127457   0.000000
   12       27.937073   0.000000
 
  0.4500000E+00  0.2500000E+00  0.1500000E+00  0.1200000E-01
    1       -1.292819   1.000000
    2       -0.415493   1.000000
    3        0.022289   1.000000
    4        1.213365   1.000000
    5        1.650245   1.000000
    6        3.516096   1.000000
    7       13.173073   0.000000
    8       15.665318   0.000000
    9       19.743010   0.000000
   10       23.727166   0.000000
   11       25.323125   0.000000
   12       29.109334   0.000000
 
 -0.4500000E+00  0.2500000E+00  0.1500000E+00  0.1200000E-01
    1       -1.159500   1.000000
    2       -0.256902   1.000000
    3        0.310769   1.000000
    4        1.044735   1.000000
    5        2.239359   1.000000
    6        5.102394  -0.000007
    7        9.763167  -0.000000
    8       15.447731   0.000000
    9       18.320855   0.000000
   10       22.464790   0.000000
   11       27.225913   0.000000
   12       30.666132   0.000000
 
 -0.3500000E+00  0.2500000E+00  0.1500000E+00  0.1200000E-01
    1       -1.218214   1.000000
    2       -0.332475   1.000000
    3        0.605510   1.000000
    4        0.984296   1.000000
    5        2.486623   1.000000
    6        6.730498  -0.000000
    7        7.539900  -0.000000
    8       15.999962   0.000000
    9       17.341871   0.000000
   10       22.030062   0.000000
   11       27.967624   0.000000
   12       31.233783   0.000000
 
 -0.2500000E+00  0.2500000E+00  0.1500000E+00  0.1200000E-01
    1       -1.262495   1.000000
    2       -0.246672   1.000000
    3        0.084476   1.000000
    4        1.152911   1.000000
    5        2.348782   1.000000
    6        4.403335   0.558755
    7       10.735761   0.000000
    8       16.277569   0.000000
    9       17.893508   0.000000
   10       22.376803   0.000000
   11       27.166479   0.000000
   12       29.509384   0.000000
 
 -0.1500000E+00  0.2500000E+00  0.1500000E+00  0.1200000E-01
    1       -1.581613   1.000000
    2       -0.638214   1.000000
    3        0.207743   1.000000
    4        1.318140   1.000000
    5        1.742668   1.000000
    6        2.921790   1.000000
    7       14.375658   0.000000
    8       16.727493   0.000000
    9       19.455318   0.000000
   10       23.047640   0.000000
   11       24.620772   0.000000