 running on    4 total cores
 distrk:  each k-point on    4 cores,    1 groups
 distr:  one band on    1 cores,    4 groups
 using from now: INCAR     
 vasp.5.4.4.18Apr17-6-g9f103f2a35 (build May 18 2018 14:42:58) complex          
  
 POSCAR found type information on POSCAR  Au
 POSCAR found :  1 types and       1 ions
 scaLAPACK will be used
 LDA part: xc-table for Ceperly-Alder, standard interpolation
 POSCAR, INCAR and KPOINTS ok, starting setup
 FFT: planning ...
 WAVECAR not read
 entering main loop
       N       E                     dE             d eps       ncg     rms          rms(c)
DAV:   1     0.310985726532E+02    0.31099E+02   -0.34679E+03  3220   0.418E+02
DAV:   2    -0.427460571363E+01   -0.35373E+02   -0.33088E+02  3024   0.144E+02
DAV:   3    -0.462539559462E+01   -0.35079E+00   -0.35052E+00  3220   0.148E+01
DAV:   4    -0.462630103229E+01   -0.90544E-03   -0.90541E-03  3112   0.796E-01
DAV:   5    -0.462630735162E+01   -0.63193E-05   -0.63192E-05  2840   0.658E-02    0.312E+00
DAV:   6    -0.432521926449E+01    0.30109E+00   -0.92416E-01  3104   0.907E+00    0.728E-01
DAV:   7    -0.430776616268E+01    0.17453E-01   -0.37919E-02  3152   0.149E+00    0.301E-01
DAV:   8    -0.430366738032E+01    0.40988E-02   -0.16549E-03  3028   0.441E-01    0.123E-02
DAV:   9    -0.430366795457E+01   -0.57424E-06   -0.11510E-05  1712   0.229E-02
   1 F= -.43036680E+01 E0= -.43039882E+01  d E =0.960792E-03
 writing wavefunctions
