 vasp.5.4.4.18Apr17-6-g9f103f2a35 (build May 18 2018 14:42:58) complex          
  
 executed on             LinuxIFC date 2020.06.30  13:41:08
 running on    4 total cores
 distrk:  each k-point on    4 cores,    1 groups
 distr:  one band on NCORES_PER_BAND=   1 cores,    4 groups


--------------------------------------------------------------------------------------------------------


 INCAR:
 POTCAR:   PAW Au 04Feb1998                       
 POTCAR:   PAW Au 04Feb1998                       
   VRHFIN =Au: s1d10                                                            
   LEXCH  = CA                                                                  
   EATOM  =   929.4667 eV,   68.3139 Ry                                         
                                                                                
   TITEL  = PAW Au 04Feb1998                                                    
   LULTRA =        F    use ultrasoft PP ?                                      
   IUNSCR =        1    unscreen: 0-lin 1-nonlin 2-no                           
   RPACOR =    2.330    partial core radius                                     
   POMASS =  196.966; ZVAL   =   11.000    mass and valenz                      
   RCORE  =    2.500    outmost cutoff radius                                   
   RWIGS  =    2.840; RWIGS  =    1.503    wigner-seitz radius (au A)           
   ENMAX  =  229.869; ENMIN  =  172.402 eV                                      
   RCLOC  =    1.964    cutoff for local pot                                    
   LCOR   =        T    correct aug charges                                     
   LPAW   =        T    paw PP                                                  
   EAUG   =  356.670                                                            
   DEXC   =    -.020                                                            
   RMAX   =    3.041    core radius for proj-oper                               
   RDEP   =    2.598    core radius for depl-charge                             
   QCUT   =   -4.110; QGAM   =    8.221    optimization parameters              
                                                                                
   Description                                                                  
     l     E      TYP  RCUT    TYP  RCUT                                        
     2   .000     23  2.500                                                     
     2   .000     23  2.500                                                     
     0   .000     23  2.500                                                     
     0   .000     23  2.500                                                     
     1  -.200     23  2.500                                                     
     1   .000     23  2.500                                                     
     3   .000      7   .000                                                     
  local pseudopotential read in
  partial core-charges read in
  atomic valenz-charges read in
  non local Contribution for L=           2  read in
    real space projection operators read in
  non local Contribution for L=           2  read in
    real space projection operators read in
  non local Contribution for L=           0  read in
    real space projection operators read in
  non local Contribution for L=           0  read in
    real space projection operators read in
  non local Contribution for L=           1  read in
    real space projection operators read in
  non local Contribution for L=           1  read in
    real space projection operators read in
    PAW grid and wavefunctions read in
 
   number of l-projection  operators is LMAX  =           6
   number of lm-projection operators is LMMAX =          18
 
 PAW Au 04Feb1998                       :
 energy of atom  1       EATOM= -929.4667
 kinetic energy error for atom=    0.0706 (will be added to EATOM!!)
 
 
 POSCAR: FCC Au Bulk                             
  positions in direct lattice
  No initial velocities read in
 exchange correlation table for  LEXCH =        2
   RHO(1)=    0.500       N(1)  =     2000
   RHO(2)=  100.500       N(2)  =     4000
 


--------------------------------------------------------------------------------------------------------


 ion  position               nearest neighbor table
   1  0.000  0.000  0.000-
 
  LATTYP: Found a face centered cubic cell.
 ALAT       =     4.2000000000
  
  Lattice vectors:
  
 A1 = (   0.0000000000,   2.1000000000,   2.1000000000)
 A2 = (   2.1000000000,   0.0000000000,   2.1000000000)
 A3 = (   2.1000000000,   2.1000000000,   0.0000000000)


Analysis of symmetry for initial positions (statically):
=====================================================================
 Subroutine PRICEL returns:
 Original cell was already a primitive cell.
 

 Routine SETGRP: Setting up the symmetry group for a 
 face centered cubic supercell.


 Subroutine GETGRP returns: Found 48 space group operations
 (whereof 48 operations were pure point group operations)
 out of a pool of 48 trial point group operations.


The static configuration has the point symmetry O_h .


Analysis of symmetry for dynamics (positions and initial velocities):
=====================================================================
 Subroutine PRICEL returns:
 Original cell was already a primitive cell.
 

 Routine SETGRP: Setting up the symmetry group for a 
 face centered cubic supercell.


 Subroutine GETGRP returns: Found 48 space group operations
 (whereof 48 operations were pure point group operations)
 out of a pool of 48 trial point group operations.


The dynamic configuration has the point symmetry O_h .


 Subroutine INISYM returns: Found 48 space group operations
 (whereof 48 operations are pure point group operations),
 and found     1 'primitive' translations

 
 
 KPOINTS: 10x10x10                                

Automatic generation of k-mesh.
Space group operators:
 irot       det(A)        alpha          n_x          n_y          n_z        tau_x        tau_y        tau_z
    1     1.000000     0.000000     1.000000     0.000000     0.000000     0.000000     0.000000     0.000000
    2    -1.000000     0.000000     1.000000     0.000000     0.000000     0.000000     0.000000     0.000000
    3     1.000000   120.000000    -0.577350    -0.577350    -0.577350     0.000000     0.000000     0.000000
    4    -1.000000   120.000000    -0.577350    -0.577350    -0.577350     0.000000     0.000000     0.000000
    5     1.000000   120.000000     0.577350     0.577350     0.577350     0.000000     0.000000     0.000000
    6    -1.000000   120.000000     0.577350     0.577350     0.577350     0.000000     0.000000     0.000000
    7     1.000000    90.000000     0.000000     0.000000    -1.000000     0.000000     0.000000     0.000000
    8    -1.000000    90.000000     0.000000     0.000000    -1.000000     0.000000     0.000000     0.000000
    9     1.000000   180.000000     0.000000     0.707107     0.707107     0.000000     0.000000     0.000000
   10    -1.000000   180.000000     0.000000     0.707107     0.707107     0.000000     0.000000     0.000000
   11     1.000000    90.000000     0.000000     1.000000     0.000000     0.000000     0.000000     0.000000
   12    -1.000000    90.000000     0.000000     1.000000     0.000000     0.000000     0.000000     0.000000
   13     1.000000   180.000000     0.000000     0.000000     1.000000     0.000000     0.000000     0.000000
   14    -1.000000   180.000000     0.000000     0.000000     1.000000     0.000000     0.000000     0.000000
   15     1.000000   120.000000    -0.577350     0.577350     0.577350     0.000000     0.000000     0.000000
   16    -1.000000   120.000000    -0.577350     0.577350     0.577350     0.000000     0.000000     0.000000
   17     1.000000   120.000000    -0.577350     0.577350    -0.577350     0.000000     0.000000     0.000000
   18    -1.000000   120.000000    -0.577350     0.577350    -0.577350     0.000000     0.000000     0.000000
   19     1.000000    90.000000     0.000000     0.000000     1.000000     0.000000     0.000000     0.000000
   20    -1.000000    90.000000     0.000000     0.000000     1.000000     0.000000     0.000000     0.000000
   21     1.000000    90.000000    -1.000000     0.000000     0.000000     0.000000     0.000000     0.000000
   22    -1.000000    90.000000    -1.000000     0.000000     0.000000     0.000000     0.000000     0.000000
   23     1.000000   180.000000     0.707107     0.000000     0.707107     0.000000     0.000000     0.000000
   24    -1.000000   180.000000     0.707107     0.000000     0.707107     0.000000     0.000000     0.000000
   25     1.000000   120.000000     0.577350    -0.577350     0.577350     0.000000     0.000000     0.000000
   26    -1.000000   120.000000     0.577350    -0.577350     0.577350     0.000000     0.000000     0.000000
   27     1.000000   120.000000    -0.577350    -0.577350     0.577350     0.000000     0.000000     0.000000
   28    -1.000000   120.000000    -0.577350    -0.577350     0.577350     0.000000     0.000000     0.000000
   29     1.000000   180.000000     1.000000     0.000000     0.000000     0.000000     0.000000     0.000000
   30    -1.000000   180.000000     1.000000     0.000000     0.000000     0.000000     0.000000     0.000000
   31     1.000000    90.000000     0.000000    -1.000000     0.000000     0.000000     0.000000     0.000000
   32    -1.000000    90.000000     0.000000    -1.000000     0.000000     0.000000     0.000000     0.000000
   33     1.000000   180.000000     0.707107     0.707107     0.000000     0.000000     0.000000     0.000000
   34    -1.000000   180.000000     0.707107     0.707107     0.000000     0.000000     0.000000     0.000000
   35     1.000000    90.000000     1.000000     0.000000     0.000000     0.000000     0.000000     0.000000
   36    -1.000000    90.000000     1.000000     0.000000     0.000000     0.000000     0.000000     0.000000
   37     1.000000   120.000000     0.577350    -0.577350    -0.577350     0.000000     0.000000     0.000000
   38    -1.000000   120.000000     0.577350    -0.577350    -0.577350     0.000000     0.000000     0.000000
   39     1.000000   180.000000     0.000000     1.000000     0.000000     0.000000     0.000000     0.000000
   40    -1.000000   180.000000     0.000000     1.000000     0.000000     0.000000     0.000000     0.000000
   41     1.000000   120.000000     0.577350     0.577350    -0.577350     0.000000     0.000000     0.000000
   42    -1.000000   120.000000     0.577350     0.577350    -0.577350     0.000000     0.000000     0.000000
   43     1.000000   180.000000     0.000000    -0.707107     0.707107     0.000000     0.000000     0.000000
   44    -1.000000   180.000000     0.000000    -0.707107     0.707107     0.000000     0.000000     0.000000
   45     1.000000   180.000000     0.707107    -0.707107     0.000000     0.000000     0.000000     0.000000
   46    -1.000000   180.000000     0.707107    -0.707107     0.000000     0.000000     0.000000     0.000000
   47     1.000000   180.000000     0.707107     0.000000    -0.707107     0.000000     0.000000     0.000000
   48    -1.000000   180.000000     0.707107     0.000000    -0.707107     0.000000     0.000000     0.000000
 
 Subroutine IBZKPT returns following result:
 ===========================================
 
 Found    110 irreducible k-points:
 
 Following reciprocal coordinates:
            Coordinates               Weight
  0.050000  0.050000  0.050000     96.000000
  0.150000  0.050000  0.050000    288.000000
  0.250000  0.050000  0.050000    288.000000
  0.350000  0.050000  0.050000    288.000000
  0.450000  0.050000  0.050000    288.000000
 -0.450000  0.050000  0.050000    288.000000
 -0.350000  0.050000  0.050000    288.000000
 -0.250000  0.050000  0.050000    288.000000
 -0.150000  0.050000  0.050000    288.000000
 -0.050000  0.050000  0.050000    288.000000
  0.150000  0.150000  0.050000    288.000000
  0.250000  0.150000  0.050000    576.000000
  0.350000  0.150000  0.050000    576.000000
  0.450000  0.150000  0.050000    576.000000
 -0.450000  0.150000  0.050000    576.000000
 -0.350000  0.150000  0.050000    576.000000
 -0.250000  0.150000  0.050000    576.000000
 -0.150000  0.150000  0.050000    576.000000
 -0.050000  0.150000  0.050000    576.000000
  0.250000  0.250000  0.050000    288.000000
  0.350000  0.250000  0.050000    576.000000
  0.450000  0.250000  0.050000    576.000000
 -0.450000  0.250000  0.050000    576.000000
 -0.350000  0.250000  0.050000    576.000000
 -0.250000  0.250000  0.050000    576.000000
 -0.150000  0.250000  0.050000    576.000000
 -0.050000  0.250000  0.050000    576.000000
  0.350000  0.350000  0.050000    288.000000
  0.450000  0.350000  0.050000    576.000000
 -0.450000  0.350000  0.050000    576.000000
 -0.350000  0.350000  0.050000    576.000000
 -0.250000  0.350000  0.050000    576.000000
 -0.150000  0.350000  0.050000    576.000000
 -0.050000  0.350000  0.050000    576.000000
  0.450000  0.450000  0.050000    288.000000
 -0.450000  0.450000  0.050000    576.000000
 -0.350000  0.450000  0.050000    576.000000
 -0.250000  0.450000  0.050000    576.000000
 -0.150000  0.450000  0.050000    576.000000
 -0.050000  0.450000  0.050000    576.000000
 -0.450000 -0.450000  0.050000    288.000000
 -0.350000 -0.450000  0.050000    576.000000
 -0.250000 -0.450000  0.050000    576.000000
 -0.150000 -0.450000  0.050000    576.000000
 -0.350000 -0.350000  0.050000    288.000000
 -0.250000 -0.350000  0.050000    576.000000
 -0.150000 -0.350000  0.050000    576.000000
 -0.250000 -0.250000  0.050000    288.000000
 -0.150000 -0.250000  0.050000    576.000000
 -0.150000 -0.150000  0.050000    288.000000
  0.150000  0.150000  0.150000     96.000000
  0.250000  0.150000  0.150000    288.000000
  0.350000  0.150000  0.150000    288.000000
  0.450000  0.150000  0.150000    288.000000
 -0.450000  0.150000  0.150000    288.000000
 -0.350000  0.150000  0.150000    288.000000
 -0.250000  0.150000  0.150000    288.000000
 -0.150000  0.150000  0.150000    288.000000
  0.250000  0.250000  0.150000    288.000000
  0.350000  0.250000  0.150000    576.000000
  0.450000  0.250000  0.150000    576.000000
 -0.450000  0.250000  0.150000    576.000000
 -0.350000  0.250000  0.150000    576.000000
 -0.250000  0.250000  0.150000    576.000000
 -0.150000  0.250000  0.150000    576.000000
  0.350000  0.350000  0.150000    288.000000
  0.450000  0.350000  0.150000    576.000000
 -0.450000  0.350000  0.150000    576.000000
 -0.350000  0.350000  0.150000    576.000000
 -0.250000  0.350000  0.150000    576.000000
 -0.150000  0.350000  0.150000    576.000000
  0.450000  0.450000  0.150000    288.000000
 -0.450000  0.450000  0.150000    576.000000
 -0.350000  0.450000  0.150000    576.000000
 -0.250000  0.450000  0.150000    576.000000
 -0.150000  0.450000  0.150000    576.000000
 -0.450000 -0.450000  0.150000    288.000000
 -0.350000 -0.450000  0.150000    576.000000
 -0.250000 -0.450000  0.150000    576.000000
 -0.350000 -0.350000  0.150000    288.000000
 -0.250000 -0.350000  0.150000    576.000000
 -0.250000 -0.250000  0.150000    288.000000
  0.250000  0.250000  0.250000     96.000000
  0.350000  0.250000  0.250000    288.000000
  0.450000  0.250000  0.250000    288.000000
 -0.450000  0.250000  0.250000    288.000000
 -0.350000  0.250000  0.250000    288.000000
 -0.250000  0.250000  0.250000    288.000000
  0.350000  0.350000  0.250000    288.000000
  0.450000  0.350000  0.250000    576.000000
 -0.450000  0.350000  0.250000    576.000000
 -0.350000  0.350000  0.250000    576.000000
 -0.250000  0.350000  0.250000    576.000000
  0.450000  0.450000  0.250000    288.000000
 -0.450000  0.450000  0.250000    576.000000
 -0.350000  0.450000  0.250000    576.000000
 -0.250000  0.450000  0.250000    576.000000
 -0.450000 -0.450000  0.250000    288.000000
 -0.350000 -0.450000  0.250000    576.000000
 -0.350000 -0.350000  0.250000    288.000000
  0.350000  0.350000  0.350000     96.000000
  0.450000  0.350000  0.350000    288.000000
 -0.450000  0.350000  0.350000    288.000000
 -0.350000  0.350000  0.350000    288.000000
  0.450000  0.450000  0.350000    288.000000
 -0.450000  0.450000  0.350000    576.000000
 -0.350000  0.450000  0.350000    576.000000
 -0.450000 -0.450000  0.350000    288.000000
  0.450000  0.450000  0.450000     96.000000
 -0.450000  0.450000  0.450000    288.000000
 
 Following cartesian coordinates:
            Coordinates               Weight
  0.050000  0.050000  0.050000     96.000000
 -0.050000  0.150000  0.150000    288.000000
 -0.150000  0.250000  0.250000    288.000000
 -0.250000  0.350000  0.350000    288.000000
 -0.350000  0.450000  0.450000    288.000000
  0.550000 -0.450000 -0.450000    288.000000
  0.450000 -0.350000 -0.350000    288.000000
  0.350000 -0.250000 -0.250000    288.000000
  0.250000 -0.150000 -0.150000    288.000000
  0.150000 -0.050000 -0.050000    288.000000
  0.050000  0.050000  0.250000    288.000000
 -0.050000  0.150000  0.350000    576.000000
 -0.150000  0.250000  0.450000    576.000000
 -0.250000  0.350000  0.550000    576.000000
  0.650000 -0.550000 -0.350000    576.000000
  0.550000 -0.450000 -0.250000    576.000000
  0.450000 -0.350000 -0.150000    576.000000
  0.350000 -0.250000 -0.050000    576.000000
  0.250000 -0.150000  0.050000    576.000000
  0.050000  0.050000  0.450000    288.000000
 -0.050000  0.150000  0.550000    576.000000
 -0.150000  0.250000  0.650000    576.000000
  0.750000 -0.650000 -0.250000    576.000000
  0.650000 -0.550000 -0.150000    576.000000
  0.550000 -0.450000 -0.050000    576.000000
  0.450000 -0.350000  0.050000    576.000000
  0.350000 -0.250000  0.150000    576.000000
  0.050000  0.050000  0.650000    288.000000
 -0.050000  0.150000  0.750000    576.000000
  0.850000 -0.750000 -0.150000    576.000000
  0.750000 -0.650000 -0.050000    576.000000
  0.650000 -0.550000  0.050000    576.000000
  0.550000 -0.450000  0.150000    576.000000
  0.450000 -0.350000  0.250000    576.000000
  0.050000  0.050000  0.850000    288.000000
  0.950000 -0.850000 -0.050000    576.000000
  0.850000 -0.750000  0.050000    576.000000
  0.750000 -0.650000  0.150000    576.000000
  0.650000 -0.550000  0.250000    576.000000
  0.550000 -0.450000  0.350000    576.000000
  0.050000  0.050000 -0.950000    288.000000
 -0.050000  0.150000 -0.850000    576.000000
 -0.150000  0.250000 -0.750000    576.000000
 -0.250000  0.350000 -0.650000    576.000000
  0.050000  0.050000 -0.750000    288.000000
 -0.050000  0.150000 -0.650000    576.000000
 -0.150000  0.250000 -0.550000    576.000000
  0.050000  0.050000 -0.550000    288.000000
 -0.050000  0.150000 -0.450000    576.000000
  0.050000  0.050000 -0.350000    288.000000
  0.150000  0.150000  0.150000     96.000000
  0.050000  0.250000  0.250000    288.000000
 -0.050000  0.350000  0.350000    288.000000
 -0.150000  0.450000  0.450000    288.000000
  0.750000 -0.450000 -0.450000    288.000000
  0.650000 -0.350000 -0.350000    288.000000
  0.550000 -0.250000 -0.250000    288.000000
  0.450000 -0.150000 -0.150000    288.000000
  0.150000  0.150000  0.350000    288.000000
  0.050000  0.250000  0.450000    576.000000
 -0.050000  0.350000  0.550000    576.000000
  0.850000 -0.550000 -0.350000    576.000000
  0.750000 -0.450000 -0.250000    576.000000
  0.650000 -0.350000 -0.150000    576.000000
  0.550000 -0.250000 -0.050000    576.000000
  0.150000  0.150000  0.550000    288.000000
  0.050000  0.250000  0.650000    576.000000
  0.950000 -0.650000 -0.250000    576.000000
  0.850000 -0.550000 -0.150000    576.000000
  0.750000 -0.450000 -0.050000    576.000000
  0.650000 -0.350000  0.050000    576.000000
  0.150000  0.150000  0.750000    288.000000
  1.050000 -0.750000 -0.150000    576.000000
  0.950000 -0.650000 -0.050000    576.000000
  0.850000 -0.550000  0.050000    576.000000
  0.750000 -0.450000  0.150000    576.000000
  0.150000  0.150000 -1.050000    288.000000
  0.050000  0.250000 -0.950000    576.000000
 -0.050000  0.350000 -0.850000    576.000000
  0.150000  0.150000 -0.850000    288.000000
  0.050000  0.250000 -0.750000    576.000000
  0.150000  0.150000 -0.650000    288.000000
  0.250000  0.250000  0.250000     96.000000
  0.150000  0.350000  0.350000    288.000000
  0.050000  0.450000  0.450000    288.000000
  0.950000 -0.450000 -0.450000    288.000000
  0.850000 -0.350000 -0.350000    288.000000
  0.750000 -0.250000 -0.250000    288.000000
  0.250000  0.250000  0.450000    288.000000
  0.150000  0.350000  0.550000    576.000000
  1.050000 -0.550000 -0.350000    576.000000
  0.950000 -0.450000 -0.250000    576.000000
  0.850000 -0.350000 -0.150000    576.000000
  0.250000  0.250000  0.650000    288.000000
  1.150000 -0.650000 -0.250000    576.000000
  1.050000 -0.550000 -0.150000    576.000000
  0.950000 -0.450000 -0.050000    576.000000
  0.250000  0.250000 -1.150000    288.000000
  0.150000  0.350000 -1.050000    576.000000
  0.250000  0.250000 -0.950000    288.000000
  0.350000  0.350000  0.350000     96.000000
  0.250000  0.450000  0.450000    288.000000
  1.150000 -0.450000 -0.450000    288.000000
  1.050000 -0.350000 -0.350000    288.000000
  0.350000  0.350000  0.550000    288.000000
  1.250000 -0.550000 -0.350000    576.000000
  1.150000 -0.450000 -0.250000    576.000000
  0.350000  0.350000 -1.250000    288.000000
  0.450000  0.450000  0.450000     96.000000
  1.350000 -0.450000 -0.450000    288.000000
 


--------------------------------------------------------------------------------------------------------




 Dimension of arrays:
   k-points           NKPTS =    110   k-points in BZ     NKDIM =    110   number of bands    NBANDS=     12
   number of dos      NEDOS =    301   number of ions     NIONS =      1
   non local maximal  LDIM  =      6   non local SUM 2l+1 LMDIM =     18
   total plane-waves  NPLWV =   1728
   max r-space proj   IRMAX =      1   max aug-charges    IRDMAX=   5904
   dimension x,y,z NGX =    12 NGY =   12 NGZ =   12
   dimension x,y,z NGXF=    24 NGYF=   24 NGZF=   24
   support grid    NGXF=    24 NGYF=   24 NGZF=   24
   ions per type =               1
   NGX,Y,Z   is equivalent  to a cutoff of   6.72,  6.72,  6.72 a.u.
   NGXF,Y,Z  is equivalent  to a cutoff of  13.43, 13.43, 13.43 a.u.

 SYSTEM =  fcc Au                                  
 POSCAR =  FCC Au Bulk                             

 Startparameter for this run:
   NWRITE =      2    write-flag & timer
   PREC   = normal    normal or accurate (medium, high low for compatibility)
   ISTART =      0    job   : 0-new  1-cont  2-samecut
   ICHARG =      2    charge: 1-file 2-atom 10-const
   ISPIN  =      1    spin polarized calculation?
   LNONCOLLINEAR =      F non collinear calculations
   LSORBIT =      F    spin-orbit coupling
   INIWAV =      1    electr: 0-lowe 1-rand  2-diag
   LASPH  =      F    aspherical Exc in radial PAW
   METAGGA=      F    non-selfconsistent MetaGGA calc.

 Electronic Relaxation 1
   ENCUT  =  229.9 eV  16.89 Ry    4.11 a.u.   3.67  3.67  3.67*2*pi/ulx,y,z
   ENINI  =  229.9     initial cutoff
   ENAUG  =  356.7 eV  augmentation charge cutoff
   NELM   =     60;   NELMIN=  2; NELMDL= -5     # of ELM steps 
   EDIFF  = 0.1E-03   stopping-criterion for ELM
   LREAL  =      F    real-space projection
   NLSPLINE    = F    spline interpolate recip. space projectors
   LCOMPAT=      F    compatible to vasp.4.4
   GGA_COMPAT  = T    GGA compatible to vasp.4.4-vasp.4.6
   LMAXPAW     = -100 max onsite density
   LMAXMIX     =    2 max onsite mixed and CHGCAR
   VOSKOWN=      0    Vosko Wilk Nusair interpolation
   ROPT   =    0.00000
 Ionic relaxation
   EDIFFG = 0.1E-02   stopping-criterion for IOM
   NSW    =      0    number of steps for IOM
   NBLOCK =      1;   KBLOCK =      1    inner block; outer block 
   IBRION =     -1    ionic relax: 0-MD 1-quasi-New 2-CG
   NFREE  =      0    steps in history (QN), initial steepest desc. (CG)
   ISIF   =      2    stress and relaxation
   IWAVPR =     10    prediction:  0-non 1-charg 2-wave 3-comb
   ISYM   =      2    0-nonsym 1-usesym 2-fastsym
   LCORR  =      T    Harris-Foulkes like correction to forces

   POTIM  = 0.5000    time-step for ionic-motion
   TEIN   =    0.0    initial temperature
   TEBEG  =    0.0;   TEEND  =   0.0 temperature during run
   SMASS  =  -3.00    Nose mass-parameter (am)
   estimated Nose-frequenzy (Omega)   =  0.10E-29 period in steps =****** mass=  -0.202E-27a.u.
   SCALEE = 1.0000    scale energy and forces
   NPACO  =    256;   APACO  = 16.0  distance and # of slots for P.C.
   PSTRESS=    0.0 pullay stress

  Mass of Ions in am
   POMASS = 196.97
  Ionic Valenz
   ZVAL   =  11.00
  Atomic Wigner-Seitz radii
   RWIGS  =   1.50
  virtual crystal weights 
   VCA    =   1.00
   NELECT =      11.0000    total number of electrons
   NUPDOWN=      -1.0000    fix difference up-down

 DOS related values:
   EMIN   =  10.00;   EMAX   =-10.00  energy-range for DOS
   EFERMI =   0.00
   ISMEAR =     1;   SIGMA  =   0.20  broadening in eV -4-tet -1-fermi 0-gaus

 Electronic relaxation 2 (details)
   IALGO  =     38    algorithm
   LDIAG  =      T    sub-space diagonalisation (order eigenvalues)
   LSUBROT=      F    optimize rotation matrix (better conditioning)
   TURBO    =      0    0=normal 1=particle mesh
   IRESTART =      0    0=no restart 2=restart with 2 vectors
   NREBOOT  =      0    no. of reboots
   NMIN     =      0    reboot dimension
   EREF     =   0.00    reference energy to select bands
   IMIX   =      4    mixing-type and parameters
     AMIX     =   0.40;   BMIX     =  1.00
     AMIX_MAG =   1.60;   BMIX_MAG =  1.00
     AMIN     =   0.10
     WC   =   100.;   INIMIX=   1;  MIXPRE=   1;  MAXMIX= -45

 Intra band minimization:
   WEIMIN = 0.0000     energy-eigenvalue tresh-hold
   EBREAK =  0.21E-05  absolut break condition
   DEPER  =   0.30     relativ break condition  

   TIME   =   0.40     timestep for ELM

  volume/ion in A,a.u.               =      18.52       124.99
  Fermi-wavevector in a.u.,A,eV,Ry     =   1.376078  2.600411 25.763871  1.893591
  Thomas-Fermi vector in A             =   2.501356
 
 Write flags
   LWAVE        =      T    write WAVECAR
   LDOWNSAMPLE  =      F    k-point downsampling of WAVECAR
   LCHARG       =      T    write CHGCAR
   LVTOT        =      F    write LOCPOT, total local potential
   LVHAR        =      F    write LOCPOT, Hartree potential only
   LELF         =      F    write electronic localiz. function (ELF)
   LORBIT       =      0    0 simple, 1 ext, 2 COOP (PROOUT), +10 PAW based schemes


 Dipole corrections
   LMONO  =      F    monopole corrections only (constant potential shift)
   LDIPOL =      F    correct potential (dipole corrections)
   IDIPOL =      0    1-x, 2-y, 3-z, 4-all directions 
   EPSILON=  1.0000000 bulk dielectric constant

 Exchange correlation treatment:
   GGA     =    --    GGA type
   LEXCH   =     2    internal setting for exchange type
   VOSKOWN=      0    Vosko Wilk Nusair interpolation
   LHFCALC =     F    Hartree Fock is set to
   LHFONE  =     F    Hartree Fock one center treatment
   AEXX    =    0.0000 exact exchange contribution

 Linear response parameters
   LEPSILON=     F    determine dielectric tensor
   LRPA    =     F    only Hartree local field effects (RPA)
   LNABLA  =     F    use nabla operator in PAW spheres
   LVEL    =     F    velocity operator in full k-point grid
   LINTERFAST=   F  fast interpolation
   KINTER  =     0    interpolate to denser k-point grid
   CSHIFT  =0.1000    complex shift for real part using Kramers Kronig
   OMEGAMAX=  -1.0    maximum frequency
   DEG_THRESHOLD= 0.2000000E-02 threshold for treating states as degnerate
   RTIME   =   -0.100 relaxation time in fs
  (WPLASMAI=    0.000 imaginary part of plasma frequency in eV, 0.658/RTIME)
   DFIELD  = 0.0000000 0.0000000 0.0000000 field for delta impulse in time
 
 Orbital magnetization related:
   ORBITALMAG=     F  switch on orbital magnetization
   LCHIMAG   =     F  perturbation theory with respect to B field
   DQ        =  0.001000  dq finite difference perturbation B field
   LLRAUG    =     F  two centre corrections for induced B field



--------------------------------------------------------------------------------------------------------


 Static calculation
 charge density and potential will be updated during run
 non-spin polarized calculation
 Variant of blocked Davidson
 Davidson routine will perform the subspace rotation
 perform sub-space diagonalisation
    after iterative eigenvector-optimisation
 modified Broyden-mixing scheme, WC =      100.0
 initial mixing is a Kerker type mixing with AMIX =  0.4000 and BMIX =      1.0000
 Hartree-type preconditioning will be used
 using additional bands            6
 reciprocal scheme for non local part
 use partial core corrections
 calculate Harris-corrections to forces 
   (improved forces if not selfconsistent)
 use of overlap-Matrix (Vanderbilt PP)
 Methfessel and Paxton  Order N= 1 SIGMA  =   0.20


--------------------------------------------------------------------------------------------------------


  energy-cutoff  :      229.87
  volume of cell :       18.52
      direct lattice vectors                 reciprocal lattice vectors
     0.000000000  2.100000000  2.100000000    -0.238095238  0.238095238  0.238095238
     2.100000000  0.000000000  2.100000000     0.238095238 -0.238095238  0.238095238
     2.100000000  2.100000000  0.000000000     0.238095238  0.238095238 -0.238095238

  length of vectors
     2.969848481  2.969848481  2.969848481     0.412393049  0.412393049  0.412393049


 
 k-points in units of 2pi/SCALE and weight: 10x10x10                                
   0.05000000  0.05000000  0.05000000       0.002
  -0.05000000  0.15000000  0.15000000       0.006
  -0.15000000  0.25000000  0.25000000       0.006
  -0.25000000  0.35000000  0.35000000       0.006
  -0.35000000  0.45000000  0.45000000       0.006
   0.55000000 -0.45000000 -0.45000000       0.006
   0.45000000 -0.35000000 -0.35000000       0.006
   0.35000000 -0.25000000 -0.25000000       0.006
   0.25000000 -0.15000000 -0.15000000       0.006
   0.15000000 -0.05000000 -0.05000000       0.006
   0.05000000  0.05000000  0.25000000       0.006
  -0.05000000  0.15000000  0.35000000       0.012
  -0.15000000  0.25000000  0.45000000       0.012
  -0.25000000  0.35000000  0.55000000       0.012
   0.65000000 -0.55000000 -0.35000000       0.012
   0.55000000 -0.45000000 -0.25000000       0.012
   0.45000000 -0.35000000 -0.15000000       0.012
   0.35000000 -0.25000000 -0.05000000       0.012
   0.25000000 -0.15000000  0.05000000       0.012
   0.05000000  0.05000000  0.45000000       0.006
  -0.05000000  0.15000000  0.55000000       0.012
  -0.15000000  0.25000000  0.65000000       0.012
   0.75000000 -0.65000000 -0.25000000       0.012
   0.65000000 -0.55000000 -0.15000000       0.012
   0.55000000 -0.45000000 -0.05000000       0.012
   0.45000000 -0.35000000  0.05000000       0.012
   0.35000000 -0.25000000  0.15000000       0.012
   0.05000000  0.05000000  0.65000000       0.006
  -0.05000000  0.15000000  0.75000000       0.012
   0.85000000 -0.75000000 -0.15000000       0.012
   0.75000000 -0.65000000 -0.05000000       0.012
   0.65000000 -0.55000000  0.05000000       0.012
   0.55000000 -0.45000000  0.15000000       0.012
   0.45000000 -0.35000000  0.25000000       0.012
   0.05000000  0.05000000  0.85000000       0.006
   0.95000000 -0.85000000 -0.05000000       0.012
   0.85000000 -0.75000000  0.05000000       0.012
   0.75000000 -0.65000000  0.15000000       0.012
   0.65000000 -0.55000000  0.25000000       0.012
   0.55000000 -0.45000000  0.35000000       0.012
   0.05000000  0.05000000 -0.95000000       0.006
  -0.05000000  0.15000000 -0.85000000       0.012
  -0.15000000  0.25000000 -0.75000000       0.012
  -0.25000000  0.35000000 -0.65000000       0.012
   0.05000000  0.05000000 -0.75000000       0.006
  -0.05000000  0.15000000 -0.65000000       0.012
  -0.15000000  0.25000000 -0.55000000       0.012
   0.05000000  0.05000000 -0.55000000       0.006
  -0.05000000  0.15000000 -0.45000000       0.012
   0.05000000  0.05000000 -0.35000000       0.006
   0.15000000  0.15000000  0.15000000       0.002
   0.05000000  0.25000000  0.25000000       0.006
  -0.05000000  0.35000000  0.35000000       0.006
  -0.15000000  0.45000000  0.45000000       0.006
   0.75000000 -0.45000000 -0.45000000       0.006
   0.65000000 -0.35000000 -0.35000000       0.006
   0.55000000 -0.25000000 -0.25000000       0.006
   0.45000000 -0.15000000 -0.15000000       0.006
   0.15000000  0.15000000  0.35000000       0.006
   0.05000000  0.25000000  0.45000000       0.012
  -0.05000000  0.35000000  0.55000000       0.012
   0.85000000 -0.55000000 -0.35000000       0.012
   0.75000000 -0.45000000 -0.25000000       0.012
   0.65000000 -0.35000000 -0.15000000       0.012
   0.55000000 -0.25000000 -0.05000000       0.012
   0.15000000  0.15000000  0.55000000       0.006
   0.05000000  0.25000000  0.65000000       0.012
   0.95000000 -0.65000000 -0.25000000       0.012
   0.85000000 -0.55000000 -0.15000000       0.012
   0.75000000 -0.45000000 -0.05000000       0.012
   0.65000000 -0.35000000  0.05000000       0.012
   0.15000000  0.15000000  0.75000000       0.006
   1.05000000 -0.75000000 -0.15000000       0.012
   0.95000000 -0.65000000 -0.05000000       0.012
   0.85000000 -0.55000000  0.05000000       0.012
   0.75000000 -0.45000000  0.15000000       0.012
   0.15000000  0.15000000 -1.05000000       0.006
   0.05000000  0.25000000 -0.95000000       0.012
  -0.05000000  0.35000000 -0.85000000       0.012
   0.15000000  0.15000000 -0.85000000       0.006
   0.05000000  0.25000000 -0.75000000       0.012
   0.15000000  0.15000000 -0.65000000       0.006
   0.25000000  0.25000000  0.25000000       0.002
   0.15000000  0.35000000  0.35000000       0.006
   0.05000000  0.45000000  0.45000000       0.006
   0.95000000 -0.45000000 -0.45000000       0.006
   0.85000000 -0.35000000 -0.35000000       0.006
   0.75000000 -0.25000000 -0.25000000       0.006
   0.25000000  0.25000000  0.45000000       0.006
   0.15000000  0.35000000  0.55000000       0.012
   1.05000000 -0.55000000 -0.35000000       0.012
   0.95000000 -0.45000000 -0.25000000       0.012
   0.85000000 -0.35000000 -0.15000000       0.012
   0.25000000  0.25000000  0.65000000       0.006
   1.15000000 -0.65000000 -0.25000000       0.012
   1.05000000 -0.55000000 -0.15000000       0.012
   0.95000000 -0.45000000 -0.05000000       0.012
   0.25000000  0.25000000 -1.15000000       0.006
   0.15000000  0.35000000 -1.05000000       0.012
   0.25000000  0.25000000 -0.95000000       0.006
   0.35000000  0.35000000  0.35000000       0.002
   0.25000000  0.45000000  0.45000000       0.006
   1.15000000 -0.45000000 -0.45000000       0.006
   1.05000000 -0.35000000 -0.35000000       0.006
   0.35000000  0.35000000  0.55000000       0.006
   1.25000000 -0.55000000 -0.35000000       0.012
   1.15000000 -0.45000000 -0.25000000       0.012
   0.35000000  0.35000000 -1.25000000       0.006
   0.45000000  0.45000000  0.45000000       0.002
   1.35000000 -0.45000000 -0.45000000       0.006
 
 k-points in reciprocal lattice and weights: 10x10x10                                
   0.05000000  0.05000000  0.05000000       0.002
   0.15000000  0.05000000  0.05000000       0.006
   0.25000000  0.05000000  0.05000000       0.006
   0.35000000  0.05000000  0.05000000       0.006
   0.45000000  0.05000000  0.05000000       0.006
  -0.45000000  0.05000000  0.05000000       0.006
  -0.35000000  0.05000000  0.05000000       0.006
  -0.25000000  0.05000000  0.05000000       0.006
  -0.15000000  0.05000000  0.05000000       0.006
  -0.05000000  0.05000000  0.05000000       0.006
   0.15000000  0.15000000  0.05000000       0.006
   0.25000000  0.15000000  0.05000000       0.012
   0.35000000  0.15000000  0.05000000       0.012
   0.45000000  0.15000000  0.05000000       0.012
  -0.45000000  0.15000000  0.05000000       0.012
  -0.35000000  0.15000000  0.05000000       0.012
  -0.25000000  0.15000000  0.05000000       0.012
  -0.15000000  0.15000000  0.05000000       0.012
  -0.05000000  0.15000000  0.05000000       0.012
   0.25000000  0.25000000  0.05000000       0.006
   0.35000000  0.25000000  0.05000000       0.012
   0.45000000  0.25000000  0.05000000       0.012
  -0.45000000  0.25000000  0.05000000       0.012
  -0.35000000  0.25000000  0.05000000       0.012
  -0.25000000  0.25000000  0.05000000       0.012
  -0.15000000  0.25000000  0.05000000       0.012
  -0.05000000  0.25000000  0.05000000       0.012
   0.35000000  0.35000000  0.05000000       0.006
   0.45000000  0.35000000  0.05000000       0.012
  -0.45000000  0.35000000  0.05000000       0.012
  -0.35000000  0.35000000  0.05000000       0.012
  -0.25000000  0.35000000  0.05000000       0.012
  -0.15000000  0.35000000  0.05000000       0.012
  -0.05000000  0.35000000  0.05000000       0.012
   0.45000000  0.45000000  0.05000000       0.006
  -0.45000000  0.45000000  0.05000000       0.012
  -0.35000000  0.45000000  0.05000000       0.012
  -0.25000000  0.45000000  0.05000000       0.012
  -0.15000000  0.45000000  0.05000000       0.012
  -0.05000000  0.45000000  0.05000000       0.012
  -0.45000000 -0.45000000  0.05000000       0.006
  -0.35000000 -0.45000000  0.05000000       0.012
  -0.25000000 -0.45000000  0.05000000       0.012
  -0.15000000 -0.45000000  0.05000000       0.012
  -0.35000000 -0.35000000  0.05000000       0.006
  -0.25000000 -0.35000000  0.05000000       0.012
  -0.15000000 -0.35000000  0.05000000       0.012
  -0.25000000 -0.25000000  0.05000000       0.006
  -0.15000000 -0.25000000  0.05000000       0.012
  -0.15000000 -0.15000000  0.05000000       0.006
   0.15000000  0.15000000  0.15000000       0.002
   0.25000000  0.15000000  0.15000000       0.006
   0.35000000  0.15000000  0.15000000       0.006
   0.45000000  0.15000000  0.15000000       0.006
  -0.45000000  0.15000000  0.15000000       0.006
  -0.35000000  0.15000000  0.15000000       0.006
  -0.25000000  0.15000000  0.15000000       0.006
  -0.15000000  0.15000000  0.15000000       0.006
   0.25000000  0.25000000  0.15000000       0.006
   0.35000000  0.25000000  0.15000000       0.012
   0.45000000  0.25000000  0.15000000       0.012
  -0.45000000  0.25000000  0.15000000       0.012
  -0.35000000  0.25000000  0.15000000       0.012
  -0.25000000  0.25000000  0.15000000       0.012
  -0.15000000  0.25000000  0.15000000       0.012
   0.35000000  0.35000000  0.15000000       0.006
   0.45000000  0.35000000  0.15000000       0.012
  -0.45000000  0.35000000  0.15000000       0.012
  -0.35000000  0.35000000  0.15000000       0.012
  -0.25000000  0.35000000  0.15000000       0.012
  -0.15000000  0.35000000  0.15000000       0.012
   0.45000000  0.45000000  0.15000000       0.006
  -0.45000000  0.45000000  0.15000000       0.012
  -0.35000000  0.45000000  0.15000000       0.012
  -0.25000000  0.45000000  0.15000000       0.012
  -0.15000000  0.45000000  0.15000000       0.012
  -0.45000000 -0.45000000  0.15000000       0.006
  -0.35000000 -0.45000000  0.15000000       0.012
  -0.25000000 -0.45000000  0.15000000       0.012
  -0.35000000 -0.35000000  0.15000000       0.006
  -0.25000000 -0.35000000  0.15000000       0.012
  -0.25000000 -0.25000000  0.15000000       0.006
   0.25000000  0.25000000  0.25000000       0.002
   0.35000000  0.25000000  0.25000000       0.006
   0.45000000  0.25000000  0.25000000       0.006
  -0.45000000  0.25000000  0.25000000       0.006
  -0.35000000  0.25000000  0.25000000       0.006
  -0.25000000  0.25000000  0.25000000       0.006
   0.35000000  0.35000000  0.25000000       0.006
   0.45000000  0.35000000  0.25000000       0.012
  -0.45000000  0.35000000  0.25000000       0.012
  -0.35000000  0.35000000  0.25000000       0.012
  -0.25000000  0.35000000  0.25000000       0.012
   0.45000000  0.45000000  0.25000000       0.006
  -0.45000000  0.45000000  0.25000000       0.012
  -0.35000000  0.45000000  0.25000000       0.012
  -0.25000000  0.45000000  0.25000000       0.012
  -0.45000000 -0.45000000  0.25000000       0.006
  -0.35000000 -0.45000000  0.25000000       0.012
  -0.35000000 -0.35000000  0.25000000       0.006
   0.35000000  0.35000000  0.35000000       0.002
   0.45000000  0.35000000  0.35000000       0.006
  -0.45000000  0.35000000  0.35000000       0.006
  -0.35000000  0.35000000  0.35000000       0.006
   0.45000000  0.45000000  0.35000000       0.006
  -0.45000000  0.45000000  0.35000000       0.012
  -0.35000000  0.45000000  0.35000000       0.012
  -0.45000000 -0.45000000  0.35000000       0.006
   0.45000000  0.45000000  0.45000000       0.002
  -0.45000000  0.45000000  0.45000000       0.006
 
 position of ions in fractional coordinates (direct lattice) 
   0.00000000  0.00000000  0.00000000
 
 position of ions in cartesian coordinates  (Angst):
   0.00000000  0.00000000  0.00000000
 


--------------------------------------------------------------------------------------------------------


 k-point  1 :   0.0500 0.0500 0.0500  plane waves:     153
 k-point  2 :   0.1500 0.0500 0.0500  plane waves:     153
 k-point  3 :   0.2500 0.0500 0.0500  plane waves:     150
 k-point  4 :   0.3500 0.0500 0.0500  plane waves:     149
 k-point  5 :   0.4500 0.0500 0.0500  plane waves:     147
 k-point  6 :  -0.4500 0.0500 0.0500  plane waves:     151
 k-point  7 :  -0.3500 0.0500 0.0500  plane waves:     149
 k-point  8 :  -0.2500 0.0500 0.0500  plane waves:     148
 k-point  9 :  -0.1500 0.0500 0.0500  plane waves:     152
 k-point 10 :  -0.0500 0.0500 0.0500  plane waves:     153
 k-point 11 :   0.1500 0.1500 0.0500  plane waves:     149
 k-point 12 :   0.2500 0.1500 0.0500  plane waves:     150
 k-point 13 :   0.3500 0.1500 0.0500  plane waves:     146
 k-point 14 :   0.4500 0.1500 0.0500  plane waves:     147
 k-point 15 :  -0.4500 0.1500 0.0500  plane waves:     150
 k-point 16 :  -0.3500 0.1500 0.0500  plane waves:     147
 k-point 17 :  -0.2500 0.1500 0.0500  plane waves:     146
 k-point 18 :  -0.1500 0.1500 0.0500  plane waves:     148
 k-point 19 :  -0.0500 0.1500 0.0500  plane waves:     153
 k-point 20 :   0.2500 0.2500 0.0500  plane waves:     149
 k-point 21 :   0.3500 0.2500 0.0500  plane waves:     145
 k-point 22 :   0.4500 0.2500 0.0500  plane waves:     146
 k-point 23 :  -0.4500 0.2500 0.0500  plane waves:     147
 k-point 24 :  -0.3500 0.2500 0.0500  plane waves:     147
 k-point 25 :  -0.2500 0.2500 0.0500  plane waves:     145
 k-point 26 :  -0.1500 0.2500 0.0500  plane waves:     146
 k-point 27 :  -0.0500 0.2500 0.0500  plane waves:     148
 k-point 28 :   0.3500 0.3500 0.0500  plane waves:     147
 k-point 29 :   0.4500 0.3500 0.0500  plane waves:     143
 k-point 30 :  -0.4500 0.3500 0.0500  plane waves:     145
 k-point 31 :  -0.3500 0.3500 0.0500  plane waves:     143
 k-point 32 :  -0.2500 0.3500 0.0500  plane waves:     145
 k-point 33 :  -0.1500 0.3500 0.0500  plane waves:     146
 k-point 34 :  -0.0500 0.3500 0.0500  plane waves:     149
 k-point 35 :   0.4500 0.4500 0.0500  plane waves:     144
 k-point 36 :  -0.4500 0.4500 0.0500  plane waves:     145
 k-point 37 :  -0.3500 0.4500 0.0500  plane waves:     143
 k-point 38 :  -0.2500 0.4500 0.0500  plane waves:     148
 k-point 39 :  -0.1500 0.4500 0.0500  plane waves:     148
 k-point 40 :  -0.0500 0.4500 0.0500  plane waves:     148
 k-point 41 :  -0.4500-0.4500 0.0500  plane waves:     150
 k-point 42 :  -0.3500-0.4500 0.0500  plane waves:     144
 k-point 43 :  -0.2500-0.4500 0.0500  plane waves:     145
 k-point 44 :  -0.1500-0.4500 0.0500  plane waves:     146
 k-point 45 :  -0.3500-0.3500 0.0500  plane waves:     143
 k-point 46 :  -0.2500-0.3500 0.0500  plane waves:     145
 k-point 47 :  -0.1500-0.3500 0.0500  plane waves:     147
 k-point 48 :  -0.2500-0.2500 0.0500  plane waves:     147
 k-point 49 :  -0.1500-0.2500 0.0500  plane waves:     145
 k-point 50 :  -0.1500-0.1500 0.0500  plane waves:     150
 k-point 51 :   0.1500 0.1500 0.1500  plane waves:     153
 k-point 52 :   0.2500 0.1500 0.1500  plane waves:     151
 k-point 53 :   0.3500 0.1500 0.1500  plane waves:     149
 k-point 54 :   0.4500 0.1500 0.1500  plane waves:     148
 k-point 55 :  -0.4500 0.1500 0.1500  plane waves:     148
 k-point 56 :  -0.3500 0.1500 0.1500  plane waves:     146
 k-point 57 :  -0.2500 0.1500 0.1500  plane waves:     147
 k-point 58 :  -0.1500 0.1500 0.1500  plane waves:     148
 k-point 59 :   0.2500 0.2500 0.1500  plane waves:     148
 k-point 60 :   0.3500 0.2500 0.1500  plane waves:     147
 k-point 61 :   0.4500 0.2500 0.1500  plane waves:     145
 k-point 62 :  -0.4500 0.2500 0.1500  plane waves:     148
 k-point 63 :  -0.3500 0.2500 0.1500  plane waves:     145
 k-point 64 :  -0.2500 0.2500 0.1500  plane waves:     145
 k-point 65 :  -0.1500 0.2500 0.1500  plane waves:     145
 k-point 66 :   0.3500 0.3500 0.1500  plane waves:     145
 k-point 67 :   0.4500 0.3500 0.1500  plane waves:     146
 k-point 68 :  -0.4500 0.3500 0.1500  plane waves:     147
 k-point 69 :  -0.3500 0.3500 0.1500  plane waves:     146
 k-point 70 :  -0.2500 0.3500 0.1500  plane waves:     146
 k-point 71 :  -0.1500 0.3500 0.1500  plane waves:     146
 k-point 72 :   0.4500 0.4500 0.1500  plane waves:     141
 k-point 73 :  -0.4500 0.4500 0.1500  plane waves:     146
 k-point 74 :  -0.3500 0.4500 0.1500  plane waves:     148
 k-point 75 :  -0.2500 0.4500 0.1500  plane waves:     150
 k-point 76 :  -0.1500 0.4500 0.1500  plane waves:     147
 k-point 77 :  -0.4500-0.4500 0.1500  plane waves:     144
 k-point 78 :  -0.3500-0.4500 0.1500  plane waves:     142
 k-point 79 :  -0.2500-0.4500 0.1500  plane waves:     146
 k-point 80 :  -0.3500-0.3500 0.1500  plane waves:     142
 k-point 81 :  -0.2500-0.3500 0.1500  plane waves:     146
 k-point 82 :  -0.2500-0.2500 0.1500  plane waves:     143
 k-point 83 :   0.2500 0.2500 0.2500  plane waves:     150
 k-point 84 :   0.3500 0.2500 0.2500  plane waves:     148
 k-point 85 :   0.4500 0.2500 0.2500  plane waves:     146
 k-point 86 :  -0.4500 0.2500 0.2500  plane waves:     144
 k-point 87 :  -0.3500 0.2500 0.2500  plane waves:     147
 k-point 88 :  -0.2500 0.2500 0.2500  plane waves:     145
 k-point 89 :   0.3500 0.3500 0.2500  plane waves:     147
 k-point 90 :   0.4500 0.3500 0.2500  plane waves:     147
 k-point 91 :  -0.4500 0.3500 0.2500  plane waves:     146
 k-point 92 :  -0.3500 0.3500 0.2500  plane waves:     145
 k-point 93 :  -0.2500 0.3500 0.2500  plane waves:     144
 k-point 94 :   0.4500 0.4500 0.2500  plane waves:     147
 k-point 95 :  -0.4500 0.4500 0.2500  plane waves:     145
 k-point 96 :  -0.3500 0.4500 0.2500  plane waves:     150
 k-point 97 :  -0.2500 0.4500 0.2500  plane waves:     148
 k-point 98 :  -0.4500-0.4500 0.2500  plane waves:     146
 k-point 99 :  -0.3500-0.4500 0.2500  plane waves:     147
 k-point ** :  -0.3500-0.3500 0.2500  plane waves:     144
 k-point ** :   0.3500 0.3500 0.3500  plane waves:     147
 k-point ** :   0.4500 0.3500 0.3500  plane waves:     149
 k-point ** :  -0.4500 0.3500 0.3500  plane waves:     146
 k-point ** :  -0.3500 0.3500 0.3500  plane waves:     142
 k-point ** :   0.4500 0.4500 0.3500  plane waves:     149
 k-point ** :  -0.4500 0.4500 0.3500  plane waves:     147
 k-point ** :  -0.3500 0.4500 0.3500  plane waves:     147
 k-point ** :  -0.4500-0.4500 0.3500  plane waves:     148
 k-point ** :   0.4500 0.4500 0.4500  plane waves:     147
 k-point ** :  -0.4500 0.4500 0.4500  plane waves:     147

 maximum and minimum number of plane-waves per node :       153      141

 maximum number of plane-waves:       153
 maximum index in each direction: 
   IXMAX=    4   IYMAX=    4   IZMAX=    3
   IXMIN=   -4   IYMIN=   -4   IZMIN=   -4


 serial   3D FFT for wavefunctions
 parallel 3D FFT for charge:
    minimum data exchange during FFTs selected (reduces bandwidth)


 total amount of memory used by VASP MPI-rank0    33986. kBytes
=======================================================================

   base      :      30000. kBytes
   nonl-proj :       2473. kBytes
   fftplans  :        238. kBytes
   grid      :        331. kBytes
   one-center:         15. kBytes
   wavefun   :        929. kBytes
 
     INWAV:  cpu time    0.0001: real time    0.0002
 Broyden mixing: mesh for mixing (old mesh)
   NGX =  7   NGY =  7   NGZ =  7
  (NGX  = 24   NGY  = 24   NGZ  = 24)
  gives a total of    343 points

 initial charge density was supplied:
 charge density of overlapping atoms calculated
 number of electron      11.0000000 magnetization 
 keeping initial charge density in first step


--------------------------------------------------------------------------------------------------------


 Maximum index for augmentation-charges         1345 (set IRDMAX)


--------------------------------------------------------------------------------------------------------


 First call to EWALD:  gamma=   0.670
 Maximum number of real-space cells 3x 3x 3
 Maximum number of reciprocal cells 3x 3x 3

    FEWALD:  cpu time    0.0012: real time    0.0012


--------------------------------------- Iteration      1(   1)  ---------------------------------------


    POTLOK:  cpu time    0.0015: real time    0.0026
    SETDIJ:  cpu time    0.0014: real time    0.0014
     EDDAV:  cpu time    0.2377: real time    0.2457
       DOS:  cpu time    0.0015: real time    0.0014
    --------------------------------------------
      LOOP:  cpu time    0.2422: real time    0.2512

 eigenvalue-minimisations  :  3220
 total energy-change (2. order) : 0.3109857E+02  (-0.3467887E+03)
 number of electron      11.0000000 magnetization 
 augmentation part       11.0000000 magnetization 

 Free energy of the ion-electron system (eV)
  ---------------------------------------------------
  alpha Z        PSCENC =        99.22682972
  Ewald energy   TEWEN  =      -951.01733377
  -Hartree energ DENC   =      -133.73263640
  -exchange      EXHF   =         0.00000000
  -V(xc)+E(xc)   XCENC  =        16.06601266
  PAW double counting   =       746.10209728     -725.46159323
  entropy T*S    EENTRO =        -0.00102094
  eigenvalues    EBANDS =        50.52006755
  atomic energy  EATOM  =       929.39614979
  Solvation  Ediel_sol  =         0.00000000
  ---------------------------------------------------
  free energy    TOTEN  =        31.09857265 eV

  energy without entropy =       31.09959360  energy(sigma->0) =       31.09891297


--------------------------------------------------------------------------------------------------------




--------------------------------------- Iteration      1(   2)  ---------------------------------------


     EDDAV:  cpu time    0.2330: real time    0.2394
       DOS:  cpu time    0.0014: real time    0.0014
    --------------------------------------------
      LOOP:  cpu time    0.2344: real time    0.2408

 eigenvalue-minimisations  :  3024
 total energy-change (2. order) :-0.3537318E+02  (-0.3308765E+02)
 number of electron      11.0000000 magnetization 
 augmentation part       11.0000000 magnetization 

 Free energy of the ion-electron system (eV)
  ---------------------------------------------------
  alpha Z        PSCENC =        99.22682972
  Ewald energy   TEWEN  =      -951.01733377
  -Hartree energ DENC   =      -133.73263640
  -exchange      EXHF   =         0.00000000
  -V(xc)+E(xc)   XCENC  =        16.06601266
  PAW double counting   =       746.10209728     -725.46159323
  entropy T*S    EENTRO =        -0.00000371
  eigenvalues    EBANDS =        15.14587194
  atomic energy  EATOM  =       929.39614979
  Solvation  Ediel_sol  =         0.00000000
  ---------------------------------------------------
  free energy    TOTEN  =        -4.27460571 eV

  energy without entropy =       -4.27460201  energy(sigma->0) =       -4.27460448


--------------------------------------------------------------------------------------------------------




--------------------------------------- Iteration      1(   3)  ---------------------------------------


     EDDAV:  cpu time    0.2368: real time    0.2423
       DOS:  cpu time    0.0014: real time    0.0014
    --------------------------------------------
      LOOP:  cpu time    0.2382: real time    0.2437

 eigenvalue-minimisations  :  3220
 total energy-change (2. order) :-0.3507899E+00  (-0.3505187E+00)
 number of electron      11.0000000 magnetization 
 augmentation part       11.0000000 magnetization 

 Free energy of the ion-electron system (eV)
  ---------------------------------------------------
  alpha Z        PSCENC =        99.22682972
  Ewald energy   TEWEN  =      -951.01733377
  -Hartree energ DENC   =      -133.73263640
  -exchange      EXHF   =         0.00000000
  -V(xc)+E(xc)   XCENC  =        16.06601266
  PAW double counting   =       746.10209728     -725.46159323
  entropy T*S    EENTRO =         0.00029604
  eigenvalues    EBANDS =        14.79478231
  atomic energy  EATOM  =       929.39614979
  Solvation  Ediel_sol  =         0.00000000
  ---------------------------------------------------
  free energy    TOTEN  =        -4.62539559 eV

  energy without entropy =       -4.62569163  energy(sigma->0) =       -4.62549427


--------------------------------------------------------------------------------------------------------




--------------------------------------- Iteration      1(   4)  ---------------------------------------


     EDDAV:  cpu time    0.2330: real time    0.2385
       DOS:  cpu time    0.0014: real time    0.0014
    --------------------------------------------
      LOOP:  cpu time    0.2344: real time    0.2400

 eigenvalue-minimisations  :  3112
 total energy-change (2. order) :-0.9054377E-03  (-0.9054095E-03)
 number of electron      11.0000000 magnetization 
 augmentation part       11.0000000 magnetization 

 Free energy of the ion-electron system (eV)
  ---------------------------------------------------
  alpha Z        PSCENC =        99.22682972
  Ewald energy   TEWEN  =      -951.01733377
  -Hartree energ DENC   =      -133.73263640
  -exchange      EXHF   =         0.00000000
  -V(xc)+E(xc)   XCENC  =        16.06601266
  PAW double counting   =       746.10209728     -725.46159323
  entropy T*S    EENTRO =         0.00029642
  eigenvalues    EBANDS =        14.79387650
  atomic energy  EATOM  =       929.39614979
  Solvation  Ediel_sol  =         0.00000000
  ---------------------------------------------------
  free energy    TOTEN  =        -4.62630103 eV

  energy without entropy =       -4.62659745  energy(sigma->0) =       -4.62639984


--------------------------------------------------------------------------------------------------------




--------------------------------------- Iteration      1(   5)  ---------------------------------------


     EDDAV:  cpu time    0.2156: real time    0.2205
       DOS:  cpu time    0.0014: real time    0.0014
    CHARGE:  cpu time    0.0045: real time    0.0045
    MIXING:  cpu time    0.0003: real time    0.0003
    --------------------------------------------
      LOOP:  cpu time    0.2218: real time    0.2267

 eigenvalue-minimisations  :  2840
 total energy-change (2. order) :-0.6319334E-05  (-0.6319217E-05)
 number of electron      10.9999968 magnetization 
 augmentation part        3.8306381 magnetization 

 Broyden mixing:
  rms(total) = 0.31172E+00    rms(broyden)= 0.31141E+00
  rms(prec ) = 0.12890E+01
  weight for this iteration     100.00

 Free energy of the ion-electron system (eV)
  ---------------------------------------------------
  alpha Z        PSCENC =        99.22682972
  Ewald energy   TEWEN  =      -951.01733377
  -Hartree energ DENC   =      -133.73263640
  -exchange      EXHF   =         0.00000000
  -V(xc)+E(xc)   XCENC  =        16.06601266
  PAW double counting   =       746.10209728     -725.46159323
  entropy T*S    EENTRO =         0.00029642
  eigenvalues    EBANDS =        14.79387017
  atomic energy  EATOM  =       929.39614979
  Solvation  Ediel_sol  =         0.00000000
  ---------------------------------------------------
  free energy    TOTEN  =        -4.62630735 eV

  energy without entropy =       -4.62660377  energy(sigma->0) =       -4.62640616


--------------------------------------------------------------------------------------------------------




--------------------------------------- Iteration      1(   6)  ---------------------------------------


    POTLOK:  cpu time    0.0015: real time    0.0016
    SETDIJ:  cpu time    0.0014: real time    0.0013
     EDDAV:  cpu time    0.2360: real time    0.2414
       DOS:  cpu time    0.0015: real time    0.0014
    CHARGE:  cpu time    0.0042: real time    0.0042
    MIXING:  cpu time    0.0004: real time    0.0004
    --------------------------------------------
      LOOP:  cpu time    0.2449: real time    0.2504

 eigenvalue-minimisations  :  3104
 total energy-change (2. order) : 0.3010881E+00  (-0.9241645E-01)
 number of electron      10.9999967 magnetization 
 augmentation part        3.9871338 magnetization 

 Broyden mixing:
  rms(total) = 0.72819E-01    rms(broyden)= 0.72755E-01
  rms(prec ) = 0.27634E+00
  weight for this iteration     100.00

 eigenvalues of (default mixing * dielectric matrix)
  average eigenvalue GAMMA=   1.1762
  1.1762

 Free energy of the ion-electron system (eV)
  ---------------------------------------------------
  alpha Z        PSCENC =        99.22682972
  Ewald energy   TEWEN  =      -951.01733377
  -Hartree energ DENC   =      -125.31806980
  -exchange      EXHF   =         0.00000000
  -V(xc)+E(xc)   XCENC  =        15.64107764
  PAW double counting   =       734.37292507     -714.82630837
  entropy T*S    EENTRO =         0.00085094
  eigenvalues    EBANDS =         8.19865953
  atomic energy  EATOM  =       929.39614979
  Solvation  Ediel_sol  =         0.00000000
  ---------------------------------------------------
  free energy    TOTEN  =        -4.32521926 eV

  energy without entropy =       -4.32607020  energy(sigma->0) =       -4.32550291


--------------------------------------------------------------------------------------------------------




--------------------------------------- Iteration      1(   7)  ---------------------------------------


    POTLOK:  cpu time    0.0016: real time    0.0016
    SETDIJ:  cpu time    0.0012: real time    0.0012
     EDDAV:  cpu time    0.2351: real time    0.2403
       DOS:  cpu time    0.0015: real time    0.0015
    CHARGE:  cpu time    0.0048: real time    0.0050
    MIXING:  cpu time    0.0004: real time    0.0004
    --------------------------------------------
      LOOP:  cpu time    0.2446: real time    0.2501

 eigenvalue-minimisations  :  3152
 total energy-change (2. order) : 0.1745310E-01  (-0.3791910E-02)
 number of electron      10.9999967 magnetization 
 augmentation part        4.0154387 magnetization 

 Broyden mixing:
  rms(total) = 0.30102E-01    rms(broyden)= 0.30090E-01
  rms(prec ) = 0.69751E-01
  weight for this iteration     100.00

 eigenvalues of (default mixing * dielectric matrix)
  average eigenvalue GAMMA=   1.7590
  1.1632  2.3548

 Free energy of the ion-electron system (eV)
  ---------------------------------------------------
  alpha Z        PSCENC =        99.22682972
  Ewald energy   TEWEN  =      -951.01733377
  -Hartree energ DENC   =      -123.22674870
  -exchange      EXHF   =         0.00000000
  -V(xc)+E(xc)   XCENC  =        15.53013898
  PAW double counting   =       735.23788293     -716.33251312
  entropy T*S    EENTRO =         0.00094489
  eigenvalues    EBANDS =         6.87688312
  atomic energy  EATOM  =       929.39614979
  Solvation  Ediel_sol  =         0.00000000
  ---------------------------------------------------
  free energy    TOTEN  =        -4.30776616 eV

  energy without entropy =       -4.30871105  energy(sigma->0) =       -4.30808113


--------------------------------------------------------------------------------------------------------




--------------------------------------- Iteration      1(   8)  ---------------------------------------


    POTLOK:  cpu time    0.0016: real time    0.0017
    SETDIJ:  cpu time    0.0013: real time    0.0013
     EDDAV:  cpu time    0.2247: real time    0.2297
       DOS:  cpu time    0.0014: real time    0.0014
    CHARGE:  cpu time    0.0043: real time    0.0042
    MIXING:  cpu time    0.0003: real time    0.0003
    --------------------------------------------
      LOOP:  cpu time    0.2335: real time    0.2386

 eigenvalue-minimisations  :  3028
 total energy-change (2. order) : 0.4098782E-02  (-0.1654880E-03)
 number of electron      10.9999967 magnetization 
 augmentation part        4.0146693 magnetization 

 Broyden mixing:
  rms(total) = 0.12293E-02    rms(broyden)= 0.12229E-02
  rms(prec ) = 0.31097E-02
  weight for this iteration     100.00

 eigenvalues of (default mixing * dielectric matrix)
  average eigenvalue GAMMA=   1.6677
  1.1760  1.3528  2.4742

 Free energy of the ion-electron system (eV)
  ---------------------------------------------------
  alpha Z        PSCENC =        99.22682972
  Ewald energy   TEWEN  =      -951.01733377
  -Hartree energ DENC   =      -122.52193921
  -exchange      EXHF   =         0.00000000
  -V(xc)+E(xc)   XCENC  =        15.48747727
  PAW double counting   =       740.02380592     -721.68330042
  entropy T*S    EENTRO =         0.00095887
  eigenvalues    EBANDS =         6.78368446
  atomic energy  EATOM  =       929.39614979
  Solvation  Ediel_sol  =         0.00000000
  ---------------------------------------------------
  free energy    TOTEN  =        -4.30366738 eV

  energy without entropy =       -4.30462625  energy(sigma->0) =       -4.30398700


--------------------------------------------------------------------------------------------------------




--------------------------------------- Iteration      1(   9)  ---------------------------------------


    POTLOK:  cpu time    0.0014: real time    0.0015
    SETDIJ:  cpu time    0.0012: real time    0.0012
     EDDAV:  cpu time    0.1574: real time    0.1618
       DOS:  cpu time    0.0014: real time    0.0014
    --------------------------------------------
      LOOP:  cpu time    0.1615: real time    0.1659

 eigenvalue-minimisations  :  1712
 total energy-change (2. order) :-0.5742406E-06  (-0.1151026E-05)
 number of electron      10.9999967 magnetization 
 augmentation part        4.0146693 magnetization 

 Free energy of the ion-electron system (eV)
  ---------------------------------------------------
  alpha Z        PSCENC =        99.22682972
  Ewald energy   TEWEN  =      -951.01733377
  -Hartree energ DENC   =      -122.49203608
  -exchange      EXHF   =         0.00000000
  -V(xc)+E(xc)   XCENC  =        15.48575636
  PAW double counting   =       740.58727692     -722.25397935
  entropy T*S    EENTRO =         0.00096079
  eigenvalues    EBANDS =         6.76270766
  atomic energy  EATOM  =       929.39614979
  Solvation  Ediel_sol  =         0.00000000
  ---------------------------------------------------
  free energy    TOTEN  =        -4.30366795 eV

  energy without entropy =       -4.30462875  energy(sigma->0) =       -4.30398822


--------------------------------------------------------------------------------------------------------




 average (electrostatic) potential at core
  the test charge radii are     1.2098
  (the norm of the test charge is              1.0000)
       1 -46.6032
 
 
 
 E-fermi :   4.4173     XC(G=0): -12.5070     alpha+bet : -9.4688


 k-point     1 :       0.0500    0.0500    0.0500
  band No.  band energies     occupation 
      1      -4.5007      2.00000
      2       0.1879      2.00000
      3       0.2398      2.00000
      4       0.2398      2.00000
      5       1.5342      2.00000
      6       1.5342      2.00000
      7      19.8648      0.00000
      8      22.4455      0.00000
      9      23.1857      0.00000
     10      23.1857      0.00000
     11      27.8248      0.00000
     12      30.2125      0.00000

 k-point     2 :       0.1500    0.0500    0.0500
  band No.  band energies     occupation 
      1      -4.0792      2.00000
      2       0.0593      2.00000
      3       0.3605      2.00000
      4       0.3883      2.00000
      5       1.4071      2.00000
      6       1.5777      2.00000
      7      19.9070      0.00000
      8      20.6218      0.00000
      9      22.6958      0.00000
     10      24.0161      0.00000
     11      26.9498      0.00000
     12      29.5155      0.00000

 k-point     3 :       0.2500    0.0500    0.0500
  band No.  band energies     occupation 
      1      -3.1588      2.00000
      2      -0.0304      2.00000
      3       0.4949      2.00000
      4       0.5119      2.00000
      5       1.4197      2.00000
      6       1.7655      2.00000
      7      16.5162      0.00000
      8      20.5273      0.00000
      9      22.6711      0.00000
     10      24.9034      0.00000
     11      25.3130      0.00000
     12      27.3970      0.00000

 k-point     4 :       0.3500    0.0500    0.0500
  band No.  band energies     occupation 
      1      -2.3132      2.00000
      2       0.3432      2.00000
      3       0.4142      2.00000
      4       0.5926      2.00000
      5       1.8410      2.00000
      6       2.2630      2.00000
      7      12.5640      0.00000
      8      19.9386      0.00000
      9      21.6802      0.00000
     10      23.6677      0.00000
     11      26.4043      0.00000
     12      27.3183      0.00000

 k-point     5 :       0.4500    0.0500    0.0500
  band No.  band energies     occupation 
      1      -2.0869      2.00000
      2       0.2108      2.00000
      3       0.2704      2.00000
      4       1.9485      2.00000
      5       2.3514      2.00000
      6       3.1505      2.00000
      7       8.8994     -0.00000
      8      19.2989      0.00000
      9      20.8475      0.00000
     10      21.8957      0.00000
     11      27.8775      0.00000
     12      28.0281      0.00000

 k-point     6 :      -0.4500    0.0500    0.0500
  band No.  band energies     occupation 
      1      -2.0771      2.00000
      2       0.1539      2.00000
      3       0.2365      2.00000
      4       2.2461      2.00000
      5       2.5902      2.00000
      6       4.1624      2.07021
      7       7.2106     -0.00000
      8      19.1296      0.00000
      9      20.9118      0.00000
     10      21.0448      0.00000
     11      28.2459      0.00000
     12      28.2961      0.00000

 k-point     7 :      -0.3500    0.0500    0.0500
  band No.  band energies     occupation 
      1      -2.1165      2.00000
      2       0.2371      2.00000
      3       0.3309      2.00000
      4       1.4519      2.00000
      5       2.4181      2.00000
      6       2.6025      2.00000
      7      10.0436      0.00000
      8      19.5319      0.00000
      9      21.2539      0.00000
     10      22.0186      0.00000
     11      27.8116      0.00000
     12      28.0529      0.00000

 k-point     8 :      -0.2500    0.0500    0.0500
  band No.  band energies     occupation 
      1      -2.5304      2.00000
      2       0.2027      2.00000
      3       0.4336      2.00000
      4       0.4793      2.00000
      5       1.7704      2.00000
      6       1.9897      2.00000
      7      13.8761      0.00000
      8      20.3283      0.00000
      9      22.0749      0.00000
     10      23.7985      0.00000
     11      26.0640      0.00000
     12      27.8858      0.00000

 k-point     9 :      -0.1500    0.0500    0.0500
  band No.  band energies     occupation 
      1      -3.4987      2.00000
      2      -0.0455      2.00000
      3       0.4867      2.00000
      4       0.4961      2.00000
      5       1.3819      2.00000
      6       1.6557      2.00000
      7      17.8030      0.00000
      8      20.7180      0.00000
      9      22.6584      0.00000
     10      24.3774      0.00000
     11      25.7156      0.00000
     12      28.4175      0.00000

 k-point    10 :      -0.0500    0.0500    0.0500
  band No.  band energies     occupation 
      1      -4.2865      2.00000
      2       0.0965      2.00000
      3       0.3225      2.00000
      4       0.3269      2.00000
      5       1.4276      2.00000
      6       1.5838      2.00000
      7      20.0327      0.00000
      8      21.5431      0.00000
      9      22.8318      0.00000
     10      23.2615      0.00000
     11      28.1036      0.00000
     12      29.5795      0.00000

 k-point    11 :       0.1500    0.1500    0.0500
  band No.  band energies     occupation 
      1      -3.8696      2.00000
      2      -0.0868      2.00000
      3       0.4968      2.00000
      4       0.5000      2.00000
      5       1.2454      2.00000
      6       1.6828      2.00000
      7      20.1723      0.00000
      8      20.7708      0.00000
      9      22.0389      0.00000
     10      22.7991      0.00000
     11      26.9871      0.00000
     12      29.1133      0.00000

 k-point    12 :       0.2500    0.1500    0.0500
  band No.  band energies     occupation 
      1      -3.1064      2.00000
      2      -0.2963      2.00000
      3       0.5861      2.00000
      4       0.7417      2.00000
      5       1.2057      2.00000
      6       1.8709      2.00000
      7      18.0331      0.00000
      8      19.8494      0.00000
      9      21.9130      0.00000
     10      23.1000      0.00000
     11      24.9578      0.00000
     12      28.3544      0.00000

 k-point    13 :       0.3500    0.1500    0.0500
  band No.  band energies     occupation 
      1      -2.1548      2.00000
      2      -0.2106      2.00000
      3       0.3326      2.00000
      4       0.7519      2.00000
      5       1.7827      2.00000
      6       2.3818      2.00000
      7      14.0993      0.00000
      8      19.2653      0.00000
      9      20.8984      0.00000
     10      22.5940      0.00000
     11      26.1746      0.00000
     12      28.1049      0.00000

 k-point    14 :       0.4500    0.1500    0.0500
  band No.  band energies     occupation 
      1      -1.7750      2.00000
      2       0.0743      2.00000
      3       0.5487      2.00000
      4       0.6980      2.00000
      5       2.4113      2.00000
      6       3.4992      2.00000
      7      10.2616      0.00000
      8      18.9093      0.00000
      9      19.5503      0.00000
     10      21.4307      0.00000
     11      28.0378      0.00000
     12      28.9858      0.00000

 k-point    15 :      -0.4500    0.1500    0.0500
  band No.  band energies     occupation 
      1      -1.7472      2.00000
      2      -0.0366      2.00000
      3       0.4961      2.00000
      4       1.3656      2.00000
      5       2.5514      2.00000
      6       5.4057     -0.00000
      7       7.2338     -0.00000
      8      18.5204      0.00000
      9      19.1185      0.00000
     10      20.8691      0.00000
     11      28.2888      0.00000
     12      29.4172      0.00000

 k-point    16 :      -0.3500    0.1500    0.0500
  band No.  band energies     occupation 
      1      -1.7371      2.00000
      2       0.0319      2.00000
      3       0.5184      2.00000
      4       1.0869      2.00000
      5       2.2879      2.00000
      6       4.1620      2.07015
      7       9.1544     -0.00000
      8      18.0559      0.00000
      9      19.8098      0.00000
     10      21.6159      0.00000
     11      27.6477      0.00000
     12      29.0185      0.00000

 k-point    17 :      -0.2500    0.1500    0.0500
  band No.  band energies     occupation 
      1      -1.9245      2.00000
      2       0.0349      2.00000
      3       0.3036      2.00000
      4       0.6806      2.00000
      5       1.6990      2.00000
      6       2.8645      2.00000
      7      12.8091      0.00000
      8      18.2314      0.00000
      9      20.9281      0.00000
     10      23.3991      0.00000
     11      26.0419      0.00000
     12      28.1664      0.00000

 k-point    18 :      -0.1500    0.1500    0.0500
  band No.  band energies     occupation 
      1      -2.7745      2.00000
      2      -0.2555      2.00000
      3       0.4988      2.00000
      4       0.7613      2.00000
      5       1.1989      2.00000
      6       2.1015      2.00000
      7      16.6521      0.00000
      8      18.8434      0.00000
      9      22.5300      0.00000
     10      23.4860      0.00000
     11      26.1408      0.00000
     12      27.1215      0.00000

 k-point    19 :      -0.0500    0.1500    0.0500
  band No.  band energies     occupation 
      1      -3.6759      2.00000
      2      -0.0815      2.00000
      3       0.5003      2.00000
      4       0.5076      2.00000
      5       1.2781      2.00000
      6       1.6875      2.00000
      7      19.0823      0.00000
      8      20.3101      0.00000
      9      22.2809      0.00000
     10      24.0563      0.00000
     11      26.0461      0.00000
     12      28.8014      0.00000

 k-point    20 :       0.2500    0.2500    0.0500
  band No.  band energies     occupation 
      1      -2.5916      2.00000
      2      -0.6046      2.00000
      3       0.7261      2.00000
      4       1.0727      2.00000
      5       1.2440      2.00000
      6       1.9716      2.00000
      7      18.4169      0.00000
      8      19.4749      0.00000
      9      20.9004      0.00000
     10      21.6019      0.00000
     11      22.1310      0.00000
     12      29.9945      0.00000

 k-point    21 :       0.3500    0.2500    0.0500
  band No.  band energies     occupation 
      1      -1.8352      2.00000
      2      -0.7973      2.00000
      3       0.5087      2.00000
      4       1.3757      2.00000
      5       1.8212      2.00000
      6       2.3994      2.00000
      7      15.7551      0.00000
      8      17.6566      0.00000
      9      19.2758      0.00000
     10      21.8367      0.00000
     11      23.2348      0.00000
     12      29.9903      0.00000

 k-point    22 :       0.4500    0.2500    0.0500
  band No.  band energies     occupation 
      1      -1.3895      2.00000
      2      -0.5590      2.00000
      3       0.2978      2.00000
      4       1.2626      2.00000
      5       2.4835      2.00000
      6       3.7373      2.00002
      7      11.8803      0.00000
      8      16.9581      0.00000
      9      17.6289      0.00000
     10      21.5840      0.00000
     11      26.2671      0.00000
     12      29.7763      0.00000

 k-point    23 :      -0.4500    0.2500    0.0500
  band No.  band energies     occupation 
      1      -1.2819      2.00000
      2      -0.3234      2.00000
      3       0.4887      2.00000
      4       1.0934      2.00000
      5       2.5823      2.00000
      6       6.0251     -0.00000
      7       8.4829     -0.00000
      8      15.7097      0.00000
      9      17.6951      0.00000
     10      21.3164      0.00000
     11      28.8702      0.00000
     12      30.1201      0.00000

 k-point    24 :      -0.3500    0.2500    0.0500
  band No.  band energies     occupation 
      1      -1.1349      2.00000
      2      -0.2715      2.00000
      3       0.5209      2.00000
      4       1.0031      2.00000
      5       2.2460      2.00000
      6       5.8723     -0.00000
      7       8.9404     -0.00000
      8      14.6905      0.00000
      9      18.8392      0.00000
     10      21.5056      0.00000
     11      28.1556      0.00000
     12      30.4040      0.00000

 k-point    25 :      -0.2500    0.2500    0.0500
  band No.  band energies     occupation 
      1      -1.0735      2.00000
      2      -0.2175      2.00000
      3       0.0267      2.00000
      4       1.0745      2.00000
      5       1.6605      2.00000
      6       4.1481      2.06712
      7      12.1757      0.00000
      8      14.5925      0.00000
      9      20.2031      0.00000
     10      22.6600      0.00000
     11      26.2494      0.00000
     12      30.1268      0.00000

 k-point    26 :      -0.1500    0.2500    0.0500
  band No.  band energies     occupation 
      1      -1.7945      2.00000
      2      -0.3191      2.00000
      3       0.2744      2.00000
      4       0.9635      2.00000
      5       1.3200      2.00000
      6       2.9386      2.00000
      7      14.2261      0.00000
      8      16.7362      0.00000
      9      21.3402      0.00000
     10      24.1160      0.00000
     11      24.9709      0.00000
     12      28.6155      0.00000

 k-point    27 :      -0.0500    0.2500    0.0500
  band No.  band energies     occupation 
      1      -2.6896      2.00000
      2      -0.0937      2.00000
      3       0.4743      2.00000
      4       0.5963      2.00000
      5       1.4788      2.00000
      6       2.0382      2.00000
      7      15.2817      0.00000
      8      20.0540      0.00000
      9      21.8606      0.00000
     10      24.1964      0.00000
     11      25.6403      0.00000
     12      27.3662      0.00000

 k-point    28 :       0.3500    0.3500    0.0500
  band No.  band energies     occupation 
      1      -1.6775      2.00000
      2      -1.1273      2.00000
      3       1.3081      2.00000
      4       1.8287      2.00000
      5       2.2398      2.00000
      6       2.3260      2.00000
      7      15.6345      0.00000
      8      16.7890      0.00000
      9      16.8669      0.00000
     10      20.7645      0.00000
     11      22.6122      0.00000
     12      32.4187      0.00000

 k-point    29 :       0.4500    0.3500    0.0500
  band No.  band energies     occupation 
      1      -1.5277      2.00000
      2      -1.2214      2.00000
      3       1.3376      2.00000
      4       2.0918      2.00000
      5       2.4970      2.00000
      6       3.8284      2.00025
      7      12.9497      0.00000
      8      15.1090      0.00000
      9      15.7551      0.00000
     10      21.6892      0.00000
     11      23.5209      0.00000
     12      31.8857      0.00000

 k-point    30 :      -0.4500    0.3500    0.0500
  band No.  band energies     occupation 
      1      -1.3774      2.00000
      2      -0.9381      2.00000
      3       1.0252      2.00000
      4       1.8326      2.00000
      5       2.6646      2.00000
      6       6.2491     -0.00000
      7       9.9948      0.00000
      8      13.3392      0.00000
      9      15.8895      0.00000
     10      21.9353      0.00000
     11      26.1355      0.00000
     12      30.8869      0.00000

 k-point    31 :      -0.3500    0.3500    0.0500
  band No.  band energies     occupation 
      1      -1.1246      2.00000
      2      -0.4833      2.00000
      3       0.5497      2.00000
      4       1.5487      2.00000
      5       2.3949      2.00000
      6       7.3624     -0.00000
      7       9.4610     -0.00000
      8      11.7354      0.00000
      9      17.0941      0.00000
     10      21.8266      0.00000
     11      29.3644      0.00000
     12      29.7490      0.00000

 k-point    32 :      -0.2500    0.3500    0.0500
  band No.  band energies     occupation 
      1      -0.8880      2.00000
      2      -0.2237      2.00000
      3       0.1211      2.00000
      4       1.2399      2.00000
      5       2.0435      2.00000
      6       5.6855     -0.00000
      7      10.7109      0.00000
      8      12.7233      0.00000
      9      18.7930      0.00000
     10      21.8159      0.00000
     11      27.9927      0.00000
     12      30.7084      0.00000

 k-point    33 :      -0.1500    0.3500    0.0500
  band No.  band energies     occupation 
      1      -1.4180      2.00000
      2      -0.0516      2.00000
[...]
      1      -1.1210      2.00000
      2      -0.6424      2.00000
      3       0.4858      2.00000
      4       1.6199      2.00000
      5       2.5935      2.00000
      6       6.9448     -0.00000
      7       9.3057     -0.00000
      8      13.2873      0.00000
      9      15.6853      0.00000
     10      22.8794      0.00000
     11      27.6168      0.00000
     12      29.5482      0.00000

 k-point    94 :       0.4500    0.4500    0.2500
  band No.  band energies     occupation 
      1      -1.4710      2.00000
      2      -0.2526      2.00000
      3       0.3212      2.00000
      4       0.9793      2.00000
      5       2.6273      2.00000
      6       4.0931      2.04422
      7      10.5020      0.00000
      8      17.5390      0.00000
      9      18.3251      0.00000
     10      20.7714      0.00000
     11      28.1157      0.00000
     12      29.9239      0.00000

 k-point    95 :      -0.4500    0.4500    0.2500
  band No.  band energies     occupation 
      1      -1.1287      2.00000
      2      -0.4891      2.00000
      3       0.2498      2.00000
      4       1.4261      2.00000
      5       2.5123      2.00000
      6       5.5906     -0.00000
      7       9.9046      0.00000
      8      15.0104      0.00000
      9      16.4201      0.00000
     10      22.5891      0.00000
     11      27.4133      0.00000
     12      29.5634      0.00000

 k-point    96 :      -0.3500    0.4500    0.2500
  band No.  band energies     occupation 
      1      -0.7728      2.00000
      2      -0.4487      2.00000
      3      -0.0483      2.00000
      4       1.5221      2.00000
      5       2.6281      2.00000
      6       7.2808     -0.00000
      7      10.2553      0.00000
      8      12.0343      0.00000
      9      14.7215      0.00000
     10      25.1392      0.00000
     11      26.7346      0.00000
     12      29.6178      0.00000

 k-point    97 :      -0.2500    0.4500    0.2500
  band No.  band energies     occupation 
      1      -0.8797      2.00000
      2      -0.4419      2.00000
      3       0.0916      2.00000
      4       1.4837      2.00000
      5       2.8134      2.00000
      6       8.4112     -0.00000
      7       9.9950      0.00000
      8      11.2534      0.00000
      9      13.7835      0.00000
     10      25.8363      0.00000
     11      27.3132      0.00000
     12      28.4922      0.00000

 k-point    98 :      -0.4500   -0.4500    0.2500
  band No.  band energies     occupation 
      1      -1.3094      2.00000
      2      -0.6714      2.00000
      3       0.8010      2.00000
      4       1.5544      2.00000
      5       2.6018      2.00000
      6       6.8197     -0.00000
      7       8.9597     -0.00000
      8      13.4029      0.00000
      9      16.9762      0.00000
     10      21.2946      0.00000
     11      27.7751      0.00000
     12      30.9723      0.00000

 k-point    99 :      -0.3500   -0.4500    0.2500
  band No.  band energies     occupation 
      1      -1.1511      2.00000
      2      -0.7088      2.00000
      3       0.6681      2.00000
      4       1.6846      2.00000
      5       2.6363      2.00000
      6       8.0664     -0.00000
      7       9.1377     -0.00000
      8      11.7462      0.00000
      9      15.3801      0.00000
     10      23.0755      0.00000
     11      27.7728      0.00000
     12      29.5095      0.00000

 k-point   100 :      -0.3500   -0.3500    0.2500
  band No.  band energies     occupation 
      1      -1.3209      2.00000
      2      -0.7526      2.00000
      3       0.9748      2.00000
      4       1.7754      2.00000
      5       2.5016      2.00000
      6       7.9212     -0.00000
      7       8.8264     -0.00000
      8      11.7698      0.00000
      9      16.7034      0.00000
     10      21.4703      0.00000
     11      27.7143      0.00000
     12      31.1872      0.00000

 k-point   101 :       0.3500    0.3500    0.3500
  band No.  band energies     occupation 
      1      -2.2480      2.00000
      2       0.3274      2.00000
      3       0.3274      2.00000
      4       1.1947      2.00000
      5       2.1631      2.00000
      6       2.1631      2.00000
      7      11.2387      0.00000
      8      19.7498      0.00000
      9      22.4031      0.00000
     10      22.4031      0.00000
     11      27.5763      0.00000
     12      27.6176      0.00000

 k-point   102 :       0.4500    0.3500    0.3500
  band No.  band energies     occupation 
      1      -1.9258      2.00000
      2       0.1737      2.00000
      3       0.4249      2.00000
      4       1.1030      2.00000
      5       2.0710      2.00000
      6       3.3189      2.00000
      7      10.1865      0.00000
      8      18.7738      0.00000
      9      20.3977      0.00000
     10      22.4169      0.00000
     11      27.1380      0.00000
     12      28.2430      0.00000

 k-point   103 :      -0.4500    0.3500    0.3500
  band No.  band energies     occupation 
      1      -1.2852      2.00000
      2      -0.1366      2.00000
      3       0.6017      2.00000
      4       0.8224      2.00000
      5       2.0545      2.00000
      6       4.9221     -0.00208
      7       9.7160     -0.00000
      8      15.4245      0.00000
      9      20.6231      0.00000
     10      20.7291      0.00000
     11      27.7471      0.00000
     12      29.5729      0.00000

 k-point   104 :      -0.3500    0.3500    0.3500
  band No.  band energies     occupation 
      1      -1.0356      2.00000
      2      -0.2684      2.00000
      3       0.3519      2.00000
      4       1.3628      2.00000
      5       2.1821      2.00000
      6       6.4767     -0.00000
      7      10.0814      0.00000
      8      12.0592      0.00000
      9      18.5736      0.00000
     10      21.1014      0.00000
     11      29.4971      0.00000
     12      30.4484      0.00000

 k-point   105 :       0.4500    0.4500    0.3500
  band No.  band energies     occupation 
      1      -1.9178      2.00000
      2       0.0989      2.00000
      3       0.4257      2.00000
      4       1.2657      2.00000
      5       2.5769      2.00000
      6       3.6770      2.00000
      7       8.9822     -0.00000
      8      19.3190      0.00000
      9      20.2961      0.00000
     10      20.7279      0.00000
     11      28.5772      0.00000
     12      28.6959      0.00000

 k-point   106 :      -0.4500    0.4500    0.3500
  band No.  band energies     occupation 
      1      -1.4950      2.00000
      2      -0.1531      2.00000
      3       0.6892      2.00000
      4       0.9022      2.00000
      5       2.4558      2.00000
      6       5.3164     -0.00000
      7       8.2647     -0.00000
      8      17.3329      0.00000
      9      18.4061      0.00000
     10      21.5823      0.00000
     11      27.8839      0.00000
     12      30.2004      0.00000

 k-point   107 :      -0.3500    0.4500    0.3500
  band No.  band energies     occupation 
      1      -0.9603      2.00000
      2      -0.4364      2.00000
      3       0.3548      2.00000
      4       1.2273      2.00000
      5       2.4201      2.00000
      6       6.9849     -0.00000
      7       8.3753     -0.00000
      8      14.0594      0.00000
      9      16.9626      0.00000
     10      22.5836      0.00000
     11      27.9873      0.00000
     12      31.5055      0.00000

 k-point   108 :      -0.4500   -0.4500    0.3500
  band No.  band energies     occupation 
      1      -1.3902      2.00000
      2      -0.2205      2.00000
      3       0.7661      2.00000
      4       0.8485      2.00000
      5       2.5353      2.00000
      6       6.5397     -0.00000
      7       7.3179     -0.00000
      8      16.1522      0.00000
      9      19.0402      0.00000
     10      20.4959      0.00000
     11      29.4165      0.00000
     12      29.6880      0.00000

 k-point   109 :       0.4500    0.4500    0.4500
  band No.  band energies     occupation 
      1      -2.1387      2.00000
      2       0.2061      2.00000
      3       0.2061      2.00000
      4       2.5334      2.00000
      5       2.5334      2.00000
      6       3.2633      2.00000
      7       7.8714     -0.00000
      8      19.1675      0.00000
      9      21.4103      0.00000
     10      21.4103      0.00000
     11      28.0479      0.00000
     12      28.0479      0.00000

 k-point   110 :      -0.4500    0.4500    0.4500
  band No.  band energies     occupation 
      1      -1.9043      2.00000
      2       0.0616      2.00000
      3       0.3590      2.00000
      4       1.7474      2.00000
      5       2.5163      2.00000
      6       4.8869     -0.00445
      7       7.2357     -0.00000
      8      18.8206      0.00000
      9      20.0400      0.00000
     10      20.8286      0.00000
     11      28.4421      0.00000
     12      28.5856      0.00000


--------------------------------------------------------------------------------------------------------


 soft charge-density along one line, spin component           1
         0         1         2         3         4         5         6         7         8         9
 total charge-density along one line
 
 pseudopotential strength for first ion, spin component:           1
-10.150   0.000  -0.000   0.000   0.000   0.000  -0.000   0.000   0.000   0.000  -0.046   0.000   0.000   0.000  -0.000   0.000
 -0.000   0.000 -10.150   0.000  -0.000   0.000  -0.000   0.000   0.000   0.000   0.000   0.000  -0.046   0.000   0.000   0.000
  0.000   0.000  -0.000   0.000 -10.134   0.000  -0.000   0.000  -0.000   0.000  -0.000   0.000   0.000   0.000  -0.048   0.000
 -0.000   0.000  -0.000   0.000  -0.000   0.000 -10.150   0.000  -0.000   0.000   0.000   0.000   0.000   0.000   0.000   0.000
  0.000   0.000   0.000   0.000  -0.000   0.000  -0.000   0.000 -10.134   0.000  -0.000   0.000  -0.000   0.000   0.000   0.000
 -0.046   0.000   0.000   0.000  -0.000   0.000   0.000   0.000  -0.000   0.000   0.276   0.000  -0.000   0.000   0.000   0.000
  0.000   0.000  -0.046   0.000   0.000   0.000   0.000   0.000  -0.000   0.000  -0.000   0.000   0.276   0.000  -0.000   0.000
 -0.000   0.000   0.000   0.000  -0.048   0.000   0.000   0.000   0.000   0.000   0.000   0.000  -0.000   0.000   0.277   0.000
  0.000   0.000   0.000   0.000   0.000   0.000  -0.046   0.000   0.000   0.000  -0.000   0.000  -0.000   0.000  -0.000   0.000
 -0.000   0.000  -0.000   0.000   0.000   0.000   0.000   0.000  -0.048   0.000   0.000   0.000   0.000   0.000  -0.000   0.000
  0.000   0.000   0.000   0.000   0.000   0.000   0.000   0.000  -0.000   0.000   0.000   0.000   0.000   0.000  -0.000   0.000
 -0.000   0.000  -0.000   0.000  -0.000   0.000  -0.000   0.000   0.000   0.000   0.000   0.000   0.000   0.000   0.000   0.000
 -0.000   0.000   0.000   0.000  -0.000   0.000   0.000   0.000  -0.000   0.000   0.000   0.000  -0.000   0.000   0.000   0.000
  0.000   0.000   0.000   0.000   0.000   0.000  -0.000   0.000   0.000   0.000  -0.000   0.000  -0.000   0.000  -0.000   0.000
  0.000   0.000   0.000   0.000   0.000   0.000   0.000   0.000  -0.000   0.000  -0.000   0.000  -0.000   0.000  -0.000   0.000
  0.000   0.000  -0.000   0.000   0.000   0.000  -0.000   0.000   0.000   0.000  -0.000   0.000   0.000   0.000  -0.000   0.000
 -0.000   0.000  -0.000   0.000  -0.000   0.000   0.000   0.000  -0.000   0.000   0.000   0.000   0.000   0.000   0.000   0.000
 -0.000   0.000  -0.000   0.000  -0.000   0.000  -0.000   0.000   0.000   0.000   0.000   0.000   0.000   0.000   0.000   0.000
 total augmentation occupancy for first ion, spin component:           1
  1.903   0.000   0.000   0.000  -0.000  -0.058   0.000   0.000   0.000  -0.000   0.000   0.000   0.000   0.000   0.000   0.000
  0.000   1.903   0.000   0.000   0.000   0.000  -0.058   0.000   0.000  -0.000  -0.000   0.000   0.000   0.000   0.000   0.000
  0.000  -0.000   1.950  -0.000   0.000   0.000  -0.000  -0.100   0.000   0.000   0.000   0.000   0.000   0.000   0.000   0.000
  0.000   0.000  -0.000   1.903   0.000   0.000   0.000   0.000  -0.058   0.000   0.000  -0.000   0.000   0.000   0.000   0.000
  0.000  -0.000   0.000   0.000   1.950   0.000   0.000   0.000   0.000  -0.100   0.000   0.000   0.000   0.000   0.000   0.000
 -0.058   0.000   0.000   0.000  -0.000   0.158   0.000   0.000  -0.000   0.000  -0.000  -0.000   0.000   0.000   0.000   0.000
 -0.000  -0.058  -0.000   0.000   0.000  -0.000   0.158  -0.000   0.000   0.000   0.000  -0.000   0.000   0.000   0.000   0.000
 -0.000   0.000  -0.100   0.000   0.000   0.000   0.000   0.127   0.000   0.000  -0.000   0.000   0.000   0.000   0.000   0.000
  0.000  -0.000   0.000  -0.058   0.000   0.000  -0.000   0.000   0.158  -0.000  -0.000   0.000   0.000   0.000   0.000   0.000
  0.000   0.000  -0.000  -0.000  -0.100   0.000  -0.000   0.000   0.000   0.127   0.000   0.000   0.000   0.000   0.000   0.000
  0.000   0.000  -0.000   0.000   0.000  -0.000   0.000  -0.000  -0.000   0.000   1.036  -0.332   0.000   0.000   0.000   0.000
  0.000   0.000   0.000   0.000  -0.000   0.000   0.000   0.000  -0.000   0.000  -0.332   0.201   0.000   0.000   0.000   0.000
  0.000   0.000   0.000   0.000   0.000   0.000   0.000   0.000   0.000   0.000   0.000   0.000   0.137   0.000   0.000  -0.010
  0.000   0.000   0.000   0.000   0.000   0.000   0.000   0.000   0.000   0.000   0.000   0.000   0.000   0.137  -0.000   0.000
  0.000   0.000   0.000   0.000   0.000   0.000   0.000   0.000   0.000   0.000   0.000   0.000  -0.000   0.000   0.137   0.000
  0.000   0.000   0.000   0.000   0.000   0.000   0.000   0.000   0.000   0.000   0.000   0.000  -0.010   0.000  -0.000   0.001
  0.000   0.000   0.000   0.000   0.000   0.000   0.000   0.000   0.000   0.000   0.000   0.000   0.000  -0.010   0.000   0.000
  0.000   0.000   0.000   0.000   0.000   0.000   0.000   0.000   0.000   0.000   0.000   0.000   0.000   0.000  -0.010   0.000


------------------------ aborting loop because EDIFF is reached ----------------------------------------


    CHARGE:  cpu time    0.0043: real time    0.0042
    FORLOC:  cpu time    0.0001: real time    0.0002
    FORNL :  cpu time    0.0093: real time    0.0094
    STRESS:  cpu time    0.0571: real time    0.0572
    FORCOR:  cpu time    0.0009: real time    0.0009
    FORHAR:  cpu time    0.0006: real time    0.0006
    MIXING:  cpu time    0.0002: real time    0.0002
    OFIELD:  cpu time    0.0000: real time    0.0000

  FORCE on cell =-STRESS in cart. coord.  units (eV):
  Direction    XX          YY          ZZ          XY          YZ          ZX
  --------------------------------------------------------------------------------------
  Alpha Z    99.22683    99.22683    99.22683
  Ewald    -317.00579  -317.00579  -317.00579    -0.00000     0.00000    -0.00000
  Hartree    40.83695    40.83695    40.83695     0.00000     0.00000     0.00000
  E(xc)     -48.69116   -48.69116   -48.69116     0.00001     0.00001     0.00001
  Local      78.63010    78.63010    78.63010     0.00025     0.00025     0.00025
  n-local   -51.02849   -48.37746   -52.15340     0.58360    -0.70887    -0.00916
  augment    42.59584    42.59584    42.59584    -0.00004    -0.00004    -0.00004
  Kinetic   152.95915   151.76520   153.84232    -0.52280     0.29548     0.00040
  Fock        0.00000     0.00000     0.00000     0.00000     0.00000     0.00000
  -------------------------------------------------------------------------------------
  Total      -2.07145    -2.07145    -2.07145     0.00000     0.00000     0.00000
  in kB    -179.18338  -179.18338  -179.18338     0.00000     0.00000     0.00000
  external pressure =     -179.18 kB  Pullay stress =        0.00 kB


 VOLUME and BASIS-vectors are now :
 -----------------------------------------------------------------------------
  energy-cutoff  :      229.87
  volume of cell :       18.52
      direct lattice vectors                 reciprocal lattice vectors
     0.000000000  2.100000000  2.100000000    -0.238095238  0.238095238  0.238095238
     2.100000000  0.000000000  2.100000000     0.238095238 -0.238095238  0.238095238
     2.100000000  2.100000000  0.000000000     0.238095238  0.238095238 -0.238095238

  length of vectors
     2.969848481  2.969848481  2.969848481     0.412393049  0.412393049  0.412393049


 FORCES acting on ions
    electron-ion (+dipol)            ewald-force                    non-local-force                 convergence-correction
 -----------------------------------------------------------------------------------------------
   -.128E-14 -.229E-14 -.220E-14   -.828E-15 0.649E-15 0.119E-14   0.132E-22 0.132E-22 0.132E-22   0.655E-14 -.348E-14 0.461E-15
 -----------------------------------------------------------------------------------------------
   -.128E-14 -.229E-14 -.220E-14   -.828E-15 0.649E-15 0.119E-14   0.132E-22 0.132E-22 0.132E-22   0.655E-14 -.348E-14 0.461E-15
 
 
 POSITION                                       TOTAL-FORCE (eV/Angst)
 -----------------------------------------------------------------------------------
      0.00000      0.00000      0.00000         0.000000      0.000000      0.000000
 -----------------------------------------------------------------------------------
    total drift:                                0.000000     -0.000000     -0.000000


--------------------------------------------------------------------------------------------------------



  FREE ENERGIE OF THE ION-ELECTRON SYSTEM (eV)
  ---------------------------------------------------
  free  energy   TOTEN  =        -4.30366795 eV

  energy  without entropy=       -4.30462875  energy(sigma->0) =       -4.30398822
 


--------------------------------------------------------------------------------------------------------


    POTLOK:  cpu time    0.0028: real time    0.0028


--------------------------------------------------------------------------------------------------------


 writing wavefunctions
     LOOP+:  cpu time    2.2095: real time    2.2652
    4ORBIT:  cpu time    0.0000: real time    0.0000

volume of typ            1:    76.8 %
 
total charge     
 
# of ion       s       p       d       tot
------------------------------------------
    1        0.563   0.371   8.845   9.780
 
orbital moment (x)
 
# of ion     s             p             d             tot
-----------------------------------------------------------------
    1     0.000000E+00 -0.419884E-08  0.127599E-07  0.856102E-08
 
orbital moment (y)
 
# of ion     s             p             d             tot
-----------------------------------------------------------------
    1     0.000000E+00  0.331799E-08 -0.202052E-08  0.129747E-08
 
orbital moment (z)
 
# of ion     s             p             d             tot
-----------------------------------------------------------------
    1     0.000000E+00  0.396694E-09 -0.113199E-07 -0.109232E-07
 

 total amount of memory used by VASP MPI-rank0    33986. kBytes
=======================================================================

   base      :      30000. kBytes
   nonl-proj :       2473. kBytes
   fftplans  :        238. kBytes
   grid      :        331. kBytes
   one-center:         15. kBytes
   wavefun   :        929. kBytes
 
  
  
 General timing and accounting informations for this job:
 ========================================================
  
                  Total CPU time used (sec):        2.815
                            User time (sec):        2.285
                          System time (sec):        0.530
                         Elapsed time (sec):        2.933
  
                   Maximum memory used (kb):       58880.
                   Average memory used (kb):           0.
  
                          Minor page faults:        21876
                          Major page faults:            0
                 Voluntary context switches:         2234
