PROCAR new format
# of k-points:  110         # of bands:   12         # of ions:    1

 k-point     1 :    0.05000000 0.05000000 0.05000000     weight = 0.00200000

band     1 # energy   -4.50067932 # occ.  2.00000000
 
ion      s      p      d    tot
    1  0.627  0.004  0.000  0.631
 
band     2 # energy    0.18793061 # occ.  2.00000000
 
ion      s      p      d    tot
    1  0.000  0.001  0.935  0.936
 
band     3 # energy    0.23984889 # occ.  2.00000000
 
ion      s      p      d    tot
    1  0.000  0.000  0.937  0.938
 
band     4 # energy    0.23984889 # occ.  2.00000000
 
ion      s      p      d    tot
    1  0.000  0.000  0.937  0.938
 
band     5 # energy    1.53418785 # occ.  2.00000000
 
ion      s      p      d    tot
    1  0.000  0.000  0.963  0.963
 
band     6 # energy    1.53418785 # occ.  2.00000000
 
ion      s      p      d    tot
    1  0.000  0.000  0.963  0.963
 
band     7 # energy   19.86479320 # occ.  0.00000000
 
ion      s      p      d    tot
    1  0.000  0.001  0.011  0.012
 
band     8 # energy   22.44551283 # occ.  0.00000000
 
ion      s      p      d    tot
    1  0.016  0.242  0.015  0.273
 
band     9 # energy   23.18567297 # occ.  0.00000000
 
ion      s      p      d    tot
    1  0.000  0.262  0.008  0.270
 
band    10 # energy   23.18567297 # occ.  0.00000000
 
ion      s      p      d    tot
    1  0.000  0.262  0.008  0.270
 
band    11 # energy   27.82481847 # occ.  0.00000000
 
ion      s      p      d    tot
    1  0.051  0.068  0.018  0.137
 
band    12 # energy   30.21253519 # occ.  0.00000000
 
ion      s      p      d    tot
    1  0.014  0.122  0.328  0.464
 

 k-point     2 :    0.15000000 0.05000000 0.05000000     weight = 0.00600000

band     1 # energy   -4.07915661 # occ.  2.00000000
 
ion      s      p      d    tot
    1  0.606  0.024  0.004  0.633
 
band     2 # energy    0.05930624 # occ.  2.00000000
 
ion      s      p      d    tot
    1  0.000  0.005  0.921  0.926
 
band     3 # energy    0.36049690 # occ.  2.00000000
 
ion      s      p      d    tot
    1  0.000  0.000  0.938  0.938
 
band     4 # energy    0.38826028 # occ.  2.00000000
 
ion      s      p      d    tot
    1  0.001  0.003  0.933  0.937
 
band     5 # energy    1.40708898 # occ.  2.00000000
 
ion      s      p      d    tot
    1  0.000  0.000  0.956  0.956
 
band     6 # energy    1.57774068 # occ.  2.00000000
 
ion      s      p      d    tot
    1  0.000  0.000  0.960  0.961
 
band     7 # energy   19.90699491 # occ.  0.00000000
 
ion      s      p      d    tot
    1  0.017  0.112  0.103  0.232
 
band     8 # energy   20.62179980 # occ.  0.00000000
 
ion      s      p      d    tot
    1  0.038  0.149  0.026  0.213
 
band     9 # energy   22.69580453 # occ.  0.00000000
 
ion      s      p      d    tot
    1  0.001  0.316  0.048  0.365
 
band    10 # energy   24.01607703 # occ.  0.00000000
 
ion      s      p      d    tot
    1  0.000  0.264  0.032  0.296
 
band    11 # energy   26.94983528 # occ.  0.00000000
 
ion      s      p      d    tot
    1  0.002  0.266  0.118  0.386
 
band    12 # energy   29.51549687 # occ.  0.00000000
 
ion      s      p      d    tot
    1  0.001  0.143  0.189  0.333
 

 k-point     3 :    0.25000000 0.05000000 0.05000000     weight = 0.00600000

band     1 # energy   -3.15877412 # occ.  2.00000000
 
ion      s      p      d    tot
    1  0.536  0.057  0.056  0.650
 
band     2 # energy   -0.03042458 # occ.  2.00000000
 
ion      s      p      d    tot
    1  0.016  0.030  0.850  0.895
 
band     3 # energy    0.49489239 # occ.  2.00000000
 
ion      s      p      d    tot
    1  0.002  0.006  0.925  0.933
 
band     4 # energy    0.51189005 # occ.  2.00000000
 
ion      s      p      d    tot
    1  0.000  0.000  0.938  0.938
 
band     5 # energy    1.41969278 # occ.  2.00000000
 
ion      s      p      d    tot
    1  0.000  0.001  0.950  0.951
 
band     6 # energy    1.76552164 # occ.  2.00000000
 
ion      s      p      d    tot
    1  0.003  0.003  0.952  0.958
 
band     7 # energy   16.51624528 # occ.  0.00000000
 
ion      s      p      d    tot
    1  0.108  0.298  0.148  0.555
 
band     8 # energy   20.52729473 # occ.  0.00000000
 
ion      s      p      d    tot
    1  0.007  0.057  0.103  0.166
 
band     9 # energy   22.67113299 # occ.  0.00000000
 
ion      s      p      d    tot
    1  0.003  0.384  0.088  0.475
 
band    10 # energy   24.90344156 # occ.  0.00000000
 
ion      s      p      d    tot
    1  0.000  0.420  0.099  0.519
 
band    11 # energy   25.31295503 # occ.  0.00000000
 
ion      s      p      d    tot
    1  0.020  0.172  0.031  0.223
 
band    12 # energy   27.39698587 # occ.  0.00000000
 
ion      s      p      d    tot
    1  0.000  0.158  0.199  0.357
 

 k-point     4 :    0.35000000 0.05000000 0.05000000     weight = 0.00600000

band     1 # energy   -2.31320072 # occ.  2.00000000
 
ion      s      p      d    tot
    1  0.359  0.043  0.329  0.731
 
band     2 # energy    0.34324707 # occ.  2.00000000
 
ion      s      p      d    tot
    1  0.009  0.011  0.903  0.923
 
band     3 # energy    0.41415740 # occ.  2.00000000
 
ion      s      p      d    tot
    1  0.000  0.000  0.933  0.933
 
band     4 # energy    0.59261846 # occ.  2.00000000
 
ion      s      p      d    tot
    1  0.093  0.125  0.585  0.804
 
band     5 # energy    1.84098630 # occ.  2.00000000
 
ion      s      p      d    tot
    1  0.000  0.002  0.955  0.956
 
band     6 # energy    2.26297875 # occ.  2.00000000
 
ion      s      p      d    tot
    1  0.017  0.014  0.921  0.952
 
band     7 # energy   12.56397022 # occ.  0.00000000
 
ion      s      p      d    tot
    1  0.195  0.293  0.184  0.673
 
band     8 # energy   19.93856985 # occ.  0.00000000
 
ion      s      p      d    tot
    1  0.002  0.055  0.071  0.128
 
band     9 # energy   21.68018790 # occ.  0.00000000
 
ion      s      p      d    tot
    1  0.009  0.461  0.072  0.542
 
band    10 # energy   23.66773630 # occ.  0.00000000
 
ion      s      p      d    tot
    1  0.000  0.550  0.069  0.620
 
band    11 # energy   26.40434894 # occ.  0.00000000
 
ion      s      p      d    tot
    1  0.034  0.069  0.137  0.240
 
band    12 # energy   27.31830366 # occ.  0.00000000
 
ion      s      p      d    tot
    1  0.000  0.002  0.335  0.336
 

 k-point     5 :    0.45000000 0.05000000 0.05000000     weight = 0.00600000

band     1 # energy   -2.08690848 # occ.  2.00000000
 
ion      s      p      d    tot
    1  0.215  0.010  0.581  0.805
 
band     2 # energy    0.21081440 # occ.  2.00000000
 
ion      s      p      d    tot
    1  0.000  0.001  0.925  0.927
 
band     3 # energy    0.27044761 # occ.  2.00000000
 
ion      s      p      d    tot
    1  0.000  0.000  0.929  0.929
 
band     4 # energy    1.94850196 # occ.  2.00000000
 
ion      s      p      d    tot
    1  0.051  0.157  0.609  0.817
 
band     5 # energy    2.35140253 # occ.  2.00000000
 
ion      s      p      d    tot
    1  0.000  0.001  0.967  0.968
 
band     6 # energy    3.15054172 # occ.  2.00000000
 
ion      s      p      d    tot
    1  0.089  0.176  0.546  0.811
 
band     7 # energy    8.89935455 # occ. -0.00000000
 
ion      s      p      d    tot
    1  0.324  0.188  0.253  0.765
 
band     8 # energy   19.29889750 # occ.  0.00000000
 
ion      s      p      d    tot
    1  0.000  0.035  0.030  0.065
 
band     9 # energy   20.84753265 # occ.  0.00000000
 
ion      s      p      d    tot
    1  0.010  0.494  0.036  0.540
 
band    10 # energy   21.89568119 # occ.  0.00000000
 
ion      s      p      d    tot
    1  0.000  0.526  0.024  0.550
 
band    11 # energy   27.87754175 # occ.  0.00000000
 
ion      s      p      d    tot
    1  0.024  0.009  0.358  0.391
 
band    12 # energy   28.02805449 # occ.  0.00000000
 
ion      s      p      d    tot
    1  0.000  0.005  0.470  0.475
 

 k-point     6 :   -0.45000000 0.05000000 0.05000000     weight = 0.00600000

band     1 # energy   -2.07714317 # occ.  2.00000000
 
ion      s      p      d    tot
    1  0.187  0.003  0.629  0.819
 
band     2 # energy    0.15386029 # occ.  2.00000000
 
ion      s      p      d    tot
    1  0.000  0.001  0.924  0.925
 
band     3 # energy    0.23645559 # occ.  2.00000000
 
ion      s      p      d    tot
    1  0.000  0.001  0.928  0.928
 
band     4 # energy    2.24610627 # occ.  2.00000000
 
ion      s      p      d    tot
    1  0.001  0.077  0.826  0.904
 
band     5 # energy    2.59017486 # occ.  2.00000000
 
ion      s      p      d    tot
    1  0.000  0.000  0.975  0.975
 
band     6 # energy    4.16240191 # occ.  2.07020919
 
ion      s      p      d    tot
    1  0.015  0.442  0.166  0.623
 
band     7 # energy    7.21055189 # occ. -0.00000000
 
ion      s      p      d    tot
    1  0.475  0.021  0.364  0.860
 
band     8 # energy   19.12963140 # occ.  0.00000000
 
ion      s      p      d    tot
    1  0.000  0.024  0.016  0.040
 
band     9 # energy   20.91184185 # occ.  0.00000000
 
ion      s      p      d    tot
    1  0.011  0.504  0.026  0.541
 
band    10 # energy   21.04484383 # occ.  0.00000000
 
ion      s      p      d    tot
    1  0.000  0.521  0.015  0.536
 
band    11 # energy   28.24591704 # occ.  0.00000000
 
ion      s      p      d    tot
    1  0.000  0.003  0.470  0.473
 
band    12 # energy   28.29610535 # occ.  0.00000000
 
ion      s      p      d    tot
    1  0.003  0.001  0.477  0.481
 

 k-point     7 :   -0.35000000 0.05000000 0.05000000     weight = 0.00600000

band     1 # energy   -2.11647156 # occ.  2.00000000
 
ion      s      p      d    tot
    1  0.246  0.017  0.525  0.789
 
band     2 # energy    0.23706173 # occ.  2.00000000
 
ion      s      p      d    tot
    1  0.000  0.000  0.927  0.927
 
band     3 # energy    0.33091485 # occ.  2.00000000
 
ion      s      p      d    tot
    1  0.000  0.001  0.929  0.931
 
band     4 # energy    1.45194870 # occ.  2.00000000
 
ion      s      p      d    tot
    1  0.089  0.169  0.529  0.786
 
band     5 # energy    2.41813036 # occ.  2.00000000
 
ion      s      p      d    tot
    1  0.000  0.001  0.970  0.971
 
band     6 # energy    2.60248123 # occ.  2.00000000
 
ion      s      p      d    tot
    1  0.069  0.097  0.708  0.874
 
band     7 # energy   10.04362961 # occ.  0.00000000
 
ion      s      p      d    tot
    1  0.273  0.238  0.220  0.731
 
band     8 # energy   19.53185831 # occ.  0.00000000
 
ion      s      p      d    tot
    1  0.000  0.021  0.028  0.049
 
band     9 # energy   21.25390663 # occ.  0.00000000
 
ion      s      p      d    tot
    1  0.000  0.517  0.056  0.573
 
band    10 # energy   22.01862689 # occ.  0.00000000
 
ion      s      p      d    tot
    1  0.015  0.504  0.055  0.573
 
band    11 # energy   27.81164527 # occ.  0.00000000
 
ion      s      p      d    tot
    1  0.007  0.028  0.374  0.408
 
band    12 # energy   28.05286258 # occ.  0.00000000
 
ion      s      p      d    tot
    1  0.000  0.005  0.343  0.348
 

 k-point     8 :   -0.25000000 0.05000000 0.05000000     weight = 0.00600000

band     1 # energy   -2.53037800 # occ.  2.00000000
 
ion      s      p      d    tot
    1  0.429  0.056  0.211  0.696
 
band     2 # energy    0.20271910 # occ.  2.00000000
 
ion      s      p      d    tot
    1  0.060  0.075  0.716  0.851
 
band     3 # energy    0.43355886 # occ.  2.00000000
 
ion      s      p      d    tot
    1  0.007  0.013  0.899  0.919
 
band     4 # energy    0.47928802 # occ.  2.00000000
 
ion      s      p      d    tot
    1  0.000  0.002  0.933  0.935
 
band     5 # energy    1.77039821 # occ.  2.00000000
 
ion      s      p      d    tot
    1  0.012  0.011  0.922  0.945
 
band     6 # energy    1.98971662 # occ.  2.00000000
 
ion      s      p      d    tot
    1  0.000  0.002  0.960  0.962
 
band     7 # energy   13.87611490 # occ.  0.00000000
 
ion      s      p      d    tot
    1  0.163  0.305  0.172  0.641
 
band     8 # energy   20.32833747 # occ.  0.00000000
 
ion      s      p      d    tot
    1  0.002  0.018  0.066  0.085
 
band     9 # energy   22.07486875 # occ.  0.00000000
 
ion      s      p      d    tot
    1  0.000  0.490  0.119  0.609
 
band    10 # energy   23.79853607 # occ.  0.00000000
 
ion      s      p      d    tot
    1  0.024  0.487  0.088  0.600
 
band    11 # energy   26.06399506 # occ.  0.00000000
 
ion      s      p      d    tot
    1  0.011  0.131  0.121  0.263
 
band    12 # energy   27.88575914 # occ.  0.00000000
 
ion      s      p      d    tot
    1  0.001  0.030  0.177  0.208
 

 k-point     9 :   -0.15000000 0.05000000 0.05000000     weight = 0.00600000

band     1 # energy   -3.49873309 # occ.  2.00000000
 
ion      s      p      d    tot
    1  0.567  0.048  0.025  0.640
 
band     2 # energy   -0.04548593 # occ.  2.00000000
 
ion      s      p      d    tot
    1  0.006  0.016  0.888  0.910
 
band     3 # energy    0.48672192 # occ.  2.00000000
 
ion      s      p      d    tot
    1  0.001  0.003  0.932  0.936
 
band     4 # energy    0.49608090 # occ.  2.00000000
 
ion      s      p      d    tot
    1  0.000  0.003  0.935  0.938
 
band     5 # energy    1.38190110 # occ.  2.00000000
 
ion      s      p      d    tot
    1  0.002  0.002  0.946  0.950
 
band     6 # energy    1.65572453 # occ.  2.00000000
 
ion      s      p      d    tot
    1  0.000  0.001  0.959  0.960
 
band     7 # energy   17.80300957 # occ.  0.00000000
 
ion      s      p      d    tot
    1  0.082  0.282  0.137  0.501
 
band     8 # energy   20.71800025 # occ.  0.00000000
 
ion      s      p      d    tot
    1  0.008  0.008  0.067  0.083
 
band     9 # energy   22.65835586 # occ.  0.00000000
 
ion      s      p      d    tot
    1  0.000  0.399  0.115  0.514
 
band    10 # energy   24.37742980 # occ.  0.00000000
 
ion      s      p      d    tot
    1  0.001  0.274  0.061  0.336
 
band    11 # energy   25.71563955 # occ.  0.00000000
 
ion      s      p      d    tot
    1  0.023  0.320  0.059  0.402
 
band    12 # energy   28.41747912 # occ.  0.00000000
 
ion      s      p      d    tot
    1  0.000  0.098  0.141  0.239
 

 k-point    10 :   -0.05000000 0.05000000 0.05000000     weight = 0.00600000

band     1 # energy   -4.28653724 # occ.  2.00000000
 
ion      s      p      d    tot
    1  0.617  0.014  0.001  0.632
 
band     2 # energy    0.09649745 # occ.  2.00000000
 
ion      s      p      d    tot
    1  0.000  0.001  0.930  0.931
 
band     3 # energy    0.32249543 # occ.  2.00000000
 
ion      s      p      d    tot
    1  0.000  0.002  0.936  0.937
 
band     4 # energy    0.32689358 # occ.  2.00000000
 
ion      s      p      d    tot
    1  0.000  0.002  0.936  0.938
 
band     5 # energy    1.42757416 # occ.  2.00000000
 
ion      s      p      d    tot
    1  0.000  0.000  0.957  0.958
 
band     6 # energy    1.58380284 # occ.  2.00000000
 
ion      s      p      d    tot
    1  0.000  0.000  0.963  0.963
 
band     7 # energy   20.03272804 # occ.  0.00000000
 
ion      s      p      d    tot
    1  0.000  0.008  0.045  0.054
 
band     8 # energy   21.54313911 # occ.  0.00000000
 
ion      s      p      d    tot
    1  0.036  0.224  0.030  0.289
 
band     9 # energy   22.83180859 # occ.  0.00000000
 
ion      s      p      d    tot
    1  0.000  0.307  0.045  0.352
 
band    10 # energy   23.26152424 # occ.  0.00000000
 
ion      s      p      d    tot
    1  0.004  0.261  0.026  0.291
 
band    11 # energy   28.10364759 # occ.  0.00000000
 
ion      s      p      d    tot
    1  0.001  0.266  0.101  0.369
 
band    12 # energy   29.57949454 # occ.  0.00000000
 
ion      s      p      d    tot
    1  0.000  0.136  0.281  0.417
 

 k-point    11 :    0.15000000 0.15000000 0.05000000     weight = 0.00600000

band     1 # energy   -3.86959621 # occ.  2.00000000
 
ion      s      p      d    tot
    1  0.594  0.034  0.005  0.634
 
band     2 # energy   -0.08675690 # occ.  2.00000000
 
ion      s      p      d    tot
    1  0.000  0.001  0.922  0.924
 
band     3 # energy    0.49678489 # occ.  2.00000000
 
ion      s      p      d    tot
    1  0.000  0.005  0.932  0.937
 
band     4 # energy    0.49996314 # occ.  2.00000000
 
ion      s      p      d    tot
    1  0.000  0.004  0.933  0.938
 
band     5 # energy    1.24538797 # occ.  2.00000000
 
ion      s      p      d    tot
    1  0.003  0.001  0.944  0.948
 
band     6 # energy    1.68279732 # occ.  2.00000000
 
ion      s      p      d    tot
    1  0.000  0.000  0.964  0.964
 
band     7 # energy   20.17233698 # occ.  0.00000000
 
ion      s      p      d    tot
    1  0.017  0.116  0.113  0.245
 
band     8 # energy   20.77078391 # occ.  0.00000000
 
ion      s      p      d    tot
    1  0.039  0.126  0.046  0.211
 
band     9 # energy   22.03890745 # occ.  0.00000000
 
ion      s      p      d    tot
    1  0.000  0.371  0.097  0.468
 
band    10 # energy   22.79906404 # occ.  0.00000000
 
ion      s      p      d    tot
    1  0.009  0.256  0.066  0.331
 
band    11 # energy   26.98710391 # occ.  0.00000000
 
ion      s      p      d    tot
    1  0.050  0.479  0.062  0.592
 
band    12 # energy   29.11331031 # occ.  0.00000000
 
ion      s      p      d    tot
    1  0.000  0.099  0.157  0.256
 

 k-point    12 :    0.25000000 0.15000000 0.05000000     weight = 0.01200000

band     1 # energy   -3.10644626 # occ.  2.00000000
 
ion      s      p      d    tot
    1  0.542  0.066  0.034  0.642
 
band     2 # energy   -0.29634504 # occ.  2.00000000
 
ion      s      p      d    tot
    1  0.001  0.007  0.903  0.911
 
band     3 # energy    0.58607554 # occ.  2.00000000
 
ion      s      p      d    tot
    1  0.000  0.007  0.925  0.932
 
band     4 # energy    0.74171703 # occ.  2.00000000
 
ion      s      p      d    tot
    1  0.000  0.006  0.933  0.939
 
band     5 # energy    1.20572853 # occ.  2.00000000
 
ion      s      p      d    tot
    1  0.013  0.008  0.916  0.937
 
band     6 # energy    1.87091294 # occ.  2.00000000
 
ion      s      p      d    tot
    1  0.003  0.002  0.958  0.963
 
band     7 # energy   18.03308857 # occ.  0.00000000
 
ion      s      p      d    tot
    1  0.091  0.297  0.119  0.508
 
band     8 # energy   19.84941193 # occ.  0.00000000
 
ion      s      p      d    tot
    1  0.011  0.258  0.182  0.451
 
band     9 # energy   21.91295292 # occ.  0.00000000
 
ion      s      p      d    tot
    1  0.000  0.183  0.085  0.268
 
band    10 # energy   23.09997175 # occ.  0.00000000
 
ion      s      p      d    tot
    1  0.002  0.137  0.115  0.254
 
band    11 # energy   24.95776894 # occ.  0.00000000
 
ion      s      p      d    tot
    1  0.089  0.561  0.025  0.676
 
band    12 # energy   28.35441102 # occ.  0.00000000
 
ion      s      p      d    tot
    1  0.001  0.094  0.142  0.237
 

 k-point    13 :    0.35000000 0.15000000 0.05000000     weight = 0.01200000

band     1 # energy   -2.15477161 # occ.  2.00000000
 
ion      s      p      d    tot
    1  0.402  0.074  0.220  0.697
 
band     2 # energy   -0.21057846 # occ.  2.00000000
 
ion      s      p      d    tot
    1  0.037  0.049  0.782  0.867
 
band     3 # energy    0.33258274 # occ.  2.00000000
 
ion      s      p      d    tot
    1  0.000  0.005  0.913  0.919
 
band     4 # energy    0.75189400 # occ.  2.00000000
 
ion      s      p      d    tot
    1  0.002  0.006  0.928  0.936
 
band     5 # energy    1.78266989 # occ.  2.00000000
 
ion      s      p      d    tot
    1  0.024  0.022  0.888  0.934
 
band     6 # energy    2.38178520 # occ.  2.00000000
 
ion      s      p      d    tot
    1  0.029  0.019  0.902  0.949
 
band     7 # energy   14.09926975 # occ.  0.00000000
 
ion      s      p      d    tot
    1  0.164  0.322  0.154  0.640
 
band     8 # energy   19.26529545 # occ.  0.00000000
 
ion      s      p      d    tot
    1  0.014  0.338  0.165  0.518
 
band     9 # energy   20.89842445 # occ.  0.00000000
 
ion      s      p      d    tot
    1  0.009  0.164  0.089  0.262
 
band    10 # energy   22.59400319 # occ.  0.00000000
 
ion      s      p      d    tot
    1  0.046  0.341  0.144  0.531
 
band    11 # energy   26.17462208 # occ.  0.00000000
 
ion      s      p      d    tot
    1  0.013  0.336  0.022  0.371
 
band    12 # energy   28.10493954 # occ.  0.00000000
 
ion      s      p      d    tot
    1  0.010  0.016  0.220  0.246
 

 k-point    14 :    0.45000000 0.15000000 0.05000000     weight = 0.01200000

band     1 # energy   -1.77497484 # occ.  2.00000000
 
ion      s      p      d    tot
    1  0.213  0.030  0.553  0.796
 
band     2 # energy    0.07427408 # occ.  2.00000000
 
ion      s      p      d    tot
    1  0.001  0.006  0.904  0.910
 
band     3 # energy    0.54873109 # occ.  2.00000000
 
ion      s      p      d    tot
    1  0.017  0.039  0.840  0.897
 
band     4 # energy    0.69797708 # occ.  2.00000000
 
ion      s      p      d    tot
    1  0.046  0.082  0.729  0.857
 
band     5 # energy    2.41131617 # occ.  2.00000000
 
ion      s      p      d    tot
    1  0.004  0.010  0.950  0.963
 
band     6 # energy    3.49915938 # occ.  2.00000000
 
ion      s      p      d    tot
    1  0.122  0.120  0.613  0.855
 
band     7 # energy   10.26157711 # occ.  0.00000000
 
ion      s      p      d    tot
    1  0.260  0.263  0.193  0.715
 
band     8 # energy   18.90932059 # occ.  0.00000000
 
ion      s      p      d    tot
    1  0.014  0.351  0.128  0.493
 
band     9 # energy   19.55027417 # occ.  0.00000000
 
ion      s      p      d    tot
    1  0.024  0.234  0.098  0.357
 
band    10 # energy   21.43065341 # occ.  0.00000000
 
ion      s      p      d    tot
    1  0.021  0.380  0.079  0.481
 
band    11 # energy   28.03782451 # occ.  0.00000000
 
ion      s      p      d    tot
    1  0.009  0.058  0.245  0.312
 
band    12 # energy   28.98575054 # occ.  0.00000000
 
ion      s      p      d    tot
    1  0.008  0.061  0.284  0.353
 

 k-point    15 :   -0.45000000 0.15000000 0.05000000     weight = 0.01200000

band     1 # energy   -1.74717521 # occ.  2.00000000
 
ion      s      p      d    tot
    1  0.160  0.016  0.649  0.825
 
band     2 # energy   -0.03662369 # occ.  2.00000000
 
ion      s      p      d    tot
    1  0.000  0.006  0.901  0.907
 
band     3 # energy    0.49608473 # occ.  2.00000000
 
ion      s      p      d    tot
    1  0.000  0.004  0.926  0.929
 
band     4 # energy    1.36555970 # occ.  2.00000000
 
ion      s      p      d    tot
    1  0.003  0.120  0.730  0.853
 
band     5 # energy    2.55135379 # occ.  2.00000000
 
ion      s      p      d    tot
    1  0.000  0.000  0.973  0.973
 
band     6 # energy    5.40569509 # occ. -0.00000000
 
ion      s      p      d    tot
    1  0.031  0.376  0.283  0.690
 
band     7 # energy    7.23380966 # occ. -0.00000000
 
ion      s      p      d    tot
    1  0.469  0.043  0.325  0.837
 
band     8 # energy   18.52039055 # occ.  0.00000000
 
ion      s      p      d    tot
    1  0.027  0.299  0.120  0.447
 
band     9 # energy   19.11848422 # occ.  0.00000000
 
ion      s      p      d    tot
    1  0.021  0.331  0.098  0.451
 
band    10 # energy   20.86912282 # occ.  0.00000000
 
ion      s      p      d    tot
    1  0.003  0.367  0.019  0.389
 
band    11 # energy   28.28883782 # occ.  0.00000000
 
ion      s      p      d    tot
    1  0.020  0.004  0.403  0.426
 
band    12 # energy   29.41718900 # occ.  0.00000000
 
ion      s      p      d    tot
    1  0.002  0.008  0.334  0.344
 

 k-point    16 :   -0.35000000 0.15000000 0.05000000     weight = 0.01200000

band     1 # energy   -1.73705142 # occ.  2.00000000
 
ion      s      p      d    tot
    1  0.187  0.024  0.601  0.811
 
band     2 # energy    0.03188696 # occ.  2.00000000
 
ion      s      p      d    tot
    1  0.000  0.005  0.907  0.912
 
band     3 # energy    0.51843411 # occ.  2.00000000
 
ion      s      p      d    tot
    1  0.000  0.004  0.925  0.929
 
band     4 # energy    1.08685857 # occ.  2.00000000
 
ion      s      p      d    tot
    1  0.037  0.134  0.654  0.825
 
band     5 # energy    2.28793835 # occ.  2.00000000
 
ion      s      p      d    tot
    1  0.001  0.006  0.956  0.962
 
band     6 # energy    4.16201421 # occ.  2.07015487
 
ion      s      p      d    tot
    1  0.144  0.160  0.517  0.821
 
band     7 # energy    9.15443632 # occ. -0.00000000
 
ion      s      p      d    tot
    1  0.295  0.222  0.226  0.743
 
band     8 # energy   18.05593215 # occ.  0.00000000
 
ion      s      p      d    tot
    1  0.029  0.358  0.141  0.528
 
band     9 # energy   19.80982387 # occ.  0.00000000
 
ion      s      p      d    tot
    1  0.018  0.198  0.069  0.285
 
band    10 # energy   21.61590463 # occ.  0.00000000
 
ion      s      p      d    tot
    1  0.001  0.443  0.045  0.489
 
band    11 # energy   27.64772403 # occ.  0.00000000
 
ion      s      p      d    tot
    1  0.022  0.021  0.295  0.338
 
band    12 # energy   29.01852092 # occ.  0.00000000
 
ion      s      p      d    tot
    1  0.000  0.029  0.353  0.382
 

 k-point    17 :   -0.25000000 0.15000000 0.05000000     weight = 0.01200000

band     1 # energy   -1.92454754 # occ.  2.00000000
 
ion      s      p      d    tot
    1  0.335  0.062  0.335  0.732
 
band     2 # energy    0.03486820 # occ.  2.00000000
 
ion      s      p      d    tot
    1  0.045  0.057  0.765  0.868
 
band     3 # energy    0.30363851 # occ.  2.00000000
 
ion      s      p      d    tot
    1  0.013  0.034  0.839  0.887
 
band     4 # energy    0.68056851 # occ.  2.00000000
 
ion      s      p      d    tot
    1  0.004  0.006  0.921  0.931
 
band     5 # energy    1.69903141 # occ.  2.00000000
 
ion      s      p      d    tot
    1  0.006  0.009  0.930  0.945
 
band     6 # energy    2.86452236 # occ.  2.00000000
 
ion      s      p      d    tot
    1  0.065  0.038  0.828  0.931
 
band     7 # energy   12.80914783 # occ.  0.00000000
 
ion      s      p      d    tot
    1  0.195  0.306  0.164  0.666
 
band     8 # energy   18.23141351 # occ.  0.00000000
 
ion      s      p      d    tot
    1  0.025  0.348  0.181  0.554
 
band     9 # energy   20.92807835 # occ.  0.00000000
 
ion      s      p      d    tot
    1  0.015  0.158  0.046  0.219
 
band    10 # energy   23.39907336 # occ.  0.00000000
 
ion      s      p      d    tot
    1  0.012  0.432  0.109  0.552
 
band    11 # energy   26.04189516 # occ.  0.00000000
 
ion      s      p      d    tot
    1  0.005  0.152  0.090  0.247
 
band    12 # energy   28.16638209 # occ.  0.00000000
 
ion      s      p      d    tot
    1  0.007  0.073  0.298  0.378
 

 k-point    18 :   -0.15000000 0.15000000 0.05000000     weight = 0.01200000

band     1 # energy   -2.77445875 # occ.  2.00000000
 
ion      s      p      d    tot
    1  0.514  0.076  0.062  0.651
 
band     2 # energy   -0.25545623 # occ.  2.00000000
 
ion      s      p      d    tot
    1  0.003  0.017  0.883  0.904
 
band     3 # energy    0.49882593 # occ.  2.00000000
 
ion      s      p      d    tot
    1  0.002  0.011  0.912  0.924
 
band     4 # energy    0.76130390 # occ.  2.00000000
 
ion      s      p      d    tot
    1  0.000  0.002  0.938  0.940
 
band     5 # energy    1.19894638 # occ.  2.00000000
 
ion      s      p      d    tot
    1  0.005  0.005  0.930  0.941
 
band     6 # energy    2.10151714 # occ.  2.00000000
 
ion      s      p      d    tot
    1  0.016  0.009  0.932  0.957
 
band     7 # energy   16.65211930 # occ.  0.00000000
 
ion      s      p      d    tot
    1  0.128  0.302  0.119  0.550
 
band     8 # energy   18.84335655 # occ.  0.00000000
 
ion      s      p      d    tot
    1  0.011  0.303  0.218  0.533
 
band     9 # energy   22.53002566 # occ.  0.00000000
 
ion      s      p      d    tot
    1  0.006  0.165  0.045  0.217
 
band    10 # energy   23.48602786 # occ.  0.00000000
 
ion      s      p      d    tot
    1  0.013  0.135  0.061  0.208
 
band    11 # energy   26.14083412 # occ.  0.00000000
 
ion      s      p      d    tot
    1  0.025  0.632  0.023  0.680
 
band    12 # energy   27.12154000 # occ.  0.00000000
 
ion      s      p      d    tot
    1  0.000  0.057  0.220  0.277
 

 k-point    19 :   -0.05000000 0.15000000 0.05000000     weight = 0.01200000

band     1 # energy   -3.67593395 # occ.  2.00000000
 
ion      s      p      d    tot
    1  0.582  0.042  0.012  0.636
 
band     2 # energy   -0.08151739 # occ.  2.00000000
 
ion      s      p      d    tot
    1  0.001  0.006  0.912  0.919
 
band     3 # energy    0.50025398 # occ.  2.00000000
 
ion      s      p      d    tot
    1  0.001  0.006  0.928  0.935
 
band     4 # energy    0.50755986 # occ.  2.00000000
 
ion      s      p      d    tot
    1  0.000  0.003  0.936  0.938
 
band     5 # energy    1.27812514 # occ.  2.00000000
 
ion      s      p      d    tot
    1  0.002  0.001  0.946  0.949
 
band     6 # energy    1.68750063 # occ.  2.00000000
 
ion      s      p      d    tot
    1  0.001  0.001  0.959  0.961
 
band     7 # energy   19.08225620 # occ.  0.00000000
 
ion      s      p      d    tot
    1  0.065  0.253  0.111  0.429
 
band     8 # energy   20.31008474 # occ.  0.00000000
 
ion      s      p      d    tot
    1  0.013  0.099  0.116  0.229
 
band     9 # energy   22.28091413 # occ.  0.00000000
 
ion      s      p      d    tot
    1  0.000  0.297  0.049  0.346
 
band    10 # energy   24.05626016 # occ.  0.00000000
 
ion      s      p      d    tot
    1  0.001  0.231  0.075  0.306
 
band    11 # energy   26.04611321 # occ.  0.00000000
 
ion      s      p      d    tot
    1  0.027  0.355  0.047  0.428
 
band    12 # energy   28.80144776 # occ.  0.00000000
 
ion      s      p      d    tot
    1  0.010  0.287  0.176  0.474
 

 k-point    20 :    0.25000000 0.25000000 0.05000000     weight = 0.00600000

band     1 # energy   -2.59155189 # occ.  2.00000000
 
ion      s      p      d    tot
    1  0.487  0.085  0.079  0.651
 
band     2 # energy   -0.60458711 # occ.  2.00000000
 
ion      s      p      d    tot
    1  0.000  0.001  0.905  0.906
 