<?xml version="1.0" encoding="ISO-8859-1"?>
<modeling>
 <generator>
  <i name="program" type="string">vasp </i>
  <i name="version" type="string">5.4.4.18Apr17-6-g9f103f2a35  </i>
  <i name="subversion" type="string">(build May 18 2018 14:42:58) complex            parallel </i>
  <i name="platform" type="string">LinuxIFC </i>
  <i name="date" type="string">2020 06 30 </i>
  <i name="time" type="string">13:41:08 </i>
 </generator>
 <incar>
  <i type="string" name="SYSTEM"> fcc Au</i>
  <i type="string" name="PREC">normal</i>
  <v name="RWIGS">      1.50300000</v>
  <v type="int" name="KPOINT_BSE">    -1     0     0     0</v>
 </incar>
 <structure name="primitive_cell" >
  <crystal>
   <varray name="basis" >
    <v>       0.00000000       2.10000000       2.10000000 </v>
    <v>       2.10000000       0.00000000       2.10000000 </v>
    <v>       2.10000000       2.10000000       0.00000000 </v>
   </varray>
   <i name="volume">     18.52200000 </i>
   <varray name="rec_basis" >
    <v>      -0.23809524       0.23809524       0.23809524 </v>
    <v>       0.23809524      -0.23809524       0.23809524 </v>
    <v>       0.23809524       0.23809524      -0.23809524 </v>
   </varray>
  </crystal>
  <varray name="positions" >
   <v>       0.00000000       0.00000000       0.00000000 </v>
  </varray>
 </structure>
 <varray name="primitive_index" >
  <v type="int" >        1 </v>
 </varray>
 <kpoints>
  <generation param="Monkhorst-Pack">
   <v type="int" name="divisions">      10       10       10 </v>
   <v name="usershift">      0.00000000       0.00000000       0.00000000 </v>
   <v name="genvec1">      0.10000000       0.00000000       0.00000000 </v>
   <v name="genvec2">      0.00000000       0.10000000       0.00000000 </v>
   <v name="genvec3">      0.00000000       0.00000000       0.10000000 </v>
   <v name="shift">      0.50000000       0.50000000       0.50000000 </v>
  </generation>
  <varray name="kpointlist" >
   <v>       0.05000000       0.05000000       0.05000000 </v>
   <v>       0.15000000       0.05000000       0.05000000 </v>
   <v>       0.25000000       0.05000000       0.05000000 </v>
   <v>       0.35000000       0.05000000       0.05000000 </v>
   <v>       0.45000000       0.05000000       0.05000000 </v>
   <v>      -0.45000000       0.05000000       0.05000000 </v>
   <v>      -0.35000000       0.05000000       0.05000000 </v>
   <v>      -0.25000000       0.05000000       0.05000000 </v>
   <v>      -0.15000000       0.05000000       0.05000000 </v>
   <v>      -0.05000000       0.05000000       0.05000000 </v>
   <v>       0.15000000       0.15000000       0.05000000 </v>
   <v>       0.25000000       0.15000000       0.05000000 </v>
   <v>       0.35000000       0.15000000       0.05000000 </v>
   <v>       0.45000000       0.15000000       0.05000000 </v>
   <v>      -0.45000000       0.15000000       0.05000000 </v>
   <v>      -0.35000000       0.15000000       0.05000000 </v>
   <v>      -0.25000000       0.15000000       0.05000000 </v>
   <v>      -0.15000000       0.15000000       0.05000000 </v>
   <v>      -0.05000000       0.15000000       0.05000000 </v>
   <v>       0.25000000       0.25000000       0.05000000 </v>
   <v>       0.35000000       0.25000000       0.05000000 </v>
   <v>       0.45000000       0.25000000       0.05000000 </v>
   <v>      -0.45000000       0.25000000       0.05000000 </v>
   <v>      -0.35000000       0.25000000       0.05000000 </v>
   <v>      -0.25000000       0.25000000       0.05000000 </v>
   <v>      -0.15000000       0.25000000       0.05000000 </v>
   <v>      -0.05000000       0.25000000       0.05000000 </v>
   <v>       0.35000000       0.35000000       0.05000000 </v>
   <v>       0.45000000       0.35000000       0.05000000 </v>
   <v>      -0.45000000       0.35000000       0.05000000 </v>
   <v>      -0.35000000       0.35000000       0.05000000 </v>
   <v>      -0.25000000       0.35000000       0.05000000 </v>
   <v>      -0.15000000       0.35000000       0.05000000 </v>
   <v>      -0.05000000       0.35000000       0.05000000 </v>
   <v>       0.45000000       0.45000000       0.05000000 </v>
   <v>      -0.45000000       0.45000000       0.05000000 </v>
   <v>      -0.35000000       0.45000000       0.05000000 </v>
   <v>      -0.25000000       0.45000000       0.05000000 </v>
   <v>      -0.15000000       0.45000000       0.05000000 </v>
   <v>      -0.05000000       0.45000000       0.05000000 </v>
   <v>      -0.45000000      -0.45000000       0.05000000 </v>
   <v>      -0.35000000      -0.45000000       0.05000000 </v>
   <v>      -0.25000000      -0.45000000       0.05000000 </v>
   <v>      -0.15000000      -0.45000000       0.05000000 </v>
   <v>      -0.35000000      -0.35000000       0.05000000 </v>
   <v>      -0.25000000      -0.35000000       0.05000000 </v>
   <v>      -0.15000000      -0.35000000       0.05000000 </v>
   <v>      -0.25000000      -0.25000000       0.05000000 </v>
   <v>      -0.15000000      -0.25000000       0.05000000 </v>
   <v>      -0.15000000      -0.15000000       0.05000000 </v>
   <v>       0.15000000       0.15000000       0.15000000 </v>
   <v>       0.25000000       0.15000000       0.15000000 </v>
   <v>       0.35000000       0.15000000       0.15000000 </v>
   <v>       0.45000000       0.15000000       0.15000000 </v>
   <v>      -0.45000000       0.15000000       0.15000000 </v>
   <v>      -0.35000000       0.15000000       0.15000000 </v>
   <v>      -0.25000000       0.15000000       0.15000000 </v>
   <v>      -0.15000000       0.15000000       0.15000000 </v>
   <v>       0.25000000       0.25000000       0.15000000 </v>
   <v>       0.35000000       0.25000000       0.15000000 </v>
   <v>       0.45000000       0.25000000       0.15000000 </v>
   <v>      -0.45000000       0.25000000       0.15000000 </v>
   <v>      -0.35000000       0.25000000       0.15000000 </v>
   <v>      -0.25000000       0.25000000       0.15000000 </v>
   <v>      -0.15000000       0.25000000       0.15000000 </v>
   <v>       0.35000000       0.35000000       0.15000000 </v>
   <v>       0.45000000       0.35000000       0.15000000 </v>
   <v>      -0.45000000       0.35000000       0.15000000 </v>
   <v>      -0.35000000       0.35000000       0.15000000 </v>
   <v>      -0.25000000       0.35000000       0.15000000 </v>
   <v>      -0.15000000       0.35000000       0.15000000 </v>
   <v>       0.45000000       0.45000000       0.15000000 </v>
   <v>      -0.45000000       0.45000000       0.15000000 </v>
   <v>      -0.35000000       0.45000000       0.15000000 </v>
   <v>      -0.25000000       0.45000000       0.15000000 </v>
   <v>      -0.15000000       0.45000000       0.15000000 </v>
   <v>      -0.45000000      -0.45000000       0.15000000 </v>
   <v>      -0.35000000      -0.45000000       0.15000000 </v>
   <v>      -0.25000000      -0.45000000       0.15000000 </v>
   <v>      -0.35000000      -0.35000000       0.15000000 </v>
   <v>      -0.25000000      -0.35000000       0.15000000 </v>
   <v>      -0.25000000      -0.25000000       0.15000000 </v>
   <v>       0.25000000       0.25000000       0.25000000 </v>
   <v>       0.35000000       0.25000000       0.25000000 </v>
   <v>       0.45000000       0.25000000       0.25000000 </v>
   <v>      -0.45000000       0.25000000       0.25000000 </v>
   <v>      -0.35000000       0.25000000       0.25000000 </v>
   <v>      -0.25000000       0.25000000       0.25000000 </v>
   <v>       0.35000000       0.35000000       0.25000000 </v>
   <v>       0.45000000       0.35000000       0.25000000 </v>
   <v>      -0.45000000       0.35000000       0.25000000 </v>
   <v>      -0.35000000       0.35000000       0.25000000 </v>
   <v>      -0.25000000       0.35000000       0.25000000 </v>
   <v>       0.45000000       0.45000000       0.25000000 </v>
   <v>      -0.45000000       0.45000000       0.25000000 </v>
   <v>      -0.35000000       0.45000000       0.25000000 </v>
   <v>      -0.25000000       0.45000000       0.25000000 </v>
   <v>      -0.45000000      -0.45000000       0.25000000 </v>
   <v>      -0.35000000      -0.45000000       0.25000000 </v>
   <v>      -0.35000000      -0.35000000       0.25000000 </v>
   <v>       0.35000000       0.35000000       0.35000000 </v>
   <v>       0.45000000       0.35000000       0.35000000 </v>
   <v>      -0.45000000       0.35000000       0.35000000 </v>
   <v>      -0.35000000       0.35000000       0.35000000 </v>
   <v>       0.45000000       0.45000000       0.35000000 </v>
   <v>      -0.45000000       0.45000000       0.35000000 </v>
   <v>      -0.35000000       0.45000000       0.35000000 </v>
   <v>      -0.45000000      -0.45000000       0.35000000 </v>
   <v>       0.45000000       0.45000000       0.45000000 </v>
   <v>      -0.45000000       0.45000000       0.45000000 </v>
  </varray>
  <varray name="weights" >
   <v>       0.00200000 </v>
   <v>       0.00600000 </v>
   <v>       0.00600000 </v>
   <v>       0.00600000 </v>
   <v>       0.00600000 </v>
   <v>       0.00600000 </v>
   <v>       0.00600000 </v>
   <v>       0.00600000 </v>
   <v>       0.00600000 </v>
   <v>       0.00600000 </v>
   <v>       0.00600000 </v>
   <v>       0.01200000 </v>
   <v>       0.01200000 </v>
   <v>       0.01200000 </v>
   <v>       0.01200000 </v>
   <v>       0.01200000 </v>
   <v>       0.01200000 </v>
   <v>       0.01200000 </v>
   <v>       0.01200000 </v>
   <v>       0.00600000 </v>
   <v>       0.01200000 </v>
   <v>       0.01200000 </v>
   <v>       0.01200000 </v>
   <v>       0.01200000 </v>
   <v>       0.01200000 </v>
   <v>       0.01200000 </v>
   <v>       0.01200000 </v>
   <v>       0.00600000 </v>
   <v>       0.01200000 </v>
   <v>       0.01200000 </v>
   <v>       0.01200000 </v>
   <v>       0.01200000 </v>
   <v>       0.01200000 </v>
   <v>       0.01200000 </v>
   <v>       0.00600000 </v>
   <v>       0.01200000 </v>
   <v>       0.01200000 </v>
   <v>       0.01200000 </v>
   <v>       0.01200000 </v>
   <v>       0.01200000 </v>
   <v>       0.00600000 </v>
   <v>       0.01200000 </v>
   <v>       0.01200000 </v>
   <v>       0.01200000 </v>
   <v>       0.00600000 </v>
   <v>       0.01200000 </v>
   <v>       0.01200000 </v>
   <v>       0.00600000 </v>
   <v>       0.01200000 </v>
   <v>       0.00600000 </v>
   <v>       0.00200000 </v>
   <v>       0.00600000 </v>
   <v>       0.00600000 </v>
   <v>       0.00600000 </v>
   <v>       0.00600000 </v>
   <v>       0.00600000 </v>
   <v>       0.00600000 </v>
   <v>       0.00600000 </v>
   <v>       0.00600000 </v>
   <v>       0.01200000 </v>
   <v>       0.01200000 </v>
   <v>       0.01200000 </v>
   <v>       0.01200000 </v>
   <v>       0.01200000 </v>
   <v>       0.01200000 </v>
   <v>       0.00600000 </v>
   <v>       0.01200000 </v>
   <v>       0.01200000 </v>
   <v>       0.01200000 </v>
   <v>       0.01200000 </v>
   <v>       0.01200000 </v>
   <v>       0.00600000 </v>
   <v>       0.01200000 </v>
   <v>       0.01200000 </v>
   <v>       0.01200000 </v>
   <v>       0.01200000 </v>
   <v>       0.00600000 </v>
   <v>       0.01200000 </v>
   <v>       0.01200000 </v>
   <v>       0.00600000 </v>
   <v>       0.01200000 </v>
   <v>       0.00600000 </v>
   <v>       0.00200000 </v>
   <v>       0.00600000 </v>
   <v>       0.00600000 </v>
   <v>       0.00600000 </v>
   <v>       0.00600000 </v>
   <v>       0.00600000 </v>
   <v>       0.00600000 </v>
   <v>       0.01200000 </v>
   <v>       0.01200000 </v>
   <v>       0.01200000 </v>
   <v>       0.01200000 </v>
   <v>       0.00600000 </v>
   <v>       0.01200000 </v>
   <v>       0.01200000 </v>
   <v>       0.01200000 </v>
   <v>       0.00600000 </v>
   <v>       0.01200000 </v>
   <v>       0.00600000 </v>
   <v>       0.00200000 </v>
   <v>       0.00600000 </v>
   <v>       0.00600000 </v>
   <v>       0.00600000 </v>
   <v>       0.00600000 </v>
   <v>       0.01200000 </v>
   <v>       0.01200000 </v>
   <v>       0.00600000 </v>
   <v>       0.00200000 </v>
   <v>       0.00600000 </v>
  </varray>
 </kpoints>
 <parameters>
  <separator name="general" >
   <i type="string" name="SYSTEM">fcc Au</i>
   <i type="logical" name="LCOMPAT"> F  </i>
  </separator>
  <separator name="electronic" >
   <i type="string" name="PREC">normal</i>
   <i name="ENMAX">    229.86900000</i>
   <i name="ENAUG">    356.67000000</i>
   <i name="EDIFF">      0.00010000</i>
   <i type="int" name="IALGO">    38</i>
   <i type="int" name="IWAVPR">    10</i>
   <i type="int" name="NBANDS">    12</i>
   <i name="NELECT">     11.00000000</i>
   <i type="int" name="TURBO">     0</i>
   <i type="int" name="IRESTART">     0</i>
   <i type="int" name="NREBOOT">     0</i>
   <i type="int" name="NMIN">     0</i>
   <i name="EREF">      0.00000000</i>
   <separator name="electronic smearing" >
    <i type="int" name="ISMEAR">     1</i>
    <i name="SIGMA">      0.20000000</i>
    <i name="KSPACING">      0.50000000</i>
    <i type="logical" name="KGAMMA"> T  </i>
   </separator>
   <separator name="electronic projectors" >
    <i type="logical" name="LREAL"> F  </i>
    <v name="ROPT">      0.00000000</v>
    <i type="int" name="LMAXPAW">  -100</i>
    <i type="int" name="LMAXMIX">     2</i>
    <i type="logical" name="NLSPLINE"> F  </i>
   </separator>
   <separator name="electronic startup" >
    <i type="int" name="ISTART">     0</i>
    <i type="int" name="ICHARG">     2</i>
    <i type="int" name="INIWAV">     1</i>
   </separator>
   <separator name="electronic spin" >
    <i type="int" name="ISPIN">     1</i>
    <i type="logical" name="LNONCOLLINEAR"> F  </i>
    <v name="MAGMOM">      1.00000000</v>
    <i name="NUPDOWN">     -1.00000000</i>
    <i type="logical" name="LSORBIT"> F  </i>
    <v name="SAXIS">      0.00000000      0.00000000      1.00000000</v>
    <i type="logical" name="LSPIRAL"> F  </i>
    <v name="QSPIRAL">      0.00000000      0.00000000      0.00000000</v>
    <i type="logical" name="LZEROZ"> F  </i>
   </separator>
   <separator name="electronic exchange-correlation" >
    <i type="logical" name="LASPH"> F  </i>
    <i type="logical" name="LMETAGGA"> F  </i>
   </separator>
   <separator name="electronic convergence" >
    <i type="int" name="NELM">    60</i>
    <i type="int" name="NELMDL">    -5</i>
    <i type="int" name="NELMIN">     2</i>
    <i name="ENINI">    229.86900000</i>
    <separator name="electronic convergence detail" >
     <i type="logical" name="LDIAG"> T  </i>
     <i type="logical" name="LSUBROT"> F  </i>
     <i name="WEIMIN">      0.00000000</i>
     <i name="EBREAK">      0.00000208</i>
     <i name="DEPER">      0.30000000</i>
     <i type="int" name="NRMM">     4</i>
     <i name="TIME">      0.40000000</i>
    </separator>
   </separator>
   <separator name="electronic mixer" >
    <i name="AMIX">      0.40000000</i>
    <i name="BMIX">      1.00000000</i>
    <i name="AMIN">      0.10000000</i>
    <i name="AMIX_MAG">      1.60000000</i>
    <i name="BMIX_MAG">      1.00000000</i>
    <separator name="electronic mixer details" >
     <i type="int" name="IMIX">     4</i>
     <i type="logical" name="MIXFIRST"> F  </i>
     <i type="int" name="MAXMIX">   -45</i>
     <i name="WC">    100.00000000</i>
     <i type="int" name="INIMIX">     1</i>
     <i type="int" name="MIXPRE">     1</i>
     <i type="int" name="MREMOVE">     5</i>
    </separator>
   </separator>
   <separator name="electronic dipolcorrection" >
    <i type="logical" name="LDIPOL"> F  </i>
    <i type="logical" name="LMONO"> F  </i>
    <i type="int" name="IDIPOL">     0</i>
    <i name="EPSILON">      1.00000000</i>
    <v name="DIPOL">   -100.00000000   -100.00000000   -100.00000000</v>
    <i name="EFIELD">      0.00000000</i>
   </separator>
  </separator>
  <separator name="grids" >
   <i type="int" name="NGX">    12</i>
   <i type="int" name="NGY">    12</i>
   <i type="int" name="NGZ">    12</i>
   <i type="int" name="NGXF">    24</i>
   <i type="int" name="NGYF">    24</i>
   <i type="int" name="NGZF">    24</i>
   <i type="logical" name="ADDGRID"> F  </i>
  </separator>
  <separator name="ionic" >
   <i type="int" name="NSW">     0</i>
   <i type="int" name="IBRION">    -1</i>
   <i type="int" name="MDALGO">     0</i>
   <i type="int" name="ISIF">     2</i>
   <i name="PSTRESS">      0.00000000</i>
   <i name="EDIFFG">      0.00100000</i>
   <i type="int" name="NFREE">     0</i>
   <i name="POTIM">      0.50000000</i>
   <i name="SMASS">     -3.00000000</i>
   <i name="SCALEE">      1.00000000</i>
  </separator>
  <separator name="ionic md" >
   <i name="TEBEG">      0.00010000</i>
   <i name="TEEND">      0.00010000</i>
   <i type="int" name="NBLOCK">     1</i>
   <i type="int" name="KBLOCK">     1</i>
   <i type="int" name="NPACO">   256</i>
   <i name="APACO">     16.00000000</i>
  </separator>
  <separator name="symmetry" >
   <i type="int" name="ISYM">     2</i>
   <i name="SYMPREC">      0.00001000</i>
  </separator>
  <separator name="dos" >
   <i type="int" name="LORBIT">     0</i>
   <v name="RWIGS">      1.50300000</v>
   <i type="int" name="NEDOS">   301</i>
   <i name="EMIN">     10.00000000</i>
   <i name="EMAX">    -10.00000000</i>
   <i name="EFERMI">      0.00000000</i>
  </separator>
  <separator name="writing" >
   <i type="int" name="NWRITE">     2</i>
   <i type="logical" name="LWAVE"> T  </i>
   <i type="logical" name="LDOWNSAMPLE"> F  </i>
   <i type="logical" name="LCHARG"> T  </i>
   <i type="logical" name="LPARD"> F  </i>
   <i type="logical" name="LVTOT"> F  </i>
   <i type="logical" name="LVHAR"> F  </i>
   <i type="logical" name="LELF"> F  </i>
   <i type="logical" name="LOPTICS"> F  </i>
   <v name="STM">      0.00000000      0.00000000      0.00000000      0.00000000      0.00000000      0.00000000      0.00000000</v>
  </separator>
  <separator name="performance" >
   <i type="int" name="NPAR">     4</i>
   <i type="int" name="NSIM">     4</i>
   <i type="int" name="NBLK">    -1</i>
   <i type="logical" name="LPLANE"> T  </i>
   <i type="logical" name="LSCALAPACK"> T  </i>
   <i type="logical" name="LSCAAWARE"> F  </i>
   <i type="logical" name="LSCALU"> F  </i>
   <i type="logical" name="LASYNC"> F  </i>
   <i type="logical" name="LORBITALREAL"> F  </i>
  </separator>
  <separator name="miscellaneous" >
   <i type="int" name="IDIOT">     3</i>
   <i type="int" name="ISPECIAL">     0</i>
   <i type="logical" name="LMUSIC"> F  </i>
   <v name="POMASS">    196.96600000</v>
   <v name="DARWINR">      0.00000000</v>
   <v name="DARWINV">      1.00000000</v>
   <i type="logical" name="LCORR"> T  </i>
  </separator>
  <i type="logical" name="GGA_COMPAT"> T  </i>
  <i type="logical" name="LBERRY"> F  </i>
  <i type="int" name="ICORELEVEL">     0</i>
  <i type="logical" name="LDAU"> F  </i>
  <i type="int" name="I_CONSTRAINED_M">     0</i>
  <separator name="electronic exchange-correlation" >
   <i type="string" name="GGA">--</i>
   <i type="int" name="VOSKOWN">     0</i>
   <i type="logical" name="LHFCALC"> F  </i>
   <i type="string" name="PRECFOCK"></i>
   <i type="logical" name="LSYMGRAD"> F  </i>
   <i type="logical" name="LHFONE"> F  </i>
   <i type="logical" name="LRHFCALC"> F  </i>
   <i type="logical" name="LTHOMAS"> F  </i>
   <i type="logical" name="LMODELHF"> F  </i>
   <i name="ENCUT4O">     -1.00000000</i>
   <i type="int" name="EXXOEP">     0</i>
   <i type="int" name="FOURORBIT">     0</i>
   <i name="AEXX">      0.00000000</i>
   <i name="HFALPHA">      0.00000000</i>
   <i name="MCALPHA">      0.00000000</i>
   <i name="ALDAX">      1.00000000</i>
   <i name="AGGAX">      1.00000000</i>
   <i name="ALDAC">      1.00000000</i>
   <i name="AGGAC">      1.00000000</i>
   <i type="int" name="NKREDX">     1</i>
   <i type="int" name="NKREDY">     1</i>
   <i type="int" name="NKREDZ">     1</i>
   <i type="logical" name="SHIFTRED"> F  </i>
   <i type="logical" name="ODDONLY"> F  </i>
   <i type="logical" name="EVENONLY"> F  </i>
   <i type="int" name="LMAXFOCK">     0</i>
   <i type="int" name="NMAXFOCKAE">     0</i>
   <i type="logical" name="LFOCKAEDFT"> F  </i>
   <i name="HFSCREEN">      0.00000000</i>
   <i name="HFSCREENC">      0.00000000</i>
   <i type="int" name="NBANDSGWLOW">     0</i>
  </separator>
  <separator name="vdW DFT" >
   <i type="logical" name="LUSE_VDW"> F  </i>
   <i name="Zab_VDW">     -0.84910000</i>
   <i name="PARAM1">      0.12340000</i>
   <i name="PARAM2">      1.00000000</i>
   <i name="PARAM3">      0.00000000</i>
  </separator>
  <separator name="model GW" >
   <i type="int" name="MODEL_GW">     0</i>
   <i name="MODEL_EPS0">     11.11320000</i>
   <i name="MODEL_ALPHA">      1.00000000</i>
  </separator>
  <separator name="linear response parameters" >
   <i type="logical" name="LEPSILON"> F  </i>
   <i type="logical" name="LRPA"> F  </i>
   <i type="logical" name="LNABLA"> F  </i>
   <i type="logical" name="LVEL"> F  </i>
   <i type="int" name="KINTER">     0</i>
   <i name="CSHIFT">      0.10000000</i>
   <i name="OMEGAMAX">     -1.00000000</i>
   <i name="DEG_THRESHOLD">      0.00200000</i>
   <i name="RTIME">     -0.10000000</i>
   <i name="WPLASMAI">      0.00000000</i>
   <v name="DFIELD">      0.00000000      0.00000000      0.00000000</v>
   <v name="WPLASMA">      0.00000000      0.00000000      0.00000000      0.00000000      0.00000000      0.00000000      0.00000000      0.00000000      0.00000000</v>
  </separator>
  <separator name="orbital magnetization" >
   <i type="logical" name="NUCIND"> F  </i>
   <v name="MAGPOS">      0.00000000      0.00000000      0.00000000</v>
   <i type="logical" name="LNICSALL"> T  </i>
   <i type="logical" name="ORBITALMAG"> F  </i>
   <i type="logical" name="LMAGBLOCH"> F  </i>
   <i type="logical" name="LCHIMAG"> F  </i>
   <i type="logical" name="LGAUGE"> T  </i>
   <i type="int" name="MAGATOM">     0</i>
   <v name="MAGDIPOL">      0.00000000      0.00000000      0.00000000</v>
   <v name="AVECCONST">      0.00000000      0.00000000      0.00000000</v>
  </separator>
  <separator name="response functions" >
   <i type="logical" name="LADDER"> F  </i>
   <i type="logical" name="LRPAFORCE"> F  </i>
   <i type="logical" name="LFXC"> F  </i>
   <i type="logical" name="LHARTREE"> T  </i>
   <i type="int" name="IBSE">     0</i>
   <v type="int" name="KPOINT">    -1     0     0     0</v>
   <i type="logical" name="LTCTE"> F  </i>
   <i type="logical" name="LTETE"> F  </i>
   <i type="logical" name="LTRIPLET"> F  </i>
   <i type="logical" name="LFXCEPS"> F  </i>
   <i type="logical" name="LFXHEG"> F  </i>
   <i type="int" name="NATURALO">     2</i>
   <i type="logical" name="L2ORDER"> F  </i>
   <i type="logical" name="LMP2LT"> F  </i>
   <i type="logical" name="LUSEW"> F  </i>
   <i name="ENCUTGW">     -2.00000000</i>
   <i name="ENCUTGWSOFT">     -2.00000000</i>
   <i name="ENCUTLF">     -1.00000000</i>
   <i type="int" name="LMAXMP2">    -1</i>
   <i name="SCISSOR">      0.00000000</i>
   <i type="int" name="NOMEGA">     0</i>
   <i type="int" name="NOMEGAR">     0</i>
   <i type="int" name="NBANDSGW">    -1</i>
   <i type="int" name="NBANDSO">    -1</i>
   <i type="int" name="NBANDSV">    -1</i>
   <i type="int" name="NELM">     1</i>
   <i type="int" name="NELMHF">     1</i>
   <i type="int" name="DIM">     3</i>
   <i type="int" name="ANTIRES">     0</i>
   <i name="OMEGAMAX">    -30.00000000</i>
   <i name="OMEGAMIN">    -30.00000000</i>
   <i name="OMEGATL">   -200.00000000</i>
   <i type="int" name="OMEGAGRID">   140</i>
   <i name="CSHIFT">     -0.10000000</i>
   <i type="logical" name="SELFENERGY"> F  </i>
   <i type="logical" name="LSPECTRAL"> F  </i>
   <i type="logical" name="LSPECTRALGW"> F  </i>
   <i type="logical" name="LSINGLES"> F  </i>
   <i type="logical" name="LFERMIGW"> F  </i>
   <i type="logical" name="ODDONLYGW"> F  </i>
   <i type="logical" name="EVENONLYGW"> F  </i>
   <i type="int" name="NKREDLFX">     1</i>
   <i type="int" name="NKREDLFY">     1</i>
   <i type="int" name="NKREDLFZ">     1</i>
   <i type="int" name="MAXMEM">  2800</i>
   <i type="int" name="TELESCOPE">     0</i>
   <i type="int" name="TAUPAR">     1</i>
   <i type="int" name="OMEGAPAR">    -1</i>
   <i name="LAMBDA">      1.00000000</i>
  </separator>
  <separator name="External order field" >
   <i name="OFIELD_KAPPA">      0.00000000</i>
   <v name="OFIELD_K">      0.00000000      0.00000000      0.00000000</v>
   <i name="OFIELD_Q6_NEAR">      0.00000000</i>
   <i name="OFIELD_Q6_FAR">      0.00000000</i>
   <i name="OFIELD_A">      0.00000000</i>
  </separator>
 </parameters>
 <atominfo>
  <atoms>       1 </atoms>
  <types>       1 </types>
  <array name="atoms" >
   <dimension dim="1">ion</dimension>
   <field type="string">element</field>
   <field type="int">atomtype</field>
   <set>
    <rc><c>Au</c><c>   1</c></rc>
   </set>
  </array>
  <array name="atomtypes" >
   <dimension dim="1">type</dimension>
   <field type="int">atomspertype</field>
   <field type="string">element</field>
   <field>mass</field>
   <field>valence</field>
   <field type="string">pseudopotential</field>
   <set>
    <rc><c>   1</c><c>Au</c><c>    196.96600000</c><c>     11.00000000</c><c> PAW Au 04Feb1998                       </c></rc>
   </set>
  </array>
 </atominfo>
 <structure name="initialpos" >
  <crystal>
   <varray name="basis" >
    <v>       0.00000000       2.10000000       2.10000000 </v>
    <v>       2.10000000       0.00000000       2.10000000 </v>
    <v>       2.10000000       2.10000000       0.00000000 </v>
   </varray>
   <i name="volume">     18.52200000 </i>
   <varray name="rec_basis" >
    <v>      -0.23809524       0.23809524       0.23809524 </v>
    <v>       0.23809524      -0.23809524       0.23809524 </v>
    <v>       0.23809524       0.23809524      -0.23809524 </v>
   </varray>
  </crystal>
  <varray name="positions" >
   <v>       0.00000000       0.00000000       0.00000000 </v>
  </varray>
 </structure>
 <calculation>
  <scstep>
   <time name="dav">    0.24    0.25</time>
   <time name="total">    0.24    0.25</time>
   <energy>
    <i name="alphaZ">     99.22682972 </i>
    <i name="ewald">   -951.01733377 </i>
    <i name="hartreedc">   -133.73263640 </i>
    <i name="XCdc">     16.06601266 </i>
    <i name="pawpsdc">    746.10209728 </i>
    <i name="pawaedc">   -725.46159323 </i>
    <i name="eentropy">     -0.00102094 </i>
    <i name="bandstr">     50.52006755 </i>
    <i name="atom">    929.39614979 </i>
    <i name="e_fr_energy">     31.09857265 </i>
    <i name="e_wo_entrp">     31.09959360 </i>
    <i name="e_0_energy">     31.09891297 </i>
   </energy>
  </scstep>
  <scstep>
   <time name="dav">    0.23    0.24</time>
   <time name="total">    0.23    0.24</time>
   <energy>
    <i name="e_fr_energy">     -4.27460571 </i>
    <i name="e_wo_entrp">     -4.27460201 </i>
    <i name="e_0_energy">     -4.27460448 </i>
   </energy>
  </scstep>
  <scstep>
   <time name="dav">    0.24    0.24</time>
   <time name="total">    0.24    0.24</time>
   <energy>
    <i name="e_fr_energy">     -4.62539559 </i>
    <i name="e_wo_entrp">     -4.62569163 </i>
    <i name="e_0_energy">     -4.62549427 </i>
   </energy>
  </scstep>
  <scstep>
   <time name="dav">    0.23    0.24</time>
   <time name="total">    0.23    0.24</time>
   <energy>
    <i name="e_fr_energy">     -4.62630103 </i>
    <i name="e_wo_entrp">     -4.62659745 </i>
    <i name="e_0_energy">     -4.62639984 </i>
   </energy>
  </scstep>
  <scstep>
   <time name="dav">    0.22    0.22</time>
   <time name="total">    0.22    0.23</time>
   <energy>
    <i name="e_fr_energy">     -4.62630735 </i>
    <i name="e_wo_entrp">     -4.62660377 </i>
    <i name="e_0_energy">     -4.62640616 </i>
   </energy>
  </scstep>
  <scstep>
   <time name="dav">    0.24    0.24</time>
   <time name="total">    0.24    0.25</time>
   <energy>
    <i name="e_fr_energy">     -4.32521926 </i>
    <i name="e_wo_entrp">     -4.32607020 </i>
    <i name="e_0_energy">     -4.32550291 </i>
   </energy>
  </scstep>
  <scstep>
   <time name="dav">    0.24    0.24</time>
   <time name="total">    0.24    0.25</time>
   <energy>
    <i name="e_fr_energy">     -4.30776616 </i>
    <i name="e_wo_entrp">     -4.30871105 </i>
    <i name="e_0_energy">     -4.30808113 </i>
   </energy>
  </scstep>
  <scstep>
   <time name="dav">    0.22    0.23</time>
   <time name="total">    0.23    0.24</time>
   <energy>
    <i name="e_fr_energy">     -4.30366738 </i>
    <i name="e_wo_entrp">     -4.30462625 </i>
    <i name="e_0_energy">     -4.30398700 </i>
   </energy>
  </scstep>
  <scstep>
   <time name="dav">    0.16    0.16</time>
   <time name="total">    0.16    0.17</time>
   <energy>
    <i name="alphaZ">     99.22682972 </i>
    <i name="ewald">   -951.01733377 </i>
    <i name="hartreedc">   -122.49203608 </i>
    <i name="XCdc">     15.48575636 </i>
    <i name="pawpsdc">    740.58727692 </i>
    <i name="pawaedc">   -722.25397935 </i>
    <i name="eentropy">      0.00096079 </i>
    <i name="bandstr">      6.76270766 </i>
    <i name="atom">    929.39614979 </i>
    <i name="e_fr_energy">     -4.30366795 </i>
    <i name="e_wo_entrp">     -4.30462875 </i>
    <i name="e_0_energy">     -4.30398822 </i>
   </energy>
  </scstep>
  <structure>
   <crystal>
    <varray name="basis" >
     <v>       0.00000000       2.10000000       2.10000000 </v>
     <v>       2.10000000       0.00000000       2.10000000 </v>
     <v>       2.10000000       2.10000000       0.00000000 </v>
    </varray>
    <i name="volume">     18.52200000 </i>
    <varray name="rec_basis" >
     <v>      -0.23809524       0.23809524       0.23809524 </v>
     <v>       0.23809524      -0.23809524       0.23809524 </v>
     <v>       0.23809524       0.23809524      -0.23809524 </v>
    </varray>
   </crystal>
   <varray name="positions" >
    <v>       0.00000000       0.00000000       0.00000000 </v>
   </varray>
  </structure>
  <varray name="forces" >
   <v>       0.00000000       0.00000000       0.00000000 </v>
  </varray>
  <varray name="stress" >
   <v>    -179.18337820      -0.00000000       0.00000000 </v>
   <v>       0.00000000    -179.18337820       0.00000000 </v>
   <v>      -0.00000000       0.00000000    -179.18337820 </v>
  </varray>
  <energy>
   <i name="e_fr_energy">     -4.30366795 </i>
   <i name="e_wo_entrp">     -4.30398822 </i>
   <i name="e_0_energy">      0.00096079 </i>
  </energy>
  <time name="totalsc">    2.21    2.27</time>
  <eigenvalues>
   <array>
    <dimension dim="1">band</dimension>
    <dimension dim="2">kpoint</dimension>
    <dimension dim="3">spin</dimension>
    <field>eigene</field>
    <field>occ</field>
    <set>
     <set comment="spin 1">
      <set comment="kpoint 1">
       <r>   -4.5007    1.0000 </r>
       <r>    0.1879    1.0000 </r>
       <r>    0.2398    1.0000 </r>
       <r>    0.2398    1.0000 </r>
       <r>    1.5342    1.0000 </r>
       <r>    1.5342    1.0000 </r>
       <r>   19.8648    0.0000 </r>
       <r>   22.4455    0.0000 </r>
       <r>   23.1857    0.0000 </r>
       <r>   23.1857    0.0000 </r>
       <r>   27.8248    0.0000 </r>
       <r>   30.2125    0.0000 </r>
      </set>
      <set comment="kpoint 2">
       <r>   -4.0792    1.0000 </r>
       <r>    0.0593    1.0000 </r>
       <r>    0.3605    1.0000 </r>
       <r>    0.3883    1.0000 </r>
       <r>    1.4071    1.0000 </r>
       <r>    1.5777    1.0000 </r>
       <r>   19.9070    0.0000 </r>
       <r>   20.6218    0.0000 </r>
       <r>   22.6958    0.0000 </r>
       <r>   24.0161    0.0000 </r>
       <r>   26.9498    0.0000 </r>
       <r>   29.5155    0.0000 </r>
      </set>
      <set comment="kpoint 3">
       <r>   -3.1588    1.0000 </r>
       <r>   -0.0304    1.0000 </r>
       <r>    0.4949    1.0000 </r>
       <r>    0.5119    1.0000 </r>
       <r>    1.4197    1.0000 </r>
       <r>    1.7655    1.0000 </r>
       <r>   16.5162    0.0000 </r>
       <r>   20.5273    0.0000 </r>
       <r>   22.6711    0.0000 </r>
       <r>   24.9034    0.0000 </r>
       <r>   25.3130    0.0000 </r>
       <r>   27.3970    0.0000 </r>
      </set>
      <set comment="kpoint 4">
       <r>   -2.3132    1.0000 </r>
       <r>    0.3432    1.0000 </r>
       <r>    0.4142    1.0000 </r>
       <r>    0.5926    1.0000 </r>
       <r>    1.8410    1.0000 </r>
       <r>    2.2630    1.0000 </r>
       <r>   12.5640    0.0000 </r>
       <r>   19.9386    0.0000 </r>
       <r>   21.6802    0.0000 </r>
       <r>   23.6677    0.0000 </r>
       <r>   26.4043    0.0000 </r>
       <r>   27.3183    0.0000 </r>
      </set>
      <set comment="kpoint 5">
       <r>   -2.0869    1.0000 </r>
       <r>    0.2108    1.0000 </r>
       <r>    0.2704    1.0000 </r>
       <r>    1.9485    1.0000 </r>
       <r>    2.3514    1.0000 </r>
       <r>    3.1505    1.0000 </r>
       <r>    8.8994   -0.0000 </r>
       <r>   19.2989    0.0000 </r>
       <r>   20.8475    0.0000 </r>
       <r>   21.8957    0.0000 </r>
       <r>   27.8775    0.0000 </r>
       <r>   28.0281    0.0000 </r>
      </set>
      <set comment="kpoint 6">
       <r>   -2.0771    1.0000 </r>
       <r>    0.1539    1.0000 </r>
       <r>    0.2365    1.0000 </r>
       <r>    2.2461    1.0000 </r>
       <r>    2.5902    1.0000 </r>
       <r>    4.1624    1.0351 </r>
       <r>    7.2106   -0.0000 </r>
       <r>   19.1296    0.0000 </r>
       <r>   20.9118    0.0000 </r>
       <r>   21.0448    0.0000 </r>
       <r>   28.2459    0.0000 </r>
       <r>   28.2961    0.0000 </r>
      </set>
      <set comment="kpoint 7">
       <r>   -2.1165    1.0000 </r>
       <r>    0.2371    1.0000 </r>
       <r>    0.3309    1.0000 </r>
       <r>    1.4519    1.0000 </r>
       <r>    2.4181    1.0000 </r>
       <r>    2.6025    1.0000 </r>
       <r>   10.0436    0.0000 </r>
       <r>   19.5319    0.0000 </r>
       <r>   21.2539    0.0000 </r>
       <r>   22.0186    0.0000 </r>
       <r>   27.8116    0.0000 </r>
       <r>   28.0529    0.0000 </r>
      </set>
      <set comment="kpoint 8">
       <r>   -2.5304    1.0000 </r>
       <r>    0.2027    1.0000 </r>
       <r>    0.4336    1.0000 </r>
       <r>    0.4793    1.0000 </r>
       <r>    1.7704    1.0000 </r>
       <r>    1.9897    1.0000 </r>
       <r>   13.8761    0.0000 </r>
       <r>   20.3283    0.0000 </r>
       <r>   22.0749    0.0000 </r>
       <r>   23.7985    0.0000 </r>
       <r>   26.0640    0.0000 </r>
       <r>   27.8858    0.0000 </r>
      </set>
      <set comment="kpoint 9">
       <r>   -3.4987    1.0000 </r>
       <r>   -0.0455    1.0000 </r>
       <r>    0.4867    1.0000 </r>
       <r>    0.4961    1.0000 </r>
       <r>    1.3819    1.0000 </r>
       <r>    1.6557    1.0000 </r>
       <r>   17.8030    0.0000 </r>
       <r>   20.7180    0.0000 </r>
       <r>   22.6584    0.0000 </r>
       <r>   24.3774    0.0000 </r>
       <r>   25.7156    0.0000 </r>
       <r>   28.4175    0.0000 </r>
      </set>
      <set comment="kpoint 10">
       <r>   -4.2865    1.0000 </r>
       <r>    0.0965    1.0000 </r>
       <r>    0.3225    1.0000 </r>
       <r>    0.3269    1.0000 </r>
       <r>    1.4276    1.0000 </r>
       <r>    1.5838    1.0000 </r>
       <r>   20.0327    0.0000 </r>
       <r>   21.5431    0.0000 </r>
       <r>   22.8318    0.0000 </r>
       <r>   23.2615    0.0000 </r>
       <r>   28.1036    0.0000 </r>
       <r>   29.5795    0.0000 </r>
      </set>
      <set comment="kpoint 11">
       <r>   -3.8696    1.0000 </r>
       <r>   -0.0868    1.0000 </r>
       <r>    0.4968    1.0000 </r>
       <r>    0.5000    1.0000 </r>
       <r>    1.2454    1.0000 </r>
       <r>    1.6828    1.0000 </r>
       <r>   20.1723    0.0000 </r>
       <r>   20.7708    0.0000 </r>
       <r>   22.0389    0.0000 </r>
       <r>   22.7991    0.0000 </r>
       <r>   26.9871    0.0000 </r>
       <r>   29.1133    0.0000 </r>
      </set>
      <set comment="kpoint 12">
       <r>   -3.1064    1.0000 </r>
       <r>   -0.2963    1.0000 </r>
       <r>    0.5861    1.0000 </r>
       <r>    0.7417    1.0000 </r>
       <r>    1.2057    1.0000 </r>
       <r>    1.8709    1.0000 </r>
       <r>   18.0331    0.0000 </r>
       <r>   19.8494    0.0000 </r>
       <r>   21.9130    0.0000 </r>
       <r>   23.1000    0.0000 </r>
       <r>   24.9578    0.0000 </r>
       <r>   28.3544    0.0000 </r>
      </set>
      <set comment="kpoint 13">
       <r>   -2.1548    1.0000 </r>
       <r>   -0.2106    1.0000 </r>
       <r>    0.3326    1.0000 </r>
       <r>    0.7519    1.0000 </r>
       <r>    1.7827    1.0000 </r>
       <r>    2.3818    1.0000 </r>
       <r>   14.0993    0.0000 </r>
       <r>   19.2653    0.0000 </r>
       <r>   20.8984    0.0000 </r>
       <r>   22.5940    0.0000 </r>
       <r>   26.1746    0.0000 </r>
       <r>   28.1049    0.0000 </r>
      </set>
      <set comment="kpoint 14">
       <r>   -1.7750    1.0000 </r>
       <r>    0.0743    1.0000 </r>
       <r>    0.5487    1.0000 </r>
       <r>    0.6980    1.0000 </r>
       <r>    2.4113    1.0000 </r>
       <r>    3.4992    1.0000 </r>
       <r>   10.2616    0.0000 </r>
       <r>   18.9093    0.0000 </r>
       <r>   19.5503    0.0000 </r>
       <r>   21.4307    0.0000 </r>
       <r>   28.0378    0.0000 </r>
       <r>   28.9858    0.0000 </r>
      </set>
      <set comment="kpoint 15">
       <r>   -1.7472    1.0000 </r>
       <r>   -0.0366    1.0000 </r>
       <r>    0.4961    1.0000 </r>
       <r>    1.3656    1.0000 </r>
       <r>    2.5514    1.0000 </r>
       <r>    5.4057   -0.0000 </r>
       <r>    7.2338   -0.0000 </r>
       <r>   18.5204    0.0000 </r>
       <r>   19.1185    0.0000 </r>
       <r>   20.8691    0.0000 </r>
       <r>   28.2888    0.0000 </r>
       <r>   29.4172    0.0000 </r>
      </set>
      <set comment="kpoint 16">
       <r>   -1.7371    1.0000 </r>
       <r>    0.0319    1.0000 </r>
       <r>    0.5184    1.0000 </r>
       <r>    1.0869    1.0000 </r>
       <r>    2.2879    1.0000 </r>
       <r>    4.1620    1.0351 </r>
       <r>    9.1544   -0.0000 </r>
       <r>   18.0559    0.0000 </r>
       <r>   19.8098    0.0000 </r>
       <r>   21.6159    0.0000 </r>
       <r>   27.6477    0.0000 </r>
       <r>   29.0185    0.0000 </r>
      </set>
      <set comment="kpoint 17">
       <r>   -1.9245    1.0000 </r>
       <r>    0.0349    1.0000 </r>
       <r>    0.3036    1.0000 </r>
       <r>    0.6806    1.0000 </r>
       <r>    1.6990    1.0000 </r>
       <r>    2.8645    1.0000 </r>
       <r>   12.8091    0.0000 </r>
       <r>   18.2314    0.0000 </r>
       <r>   20.9281    0.0000 </r>
       <r>   23.3991    0.0000 </r>
       <r>   26.0419    0.0000 </r>
       <r>   28.1664    0.0000 </r>
      </set>
      <set comment="kpoint 18">
       <r>   -2.7745    1.0000 </r>
       <r>   -0.2555    1.0000 </r>
       <r>    0.4988    1.0000 </r>
       <r>    0.7613    1.0000 </r>
       <r>    1.1989    1.0000 </r>
       <r>    2.1015    1.0000 </r>
       <r>   16.6521    0.0000 </r>
       <r>   18.8434    0.0000 </r>
       <r>   22.5300    0.0000 </r>
       <r>   23.4860    0.0000 </r>
       <r>   26.1408    0.0000 </r>
       <r>   27.1215    0.0000 </r>
      </set>
      <set comment="kpoint 19">
       <r>   -3.6759    1.0000 </r>
       <r>   -0.0815    1.0000 </r>
       <r>    0.5003    1.0000 </r>
       <r>    0.5076    1.0000 </r>
       <r>    1.2781    1.0000 </r>
       <r>    1.6875    1.0000 </r>
       <r>   19.0823    0.0000 </r>
       <r>   20.3101    0.0000 </r>
       <r>   22.2809    0.0000 </r>
       <r>   24.0563    0.0000 </r>
       <r>   26.0461    0.0000 </r>
       <r>   28.8014    0.0000 </r>
      </set>
      <set comment="kpoint 20">
       <r>   -2.5916    1.0000 </r>
       <r>   -0.6046    1.0000 </r>
       <r>    0.7261    1.0000 </r>
       <r>    1.0727    1.0000 </r>
       <r>    1.2440    1.0000 </r>
       <r>    1.9716    1.0000 </r>
       <r>   18.4169    0.0000 </r>
       <r>   19.4749    0.0000 </r>
       <r>   20.9004    0.0000 </r>
       <r>   21.6019    0.0000 </r>
       <r>   22.1310    0.0000 </r>
       <r>   29.9945    0.0000 </r>
      </set>
      <set comment="kpoint 21">
       <r>   -1.8352    1.0000 </r>
       <r>   -0.7973    1.0000 </r>
       <r>    0.5087    1.0000 </r>
       <r>    1.3757    1.0000 </r>
       <r>    1.8212    1.0000 </r>
       <r>    2.3994    1.0000 </r>
       <r>   15.7551    0.0000 </r>
       <r>   17.6566    0.0000 </r>
       <r>   19.2758    0.0000 </r>
       <r>   21.8367    0.0000 </r>
       <r>   23.2348    0.0000 </r>
       <r>   29.9903    0.0000 </r>
      </set>
      <set comment="kpoint 22">
       <r>   -1.3895    1.0000 </r>
       <r>   -0.5590    1.0000 </r>
       <r>    0.2978    1.0000 </r>
       <r>    1.2626    1.0000 </r>
       <r>    2.4835    1.0000 </r>
       <r>    3.7373    1.0000 </r>
       <r>   11.8803    0.0000 </r>
       <r>   16.9581    0.0000 </r>
       <r>   17.6289    0.0000 </r>
       <r>   21.5840    0.0000 </r>
       <r>   26.2671    0.0000 </r>
       <r>   29.7763    0.0000 </r>
      </set>
      <set comment="kpoint 23">
       <r>   -1.2819    1.0000 </r>
       <r>   -0.3234    1.0000 </r>
       <r>    0.4887    1.0000 </r>
       <r>    1.0934    1.0000 </r>
       <r>    2.5823    1.0000 </r>
       <r>    6.0251   -0.0000 </r>
       <r>    8.4829   -0.0000 </r>
       <r>   15.7097    0.0000 </r>
       <r>   17.6951    0.0000 </r>
       <r>   21.3164    0.0000 </r>
       <r>   28.8702    0.0000 </r>
       <r>   30.1201    0.0000 </r>
      </set>
      <set comment="kpoint 24">
       <r>   -1.1349    1.0000 </r>
       <r>   -0.2715    1.0000 </r>
       <r>    0.5209    1.0000 </r>
       <r>    1.0031    1.0000 </r>
       <r>    2.2460    1.0000 </r>
       <r>    5.8723   -0.0000 </r>
       <r>    8.9404   -0.0000 </r>
       <r>   14.6905    0.0000 </r>
       <r>   18.8392    0.0000 </r>
       <r>   21.5056    0.0000 </r>
       <r>   28.1556    0.0000 </r>
       <r>   30.4040    0.0000 </r>
      </set>
      <set comment="kpoint 25">
       <r>   -1.0735    1.0000 </r>
       <r>   -0.2175    1.0000 </r>
       <r>    0.0267    1.0000 </r>
       <r>    1.0745    1.0000 </r>
       <r>    1.6605    1.0000 </r>
       <r>    4.1481    1.0336 </r>
       <r>   12.1757    0.0000 </r>
       <r>   14.5925    0.0000 </r>
       <r>   20.2031    0.0000 </r>
       <r>   22.6600    0.0000 </r>
       <r>   26.2494    0.0000 </r>
       <r>   30.1268    0.0000 </r>
      </set>
      <set comment="kpoint 26">
       <r>   -1.7945    1.0000 </r>
       <r>   -0.3191    1.0000 </r>
       <r>    0.2744    1.0000 </r>
       <r>    0.9635    1.0000 </r>
       <r>    1.3200    1.0000 </r>
       <r>    2.9386    1.0000 </r>
       <r>   14.2261    0.0000 </r>
       <r>   16.7362    0.0000 </r>
       <r>   21.3402    0.0000 </r>
       <r>   24.1160    0.0000 </r>
       <r>   24.9709    0.0000 </r>
       <r>   28.6155    0.0000 </r>
      </set>
      <set comment="kpoint 27">
       <r>   -2.6896    1.0000 </r>
       <r>   -0.0937    1.0000 </r>
       <r>    0.4743    1.0000 </r>
       <r>    0.5963    1.0000 </r>
       <r>    1.4788    1.0000 </r>
       <r>    2.0382    1.0000 </r>
       <r>   15.2817    0.0000 </r>
       <r>   20.0540    0.0000 </r>
       <r>   21.8606    0.0000 </r>
       <r>   24.1964    0.0000 </r>
       <r>   25.6403    0.0000 </r>
       <r>   27.3662    0.0000 </r>
      </set>
      <set comment="kpoint 28">
       <r>   -1.6775    1.0000 </r>
       <r>   -1.1273    1.0000 </r>
       <r>    1.3081    1.0000 </r>
       <r>    1.8287    1.0000 </r>
       <r>    2.2398    1.0000 </r>
       <r>    2.3260    1.0000 </r>
       <r>   15.6345    0.0000 </r>
       <r>   16.7890    0.0000 </r>
       <r>   16.8669    0.0000 </r>
       <r>   20.7645    0.0000 </r>
       <r>   22.6122    0.0000 </r>
       <r>   32.4187    0.0000 </r>
      </set>
      <set comment="kpoint 29">
       <r>   -1.5277    1.0000 </r>
       <r>   -1.2214    1.0000 </r>
       <r>    1.3376    1.0000 </r>
       <r>    2.0918    1.0000 </r>
       <r>    2.4970    1.0000 </r>
       <r>    3.8284    1.0001 </r>
       <r>   12.9497    0.0000 </r>
       <r>   15.1090    0.0000 </r>
       <r>   15.7551    0.0000 </r>
       <r>   21.6892    0.0000 </r>
       <r>   23.5209    0.0000 </r>
       <r>   31.8857    0.0000 </r>
      </set>
      <set comment="kpoint 30">
       <r>   -1.3774    1.0000 </r>
       <r>   -0.9381    1.0000 </r>
       <r>    1.0252    1.0000 </r>
       <r>    1.8326    1.0000 </r>
       <r>    2.6646    1.0000 </r>
       <r>    6.2491   -0.0000 </r>
       <r>    9.9948    0.0000 </r>
       <r>   13.3392    0.0000 </r>
       <r>   15.8895    0.0000 </r>
       <r>   21.9353    0.0000 </r>
       <r>   26.1355    0.0000 </r>
       <r>   30.8869    0.0000 </r>
      </set>
      <set comment="kpoint 31">
       <r>   -1.1246    1.0000 </r>
       <r>   -0.4833    1.0000 </r>
       <r>    0.5497    1.0000 </r>
       <r>    1.5487    1.0000 </r>
       <r>    2.3949    1.0000 </r>
       <r>    7.3624   -0.0000 </r>
       <r>    9.4610   -0.0000 </r>
       <r>   11.7354    0.0000 </r>
       <r>   17.0941    0.0000 </r>
       <r>   21.8266    0.0000 </r>
       <r>   29.3644    0.0000 </r>
       <r>   29.7490    0.0000 </r>
      </set>
      <set comment="kpoint 32">
       <r>   -0.8880    1.0000 </r>
       <r>   -0.2237    1.0000 </r>
       <r>    0.1211    1.0000 </r>
       <r>    1.2399    1.0000 </r>
       <r>    2.0435    1.0000 </r>
       <r>    5.6855   -0.0000 </r>
       <r>   10.7109    0.0000 </r>
       <r>   12.7233    0.0000 </r>
       <r>   18.7930    0.0000 </r>
       <r>   21.8159    0.0000 </r>
       <r>   27.9927    0.0000 </r>
       <r>   30.7084    0.0000 </r>
      </set>
      <set comment="kpoint 33">
       <r>   -1.4180    1.0000 </r>
       <r>   -0.0516    1.0000 </r>
       <r>    0.4126    1.0000 </r>
       <r>    0.8118    1.0000 </r>
       <r>    1.9707    1.0000 </r>
       <r>    4.1547    1.0344 </r>
       <r>   10.6382    0.0000 </r>
       <r>   16.2960    0.0000 </r>
       <r>   20.0417    0.0000 </r>
       <r>   22.1751    0.0000 </r>
       <r>   26.8894    0.0000 </r>
       <r>   29.5190    0.0000 </r>
      </set>
      <set comment="kpoint 34">
       <r>   -2.0550    1.0000 </r>
       <r>    0.2406    1.0000 </r>
       <r>    0.4537    1.0000 </r>
       <r>    0.7334    1.0000 </r>
       <r>    2.0882    1.0000 </r>
       <r>    2.7205    1.0000 </r>
       <r>   11.3586    0.0000 </r>
       <r>   19.5030    0.0000 </r>
       <r>   20.6830    0.0000 </r>
       <r>   22.6376    0.0000 </r>
       <r>   27.1751    0.0000 </r>
       <r>   27.9198    0.0000 </r>
      </set>
      <set comment="kpoint 35">
       <r>   -1.7521    1.0000 </r>
       <r>   -1.4754    1.0000 </r>
       <r>    2.4042    1.0000 </r>
       <r>    2.4426    1.0000 </r>
       <r>    2.6940    1.0000 </r>
       <r>    4.4227    0.4771 </r>
       <r>   11.4691    0.0000 </r>
       <r>   14.5715    0.0000 </r>
       <r>   14.9171    0.0000 </r>
       <r>   20.9828    0.0000 </r>
       <r>   23.1699    0.0000 </r>
       <r>   33.2370    0.0000 </r>
      </set>
      <set comment="kpoint 36">
       <r>   -1.6839    1.0000 </r>
       <r>   -1.4308    1.0000 </r>
       <r>    2.1240    1.0000 </r>
       <r>    2.3690    1.0000 </r>
       <r>    2.8162    1.0000 </r>
       <r>    6.3388   -0.0000 </r>
       <r>    9.6656   -0.0000 </r>
       <r>   13.5556    0.0000 </r>
       <r>   14.5124    0.0000 </r>
       <r>   21.8501    0.0000 </r>
       <r>   23.7457    0.0000 </r>
       <r>   32.3960    0.0000 </r>
      </set>
      <set comment="kpoint 37">
       <r>   -1.4213    1.0000 </r>
       <r>   -1.0191    1.0000 </r>
       <r>    1.2809    1.0000 </r>
       <r>    1.9752    1.0000 </r>
       <r>    2.6641    1.0000 </r>
       <r>    7.6599   -0.0000 </r>
       <r>    9.0665   -0.0000 </r>
       <r>   12.1409    0.0000 </r>
       <r>   15.5697    0.0000 </r>
       <r>   22.0740    0.0000 </r>
       <r>   26.1220    0.0000 </r>
       <r>   31.1132    0.0000 </r>
      </set>
      <set comment="kpoint 38">
       <r>   -1.1593    1.0000 </r>
       <r>   -0.4428    1.0000 </r>
       <r>    0.5112    1.0000 </r>
       <r>    1.3562    1.0000 </r>
       <r>    2.4964    1.0000 </r>
       <r>    7.3446   -0.0000 </r>
       <r>    8.1422   -0.0000 </r>
       <r>   13.6467    0.0000 </r>
       <r>   17.2922    0.0000 </r>
       <r>   21.6150    0.0000 </r>
       <r>   29.1261    0.0000 </r>
       <r>   29.9323    0.0000 </r>
      </set>
      <set comment="kpoint 39">
       <r>   -1.4583    1.0000 </r>
       <r>   -0.1784    1.0000 </r>
       <r>    0.7268    1.0000 </r>
       <r>    0.9517    1.0000 </r>
       <r>    2.4465    1.0000 </r>
       <r>    6.1118   -0.0000 </r>
       <r>    7.4382   -0.0000 </r>
       <r>   16.6853    0.0000 </r>
       <r>   18.9380    0.0000 </r>
       <r>   21.0946    0.0000 </r>
       <r>   28.2978    0.0000 </r>
       <r>   29.9637    0.0000 </r>
      </set>
      <set comment="kpoint 40">
       <r>   -1.9619    1.0000 </r>
       <r>    0.1050    1.0000 </r>
       <r>    0.3376    1.0000 </r>
       <r>    1.7388    1.0000 </r>
       <r>    2.5163    1.0000 </r>
       <r>    4.1670    1.0354 </r>
       <r>    7.9428   -0.0000 </r>
       <r>   19.1417    0.0000 </r>
       <r>   20.0677    0.0000 </r>
       <r>   21.1933    0.0000 </r>
       <r>   28.1378    0.0000 </r>
       <r>   28.6518    0.0000 </r>
      </set>
      <set comment="kpoint 41">
       <r>   -1.8162    1.0000 </r>
       <r>   -1.5500    1.0000 </r>
       <r>    2.4986    1.0000 </r>
       <r>    2.6700    1.0000 </r>
       <r>    2.8248    1.0000 </r>
       <r>    5.6694   -0.0000 </r>
       <r>    9.8253   -0.0000 </r>
       <r>   14.1271    0.0000 </r>
       <r>   14.4966    0.0000 </r>
       <r>   21.0657    0.0000 </r>
       <r>   23.2802    0.0000 </r>
       <r>   33.0689    0.0000 </r>
      </set>
      <set comment="kpoint 42">
       <r>   -1.6178    1.0000 </r>
       <r>   -1.3593    1.0000 </r>
       <r>    1.8159    1.0000 </r>
       <r>    2.3205    1.0000 </r>
       <r>    2.6878    1.0000 </r>
       <r>    5.0761   -0.0000 </r>
       <r>   11.2137    0.0000 </r>
       <r>   14.0719    0.0000 </r>
       <r>   14.9244    0.0000 </r>
       <r>   21.7760    0.0000 </r>
       <r>   23.6684    0.0000 </r>
       <r>   32.3037    0.0000 </r>
      </set>
      <set comment="kpoint 43">
       <r>   -1.3341    1.0000 </r>
       <r>   -0.7765    1.0000 </r>
       <r>    0.6431    1.0000 </r>
       <r>    1.5690    1.0000 </r>
       <r>    2.6230    1.0000 </r>
       <r>    4.8893   -0.0021 </r>
       <r>   10.8896    0.0000 </r>
       <r>   15.1417    0.0000 </r>
       <r>   16.5298    0.0000 </r>
       <r>   21.7311    0.0000 </r>
       <r>   26.1846    0.0000 </r>
       <r>   30.4305    0.0000 </r>
      </set>
      <set comment="kpoint 44">
       <r>   -1.5022    1.0000 </r>
       <r>   -0.1317    1.0000 </r>
       <r>    0.5208    1.0000 </r>
       <r>    0.8412    1.0000 </r>
       <r>    2.5684    1.0000 </r>
       <r>    4.6430   -0.0339 </r>
       <r>    9.2869   -0.0000 </r>
       <r>   17.7252    0.0000 </r>
       <r>   18.3055    0.0000 </r>
       <r>   21.1259    0.0000 </r>
       <r>   28.5378    0.0000 </r>
       <r>   30.0407    0.0000 </r>
      </set>
      <set comment="kpoint 45">
       <r>   -1.6678    1.0000 </r>
       <r>   -1.3311    1.0000 </r>
       <r>    1.9795    1.0000 </r>
       <r>    2.1787    1.0000 </r>
       <r>    2.5053    1.0000 </r>
       <r>    3.1351    1.0000 </r>
       <r>   13.5840    0.0000 </r>
       <r>   15.4387    0.0000 </r>
       <r>   15.7080    0.0000 </r>
       <r>   20.8491    0.0000 </r>
       <r>   22.9468    0.0000 </r>
       <r>   33.2926    0.0000 </r>
      </set>
      <set comment="kpoint 46">
       <r>   -1.5326    1.0000 </r>
       <r>   -1.0288    1.0000 </r>
       <r>    0.8108    1.0000 </r>
       <r>    1.7449    1.0000 </r>
       <r>    2.2305    1.0000 </r>
       <r>    2.9101    1.0000 </r>
       <r>   14.4573    0.0000 </r>
       <r>   16.4082    0.0000 </r>
       <r>   17.2231    0.0000 </r>
       <r>   21.6785    0.0000 </r>
       <r>   23.3405    0.0000 </r>
       <r>   31.0322    0.0000 </r>
      </set>
      <set comment="kpoint 47">
       <r>   -1.6701    1.0000 </r>
       <r>   -0.3563    1.0000 </r>
       <r>    0.1936    1.0000 </r>
       <r>    0.9788    1.0000 </r>
       <r>    2.1970    1.0000 </r>
       <r>    2.8894    1.0000 </r>
       <r>   12.9610    0.0000 </r>
       <r>   18.2031    0.0000 </r>
       <r>   19.4365    0.0000 </r>
       <r>   21.7001    0.0000 </r>
       <r>   26.3269    0.0000 </r>
       <r>   28.9773    0.0000 </r>
      </set>
      <set comment="kpoint 48">
       <r>   -1.9782    1.0000 </r>
       <r>   -0.8783    1.0000 </r>
       <r>    0.8138    1.0000 </r>
       <r>    1.4421    1.0000 </r>
       <r>    1.6675    1.0000 </r>
       <r>    2.1477    1.0000 </r>
       <r>   17.1649    0.0000 </r>
       <r>   18.0766    0.0000 </r>
       <r>   19.0889    0.0000 </r>
       <r>   20.8334    0.0000 </r>
       <r>   22.2226    0.0000 </r>
       <r>   31.0915    0.0000 </r>
      </set>
      <set comment="kpoint 49">
       <r>   -2.4395    1.0000 </r>
       <r>   -0.5448    1.0000 </r>
       <r>    0.5221    1.0000 </r>
       <r>    1.0352    1.0000 </r>
       <r>    1.4117    1.0000 </r>
       <r>    2.1037    1.0000 </r>
       <r>   16.9381    0.0000 </r>
       <r>   18.8731    0.0000 </r>
       <r>   21.2104    0.0000 </r>
       <r>   22.1681    0.0000 </r>
       <r>   23.6192    0.0000 </r>
       <r>   29.0043    0.0000 </r>
      </set>
      <set comment="kpoint 50">
       <r>   -3.2801    1.0000 </r>
       <r>   -0.3308    1.0000 </r>
       <r>    0.7074    1.0000 </r>
       <r>    0.7517    1.0000 </r>
       <r>    1.0780    1.0000 </r>
       <r>    1.8134    1.0000 </r>
       <r>   19.4688    0.0000 </r>
       <r>   20.8541    0.0000 </r>
       <r>   20.8889    0.0000 </r>
       <r>   22.0906    0.0000 </r>
       <r>   24.5460    0.0000 </r>
       <r>   29.2957    0.0000 </r>
      </set>
      <set comment="kpoint 51">
       <r>   -3.8816    1.0000 </r>
       <r>    0.0486    1.0000 </r>
       <r>    0.4031    1.0000 </r>
       <r>    0.4031    1.0000 </r>
       <r>    1.4948    1.0000 </r>
       <r>    1.4948    1.0000 </r>
       <r>   18.9488    0.0000 </r>
       <r>   20.6511    0.0000 </r>
       <r>   23.5931    0.0000 </r>
       <r>   23.5931    0.0000 </r>
       <r>   26.6630    0.0000 </r>
       <r>   28.8044    0.0000 </r>
      </set>
      <set comment="kpoint 52">
       <r>   -3.3010    1.0000 </r>
       <r>   -0.1263    1.0000 </r>
       <r>    0.5188    1.0000 </r>
       <r>    0.5834    1.0000 </r>
       <r>    1.2319    1.0000 </r>
       <r>    1.8287    1.0000 </r>
       <r>   17.8414    0.0000 </r>
       <r>   19.6802    0.0000 </r>
       <r>   22.5680    0.0000 </r>
       <r>   24.5377    0.0000 </r>
       <r>   25.5788    0.0000 </r>
       <r>   27.9578    0.0000 </r>
      </set>
      <set comment="kpoint 53">
       <r>   -2.3179    1.0000 </r>
       <r>   -0.2569    1.0000 </r>
       <r>    0.4354    1.0000 </r>
       <r>    0.8300    1.0000 </r>
       <r>    1.1574    1.0000 </r>
       <r>    2.4742    1.0000 </r>
       <r>   15.3820    0.0000 </r>
       <r>   17.8034    0.0000 </r>
       <r>   22.2794    0.0000 </r>
       <r>   24.0422    0.0000 </r>
       <r>   25.5457    0.0000 </r>
       <r>   27.6926    0.0000 </r>
      </set>
      <set comment="kpoint 54">
       <r>   -1.6748    1.0000 </r>
       <r>    0.0710    1.0000 </r>
       <r>    0.4358    1.0000 </r>
       <r>    0.6568    1.0000 </r>
       <r>    1.7354    1.0000 </r>
       <r>    3.4360    1.0000 </r>
       <r>   11.6553    0.0000 </r>
       <r>   17.2251    0.0000 </r>
       <r>   20.8377    0.0000 </r>
       <r>   22.8522    0.0000 </r>
       <r>   26.2262    0.0000 </r>
       <r>   28.7682    0.0000 </r>
      </set>
      <set comment="kpoint 55">
       <r>   -1.6320    1.0000 </r>
       <r>   -0.0462    1.0000 </r>
       <r>    0.5622    1.0000 </r>
       <r>    1.1762    1.0000 </r>
       <r>    2.3214    1.0000 </r>
       <r>    5.0163   -0.0001 </r>
       <r>    8.2142   -0.0000 </r>
       <r>   17.3058    0.0000 </r>
       <r>   20.1817    0.0000 </r>
       <r>   20.7397    0.0000 </r>
       <r>   28.1880    0.0000 </r>
       <r>   29.0418    0.0000 </r>
      </set>
      <set comment="kpoint 56">
       <r>   -1.6649    1.0000 </r>
       <r>   -0.0669    1.0000 </r>
       <r>    0.6038    1.0000 </r>
       <r>    1.0159    1.0000 </r>
       <r>    2.6175    1.0000 </r>
       <r>    5.0158   -0.0001 </r>
       <r>    8.0643   -0.0000 </r>
       <r>   18.1148    0.0000 </r>
       <r>   19.5583    0.0000 </r>
       <r>   20.2333    0.0000 </r>
       <r>   29.1402    0.0000 </r>
       <r>   29.2057    0.0000 </r>
      </set>
      <set comment="kpoint 57">
       <r>   -1.7490    1.0000 </r>
       <r>    0.0347    1.0000 </r>
       <r>    0.2156    1.0000 </r>
       <r>    0.7426    1.0000 </r>
       <r>    2.4887    1.0000 </r>
       <r>    3.0075    1.0000 </r>
       <r>   11.5388    0.0000 </r>
       <r>   19.3787    0.0000 </r>
       <r>   19.4267    0.0000 </r>
       <r>   20.8621    0.0000 </r>
       <r>   28.0493    0.0000 </r>
       <r>   29.2116    0.0000 </r>
      </set>
      <set comment="kpoint 58">
       <r>   -2.3374    1.0000 </r>
       <r>   -0.4303    1.0000 </r>
       <r>    0.4373    1.0000 </r>
       <r>    0.8574    1.0000 </r>
       <r>    1.7233    1.0000 </r>
       <r>    2.1023    1.0000 </r>
       <r>   15.5110    0.0000 </r>
       <r>   19.9310    0.0000 </r>
       <r>   20.6750    0.0000 </r>
       <r>   21.9339    0.0000 </r>
       <r>   24.9359    0.0000 </r>
       <r>   29.3106    0.0000 </r>
      </set>
      <set comment="kpoint 59">
       <r>   -2.9615    1.0000 </r>
       <r>   -0.2193    1.0000 </r>
       <r>    0.5370    1.0000 </r>
       <r>    0.6479    1.0000 </r>
       <r>    1.3990    1.0000 </r>
       <r>    1.8678    1.0000 </r>
       <r>   16.6588    0.0000 </r>
       <r>   20.7637    0.0000 </r>
       <r>   21.3564    0.0000 </r>
       <r>   23.7880    0.0000 </r>
       <r>   25.0643    0.0000 </r>
       <r>   28.6592    0.0000 </r>
      </set>
      <set comment="kpoint 60">
       <r>   -2.1579    1.0000 </r>
       <r>   -0.4397    1.0000 </r>
       <r>    0.3540    1.0000 </r>
       <r>    1.0097    1.0000 </r>
       <r>    1.3862    1.0000 </r>
       <r>    2.4565    1.0000 </r>
       <r>   15.5043    0.0000 </r>
       <r>   17.8291    0.0000 </r>
       <r>   21.2840    0.0000 </r>
       <r>   23.2361    0.0000 </r>
       <r>   25.1275    0.0000 </r>
       <r>   27.9371    0.0000 </r>
      </set>
      <set comment="kpoint 61">
       <r>   -1.2928    1.0000 </r>
       <r>   -0.4155    1.0000 </r>
       <r>    0.0223    1.0000 </r>
       <r>    1.2134    1.0000 </r>
       <r>    1.6502    1.0000 </r>
       <r>    3.5161    1.0000 </r>
       <r>   13.1731    0.0000 </r>
       <r>   15.6653    0.0000 </r>
       <r>   19.7430    0.0000 </r>
       <r>   23.7272    0.0000 </r>
       <r>   25.3231    0.0000 </r>
       <r>   29.1093    0.0000 </r>
      </set>
      <set comment="kpoint 62">
       <r>   -1.1595    1.0000 </r>
       <r>   -0.2569    1.0000 </r>
       <r>    0.3108    1.0000 </r>
       <r>    1.0447    1.0000 </r>
       <r>    2.2394    1.0000 </r>
       <r>    5.1024   -0.0000 </r>
       <r>    9.7632   -0.0000 </r>
       <r>   15.4477    0.0000 </r>
       <r>   18.3209    0.0000 </r>
       <r>   22.4648    0.0000 </r>
       <r>   27.2259    0.0000 </r>
       <r>   30.6661    0.0000 </r>
      </set>
      <set comment="kpoint 63">
       <r>   -1.2182    1.0000 </r>
       <r>   -0.3325    1.0000 </r>
       <r>    0.6055    1.0000 </r>
       <r>    0.9843    1.0000 </r>
       <r>    2.4866    1.0000 </r>
       <r>    6.7305   -0.0000 </r>
       <r>    7.5399   -0.0000 </r>
       <r>   16.0000    0.0000 </r>
       <r>   17.3419    0.0000 </r>
       <r>   22.0301    0.0000 </r>
       <r>   27.9676    0.0000 </r>
       <r>   31.2338    0.0000 </r>
      </set>
      <set comment="kpoint 64">
       <r>   -1.2625    1.0000 </r>
       <r>   -0.2467    1.0000 </r>
       <r>    0.0845    1.0000 </r>
       <r>    1.1529    1.0000 </r>
       <r>    2.3488    1.0000 </r>
       <r>    4.4033    0.5588 </r>
       <r>   10.7358    0.0000 </r>
       <r>   16.2776    0.0000 </r>
       <r>   17.8935    0.0000 </r>
       <r>   22.3768    0.0000 </r>
       <r>   27.1665    0.0000 </r>
       <r>   29.5094    0.0000 </r>
      </set>
      <set comment="kpoint 65">
       <r>   -1.5816    1.0000 </r>
       <r>   -0.6382    1.0000 </r>
       <r>    0.2077    1.0000 </r>
       <r>    1.3181    1.0000 </r>
       <r>    1.7427    1.0000 </r>
       <r>    2.9218    1.0000 </r>
       <r>   14.3757    0.0000 </r>
       <r>   16.7275    0.0000 </r>
       <r>   19.4553    0.0000 </r>
       <r>   23.0476    0.0000 </r>
       <r>   24.6208    0.0000 </r>
       <r>   28.8315    0.0000 </r>
      </set>
      <set comment="kpoint 66">
       <r>   -1.7741    1.0000 </r>
       <r>   -0.6468    1.0000 </r>
       <r>    0.3803    1.0000 </r>
       <r>    1.1224    1.0000 </r>
       <r>    2.3180    1.0000 </r>
       <r>    2.3322    1.0000 </r>
       <r>   14.3485    0.0000 </r>
       <r>   18.5599    0.0000 </r>
       <r>   19.3157    0.0000 </r>
       <r>   21.1288    0.0000 </r>
       <r>   24.7761    0.0000 </r>
       <r>   30.1661    0.0000 </r>
      </set>
      <set comment="kpoint 67">
       <r>   -1.2724    1.0000 </r>
       <r>   -0.8283    1.0000 </r>
       <r>    0.3056    1.0000 </r>
       <r>    1.6634    1.0000 </r>
       <r>    2.1125    1.0000 </r>
       <r>    3.6043    1.0000 </r>
       <r>   13.2539    0.0000 </r>
       <r>   15.6185    0.0000 </r>
       <r>   17.4952    0.0000 </r>
       <r>   22.9073    0.0000 </r>
       <r>   24.5452    0.0000 </r>
       <r>   29.6295    0.0000 </r>
      </set>
      <set comment="kpoint 68">
       <r>   -0.9453    1.0000 </r>
       <r>   -0.6871    1.0000 </r>
       <r>    0.1177    1.0000 </r>
       <r>    1.7366    1.0000 </r>
       <r>    2.3533    1.0000 </r>
       <r>    5.3478   -0.0000 </r>
       <r>   11.3518    0.0000 </r>
       <r>   13.6949    0.0000 </r>
       <r>   15.9991    0.0000 </r>
       <r>   24.0426    0.0000 </r>
       <r>   25.7556    0.0000 </r>
       <r>   29.3972    0.0000 </r>
      </set>
      <set comment="kpoint 69">
       <r>   -0.7987    1.0000 </r>
       <r>   -0.5383    1.0000 </r>
       <r>    0.1502    1.0000 </r>
       <r>    1.4205    1.0000 </r>
       <r>    2.5514    1.0000 </r>
       <r>    7.4667   -0.0000 </r>
       <r>    8.8126   -0.0000 </r>
       <r>   13.3013    0.0000 </r>
       <r>   15.4287    0.0000 </r>
       <r>   23.8425    0.0000 </r>
       <r>   27.5534    0.0000 </r>
       <r>   30.3507    0.0000 </r>
      </set>
      <set comment="kpoint 70">
       <r>   -0.5972    1.0000 </r>
       <r>   -0.5122    1.0000 </r>
       <r>   -0.1756    1.0000 </r>
       <r>    1.4921    1.0000 </r>
       <r>    2.3323    1.0000 </r>
       <r>    6.0419   -0.0000 </r>
       <r>   10.7404    0.0000 </r>
       <r>   12.7995    0.0000 </r>
       <r>   16.3641    0.0000 </r>
       <r>   24.1074    0.0000 </r>
       <r>   26.6293    0.0000 </r>
       <r>   30.3620    0.0000 </r>
      </set>
      <set comment="kpoint 71">
       <r>   -0.9671    1.0000 </r>
       <r>   -0.5249    1.0000 </r>
       <r>   -0.1077    1.0000 </r>
       <r>    1.5133    1.0000 </r>
       <r>    2.0166    1.0000 </r>
       <r>    4.2962    0.9224 </r>
       <r>   12.2178    0.0000 </r>
       <r>   14.6425    0.0000 </r>
       <r>   17.8342    0.0000 </r>
       <r>   23.7634    0.0000 </r>
       <r>   25.5725    0.0000 </r>
       <r>   29.3135    0.0000 </r>
      </set>
      <set comment="kpoint 72">
       <r>   -1.4689    1.0000 </r>
       <r>   -1.0560    1.0000 </r>
       <r>    1.0944    1.0000 </r>
       <r>    1.7406    1.0000 </r>
       <r>    2.6645    1.0000 </r>
       <r>    4.2465    1.0026 </r>
       <r>   11.9890    0.0000 </r>
       <r>   15.1250    0.0000 </r>
       <r>   16.3522    0.0000 </r>
       <r>   21.3769    0.0000 </r>
       <r>   24.6901    0.0000 </r>
       <r>   31.7441    0.0000 </r>
      </set>
      <set comment="kpoint 73">
       <r>   -1.3704    1.0000 </r>
       <r>   -1.1297    1.0000 </r>
       <r>    1.1134    1.0000 </r>
       <r>    2.1021    1.0000 </r>
       <r>    2.6574    1.0000 </r>
       <r>    5.8852   -0.0000 </r>
       <r>   10.8342    0.0000 </r>
       <r>   13.5073    0.0000 </r>
       <r>   14.7179    0.0000 </r>
       <r>   23.0477    0.0000 </r>
       <r>   24.6447    0.0000 </r>
       <r>   30.7626    0.0000 </r>
      </set>
      <set comment="kpoint 74">
       <r>   -1.1341    1.0000 </r>
       <r>   -0.8609    1.0000 </r>
       <r>    0.7167    1.0000 </r>
       <r>    1.7485    1.0000 </r>
       <r>    2.8121    1.0000 </r>
       <r>    8.0877   -0.0000 </r>
       <r>    9.4527   -0.0000 </r>
       <r>   12.1110    0.0000 </r>
       <r>   13.9533    0.0000 </r>
       <r>   24.5370    0.0000 </r>
       <r>   26.1460    0.0000 </r>
       <r>   29.3988    0.0000 </r>
      </set>
      <set comment="kpoint 75">
       <r>   -0.8385    1.0000 </r>
       <r>   -0.4559    1.0000 </r>
       <r>    0.1102    1.0000 </r>
       <r>    1.4725    1.0000 </r>
       <r>    2.6266    1.0000 </r>
       <r>    7.7662   -0.0000 </r>
       <r>    9.8135   -0.0000 </r>
       <r>   11.6303    0.0000 </r>
       <r>   15.0167    0.0000 </r>
       <r>   24.3400    0.0000 </r>
       <r>   27.8122    0.0000 </r>
       <r>   29.7496    0.0000 </r>
      </set>
      <set comment="kpoint 76">
       <r>   -0.9188    1.0000 </r>
       <r>   -0.4644    1.0000 </r>
       <r>    0.2188    1.0000 </r>
       <r>    1.2709    1.0000 </r>
       <r>    2.4268    1.0000 </r>
       <r>    6.2904   -0.0000 </r>
       <r>    9.0724   -0.0000 </r>
       <r>   14.5807    0.0000 </r>
       <r>   16.5655    0.0000 </r>
       <r>   23.1191    0.0000 </r>
       <r>   27.3773    0.0000 </r>
       <r>   30.8765    0.0000 </r>
      </set>
      <set comment="kpoint 77">
       <r>   -1.5999    1.0000 </r>
       <r>   -1.2814    1.0000 </r>
       <r>    1.8324    1.0000 </r>
       <r>    2.2076    1.0000 </r>
       <r>    2.7244    1.0000 </r>
       <r>    6.8790   -0.0000 </r>
       <r>    9.4191   -0.0000 </r>
       <r>   12.7416    0.0000 </r>
       <r>   15.2824    0.0000 </r>
       <r>   21.6830    0.0000 </r>
       <r>   24.7235    0.0000 </r>
       <r>   32.1811    0.0000 </r>
      </set>
      <set comment="kpoint 78">
       <r>   -1.4409    1.0000 </r>
       <r>   -1.1957    1.0000 </r>
       <r>    1.4193    1.0000 </r>
       <r>    2.0927    1.0000 </r>
       <r>    2.8140    1.0000 </r>
       <r>    7.2632   -0.0000 </r>
       <r>    9.4555   -0.0000 </r>
       <r>   12.8941    0.0000 </r>
       <r>   14.2509    0.0000 </r>
       <r>   23.1430    0.0000 </r>
       <r>   24.6862    0.0000 </r>
       <r>   31.0060    0.0000 </r>
      </set>
      <set comment="kpoint 79">
       <r>   -1.0524    1.0000 </r>
       <r>   -0.8064    1.0000 </r>
       <r>    0.4638    1.0000 </r>
       <r>    1.7972    1.0000 </r>
       <r>    2.6387    1.0000 </r>
       <r>    6.6513   -0.0000 </r>
       <r>   10.5050    0.0000 </r>
       <r>   12.7920    0.0000 </r>
       <r>   14.6099    0.0000 </r>
       <r>   24.3558    0.0000 </r>
       <r>   25.9623    0.0000 </r>
       <r>   29.4154    0.0000 </r>
      </set>
      <set comment="kpoint 80">
       <r>   -1.5424    1.0000 </r>
       <r>   -1.2044    1.0000 </r>
       <r>    1.5599    1.0000 </r>
       <r>    2.0231    1.0000 </r>
       <r>    2.7238    1.0000 </r>
       <r>    5.5569   -0.0000 </r>
       <r>   10.7211    0.0000 </r>
       <r>   13.5609    0.0000 </r>
       <r>   15.6488    0.0000 </r>
       <r>   21.5648    0.0000 </r>
       <r>   24.7063    0.0000 </r>
       <r>   32.0877    0.0000 </r>
      </set>
      <set comment="kpoint 81">
       <r>   -1.2728    1.0000 </r>
       <r>   -1.0006    1.0000 </r>
       <r>    0.6854    1.0000 </r>
       <r>    1.9628    1.0000 </r>
       <r>    2.4131    1.0000 </r>
       <r>    4.6009   -0.0144 </r>
       <r>   12.1086    0.0000 </r>
       <r>   14.5325    0.0000 </r>
       <r>   15.7911    0.0000 </r>
       <r>   22.9322    0.0000 </r>
       <r>   24.5875    0.0000 </r>
       <r>   30.2938    0.0000 </r>
      </set>
      <set comment="kpoint 82">
       <r>   -1.4857    1.0000 </r>
       <r>   -0.8593    1.0000 </r>
       <r>    0.6133    1.0000 </r>
       <r>    1.4257    1.0000 </r>
       <r>    2.5280    1.0000 </r>
       <r>    3.1564    1.0000 </r>
       <r>   13.1749    0.0000 </r>
       <r>   17.1479    0.0000 </r>
       <r>   17.3418    0.0000 </r>
       <r>   21.1950    0.0000 </r>
       <r>   24.6981    0.0000 </r>
       <r>   31.0548    0.0000 </r>
      </set>
      <set comment="kpoint 83">
       <r>   -2.8908    1.0000 </r>
       <r>    0.1182    1.0000 </r>
       <r>    0.4626    1.0000 </r>
       <r>    0.4626    1.0000 </r>
       <r>    1.6927    1.0000 </r>
       <r>    1.6927    1.0000 </r>
       <r>   15.1596    0.0000 </r>
       <r>   20.5680    0.0000 </r>
       <r>   23.5701    0.0000 </r>
       <r>   23.5701    0.0000 </r>
       <r>   26.0954    0.0000 </r>
       <r>   27.4548    0.0000 </r>
      </set>
      <set comment="kpoint 84">
       <r>   -2.3266    1.0000 </r>
       <r>    0.0101    1.0000 </r>
       <r>    0.4381    1.0000 </r>
       <r>    0.5870    1.0000 </r>
       <r>    1.4933    1.0000 </r>
       <r>    2.3983    1.0000 </r>
       <r>   13.9965    0.0000 </r>
       <r>   19.1706    0.0000 </r>
       <r>   21.6114    0.0000 </r>
       <r>   24.8577    0.0000 </r>
       <r>   25.1473    0.0000 </r>
       <r>   27.2881    0.0000 </r>
      </set>
      <set comment="kpoint 85">
       <r>   -1.4160    1.0000 </r>
       <r>   -0.2345    1.0000 </r>
       <r>    0.2139    1.0000 </r>
       <r>    0.9261    1.0000 </r>
       <r>    1.4099    1.0000 </r>
       <r>    3.4923    1.0000 </r>
       <r>   13.1185    0.0000 </r>
       <r>   15.6417    0.0000 </r>
       <r>   21.2992    0.0000 </r>
       <r>   23.0951    0.0000 </r>
       <r>   25.5466    0.0000 </r>
       <r>   29.6192    0.0000 </r>
      </set>
      <set comment="kpoint 86">
       <r>   -0.9578    1.0000 </r>
       <r>   -0.1486    1.0000 </r>
       <r>    0.1130    1.0000 </r>
       <r>    1.0687    1.0000 </r>
       <r>    1.7998    1.0000 </r>
       <r>    4.8472   -0.0048 </r>
       <r>   11.3699    0.0000 </r>
       <r>   13.5859    0.0000 </r>
       <r>   20.7406    0.0000 </r>
       <r>   20.9563    0.0000 </r>
       <r>   27.3997    0.0000 </r>
       <r>   30.0132    0.0000 </r>
      </set>
      <set comment="kpoint 87">
       <r>   -1.1556    1.0000 </r>
       <r>   -0.2971    1.0000 </r>
       <r>    0.5319    1.0000 </r>
       <r>    1.1283    1.0000 </r>
       <r>    2.3625    1.0000 </r>
       <r>    6.7625   -0.0000 </r>
       <r>    8.2484   -0.0000 </r>
       <r>   14.0878    0.0000 </r>
       <r>   18.7213    0.0000 </r>
       <r>   20.8564    0.0000 </r>
       <r>   29.4815    0.0000 </r>
       <r>   30.1572    0.0000 </r>
      </set>
      <set comment="kpoint 88">
       <r>   -1.3358    1.0000 </r>
       <r>   -0.5013    1.0000 </r>
       <r>    0.5427    1.0000 </r>
       <r>    1.2631    1.0000 </r>
       <r>    2.6639    1.0000 </r>
       <r>    5.3971   -0.0000 </r>
       <r>    9.6096   -0.0000 </r>
       <r>   15.4280    0.0000 </r>
       <r>   17.5193    0.0000 </r>
       <r>   21.0189    0.0000 </r>
       <r>   27.9201    0.0000 </r>
       <r>   30.5393    0.0000 </r>
      </set>
      <set comment="kpoint 89">
       <r>   -2.1275    1.0000 </r>
       <r>    0.1948    1.0000 </r>
       <r>    0.3030    1.0000 </r>
       <r>    0.5726    1.0000 </r>
       <r>    2.2057    1.0000 </r>
       <r>    2.2667    1.0000 </r>
       <r>   12.6698    0.0000 </r>
       <r>   20.1105    0.0000 </r>
       <r>   20.6456    0.0000 </r>
       <r>   22.2291    0.0000 </r>
       <r>   27.1431    0.0000 </r>
       <r>   28.5010    0.0000 </r>
      </set>
      <set comment="kpoint 90">
       <r>   -1.5463    1.0000 </r>
       <r>    0.0292    1.0000 </r>
       <r>    0.0438    1.0000 </r>
       <r>    0.8844    1.0000 </r>
       <r>    2.0508    1.0000 </r>
       <r>    3.4960    1.0000 </r>
       <r>   11.7171    0.0000 </r>
       <r>   17.2628    0.0000 </r>
       <r>   19.6500    0.0000 </r>
       <r>   22.5038    0.0000 </r>
       <r>   26.7520    0.0000 </r>
       <r>   29.0675    0.0000 </r>
      </set>
      <set comment="kpoint 91">
       <r>   -0.7786    1.0000 </r>
       <r>   -0.3164    1.0000 </r>
       <r>   -0.1680    1.0000 </r>
       <r>    1.3220    1.0000 </r>
       <r>    1.9916    1.0000 </r>
       <r>    4.9782   -0.0003 </r>
       <r>   11.3862    0.0000 </r>
       <r>   13.6333    0.0000 </r>
       <r>   18.2967    0.0000 </r>
       <r>   23.2116    0.0000 </r>
       <r>   26.5528    0.0000 </r>
       <r>   30.7848    0.0000 </r>
      </set>
      <set comment="kpoint 92">
       <r>   -0.8352    1.0000 </r>
       <r>   -0.3805    1.0000 </r>
       <r>    0.1243    1.0000 </r>
       <r>    1.4027    1.0000 </r>
       <r>    2.3433    1.0000 </r>
       <r>    6.6984   -0.0000 </r>
       <r>   10.1615    0.0000 </r>
       <r>   12.0774    0.0000 </r>
       <r>   16.8106    0.0000 </r>
       <r>   22.9747    0.0000 </r>
       <r>   27.9843    0.0000 </r>
       <r>   31.2994    0.0000 </r>
      </set>
      <set comment="kpoint 93">
       <r>   -1.1210    1.0000 </r>
       <r>   -0.6424    1.0000 </r>
       <r>    0.4858    1.0000 </r>
       <r>    1.6199    1.0000 </r>
       <r>    2.5935    1.0000 </r>
       <r>    6.9448   -0.0000 </r>
       <r>    9.3057   -0.0000 </r>
       <r>   13.2873    0.0000 </r>
       <r>   15.6853    0.0000 </r>
       <r>   22.8794    0.0000 </r>
       <r>   27.6168    0.0000 </r>
       <r>   29.5482    0.0000 </r>
      </set>
      <set comment="kpoint 94">
       <r>   -1.4710    1.0000 </r>
       <r>   -0.2526    1.0000 </r>
       <r>    0.3212    1.0000 </r>
       <r>    0.9793    1.0000 </r>
       <r>    2.6273    1.0000 </r>
       <r>    4.0931    1.0221 </r>
       <r>   10.5020    0.0000 </r>
       <r>   17.5390    0.0000 </r>
       <r>   18.3251    0.0000 </r>
       <r>   20.7714    0.0000 </r>
       <r>   28.1157    0.0000 </r>
       <r>   29.9239    0.0000 </r>
      </set>
      <set comment="kpoint 95">
       <r>   -1.1287    1.0000 </r>
       <r>   -0.4891    1.0000 </r>
       <r>    0.2498    1.0000 </r>
       <r>    1.4261    1.0000 </r>
       <r>    2.5123    1.0000 </r>
       <r>    5.5906   -0.0000 </r>
       <r>    9.9046    0.0000 </r>
       <r>   15.0104    0.0000 </r>
       <r>   16.4201    0.0000 </r>
       <r>   22.5891    0.0000 </r>
       <r>   27.4133    0.0000 </r>
       <r>   29.5634    0.0000 </r>
      </set>
      <set comment="kpoint 96">
       <r>   -0.7728    1.0000 </r>
       <r>   -0.4487    1.0000 </r>
       <r>   -0.0483    1.0000 </r>
       <r>    1.5221    1.0000 </r>
       <r>    2.6281    1.0000 </r>
       <r>    7.2808   -0.0000 </r>
       <r>   10.2553    0.0000 </r>
       <r>   12.0343    0.0000 </r>
       <r>   14.7215    0.0000 </r>
       <r>   25.1392    0.0000 </r>
       <r>   26.7346    0.0000 </r>
       <r>   29.6178    0.0000 </r>
      </set>
      <set comment="kpoint 97">
       <r>   -0.8797    1.0000 </r>
       <r>   -0.4419    1.0000 </r>
       <r>    0.0916    1.0000 </r>
       <r>    1.4837    1.0000 </r>
       <r>    2.8134    1.0000 </r>
       <r>    8.4112   -0.0000 </r>
       <r>    9.9950    0.0000 </r>
       <r>   11.2534    0.0000 </r>
       <r>   13.7835    0.0000 </r>
       <r>   25.8363    0.0000 </r>
       <r>   27.3132    0.0000 </r>
       <r>   28.4922    0.0000 </r>
      </set>
      <set comment="kpoint 98">
       <r>   -1.3094    1.0000 </r>
       <r>   -0.6714    1.0000 </r>
       <r>    0.8010    1.0000 </r>
       <r>    1.5544    1.0000 </r>
       <r>    2.6018    1.0000 </r>
       <r>    6.8197   -0.0000 </r>
       <r>    8.9597   -0.0000 </r>
       <r>   13.4029    0.0000 </r>
       <r>   16.9762    0.0000 </r>
       <r>   21.2946    0.0000 </r>
       <r>   27.7751    0.0000 </r>
       <r>   30.9723    0.0000 </r>
      </set>
      <set comment="kpoint 99">
       <r>   -1.1511    1.0000 </r>
       <r>   -0.7088    1.0000 </r>
       <r>    0.6681    1.0000 </r>
       <r>    1.6846    1.0000 </r>
       <r>    2.6363    1.0000 </r>
       <r>    8.0664   -0.0000 </r>
       <r>    9.1377   -0.0000 </r>
       <r>   11.7462    0.0000 </r>
       <r>   15.3801    0.0000 </r>
       <r>   23.0755    0.0000 </r>
       <r>   27.7728    0.0000 </r>
       <r>   29.5095    0.0000 </r>
      </set>
      <set comment="kpoint 100">
       <r>   -1.3209    1.0000 </r>
       <r>   -0.7526    1.0000 </r>
       <r>    0.9748    1.0000 </r>
       <r>    1.7754    1.0000 </r>
       <r>    2.5016    1.0000 </r>
       <r>    7.9212   -0.0000 </r>
       <r>    8.8264   -0.0000 </r>
       <r>   11.7698    0.0000 </r>
       <r>   16.7034    0.0000 </r>
       <r>   21.4703    0.0000 </r>
       <r>   27.7143    0.0000 </r>
       <r>   31.1872    0.0000 </r>
      </set>
      <set comment="kpoint 101">
       <r>   -2.2480    1.0000 </r>
       <r>    0.3274    1.0000 </r>
       <r>    0.3274    1.0000 </r>
       <r>    1.1947    1.0000 </r>
       <r>    2.1631    1.0000 </r>
       <r>    2.1631    1.0000 </r>
       <r>   11.2387    0.0000 </r>
       <r>   19.7498    0.0000 </r>
       <r>   22.4031    0.0000 </r>
       <r>   22.4031    0.0000 </r>
       <r>   27.5763    0.0000 </r>
       <r>   27.6176    0.0000 </r>
      </set>
      <set comment="kpoint 102">
       <r>   -1.9258    1.0000 </r>
       <r>    0.1737    1.0000 </r>
       <r>    0.4249    1.0000 </r>
       <r>    1.1030    1.0000 </r>
       <r>    2.0710    1.0000 </r>
       <r>    3.3189    1.0000 </r>
       <r>   10.1865    0.0000 </r>
       <r>   18.7738    0.0000 </r>
       <r>   20.3977    0.0000 </r>
       <r>   22.4169    0.0000 </r>
       <r>   27.1380    0.0000 </r>
       <r>   28.2430    0.0000 </r>
      </set>
      <set comment="kpoint 103">
       <r>   -1.2852    1.0000 </r>
       <r>   -0.1366    1.0000 </r>
       <r>    0.6017    1.0000 </r>
       <r>    0.8224    1.0000 </r>
       <r>    2.0545    1.0000 </r>
       <r>    4.9221   -0.0010 </r>
       <r>    9.7160   -0.0000 </r>
       <r>   15.4245    0.0000 </r>
       <r>   20.6231    0.0000 </r>
       <r>   20.7291    0.0000 </r>
       <r>   27.7471    0.0000 </r>
       <r>   29.5729    0.0000 </r>
      </set>
      <set comment="kpoint 104">
       <r>   -1.0356    1.0000 </r>
[...]
      <set comment="kpoint 93">
       <set comment="band 1">
        <r>  0.0417  0.0159  0.7971 </r>
       </set>
       <set comment="band 2">
        <r>  0.0000  0.0537  0.7980 </r>
       </set>
       <set comment="band 3">
        <r>  0.0293  0.0721  0.7715 </r>
       </set>
       <set comment="band 4">
        <r>  0.0010  0.0166  0.9204 </r>
       </set>
       <set comment="band 5">
        <r>  0.0027  0.0012  0.9678 </r>
       </set>
       <set comment="band 6">
        <r>  0.3248  0.1731  0.2906 </r>
       </set>
       <set comment="band 7">
        <r>  0.2264  0.3300  0.1214 </r>
       </set>
       <set comment="band 8">
        <r>  0.1025  0.3778  0.2044 </r>
       </set>
       <set comment="band 9">
        <r>  0.0031  0.3960  0.1818 </r>
       </set>
       <set comment="band 10">
        <r>  0.0268  0.1408  0.1966 </r>
       </set>
       <set comment="band 11">
        <r>  0.0327  0.1204  0.1805 </r>
       </set>
       <set comment="band 12">
        <r>  0.0444  0.0104  0.2053 </r>
       </set>
      </set>
      <set comment="kpoint 94">
       <set comment="band 1">
        <r>  0.1500  0.0316  0.6342 </r>
       </set>
       <set comment="band 2">
        <r>  0.0071  0.0491  0.8000 </r>
       </set>
       <set comment="band 3">
        <r>  0.0705  0.0605  0.7338 </r>
       </set>
       <set comment="band 4">
        <r>  0.0000  0.0071  0.9293 </r>
       </set>
       <set comment="band 5">
        <r>  0.0000  0.0004  0.9764 </r>
       </set>
       <set comment="band 6">
        <r>  0.1627  0.1462  0.5241 </r>
       </set>
       <set comment="band 7">
        <r>  0.2520  0.2941  0.1454 </r>
       </set>
       <set comment="band 8">
        <r>  0.0628  0.3161  0.1890 </r>
       </set>
       <set comment="band 9">
        <r>  0.0000  0.5025  0.0836 </r>
       </set>
       <set comment="band 10">
        <r>  0.0425  0.1095  0.1789 </r>
       </set>
       <set comment="band 11">
        <r>  0.0378  0.1838  0.1366 </r>
       </set>
       <set comment="band 12">
        <r>  0.0000  0.0144  0.1810 </r>
       </set>
      </set>
      <set comment="kpoint 95">
       <set comment="band 1">
        <r>  0.0745  0.0281  0.7417 </r>
       </set>
       <set comment="band 2">
        <r>  0.0009  0.0478  0.8048 </r>
       </set>
       <set comment="band 3">
        <r>  0.0539  0.0622  0.7508 </r>
       </set>
       <set comment="band 4">
        <r>  0.0013  0.0200  0.9121 </r>
       </set>
       <set comment="band 5">
        <r>  0.0008  0.0040  0.9646 </r>
       </set>
       <set comment="band 6">
        <r>  0.2456  0.1641  0.3992 </r>
       </set>
       <set comment="band 7">
        <r>  0.2535  0.3037  0.1290 </r>
       </set>
       <set comment="band 8">
        <r>  0.0972  0.4215  0.1541 </r>
       </set>
       <set comment="band 9">
        <r>  0.0017  0.3359  0.2137 </r>
       </set>
       <set comment="band 10">
        <r>  0.0214  0.1763  0.1359 </r>
       </set>
       <set comment="band 11">
        <r>  0.0111  0.1243  0.1774 </r>
       </set>
       <set comment="band 12">
        <r>  0.0754  0.0160  0.2526 </r>
       </set>
      </set>
      <set comment="kpoint 96">
       <set comment="band 1">
        <r>  0.0056  0.0370  0.7983 </r>
       </set>
       <set comment="band 2">
        <r>  0.0090  0.0498  0.8156 </r>
       </set>
       <set comment="band 3">
        <r>  0.0295  0.0637  0.7740 </r>
       </set>
       <set comment="band 4">
        <r>  0.0128  0.0113  0.9078 </r>
       </set>
       <set comment="band 5">
        <r>  0.0008  0.0031  0.9682 </r>
       </set>
       <set comment="band 6">
        <r>  0.4138  0.1381  0.2250 </r>
       </set>
       <set comment="band 7">
        <r>  0.1753  0.3540  0.1606 </r>
       </set>
       <set comment="band 8">
        <r>  0.0860  0.4342  0.1634 </r>
       </set>
       <set comment="band 9">
        <r>  0.0066  0.3195  0.2750 </r>
       </set>
       <set comment="band 10">
        <r>  0.0028  0.2020  0.1002 </r>
       </set>
       <set comment="band 11">
        <r>  0.0000  0.0499  0.2243 </r>
       </set>
       <set comment="band 12">
        <r>  0.0602  0.1133  0.2253 </r>
       </set>
      </set>
      <set comment="kpoint 97">
       <set comment="band 1">
        <r>  0.0039  0.0357  0.7985 </r>
       </set>
       <set comment="band 2">
        <r>  0.0025  0.0518  0.8213 </r>
       </set>
       <set comment="band 3">
        <r>  0.0044  0.0667  0.8058 </r>
       </set>
       <set comment="band 4">
        <r>  0.0299  0.0029  0.8956 </r>
       </set>
       <set comment="band 5">
        <r>  0.0001  0.0009  0.9773 </r>
       </set>
       <set comment="band 6">
        <r>  0.5920  0.0633  0.1253 </r>
       </set>
       <set comment="band 7">
        <r>  0.0577  0.4423  0.1830 </r>
       </set>
       <set comment="band 8">
        <r>  0.0501  0.4511  0.1764 </r>
       </set>
       <set comment="band 9">
        <r>  0.0001  0.3137  0.2972 </r>
       </set>
       <set comment="band 10">
        <r>  0.0049  0.1233  0.1903 </r>
       </set>
       <set comment="band 11">
        <r>  0.0032  0.1111  0.1685 </r>
       </set>
       <set comment="band 12">
        <r>  0.0219  0.1557  0.1635 </r>
       </set>
      </set>
      <set comment="kpoint 98">
       <set comment="band 1">
        <r>  0.0526  0.0063  0.7978 </r>
       </set>
       <set comment="band 2">
        <r>  0.0008  0.0554  0.7911 </r>
       </set>
       <set comment="band 3">
        <r>  0.0283  0.0860  0.7569 </r>
       </set>
       <set comment="band 4">
        <r>  0.0000  0.0084  0.9352 </r>
       </set>
       <set comment="band 5">
        <r>  0.0000  0.0001  0.9743 </r>
       </set>
       <set comment="band 6">
        <r>  0.2836  0.1916  0.3159 </r>
       </set>
       <set comment="band 7">
        <r>  0.2553  0.3157  0.1008 </r>
       </set>
       <set comment="band 8">
        <r>  0.0962  0.3422  0.2410 </r>
       </set>
       <set comment="band 9">
        <r>  0.0000  0.5102  0.0741 </r>
       </set>
       <set comment="band 10">
        <r>  0.0478  0.0585  0.2767 </r>
       </set>
       <set comment="band 11">
        <r>  0.0629  0.1002  0.2001 </r>
       </set>
       <set comment="band 12">
        <r>  0.0000  0.0043  0.1361 </r>
       </set>
      </set>
      <set comment="kpoint 99">
       <set comment="band 1">
        <r>  0.0299  0.0106  0.8151 </r>
       </set>
       <set comment="band 2">
        <r>  0.0001  0.0563  0.7968 </r>
       </set>
       <set comment="band 3">
        <r>  0.0042  0.0815  0.7932 </r>
       </set>
       <set comment="band 4">
        <r>  0.0092  0.0084  0.9225 </r>
       </set>
       <set comment="band 5">
        <r>  0.0007  0.0018  0.9706 </r>
       </set>
       <set comment="band 6">
        <r>  0.5374  0.0915  0.1446 </r>
       </set>
       <set comment="band 7">
        <r>  0.0548  0.4397  0.1868 </r>
       </set>
       <set comment="band 8">
        <r>  0.0885  0.3547  0.2443 </r>
       </set>
       <set comment="band 9">
        <r>  0.0073  0.4146  0.1694 </r>
       </set>
       <set comment="band 10">
        <r>  0.0300  0.1226  0.2381 </r>
       </set>
       <set comment="band 11">
        <r>  0.0572  0.1155  0.1933 </r>
       </set>
       <set comment="band 12">
        <r>  0.0068  0.0177  0.1420 </r>
       </set>
      </set>
      <set comment="kpoint 100">
       <set comment="band 1">
        <r>  0.0403  0.0007  0.8189 </r>
       </set>
       <set comment="band 2">
        <r>  0.0003  0.0577  0.7889 </r>
       </set>
       <set comment="band 3">
        <r>  0.0036  0.0924  0.7825 </r>
       </set>
       <set comment="band 4">
        <r>  0.0000  0.0087  0.9387 </r>
       </set>
       <set comment="band 5">
        <r>  0.0000  0.0001  0.9710 </r>
       </set>
       <set comment="band 6">
        <r>  0.5279  0.0965  0.1441 </r>
       </set>
       <set comment="band 7">
        <r>  0.0481  0.4415  0.1904 </r>
       </set>
       <set comment="band 8">
        <r>  0.0978  0.3243  0.2706 </r>
       </set>
       <set comment="band 9">
        <r>  0.0000  0.5120  0.0734 </r>
       </set>
       <set comment="band 10">
        <r>  0.0505  0.0506  0.3078 </r>
       </set>
       <set comment="band 11">
        <r>  0.0699  0.0864  0.2102 </r>
       </set>
       <set comment="band 12">
        <r>  0.0000  0.0005  0.1132 </r>
       </set>
      </set>
      <set comment="kpoint 101">
       <set comment="band 1">
        <r>  0.2997  0.0259  0.4381 </r>
       </set>
       <set comment="band 2">
        <r>  0.0000  0.0005  0.9310 </r>
       </set>
       <set comment="band 3">
        <r>  0.0000  0.0005  0.9310 </r>
       </set>
       <set comment="band 4">
        <r>  0.1459  0.2054  0.3853 </r>
       </set>
       <set comment="band 5">
        <r>  0.0000  0.0017  0.9624 </r>
       </set>
       <set comment="band 6">
        <r>  0.0000  0.0017  0.9624 </r>
       </set>
       <set comment="band 7">
        <r>  0.2325  0.2687  0.2030 </r>
       </set>
       <set comment="band 8">
        <r>  0.0002  0.0200  0.0228 </r>
       </set>
       <set comment="band 9">
        <r>  0.0000  0.5295  0.0592 </r>
       </set>
       <set comment="band 10">
        <r>  0.0000  0.5295  0.0592 </r>
       </set>
       <set comment="band 11">
        <r>  0.0815  0.0750  0.1419 </r>
       </set>
       <set comment="band 12">
        <r>  0.0000  0.0011  0.3449 </r>
       </set>
      </set>
      <set comment="kpoint 102">
       <set comment="band 1">
        <r>  0.2327  0.0256  0.5335 </r>
       </set>
       <set comment="band 2">
        <r>  0.0005  0.0033  0.9179 </r>
       </set>
       <set comment="band 3">
        <r>  0.0000  0.0006  0.9298 </r>
       </set>
       <set comment="band 4">
        <r>  0.0742  0.1584  0.5601 </r>
       </set>
       <set comment="band 5">
        <r>  0.0000  0.0016  0.9591 </r>
       </set>
       <set comment="band 6">
        <r>  0.0997  0.0943  0.6857 </r>
       </set>
       <set comment="band 7">
        <r>  0.2635  0.2504  0.2098 </r>
       </set>
       <set comment="band 8">
        <r>  0.0164  0.2726  0.1344 </r>
       </set>
       <set comment="band 9">
        <r>  0.0147  0.2327  0.0083 </r>
       </set>
       <set comment="band 10">
        <r>  0.0000  0.5176  0.0665 </r>
       </set>
       <set comment="band 11">
        <r>  0.0267  0.0333  0.2216 </r>
       </set>
       <set comment="band 12">
        <r>  0.0000  0.0225  0.4273 </r>
       </set>
      </set>
      <set comment="kpoint 103">
       <set comment="band 1">
        <r>  0.1493  0.0374  0.6372 </r>
       </set>
       <set comment="band 2">
        <r>  0.0005  0.0181  0.8730 </r>
       </set>
       <set comment="band 3">
        <r>  0.0238  0.1239  0.6803 </r>
       </set>
       <set comment="band 4">
        <r>  0.0000  0.0044  0.9272 </r>
       </set>
       <set comment="band 5">
        <r>  0.0000  0.0012  0.9588 </r>
       </set>
       <set comment="band 6">
        <r>  0.2299  0.1283  0.4657 </r>
       </set>
       <set comment="band 7">
        <r>  0.2440  0.2680  0.2106 </r>
       </set>
       <set comment="band 8">
        <r>  0.0606  0.3931  0.1804 </r>
       </set>
       <set comment="band 9">
        <r>  0.0184  0.0817  0.1002 </r>
       </set>
       <set comment="band 10">
        <r>  0.0000  0.4989  0.1185 </r>
       </set>
       <set comment="band 11">
        <r>  0.0110  0.0398  0.1323 </r>
       </set>
       <set comment="band 12">
        <r>  0.0000  0.0145  0.3157 </r>
       </set>
      </set>
      <set comment="kpoint 104">
       <set comment="band 1">
        <r>  0.0595  0.0075  0.8007 </r>
       </set>
       <set comment="band 2">
        <r>  0.0100  0.0854  0.7333 </r>
       </set>
       <set comment="band 3">
        <r>  0.0001  0.0822  0.7911 </r>
       </set>
       <set comment="band 4">
        <r>  0.0000  0.0087  0.9285 </r>
       </set>
       <set comment="band 5">
        <r>  0.0000  0.0002  0.9633 </r>
       </set>
       <set comment="band 6">
        <r>  0.4147  0.1157  0.2383 </r>
       </set>
       <set comment="band 7">
        <r>  0.1095  0.3595  0.2448 </r>
       </set>
       <set comment="band 8">
        <r>  0.1222  0.3529  0.2162 </r>
       </set>
       <set comment="band 9">
        <r>  0.0000  0.5029  0.1109 </r>
       </set>
       <set comment="band 10">
        <r>  0.0310  0.0583  0.2251 </r>
       </set>
       <set comment="band 11">
        <r>  0.0006  0.0462  0.0506 </r>
       </set>
       <set comment="band 12">
        <r>  0.0000  0.0009  0.1817 </r>
       </set>
      </set>
      <set comment="kpoint 105">
       <set comment="band 1">
        <r>  0.1991  0.0163  0.5932 </r>
       </set>
       <set comment="band 2">
        <r>  0.0003  0.0029  0.9135 </r>
       </set>
       <set comment="band 3">
        <r>  0.0000  0.0027  0.9276 </r>
       </set>
       <set comment="band 4">
        <r>  0.0411  0.1259  0.6651 </r>
       </set>
       <set comment="band 5">
        <r>  0.0000  0.0003  0.9749 </r>
       </set>
       <set comment="band 6">
        <r>  0.1154  0.1938  0.4875 </r>
       </set>
       <set comment="band 7">
        <r>  0.3141  0.2042  0.2340 </r>
       </set>
       <set comment="band 8">
        <r>  0.0022  0.0623  0.0686 </r>
       </set>
       <set comment="band 9">
        <r>  0.0000  0.5112  0.0591 </r>
       </set>
       <set comment="band 10">
        <r>  0.0383  0.4225  0.0873 </r>
       </set>
       <set comment="band 11">
        <r>  0.0000  0.0088  0.3299 </r>
       </set>
       <set comment="band 12">
        <r>  0.0091  0.0047  0.4162 </r>
       </set>
      </set>
      <set comment="kpoint 106">
       <set comment="band 1">
        <r>  0.1456  0.0275  0.6535 </r>
       </set>
       <set comment="band 2">
        <r>  0.0001  0.0098  0.8860 </r>
       </set>
       <set comment="band 3">
        <r>  0.0015  0.0220  0.8934 </r>
       </set>
       <set comment="band 4">
        <r>  0.0134  0.1008  0.7426 </r>
       </set>
       <set comment="band 5">
        <r>  0.0005  0.0029  0.9653 </r>
       </set>
       <set comment="band 6">
        <r>  0.1709  0.2185  0.3874 </r>
       </set>
       <set comment="band 7">
        <r>  0.3202  0.1983  0.2367 </r>
       </set>
       <set comment="band 8">
        <r>  0.0553  0.4287  0.1320 </r>
       </set>
       <set comment="band 9">
        <r>  0.0141  0.2553  0.1628 </r>
       </set>
       <set comment="band 10">
        <r>  0.0014  0.2994  0.0206 </r>
       </set>
       <set comment="band 11">
        <r>  0.0176  0.0139  0.3471 </r>
       </set>
       <set comment="band 12">
        <r>  0.0013  0.0189  0.2514 </r>
       </set>
      </set>
      <set comment="kpoint 107">
       <set comment="band 1">
        <r>  0.0740  0.0294  0.7519 </r>
       </set>
       <set comment="band 2">
        <r>  0.0060  0.0412  0.8082 </r>
       </set>
       <set comment="band 3">
        <r>  0.0001  0.0900  0.7732 </r>
       </set>
       <set comment="band 4">
        <r>  0.0013  0.0113  0.9205 </r>
       </set>
       <set comment="band 5">
        <r>  0.0039  0.0008  0.9625 </r>
       </set>
       <set comment="band 6">
        <r>  0.4183  0.1178  0.2423 </r>
       </set>
       <set comment="band 7">
        <r>  0.1167  0.3425  0.2563 </r>
       </set>
       <set comment="band 8">
        <r>  0.0997  0.3948  0.1768 </r>
       </set>
       <set comment="band 9">
        <r>  0.0120  0.3589  0.1930 </r>
       </set>
       <set comment="band 10">
        <r>  0.0062  0.1975  0.0987 </r>
       </set>
       <set comment="band 11">
        <r>  0.0065  0.0224  0.2464 </r>
       </set>
       <set comment="band 12">
        <r>  0.1124  0.0791  0.1139 </r>
       </set>
      </set>
      <set comment="kpoint 108">
       <set comment="band 1">
        <r>  0.1174  0.0235  0.6979 </r>
       </set>
       <set comment="band 2">
        <r>  0.0019  0.0267  0.8484 </r>
       </set>
       <set comment="band 3">
        <r>  0.0084  0.1040  0.7436 </r>
       </set>
       <set comment="band 4">
        <r>  0.0000  0.0057  0.9268 </r>
       </set>
       <set comment="band 5">
        <r>  0.0000  0.0002  0.9727 </r>
       </set>
       <set comment="band 6">
        <r>  0.0904  0.3271  0.3107 </r>
       </set>
       <set comment="band 7">
        <r>  0.4245  0.1107  0.2496 </r>
       </set>
       <set comment="band 8">
        <r>  0.0664  0.3666  0.1776 </r>
       </set>
       <set comment="band 9">
        <r>  0.0000  0.5054  0.0853 </r>
       </set>
       <set comment="band 10">
        <r>  0.0257  0.0888  0.1368 </r>
       </set>
       <set comment="band 11">
        <r>  0.0160  0.0222  0.2593 </r>
       </set>
       <set comment="band 12">
        <r>  0.0000  0.0101  0.2657 </r>
       </set>
      </set>
      <set comment="kpoint 109">
       <set comment="band 1">
        <r>  0.2006  0.0024  0.6107 </r>
       </set>
       <set comment="band 2">
        <r>  0.0000  0.0001  0.9282 </r>
       </set>
       <set comment="band 3">
        <r>  0.0000  0.0001  0.9282 </r>
       </set>
       <set comment="band 4">
        <r>  0.0000  0.0003  0.9733 </r>
       </set>
       <set comment="band 5">
        <r>  0.0000  0.0003  0.9733 </r>
       </set>
       <set comment="band 6">
        <r>  0.0827  0.4269  0.0933 </r>
       </set>
       <set comment="band 7">
        <r>  0.3974  0.1068  0.3089 </r>
       </set>
       <set comment="band 8">
        <r>  0.0000  0.0206  0.0023 </r>
       </set>
       <set comment="band 9">
        <r>  0.0000  0.5259  0.0071 </r>
       </set>
       <set comment="band 10">
        <r>  0.0000  0.5259  0.0071 </r>
       </set>
       <set comment="band 11">
        <r>  0.0000  0.0000  0.4837 </r>
       </set>
       <set comment="band 12">
        <r>  0.0000  0.0000  0.4837 </r>
       </set>
      </set>
      <set comment="kpoint 110">
       <set comment="band 1">
        <r>  0.1739  0.0102  0.6375 </r>
       </set>
       <set comment="band 2">
        <r>  0.0000  0.0035  0.9125 </r>
       </set>
       <set comment="band 3">
        <r>  0.0000  0.0015  0.9270 </r>
       </set>
       <set comment="band 4">
        <r>  0.0009  0.1206  0.7384 </r>
       </set>
       <set comment="band 5">
        <r>  0.0000  0.0003  0.9724 </r>
       </set>
       <set comment="band 6">
        <r>  0.0275  0.3846  0.2641 </r>
       </set>
       <set comment="band 7">
        <r>  0.4686  0.0339  0.3464 </r>
       </set>
       <set comment="band 8">
        <r>  0.0111  0.1921  0.0930 </r>
       </set>
       <set comment="band 9">
        <r>  0.0225  0.3108  0.0292 </r>
       </set>
       <set comment="band 10">
        <r>  0.0000  0.5142  0.0426 </r>
       </set>
       <set comment="band 11">
        <r>  0.0235  0.0031  0.3846 </r>
       </set>
       <set comment="band 12">
        <r>  0.0000  0.0089  0.4338 </r>
       </set>
      </set>
     </set>
    </set>
   </array>
  </projected>
 </calculation>
 <structure name="finalpos" >
  <crystal>
   <varray name="basis" >
    <v>       0.00000000       2.10000000       2.10000000 </v>
    <v>       2.10000000       0.00000000       2.10000000 </v>
    <v>       2.10000000       2.10000000       0.00000000 </v>
   </varray>
   <i name="volume">     18.52200000 </i>
   <varray name="rec_basis" >
    <v>      -0.23809524       0.23809524       0.23809524 </v>
    <v>       0.23809524      -0.23809524       0.23809524 </v>
    <v>       0.23809524       0.23809524      -0.23809524 </v>
   </varray>
  </crystal>
  <varray name="positions" >
   <v>       0.00000000       0.00000000       0.00000000 </v>
  </varray>
 </structure>
</modeling>
