BCC W                                   
   3.25000000000000     
    -0.500000    0.500000    0.500000
     0.500000   -0.500000    0.500000
     0.500000    0.500000   -0.500000
   W 
     1
Direct
  0.000000  0.000000  0.000000
 
   20   20   20
  14.602      13.945      12.661      11.901      11.794      11.411      10.107      8.3246      6.9297      6.1872    
  5.9651      6.1872      6.9297      8.3246      10.107      11.411      11.794      11.901      12.661      13.945    
  13.945      13.679      12.522      11.576      11.351      11.189      10.256      8.6434      7.1554      6.2634    
  5.8983      5.9661      6.4981      7.6044      9.2406      10.730      11.401      11.514      11.975      13.070    
  12.661      12.522      11.508      10.465      10.077      10.035      9.5401      8.3656      7.0588      6.1540    
  5.7062      5.6528      5.9783      6.7648      8.0535      9.5140      10.511      10.905      11.250      11.975    
  11.901      11.576      10.465      9.2172      8.5447      8.4303      8.2418      7.5629      6.6218      5.8552    
  5.4138      5.2975      5.4675      5.9903      6.9068      8.1576      9.3827      10.267      10.905      11.514    
  11.794      11.351      10.077      8.5447      7.4721      7.0625      6.9079      6.5523      5.9706      5.4191    
  5.0618      4.9433      5.0261      5.3460      5.9789      6.9287      8.1331      9.3827      10.511      11.401    
  11.411      11.189      10.035      8.4303      7.0625      6.2918      5.9487      5.6670      5.3004      4.9405    
  4.7010      4.6239      4.6780      4.8716      5.2831      5.9670      6.9287      8.1576      9.5140      10.730    
  10.107      10.256      9.5401      8.2418      6.9079      5.9487      5.3956      5.0456      4.7535      4.5157    
  4.3801      4.3582      4.4204      4.5585      4.8213      5.2831      5.9789      6.9068      8.0535      9.2406    
  8.3246      8.6434      8.3656      7.5629      6.5523      5.6670      5.0456      4.6411      4.3707      4.2016    
  4.1323      4.1520      4.2335      4.3620      4.5585      4.8716      5.3460      5.9903      6.7648      7.6044    
  6.9297      7.1554      7.0588      6.6218      5.9706      5.3004      4.7535      4.3707      4.1321      4.0052    
  3.9678      4.0040      4.0965      4.2335      4.4204      4.6780      5.0261      5.4675      5.9783      6.4981    
  6.1872      6.2634      6.1540      5.8552      5.4191      4.9405      4.5157      4.2016      4.0052      3.9052    
  3.8784      3.9127      4.0040      4.1520      4.3582      4.6239      4.9433      5.2975      5.6528      5.9661    
  5.9651      5.8983      5.7062      5.4138      5.0618      4.7010      4.3801      4.1323      3.9678      3.8784    
  3.8507      3.8784      3.9678      4.1323      4.3801      4.7010      5.0618      5.4138      5.7062      5.8983    
  6.1872      5.9661      5.6528      5.2975      4.9433      4.6239      4.3582      4.1520      4.0040      3.9127    
  3.8784      3.9052      4.0052      4.2016      4.5157      4.9405      5.4191      5.8552      6.1540      6.2634    
  6.9297      6.4981      5.9783      5.4675      5.0261      4.6780      4.4204      4.2335      4.0965      4.0040    
  3.9678      4.0052      4.1321      4.3707      4.7535      5.3004      5.9706      6.6218      7.0588      7.1554    
  8.3246      7.6044      6.7648      5.9903      5.3460      4.8716      4.5585      4.3620      4.2335      4.1520    
  4.1323      4.2016      4.3707      4.6411      5.0456      5.6670      6.5523      7.5629      8.3656      8.6434    
  10.107      9.2406      8.0535      6.9068      5.9789      5.2831      4.8213      4.5585      4.4204      4.3582    
  4.3801      4.5157      4.7535      5.0456      5.3956      5.9487      6.9079      8.2418      9.5401      10.256    
  11.411      10.730      9.5140      8.1576      6.9287      5.9670      5.2831      4.8716      4.6780      4.6239    
  4.7010      4.9405      5.3004      5.6670      5.9487      6.2918      7.0625      8.4303      10.035      11.189    
  11.794      11.401      10.511      9.3827      8.1331      6.9287      5.9789      5.3460      5.0261      4.9433    
  5.0618      5.4191      5.9706      6.5523      6.9079      7.0625      7.4721      8.5447      10.077      11.351    
  11.901      11.514      10.905      10.267      9.3827      8.1576      6.9068      5.9903      5.4675      5.2975    
  5.4138      5.8552      6.6218      7.5629      8.2418      8.4303      8.5447      9.2172      10.465      11.576    
  12.661      11.975      11.250      10.905      10.511      9.5140      8.0535      6.7648      5.9783      5.6528    
  5.7062      6.1540      7.0588      8.3656      9.5401      10.035      10.077      10.465      11.508      12.522    
  13.945      13.070      11.975      11.514      11.401      10.730      9.2406      7.6044      6.4981      5.9661    
  5.8983      6.2634      7.1554      8.6434      10.256      11.189      11.351      11.576      12.522      13.679    
  13.945      13.679      12.522      11.576      11.351      11.189      10.256      8.6434      7.1554      6.2634    
  5.8983      5.9661      6.4981      7.6044      9.2406      10.730      11.401      11.514      11.975      13.070    
  13.679      13.920      13.036      11.951      11.505      11.400      10.727      9.2386      7.6070      6.5036    
  5.9678      5.8940      6.2589      7.1565      8.6481      10.259      11.193      11.362      11.598      12.542    
  12.522      13.036      12.512      11.492      10.870      10.727      10.328      9.1922      7.7044      6.5430    
  5.9005      5.7067      5.9003      6.5430      7.7045      9.1922      10.329      10.732      10.882      11.507    
  11.576      11.951      11.492      10.471      9.6602      9.3819      9.1705      8.4704      7.3546      6.3367    
  5.6936      5.4343      5.4979      5.9089      6.7281      7.9326      9.1582      9.9515      10.369      10.871    
  11.351      11.505      10.870      9.6602      8.5488      7.9858      7.7604      7.3700      6.6619      5.9119    
  5.3704      5.1138      5.1068      5.3420      5.8962      6.7817      7.9198      9.0354      9.9500      10.724    
  11.189      11.400      10.727      9.3819      7.9858      7.0652      6.6283      6.3118      5.8696      5.3748    
  4.9836      4.7849      4.7630      4.8957      5.2450      5.8756      6.7808      7.9224      9.1599      10.327    
  10.256      10.727      10.328      9.1705      7.7604      6.6283      5.9494      5.5422      5.1900      4.8558    
  4.6022      4.4834      4.4839      4.5771      4.7949      5.2147      5.8784      6.7856      7.9344      9.1906    
  8.6434      9.2386      9.1922      8.4704      7.3700      6.3118      5.5422      5.0443      4.6986      4.4440    
  4.2863      4.2353      4.2694      4.3618      4.5208      4.7964      5.2474      5.8972      6.7259      7.6996    
  7.1554      7.6070      7.7044      7.3546      6.6619      5.8696      5.1900      4.6986      4.3705      4.1663    
  4.0649      4.0527      4.1096      4.2139      4.3623      4.5777      4.8953      5.3393      5.9044      6.5389    
  6.2634      6.5036      6.5430      6.3367      5.9119      5.3748      4.8558      4.4440      4.1663      4.0056    
  3.9351      3.9364      3.9976      4.1096      4.2692      4.4829      4.7609      5.1043      5.4966      5.9019    
  5.8983      5.9678      5.9005      5.6936      5.3704      4.9836      4.6022      4.2863      4.0649      3.9351    
  3.8785      3.8801      3.9363      4.0523      4.2345      4.4824      4.7843      5.1149      5.4377      5.7115    
  5.9661      5.8940      5.7067      5.4343      5.1138      4.7849      4.4834      4.2353      4.0527      3.9364    
  3.8801      3.8784      3.9348      4.0645      4.2860      4.6028      4.9855      5.3737      5.6969      5.9019    
  6.4981      6.2589      5.9003      5.4979      5.1068      4.7630      4.4839      4.2694      4.1096      3.9976    
  3.9363      3.9348      4.0054      4.1665      4.4450      4.8577      5.3771      5.9132      6.3356      6.5389    
  7.6044      7.1565      6.5430      5.9089      5.3420      4.8957      4.5771      4.3618      4.2139      4.1096    
  4.0523      4.0645      4.1665      4.3717      4.7004      5.1915      5.8697      6.6597      7.3501      7.6996    
  9.2406      8.6481      7.7045      6.7281      5.8962      5.2450      4.7949      4.5208      4.3623      4.2692    
  4.2345      4.2860      4.4450      4.7004      5.0456      5.5418      6.3094      7.3661      8.4665      9.1906    
  10.730      10.259      9.1922      7.9326      6.7817      5.8756      5.2147      4.7964      4.5777      4.4829    
  4.4824      4.6028      4.8577      5.1915      5.5418      5.9471      6.6247      7.7565      9.1676      10.327    
  11.401      11.193      10.329      9.1582      7.9198      6.7808      5.8784      5.2474      4.8953      4.7609    
  4.7843      4.9855      5.3771      5.8697      6.3094      6.6247      7.0611      7.9810      9.3771      10.724    
  11.514      11.362      10.732      9.9515      9.0354      7.9224      6.7856      5.8972      5.3393      5.1043    
  5.1149      5.3737      5.9132      6.6597      7.3661      7.7565      7.9810      8.5420      9.6546      10.871    
  11.975      11.598      10.882      10.369      9.9500      9.1599      7.9344      6.7259      5.9044      5.4966    
  5.4377      5.6969      6.3356      7.3501      8.4665      9.1676      9.3771      9.6546      10.472      11.507    
  13.070      12.542      11.507      10.871      10.724      10.327      9.1906      7.6996      6.5389      5.9019    
  5.7115      5.9019      6.5389      7.6996      9.1906      10.327      10.724      10.871      11.507      12.542    
  12.661      12.522      11.508      10.465      10.077      10.035      9.5401      8.3656      7.0588      6.1540    
  5.7062      5.6528      5.9783      6.7648      8.0535      9.5140      10.511      10.905      11.250      11.975    
  12.522      13.036      12.512      11.492      10.870      10.727      10.328      9.1922      7.7044      6.5430    
  5.9005      5.7067      5.9003      6.5430      7.7045      9.1922      10.329      10.732      10.882      11.507    
  11.508      12.512      12.644      11.958      11.239      10.902      10.513      9.5154      8.0541      6.7650    
  5.9785      5.6529      5.7061      6.1541      7.0591      8.3660      9.5415      10.040      10.084      10.472    
  10.465      11.492      11.958      11.585      10.877      10.371      9.9542      9.1627      7.9355      6.7262    
  5.9047      5.4966      5.4375      5.6970      6.3358      7.3503      8.4671      9.1695      9.3797      9.6546    
  10.077      10.870      11.239      10.877      10.087      9.3864      8.8834      8.2699      7.3672      6.4015    
  5.6700      5.2549      5.1338      5.2549      5.6700      6.4013      7.3662      8.2669      8.8772      9.3771    
  10.035      10.727      10.902      10.371      9.3864      8.4371      7.7623      7.2086      6.5670      5.8780    
  5.3108      4.9585      4.8305      4.8767      5.1223      5.6331      6.3891      7.3184      8.2666      9.1676    
  9.5401      10.328      10.513      9.9542      8.8834      7.7623      6.9096      6.3095      5.7946      5.3070    
  4.9032      4.6497      4.5562      4.5814      4.7264      5.0551      5.6146      6.3892      7.3663      8.4665    
  8.3656      9.1922      9.5154      9.1627      8.2699      7.2086      6.3095      5.6638      5.1890      4.8125    
  4.5307      4.3718      4.3288      4.3657      4.4697      4.6786      5.0551      5.6331      6.4013      7.3501    
  7.0588      7.7044      8.0541      7.9355      7.3672      6.5670      5.7946      5.1890      4.7527      4.4447    
  4.2473      4.1561      4.1539      4.2115      4.3117      4.4697      4.7263      5.1222      5.6698      6.3356    
  6.1540      6.5430      6.7650      6.7262      6.4015      5.8780      5.3070      4.8125      4.4447      4.2026    
  4.0651      4.0133      4.0311      4.1011      4.2115      4.3657      4.5814      4.8766      5.2549      5.6969    
  5.7062      5.9005      5.9785      5.9047      5.6700      5.3108      4.9032      4.5307      4.2473      4.0651    
  3.9681      3.9364      3.9586      4.0311      4.1540      4.3288      4.5563      4.8306      5.1339      5.4377    
  5.6528      5.7067      5.6529      5.4966      5.2549      4.9585      4.6497      4.3718      4.1561      4.0133    
  3.9364      3.9128      3.9364      4.0133      4.1561      4.3719      4.6497      4.9585      5.2549      5.4966    
  5.9783      5.9003      5.7061      5.4375      5.1338      4.8305      4.5562      4.3288      4.1539      4.0311    
  3.9586      3.9364      3.9680      4.0650      4.2474      4.5308      4.9034      5.3108      5.6698      5.9044    
  6.7648      6.5430      6.1541      5.6970      5.2549      4.8767      4.5814      4.3657      4.2115      4.1011    
  4.0311      4.0133      4.0650      4.2026      4.4451      4.8131      5.3075      5.8781      6.4013      6.7259    
  8.0535      7.7045      7.0591      6.3358      5.6700      5.1223      4.7264      4.4697      4.3117      4.2115    
  4.1540      4.1561      4.2474      4.4451      4.7536      5.1901      5.7953      6.5668      7.3663      7.9344    
  9.5140      9.1922      8.3660      7.3503      6.4013      5.6331      5.0551      4.6786      4.4697      4.3657    
  4.3288      4.3719      4.5308      4.8131      5.1901      5.6648      6.3092      7.2065      8.2666      9.1599    
  10.511      10.329      9.5415      8.4671      7.3662      6.3891      5.6146      5.0551      4.7263      4.5814    
  4.5563      4.6497      4.9034      5.3075      5.7953      6.3092      6.9068      7.7569      8.8772      9.9500    
  10.905      10.732      10.040      9.1695      8.2669      7.3184      6.3892      5.6331      5.1222      4.8766    
  4.8306      4.9585      5.3108      5.8781      6.5668      7.2065      7.7569      8.4293      9.3797      10.369    
  11.250      10.882      10.084      9.3797      8.8772      8.2666      7.3663      6.4013      5.6698      5.2549    
  5.1339      5.2549      5.6698      6.4013      7.3663      8.2666      8.8772      9.3797      10.084      10.882    
  11.975      11.507      10.472      9.6546      9.3771      9.1676      8.4665      7.3501      6.3356      5.6969    
  5.4377      5.4966      5.9044      6.7259      7.9344      9.1599      9.9500      10.369      10.882      11.598    
  11.901      11.576      10.465      9.2172      8.5447      8.4303      8.2418      7.5629      6.6218      5.8552    
  5.4138      5.2975      5.4675      5.9903      6.9068      8.1576      9.3827      10.267      10.905      11.514    
  11.576      11.951      11.492      10.471      9.6602      9.3819      9.1705      8.4704      7.3546      6.3367    
  5.6936      5.4343      5.4979      5.9089      6.7281      7.9326      9.1582      9.9515      10.369      10.871    
  10.465      11.492      11.958      11.585      10.877      10.371      9.9542      9.1627      7.9355      6.7262    
  5.9047      5.4966      5.4375      5.6970      6.3358      7.3503      8.4671      9.1695      9.3797      9.6546    
  9.2172      10.471      11.585      11.909      11.517      10.908      10.271      9.3871      8.1580      6.9031    
  5.9871      5.4687      5.3011      5.4149      5.8522      6.6180      7.5619      8.2424      8.4293      8.5420    
  8.5447      9.6602      10.877      11.517      11.365      10.736      9.9570      9.0381      7.9201      6.7814    
  5.8960      5.3419      5.1068      5.1138      5.3703      5.9116      6.6612      7.3682      7.7569      7.9810    
  8.4303      9.3819      10.371      10.908      10.736      10.046      9.1735      8.2661      7.3141      6.3859    
  5.6337      5.1247      4.8774      4.8286      4.9566      5.3116      5.8810      6.5688      7.2065      7.7565    
  8.2418      9.1705      9.9542      10.271      9.9570      9.1735      8.2423      7.3641      6.5641      5.8458    
  5.2604      4.8500      4.6397      4.5813      4.6399      4.8502      5.2609      5.8475      6.5668      7.3661    
  7.5629      8.4704      9.1627      9.3871      9.0381      8.2661      7.3641      6.5465      5.8665      5.3076    
  4.8671      4.5684      4.4202      4.3829      4.4196      4.5437      4.8100      5.2589      5.8781      6.6597    
  6.6218      7.3546      7.9355      8.1580      7.9201      7.3141      6.5641      5.8665      5.2985      4.8571    
  4.5308      4.3281      4.2398      4.2331      4.2760      4.3674      4.5424      4.8483      5.3108      5.9132    
  5.8552      6.3367      6.7262      6.9031      6.7814      6.3859      5.8458      5.3076      4.8571      4.5172    
  4.2867      4.1559      4.1098      4.1262      4.1834      4.2757      4.4190      4.6401      4.9585      5.3737    
  5.4138      5.6936      5.9047      5.9871      5.8960      5.6337      5.2604      4.8671      4.5308      4.2867    
  4.1328      4.0525      4.0310      4.0580      4.1263      4.2334      4.3836      4.5829      4.8306      5.1149    
  5.2975      5.4343      5.4966      5.4687      5.3419      5.1247      4.8500      4.5684      4.3281      4.1559    
  4.0525      4.0039      3.9976      4.0312      4.1102      4.2404      4.4209      4.6401      4.8766      5.1043    
  5.4675      5.4979      5.4375      5.3011      5.1068      4.8774      4.6397      4.4202      4.2398      4.1098    
  4.0310      3.9976      4.0041      4.0527      4.1560      4.3279      4.5676      4.8483      5.1222      5.3393    
  5.9903      5.9089      5.6970      5.4149      5.1138      4.8286      4.5813      4.3829      4.2331      4.1262    
  4.0580      4.0312      4.0527      4.1326      4.2860      4.5295      4.8655      5.2589      5.6331      5.8972    
  6.9068      6.7281      6.3358      5.8522      5.3703      4.9566      4.6399      4.4196      4.2760      4.1834    
  4.1263      4.1102      4.1560      4.2860      4.5158      4.8559      5.3076      5.8475      6.3892      6.7856    
  8.1576      7.9326      7.3503      6.6180      5.9116      5.3116      4.8502      4.5437      4.3674      4.2757    
  4.2334      4.2404      4.3279      4.5295      4.8559      5.2991      5.8696      6.5688      7.3184      7.9224    
  9.3827      9.1582      8.4671      7.5619      6.6612      5.8810      5.2609      4.8100      4.5424      4.4190    
  4.3836      4.4209      4.5676      4.8655      5.3076      5.8696      6.5517      7.3682      8.2669      9.0354    
  10.267      9.9515      9.1695      8.2424      7.3682      6.5688      5.8475      5.2589      4.8483      4.6401    
  4.5829      4.6401      4.8483      5.2589      5.8475      6.5688      7.3682      8.2424      9.1695      9.9515    
  10.905      10.369      9.3797      8.4293      7.7569      7.2065      6.5668      5.8781      5.3108      4.9585    
  4.8306      4.8766      5.1222      5.6331      6.3892      7.3184      8.2669      9.1695      10.040      10.732    
  11.514      10.871      9.6546      8.5420      7.9810      7.7565      7.3661      6.6597      5.9132      5.3737    
  5.1149      5.1043      5.3393      5.8972      6.7856      7.9224      9.0354      9.9515      10.732      11.362    
  11.794      11.351      10.077      8.5447      7.4721      7.0625      6.9079      6.5523      5.9706      5.4191    
  5.0618      4.9433      5.0261      5.3460      5.9789      6.9287      8.1331      9.3827      10.511      11.401    
  11.351      11.505      10.870      9.6602      8.5488      7.9858      7.7604      7.3700      6.6619      5.9119    
  5.3704      5.1138      5.1068      5.3420      5.8962      6.7817      7.9198      9.0354      9.9500      10.724    
  10.077      10.870      11.239      10.877      10.087      9.3864      8.8834      8.2699      7.3672      6.4015    
  5.6700      5.2549      5.1338      5.2549      5.6700      6.4013      7.3662      8.2669      8.8772      9.3771    
  8.5447      9.6602      10.877      11.517      11.365      10.736      9.9570      9.0381      7.9201      6.7814    
  5.8960      5.3419      5.1068      5.1138      5.3703      5.9116      6.6612      7.3682      7.7569      7.9810    
  7.4721      8.5488      10.087      11.365      11.808      11.412      10.516      9.3826      8.1312      6.9272    
  5.9781      5.3456      5.0260      4.9433      5.0618      5.4190      5.9703      6.5517      6.9068      7.0611    
  7.0625      7.9858      9.3864      10.736      11.412      11.198      10.328      9.1541      7.9155      6.7781    
  5.8772      5.2470      4.8951      4.7609      4.7843      4.9855      5.3770      5.8696      6.3092      6.6247    
  6.9079      7.7604      8.8834      9.9570      10.516      10.328      9.5364      8.4602      7.3607      6.3862    
  5.6136      5.0549      4.7263      4.5814      4.5563      4.6497      4.9033      5.3076      5.7953      6.3094    
  6.5523      7.3700      8.2699      9.0381      9.3826      9.1541      8.4602      7.5550      6.6567      5.8792    
  5.2609      4.8102      4.5425      4.4191      4.3837      4.4210      4.5676      4.8655      5.3075      5.8697    
  5.9706      6.6619      7.3672      7.9201      8.1312      7.9155      7.3607      6.6567      5.9682      5.3770    
  4.9041      4.5682      4.3726      4.2854      4.2631      4.2854      4.3724      4.5676      4.9034      5.3771    
  5.4191      5.9119      6.4015      6.7814      6.9272      6.7781      6.3862      5.8792      5.3770      4.9425    
  4.6034      4.3713      4.2399      4.1871      4.1846      4.2151      4.2853      4.4209      4.6497      4.9855    
  5.0618      5.3704      5.6700      5.8960      5.9781      5.8772      5.6136      5.2609      4.9041      4.6034    
  4.3810      4.2347      4.1538      4.1261      4.1392      4.1846      4.2630      4.3836      4.5563      4.7843    
  4.9433      5.1138      5.2549      5.3419      5.3456      5.2470      5.0549      4.8102      4.5682      4.3713    
  4.2347      4.1516      4.1094      4.1011      4.1262      4.1871      4.2853      4.4190      4.5814      4.7609    
  5.0261      5.1068      5.1338      5.1068      5.0260      4.8951      4.7263      4.5425      4.3726      4.2399    
  4.1538      4.1094      4.0963      4.1095      4.1538      4.2397      4.3724      4.5424      4.7263      4.8953    
  5.3460      5.3420      5.2549      5.1138      4.9433      4.7609      4.5814      4.4191      4.2854      4.1871    
  4.1261      4.1011      4.1095      4.1515      4.2343      4.3707      4.5676      4.8100      5.0551      5.2474    
  5.9789      5.8962      5.6700      5.3703      5.0618      4.7843      4.5563      4.3837      4.2631      4.1846    
  4.1392      4.1262      4.1538      4.2343      4.3801      4.6022      4.9033      5.2609      5.6146      5.8784    
  6.9287      6.7817      6.4013      5.9116      5.4190      4.9855      4.6497      4.4210      4.2854      4.2151    
  4.1846      4.1871      4.2397      4.3707      4.6022      4.9414      5.3770      5.8810      6.3891      6.7808    
  8.1331      7.9198      7.3662      6.6612      5.9703      5.3770      4.9033      4.5676      4.3724      4.2853    
  4.2630      4.2853      4.3724      4.5676      4.9033      5.3770      5.9703      6.6612      7.3662      7.9198    
  9.3827      9.0354      8.2669      7.3682      6.5517      5.8696      5.3076      4.8655      4.5676      4.4209    
  4.3836      4.4190      4.5424      4.8100      5.2609      5.8810      6.6612      7.5619      8.4671      9.1582    
  10.511      9.9500      8.8772      7.7569      6.9068      6.3092      5.7953      5.3075      4.9034      4.6497    
  4.5563      4.5814      4.7263      5.0551      5.6146      6.3891      7.3662      8.4671      9.5415      10.329    
  11.401      10.724      9.3771      7.9810      7.0611      6.6247      6.3094      5.8697      5.3771      4.9855    
  4.7843      4.7609      4.8953      5.2474      5.8784      6.7808      7.9198      9.1582      10.329      11.193    
  11.411      11.189      10.035      8.4303      7.0625      6.2918      5.9487      5.6670      5.3004      4.9405    
  4.7010      4.6239      4.6780      4.8716      5.2831      5.9670      6.9287      8.1576      9.5140      10.730    
  11.189      11.400      10.727      9.3819      7.9858      7.0652      6.6283      6.3118      5.8696      5.3748    
  4.9836      4.7849      4.7630      4.8957      5.2450      5.8756      6.7808      7.9224      9.1599      10.327    
  10.035      10.727      10.902      10.371      9.3864      8.4371      7.7623      7.2086      6.5670      5.8780    
  5.3108      4.9585      4.8305      4.8767      5.1223      5.6331      6.3891      7.3184      8.2666      9.1676    
  8.4303      9.3819      10.371      10.908      10.736      10.046      9.1735      8.2661      7.3141      6.3859    
  5.6337      5.1247      4.8774      4.8286      4.9566      5.3116      5.8810      6.5688      7.2065      7.7565    
  7.0625      7.9858      9.3864      10.736      11.412      11.198      10.328      9.1541      7.9155      6.7781    
  5.8772      5.2470      4.8951      4.7609      4.7843      4.9855      5.3770      5.8696      6.3092      6.6247    
  6.2918      7.0652      8.4371      10.046      11.198      11.413      10.723      9.5031      8.1498      6.9273    
  5.9691      5.2842      4.8703      4.6765      4.6245      4.7030      4.9414      5.2991      5.6648      5.9471    
  5.9487      6.6283      7.7623      9.1735      10.328      10.723      10.246      9.1803      7.9271      6.7825    
  5.8781      5.2150      4.7951      4.5772      4.4841      4.4835      4.6022      4.8559      5.1901      5.5418    
  5.6670      6.3118      7.2086      8.2661      9.1541      9.5031      9.1803      8.3587      7.3497      6.4045    
  5.6357      5.0552      4.6777      4.4697      4.3666      4.3290      4.3707      4.5295      4.8131      5.1915    
  5.3004      5.8696      6.5670      7.3141      7.9155      8.1498      7.9271      7.3497      6.6214      5.9158    
  5.3137      4.8501      4.5431      4.3676      4.2761      4.2332      4.2397      4.3279      4.5308      4.8577    
  4.9405      5.3748      5.8780      6.3859      6.7781      6.9273      6.7825      6.4045      5.9158      5.4220    
  4.9864      4.6493      4.4205      4.2855      4.2153      4.1845      4.1871      4.2404      4.3719      4.6028    
  4.7010      4.9836      5.3108      5.6337      5.8772      5.9691      5.8781      5.6357      5.3137      4.9864    
  4.7027      4.4828      4.3286      4.2332      4.1846      4.1701      4.1846      4.2334      4.3288      4.4824    
  4.6239      4.7849      4.9585      5.1247      5.2470      5.2842      5.2150      5.0552      4.8501      4.6493    
  4.4828      4.3577      4.2690      4.2114      4.1833      4.1845      4.2151      4.2757      4.3657      4.4829    
  4.6780      4.7630      4.8305      4.8774      4.8951      4.8703      4.7951      4.6777      4.5431      4.4205    
  4.3286      4.2690      4.2332      4.2138      4.2114      4.2332      4.2854      4.3674      4.4697      4.5777    
  4.8716      4.8957      4.8767      4.8286      4.7609      4.6765      4.5772      4.4697      4.3676      4.2855    
  4.2332      4.2114      4.2138      4.2332      4.2692      4.3290      4.4210      4.5437      4.6786      4.7964    
  5.2831      5.2450      5.1223      4.9566      4.7843      4.6245      4.4841      4.3666      4.2761      4.2153    
  4.1846      4.1833      4.2114      4.2692      4.3583      4.4835      4.6497      4.8502      5.0551      5.2147    
  5.9670      5.8756      5.6331      5.3116      4.9855      4.7030      4.4835      4.3290      4.2332      4.1845    
  4.1701      4.1845      4.2332      4.3290      4.4835      4.7030      4.9855      5.3116      5.6331      5.8756    
  6.9287      6.7808      6.3891      5.8810      5.3770      4.9414      4.6022      4.3707      4.2397      4.1871    
  4.1846      4.2151      4.2854      4.4210      4.6497      4.9855      5.4190      5.9116      6.4013      6.7817    
  8.1576      7.9224      7.3184      6.5688      5.8696      5.2991      4.8559      4.5295      4.3279      4.2404    
  4.2334      4.2757      4.3674      4.5437      4.8502      5.3116      5.9116      6.6180      7.3503      7.9326    
  9.5140      9.1599      8.2666      7.2065      6.3092      5.6648      5.1901      4.8131      4.5308      4.3719    
  4.3288      4.3657      4.4697      4.6786      5.0551      5.6331      6.4013      7.3503      8.3660      9.1922    
  10.730      10.327      9.1676      7.7565      6.6247      5.9471      5.5418      5.1915      4.8577      4.6028    
  4.4824      4.4829      4.5777      4.7964      5.2147      5.8756      6.7817      7.9326      9.1922      10.259    
  10.107      10.256      9.5401      8.2418      6.9079      5.9487      5.3956      5.0456      4.7535      4.5157    
  4.3801      4.3582      4.4204      4.5585      4.8213      5.2831      5.9789      6.9068      8.0535      9.2406    
  10.256      10.727      10.328      9.1705      7.7604      6.6283      5.9494      5.5422      5.1900      4.8558    
  4.6022      4.4834      4.4839      4.5771      4.7949      5.2147      5.8784      6.7856      7.9344      9.1906    
  9.5401      10.328      10.513      9.9542      8.8834      7.7623      6.9096      6.3095      5.7946      5.3070    