BCC W                                   
   3.25000000000000     
    -0.500000    0.500000    0.500000
     0.500000   -0.500000    0.500000
     0.500000    0.500000   -0.500000
   W 
     1
Direct
  0.000000  0.000000  0.000000
 
   20   20   20
 0.14602037679E+02 0.13944570104E+02 0.12661466931E+02 0.11901389216E+02 0.11793501080E+02
 0.11411322082E+02 0.10106554157E+02 0.83245754289E+01 0.69297151074E+01 0.61871731428E+01
 0.59650793141E+01 0.61871731428E+01 0.69297151074E+01 0.83245754289E+01 0.10106554157E+02
 0.11411322082E+02 0.11793501080E+02 0.11901389216E+02 0.12661466931E+02 0.13944570104E+02
 0.13944570104E+02 0.13678539533E+02 0.12522129183E+02 0.11575764372E+02 0.11350527360E+02
 0.11189034162E+02 0.10255547315E+02 0.86433632703E+01 0.71553804514E+01 0.62634190181E+01
 0.58983156337E+01 0.59661042462E+01 0.64981269092E+01 0.76044020104E+01 0.92405590105E+01
 0.10729611301E+02 0.11401322247E+02 0.11514085522E+02 0.11975445810E+02 0.13069990904E+02
 0.12661466931E+02 0.12522129183E+02 0.11508146390E+02 0.10465157917E+02 0.10076824319E+02
 0.10035389951E+02 0.95400771088E+01 0.83656301999E+01 0.70587875714E+01 0.61539666839E+01
 0.57062473805E+01 0.56528354622E+01 0.59782845821E+01 0.67647675392E+01 0.80535313678E+01
 0.95140014893E+01 0.10511451117E+02 0.10905079835E+02 0.11249753596E+02 0.11975445810E+02
 0.11901389216E+02 0.11575764372E+02 0.10465157917E+02 0.92171921190E+01 0.85446523575E+01
 0.84303060117E+01 0.82417580063E+01 0.75628522724E+01 0.66217832540E+01 0.58552377448E+01
 0.54138229300E+01 0.52974501700E+01 0.54675374541E+01 0.59903428255E+01 0.69068268351E+01
 0.81576401419E+01 0.93826707754E+01 0.10266720363E+02 0.10905079835E+02 0.11514085522E+02
 0.11793501080E+02 0.11350527360E+02 0.10076824319E+02 0.85446523575E+01 0.74721262493E+01
 0.70624991785E+01 0.69079418532E+01 0.65523154510E+01 0.59705603144E+01 0.54190964313E+01
 0.50618039582E+01 0.49433447383E+01 0.50261247515E+01 0.53459535128E+01 0.59789027867E+01
 0.69287020814E+01 0.81330515556E+01 0.93826707754E+01 0.10511451117E+02 0.11401322247E+02
 0.11411322082E+02 0.11189034162E+02 0.10035389951E+02 0.84303060117E+01 0.70624991785E+01
 0.62917579861E+01 0.59486509208E+01 0.56670026691E+01 0.53003700666E+01 0.49404868685E+01
 0.47009799342E+01 0.46238571371E+01 0.46779869530E+01 0.48716486761E+01 0.52831240216E+01
 0.59669777180E+01 0.69287020814E+01 0.81576401419E+01 0.95140014893E+01 0.10729611301E+02
 0.10106554157E+02 0.10255547315E+02 0.95400771088E+01 0.82417580063E+01 0.69079418532E+01
 0.59486509208E+01 0.53956204885E+01 0.50456477768E+01 0.47534676093E+01 0.45157134579E+01
 0.43801387045E+01 0.43581680989E+01 0.44203870151E+01 0.45585331417E+01 0.48212534271E+01
 0.52831240216E+01 0.59789027867E+01 0.69068268351E+01 0.80535313678E+01 0.92405590105E+01
 0.83245754289E+01 0.86433632703E+01 0.83656301999E+01 0.75628522724E+01 0.65523154510E+01
 0.56670026691E+01 0.50456477768E+01 0.46411080973E+01 0.43707219238E+01 0.42015610389E+01
 0.41323302277E+01 0.41519603335E+01 0.42334887635E+01 0.43620022241E+01 0.45585331417E+01
 0.48716486761E+01 0.53459535128E+01 0.59903428255E+01 0.67647675392E+01 0.76044020104E+01
 0.69297151074E+01 0.71553804514E+01 0.70587875714E+01 0.66217832540E+01 0.59705603144E+01
 0.53003700666E+01 0.47534676093E+01 0.43707219238E+01 0.41321043233E+01 0.40051997170E+01
 0.39677852347E+01 0.40039962474E+01 0.40965083945E+01 0.42334887635E+01 0.44203870151E+01
 0.46779869530E+01 0.50261247515E+01 0.54675374541E+01 0.59782845821E+01 0.64981269092E+01
 0.61871731428E+01 0.62634190181E+01 0.61539666839E+01 0.58552377448E+01 0.54190964313E+01
 0.49404868685E+01 0.45157134579E+01 0.42015610389E+01 0.40051997170E+01 0.39051545763E+01
 0.38784197540E+01 0.39126826003E+01 0.40039962474E+01 0.41519603335E+01 0.43581680989E+01
 0.46238571371E+01 0.49433447383E+01 0.52974501700E+01 0.56528354622E+01 0.59661042462E+01
 0.59650793141E+01 0.58983156337E+01 0.57062473805E+01 0.54138229300E+01 0.50618039582E+01
 0.47009799342E+01 0.43801387045E+01 0.41323302277E+01 0.39677852347E+01 0.38784197540E+01
 0.38507070893E+01 0.38784197540E+01 0.39677852347E+01 0.41323302277E+01 0.43801387045E+01
 0.47009799342E+01 0.50618039582E+01 0.54138229300E+01 0.57062473805E+01 0.58983156337E+01
 0.61871731428E+01 0.59661042462E+01 0.56528354622E+01 0.52974501700E+01 0.49433447383E+01
 0.46238571371E+01 0.43581680989E+01 0.41519603335E+01 0.40039962474E+01 0.39126826003E+01
 0.38784197540E+01 0.39051545763E+01 0.40051997170E+01 0.42015610389E+01 0.45157134579E+01
 0.49404868685E+01 0.54190964313E+01 0.58552377448E+01 0.61539666839E+01 0.62634190181E+01
 0.69297151074E+01 0.64981269092E+01 0.59782845821E+01 0.54675374541E+01 0.50261247515E+01
 0.46779869530E+01 0.44203870151E+01 0.42334887635E+01 0.40965083945E+01 0.40039962474E+01
 0.39677852347E+01 0.40051997170E+01 0.41321043233E+01 0.43707219238E+01 0.47534676093E+01
 0.53003700666E+01 0.59705603144E+01 0.66217832540E+01 0.70587875714E+01 0.71553804514E+01
 0.83245754289E+01 0.76044020104E+01 0.67647675392E+01 0.59903428255E+01 0.53459535128E+01
 0.48716486761E+01 0.45585331417E+01 0.43620022241E+01 0.42334887635E+01 0.41519603335E+01
 0.41323302277E+01 0.42015610389E+01 0.43707219238E+01 0.46411080973E+01 0.50456477768E+01
 0.56670026691E+01 0.65523154510E+01 0.75628522724E+01 0.83656301999E+01 0.86433632703E+01
 0.10106554157E+02 0.92405590105E+01 0.80535313678E+01 0.69068268351E+01 0.59789027867E+01
 0.52831240216E+01 0.48212534271E+01 0.45585331417E+01 0.44203870151E+01 0.43581680989E+01
 0.43801387045E+01 0.45157134579E+01 0.47534676093E+01 0.50456477768E+01 0.53956204885E+01
 0.59486509208E+01 0.69079418532E+01 0.82417580063E+01 0.95400771088E+01 0.10255547315E+02
 0.11411322082E+02 0.10729611301E+02 0.95140014893E+01 0.81576401419E+01 0.69287020814E+01
 0.59669777180E+01 0.52831240216E+01 0.48716486761E+01 0.46779869530E+01 0.46238571371E+01
 0.47009799342E+01 0.49404868685E+01 0.53003700666E+01 0.56670026691E+01 0.59486509208E+01
 0.62917579861E+01 0.70624991785E+01 0.84303060117E+01 0.10035389951E+02 0.11189034162E+02
 0.11793501080E+02 0.11401322247E+02 0.10511451117E+02 0.93826707754E+01 0.81330515556E+01
 0.69287020814E+01 0.59789027867E+01 0.53459535128E+01 0.50261247515E+01 0.49433447383E+01
 0.50618039582E+01 0.54190964313E+01 0.59705603144E+01 0.65523154510E+01 0.69079418532E+01
 0.70624991785E+01 0.74721262493E+01 0.85446523575E+01 0.10076824319E+02 0.11350527360E+02
 0.11901389216E+02 0.11514085522E+02 0.10905079835E+02 0.10266720363E+02 0.93826707754E+01
 0.81576401419E+01 0.69068268351E+01 0.59903428255E+01 0.54675374541E+01 0.52974501700E+01
 0.54138229300E+01 0.58552377448E+01 0.66217832540E+01 0.75628522724E+01 0.82417580063E+01
 0.84303060117E+01 0.85446523575E+01 0.92171921190E+01 0.10465157917E+02 0.11575764372E+02
 0.12661466931E+02 0.11975445810E+02 0.11249753596E+02 0.10905079835E+02 0.10511451117E+02
 0.95140014893E+01 0.80535313678E+01 0.67647675392E+01 0.59782845821E+01 0.56528354622E+01
 0.57062473805E+01 0.61539666839E+01 0.70587875714E+01 0.83656301999E+01 0.95400771088E+01
 0.10035389951E+02 0.10076824319E+02 0.10465157917E+02 0.11508146390E+02 0.12522129183E+02
 0.13944570104E+02 0.13069990904E+02 0.11975445810E+02 0.11514085522E+02 0.11401322247E+02
 0.10729611301E+02 0.92405590105E+01 0.76044020104E+01 0.64981269092E+01 0.59661042462E+01
 0.58983156337E+01 0.62634190181E+01 0.71553804514E+01 0.86433632703E+01 0.10255547315E+02
 0.11189034162E+02 0.11350527360E+02 0.11575764372E+02 0.12522129183E+02 0.13678539533E+02
 0.13944570104E+02 0.13678539533E+02 0.12522129183E+02 0.11575764372E+02 0.11350527360E+02
 0.11189034162E+02 0.10255547315E+02 0.86433632703E+01 0.71553804514E+01 0.62634190181E+01
 0.58983156337E+01 0.59661042462E+01 0.64981269092E+01 0.76044020104E+01 0.92405590105E+01
 0.10729611301E+02 0.11401322247E+02 0.11514085522E+02 0.11975445810E+02 0.13069990904E+02
 0.13678539533E+02 0.13920185393E+02 0.13035924737E+02 0.11950834172E+02 0.11504954156E+02
 0.11399739629E+02 0.10727425879E+02 0.92386091802E+01 0.76070336558E+01 0.65036496313E+01
 0.59678144587E+01 0.58940370434E+01 0.62589394776E+01 0.71564608685E+01 0.86481430266E+01
 0.10258897664E+02 0.11192587621E+02 0.11362465686E+02 0.11598100143E+02 0.12542193104E+02
 0.12522129183E+02 0.13035924737E+02 0.12511702543E+02 0.11492472774E+02 0.10870472326E+02
 0.10726632499E+02 0.10327806380E+02 0.91922178752E+01 0.77044066478E+01 0.65429665586E+01
 0.59004960578E+01 0.57066716428E+01 0.59003364628E+01 0.65429627208E+01 0.77044694540E+01
 0.91921631414E+01 0.10328910657E+02 0.10731901943E+02 0.10881780875E+02 0.11506966799E+02
 0.11575764372E+02 0.11950834172E+02 0.11492472774E+02 0.10470989664E+02 0.96602190374E+01
 0.93818978047E+01 0.91705483583E+01 0.84703629267E+01 0.73545557942E+01 0.63367230355E+01
 0.56936098079E+01 0.54343328659E+01 0.54978611956E+01 0.59088822221E+01 0.67280623659E+01
 0.79325733587E+01 0.91581510675E+01 0.99515180790E+01 0.10368978620E+02 0.10871446722E+02
 0.11350527360E+02 0.11504954156E+02 0.10870472326E+02 0.96602190374E+01 0.85488022544E+01
 0.79858338743E+01 0.77603711406E+01 0.73700205059E+01 0.66619126135E+01 0.59118731243E+01
 0.53704134937E+01 0.51138376616E+01 0.51068337107E+01 0.53419877742E+01 0.58961886702E+01
 0.67816701963E+01 0.79198404432E+01 0.90354461090E+01 0.99499653947E+01 0.10724320683E+02
 0.11189034162E+02 0.11399739629E+02 0.10726632499E+02 0.93818978047E+01 0.79858338743E+01
 0.70652221081E+01 0.66283300733E+01 0.63118081144E+01 0.58695656908E+01 0.53747637905E+01
 0.49835506480E+01 0.47848639977E+01 0.47630258636E+01 0.48957063774E+01 0.52450006140E+01
 0.58755958227E+01 0.67808291637E+01 0.79224272399E+01 0.91598514571E+01 0.10327211813E+02
 0.10255547315E+02 0.10727425879E+02 0.10327806380E+02 0.91705483583E+01 0.77603711406E+01
 0.66283300733E+01 0.59494433160E+01 0.55422000996E+01 0.51899804873E+01 0.48557739453E+01
 0.46022235952E+01 0.44834240685E+01 0.44839105411E+01 0.45770751353E+01 0.47948965509E+01
 0.52146629215E+01 0.58783780275E+01 0.67855502168E+01 0.79344210797E+01 0.91905835318E+01
 0.86433632703E+01 0.92386091802E+01 0.91922178752E+01 0.84703629267E+01 0.73700205059E+01
 0.63118081144E+01 0.55422000996E+01 0.50443303901E+01 0.46986389701E+01 0.44440381523E+01
 0.42862843498E+01 0.42352524133E+01 0.42694106790E+01 0.43618311282E+01 0.45208070759E+01
 0.47964142682E+01 0.52473964517E+01 0.58971991126E+01 0.67258542746E+01 0.76996039445E+01
 0.71553804514E+01 0.76070336558E+01 0.77044066478E+01 0.73545557942E+01 0.66619126135E+01
 0.58695656908E+01 0.51899804873E+01 0.46986389701E+01 0.43705474875E+01 0.41663426941E+01
 0.40648854132E+01 0.40527318821E+01 0.41096200095E+01 0.42139003620E+01 0.43622751361E+01
 0.45776989871E+01 0.48952552077E+01 0.53393038250E+01 0.59043985594E+01 0.65389298406E+01
 0.62634190181E+01 0.65036496313E+01 0.65429665586E+01 0.63367230355E+01 0.59118731243E+01
 0.53747637905E+01 0.48557739453E+01 0.44440381523E+01 0.41663426941E+01 0.40056085301E+01
 0.39351138016E+01 0.39364004300E+01 0.39976251195E+01 0.41095760559E+01 0.42691611972E+01
 0.44829254050E+01 0.47609491731E+01 0.51042994654E+01 0.54965675980E+01 0.59019031578E+01
 0.58983156337E+01 0.59678144587E+01 0.59004960578E+01 0.56936098079E+01 0.53704134937E+01
 0.49835506480E+01 0.46022235952E+01 0.42862843498E+01 0.40648854132E+01 0.39351138016E+01
 0.38785433634E+01 0.38800737698E+01 0.39362580154E+01 0.40523361890E+01 0.42344579199E+01
 0.44823665590E+01 0.47842874754E+01 0.51148877167E+01 0.54376513066E+01 0.57114949739E+01
 0.59661042462E+01 0.58940370434E+01 0.57066716428E+01 0.54343328659E+01 0.51138376616E+01
 0.47848639977E+01 0.44834240685E+01 0.42352524133E+01 0.40527318821E+01 0.39364004300E+01
 0.38800737698E+01 0.38784096614E+01 0.39348183052E+01 0.40644723569E+01 0.42860423949E+01
 0.46027701232E+01 0.49855066829E+01 0.53736821651E+01 0.56969135608E+01 0.59019031578E+01
 0.64981269092E+01 0.62589394776E+01 0.59003364628E+01 0.54978611956E+01 0.51068337107E+01
 0.47630258636E+01 0.44839105411E+01 0.42694106790E+01 0.41096200095E+01 0.39976251195E+01
 0.39362580154E+01 0.39348183052E+01 0.40053751455E+01 0.41665380902E+01 0.44450413152E+01
 0.48577099789E+01 0.53770886072E+01 0.59132274968E+01 0.63355907543E+01 0.65389298406E+01
 0.76044020104E+01 0.71564608685E+01 0.65429627208E+01 0.59088822221E+01 0.53419877742E+01
 0.48957063774E+01 0.45770751353E+01 0.43618311282E+01 0.42139003620E+01 0.41095760559E+01
 0.40523361890E+01 0.40644723569E+01 0.41665380902E+01 0.43716698193E+01 0.47004012623E+01
 0.51915168659E+01 0.58696782512E+01 0.66596628948E+01 0.73501404267E+01 0.76996039445E+01
 0.92405590105E+01 0.86481430266E+01 0.77044694540E+01 0.67280623659E+01 0.58961886702E+01
 0.52450006140E+01 0.47948965509E+01 0.45208070759E+01 0.43622751361E+01 0.42691611972E+01
 0.42344579199E+01 0.42860423949E+01 0.44450413152E+01 0.47004012623E+01 0.50455981955E+01
 0.55418389761E+01 0.63093922287E+01 0.73660944729E+01 0.84665125145E+01 0.91905835318E+01
 0.10729611301E+02 0.10258897664E+02 0.91921631414E+01 0.79325733587E+01 0.67816701963E+01
 0.58755958227E+01 0.52146629215E+01 0.47964142682E+01 0.45776989871E+01 0.44829254050E+01
 0.44823665590E+01 0.46027701232E+01 0.48577099789E+01 0.51915168659E+01 0.55418389761E+01
 0.59470567903E+01 0.66247002584E+01 0.77564872041E+01 0.91676227918E+01 0.10327211813E+02
 0.11401322247E+02 0.11192587621E+02 0.10328910657E+02 0.91581510675E+01 0.79198404432E+01
 0.67808291637E+01 0.58783780275E+01 0.52473964517E+01 0.48952552077E+01 0.47609491731E+01
 0.47842874754E+01 0.49855066829E+01 0.53770886072E+01 0.58696782512E+01 0.63093922287E+01
 0.66247002584E+01 0.70610624736E+01 0.79809543575E+01 0.93771189937E+01 0.10724320683E+02
 0.11514085522E+02 0.11362465686E+02 0.10731901943E+02 0.99515180790E+01 0.90354461090E+01
 0.79224272399E+01 0.67855502168E+01 0.58971991126E+01 0.53393038250E+01 0.51042994654E+01
 0.51148877167E+01 0.53736821651E+01 0.59132274968E+01 0.66596628948E+01 0.73660944729E+01
 0.77564872041E+01 0.79809543575E+01 0.85419834284E+01 0.96545560524E+01 0.10871446722E+02
 0.11975445810E+02 0.11598100143E+02 0.10881780875E+02 0.10368978620E+02 0.99499653947E+01
 0.91598514571E+01 0.79344210797E+01 0.67258542746E+01 0.59043985594E+01 0.54965675980E+01
 0.54376513066E+01 0.56969135608E+01 0.63355907543E+01 0.73501404267E+01 0.84665125145E+01
 0.91676227918E+01 0.93771189937E+01 0.96545560524E+01 0.10472003892E+02 0.11506966799E+02
 0.13069990904E+02 0.12542193104E+02 0.11506966799E+02 0.10871446722E+02 0.10724320683E+02
 0.10327211813E+02 0.91905835318E+01 0.76996039445E+01 0.65389298406E+01 0.59019031578E+01
 0.57114949739E+01 0.59019031578E+01 0.65389298406E+01 0.76996039445E+01 0.91905835318E+01
 0.10327211813E+02 0.10724320683E+02 0.10871446722E+02 0.11506966799E+02 0.12542193104E+02
 0.12661466931E+02 0.12522129183E+02 0.11508146390E+02 0.10465157917E+02 0.10076824319E+02
 0.10035389951E+02 0.95400771088E+01 0.83656301999E+01 0.70587875714E+01 0.61539666839E+01
 0.57062473805E+01 0.56528354622E+01 0.59782845821E+01 0.67647675392E+01 0.80535313678E+01
 0.95140014893E+01 0.10511451117E+02 0.10905079835E+02 0.11249753596E+02 0.11975445810E+02
 0.12522129183E+02 0.13035924737E+02 0.12511702543E+02 0.11492472774E+02 0.10870472326E+02
 0.10726632499E+02 0.10327806380E+02 0.91922178752E+01 0.77044066478E+01 0.65429665586E+01
 0.59004960578E+01 0.57066716428E+01 0.59003364628E+01 0.65429627208E+01 0.77044694540E+01
 0.91921631414E+01 0.10328910657E+02 0.10731901943E+02 0.10881780875E+02 0.11506966799E+02
 0.11508146390E+02 0.12511702543E+02 0.12643644517E+02 0.11958022673E+02 0.11239192553E+02
 0.10902182851E+02 0.10512556331E+02 0.95153876861E+01 0.80540581401E+01 0.67649877789E+01
 0.59785292063E+01 0.56528862290E+01 0.57061392417E+01 0.61540581135E+01 0.70590934363E+01
 0.83660267919E+01 0.95414759064E+01 0.10039658318E+02 0.10084247449E+02 0.10472003892E+02
 0.10465157917E+02 0.11492472774E+02 0.11958022673E+02 0.11584966806E+02 0.10877084318E+02
 0.10371144634E+02 0.99542226567E+01 0.91626976665E+01 0.79354608093E+01 0.67262161298E+01
 0.59046746562E+01 0.54966280659E+01 0.54375427486E+01 0.56969728603E+01 0.63358232396E+01
 0.73503259498E+01 0.84670827758E+01 0.91694885837E+01 0.93797351863E+01 0.96545560524E+01
 0.10076824319E+02 0.10870472326E+02 0.11239192553E+02 0.10877084318E+02 0.10086835334E+02
 0.93864278303E+01 0.88833916482E+01 0.82698714203E+01 0.73672335280E+01 0.64015395931E+01
 0.56700217242E+01 0.52548799065E+01 0.51338295473E+01 0.52548695879E+01 0.56699561004E+01
 0.64012659940E+01 0.73662041392E+01 0.82669113355E+01 0.88772332783E+01 0.93771189937E+01
 0.10035389951E+02 0.10726632499E+02 0.10902182851E+02 0.10371144634E+02 0.93864278303E+01
 0.84370722243E+01 0.77623120233E+01 0.72085943733E+01 0.65669832192E+01 0.58779575676E+01
 0.53108309023E+01 0.49585041157E+01 0.48304544921E+01 0.48766548977E+01 0.51222554855E+01
 0.56330668237E+01 0.63890568536E+01 0.73183956798E+01 0.82666295300E+01 0.91676227918E+01
 0.95400771088E+01 0.10327806380E+02 0.10512556331E+02 0.99542226567E+01 0.88833916482E+01
 0.77623120233E+01 0.69095613346E+01 0.63095270263E+01 0.57946197766E+01 0.53070264424E+01
 0.49032237931E+01 0.46496622286E+01 0.45562399562E+01 0.45814492422E+01 0.47264386401E+01
 0.50550866563E+01 0.56145800780E+01 0.63891939506E+01 0.73662911064E+01 0.84665125145E+01
 0.83656301999E+01 0.91922178752E+01 0.95153876861E+01 0.91626976665E+01 0.82698714203E+01
 0.72085943733E+01 0.63095270263E+01 0.56638204178E+01 0.51890096746E+01 0.48124820004E+01
 0.45306585963E+01 0.43718038707E+01 0.43287629421E+01 0.43656813054E+01 0.44697378214E+01
 0.46786310490E+01 0.50550549485E+01 0.56331087912E+01 0.64013177689E+01 0.73501404267E+01
 0.70587875714E+01 0.77044066478E+01 0.80540581401E+01 0.79354608093E+01 0.73672335280E+01
 0.65669832192E+01 0.57946197766E+01 0.51890096746E+01 0.47527298794E+01 0.44447336411E+01
 0.42473422966E+01 0.41561338719E+01 0.41539222222E+01 0.42114566810E+01 0.43116892259E+01
 0.44696948390E+01 0.47263415514E+01 0.51221561950E+01 0.56698376590E+01 0.63355907543E+01
 0.61539666839E+01 0.65429665586E+01 0.67649877789E+01 0.67262161298E+01 0.64015395931E+01
 0.58779575676E+01 0.53070264424E+01 0.48124820004E+01 0.44447336411E+01 0.42025656808E+01
 0.40650878049E+01 0.40133185785E+01 0.40310749984E+01 0.41011057772E+01 0.42114825911E+01
 0.43656948491E+01 0.45814400664E+01 0.48766471740E+01 0.52548574685E+01 0.56969135608E+01
 0.57062473805E+01 0.59004960578E+01 0.59785292063E+01 0.59046746562E+01 0.56700217242E+01
 0.53108309023E+01 0.49032237931E+01 0.45306585963E+01 0.42473422966E+01 0.40650878049E+01
 0.39680935139E+01 0.39364182837E+01 0.39586018711E+01 0.40310939866E+01 0.41539736773E+01
 0.43288371989E+01 0.45563324348E+01 0.48305670468E+01 0.51339499425E+01 0.54376513066E+01
 0.56528354622E+01 0.57066716428E+01 0.56528862290E+01 0.54966280659E+01 0.52548799065E+01
 0.49585041157E+01 0.46496622286E+01 0.43718038707E+01 0.41561338719E+01 0.40133185785E+01
 0.39364182837E+01 0.39127573370E+01 0.39363981451E+01 0.40133016228E+01 0.41561474624E+01
 0.43718544001E+01 0.46497242968E+01 0.49585361234E+01 0.52548574685E+01 0.54965675980E+01
 0.59782845821E+01 0.59003364628E+01 0.57061392417E+01 0.54375427486E+01 0.51338295473E+01
 0.48304544921E+01 0.45562399562E+01 0.43287629421E+01 0.41539222222E+01 0.40310749984E+01
 0.39586018711E+01 0.39363981451E+01 0.39680370207E+01 0.40650432025E+01 0.42473845654E+01
 0.45307952309E+01 0.49033543343E+01 0.53108242182E+01 0.56698376590E+01 0.59043985594E+01
 0.67647675392E+01 0.65429627208E+01 0.61540581135E+01 0.56969728603E+01 0.52548695879E+01
 0.48766548977E+01 0.45814492422E+01 0.43656813054E+01 0.42114566810E+01 0.41011057772E+01
 0.40310939866E+01 0.40133016228E+01 0.40650432025E+01 0.42026363185E+01 0.44450772967E+01
 0.48130564720E+01 0.53075465138E+01 0.58781244908E+01 0.64013177689E+01 0.67258542746E+01
 0.80535313678E+01 0.77044694540E+01 0.70590934363E+01 0.63358232396E+01 0.56699561004E+01
 0.51222554855E+01 0.47264386401E+01 0.44697378214E+01 0.43116892259E+01 0.42114825911E+01
 0.41539736773E+01 0.41561474624E+01 0.42473845654E+01 0.44450772967E+01 0.47535773509E+01
 0.51901198212E+01 0.57953453031E+01 0.65668110047E+01 0.73662911064E+01 0.79344210797E+01
 0.95140014893E+01 0.91921631414E+01 0.83660267919E+01 0.73503259498E+01 0.64012659940E+01
 0.56330668237E+01 0.50550866563E+01 0.46786310490E+01 0.44696948390E+01 0.43656948491E+01
 0.43288371989E+01 0.43718544001E+01 0.45307952309E+01 0.48130564720E+01 0.51901198212E+01
 0.56648013679E+01 0.63092421102E+01 0.72064738432E+01 0.82666295300E+01 0.91598514571E+01
 0.10511451117E+02 0.10328910657E+02 0.95414759064E+01 0.84670827758E+01 0.73662041392E+01
 0.63890568536E+01 0.56145800780E+01 0.50550549485E+01 0.47263415514E+01 0.45814400664E+01
 0.45563324348E+01 0.46497242968E+01 0.49033543343E+01 0.53075465138E+01 0.57953453031E+01
 0.63092421102E+01 0.69067785188E+01 0.77568923918E+01 0.88772332783E+01 0.99499653947E+01
 0.10905079835E+02 0.10731901943E+02 0.10039658318E+02 0.91694885837E+01 0.82669113355E+01
 0.73183956798E+01 0.63891939506E+01 0.56331087912E+01 0.51221561950E+01 0.48766471740E+01
 0.48305670468E+01 0.49585361234E+01 0.53108242182E+01 0.58781244908E+01 0.65668110047E+01
 0.72064738432E+01 0.77568923918E+01 0.84292967028E+01 0.93797351863E+01 0.10368978620E+02
 0.11249753596E+02 0.10881780875E+02 0.10084247449E+02 0.93797351863E+01 0.88772332783E+01
 0.82666295300E+01 0.73662911064E+01 0.64013177689E+01 0.56698376590E+01 0.52548574685E+01
 0.51339499425E+01 0.52548574685E+01 0.56698376590E+01 0.64013177689E+01 0.73662911064E+01
 0.82666295300E+01 0.88772332783E+01 0.93797351863E+01 0.10084247449E+02 0.10881780875E+02
 0.11975445810E+02 0.11506966799E+02 0.10472003892E+02 0.96545560524E+01 0.93771189937E+01
 0.91676227918E+01 0.84665125145E+01 0.73501404267E+01 0.63355907543E+01 0.56969135608E+01
 0.54376513066E+01 0.54965675980E+01 0.59043985594E+01 0.67258542746E+01 0.79344210797E+01
 0.91598514571E+01 0.99499653947E+01 0.10368978620E+02 0.10881780875E+02 0.11598100143E+02
 0.11901389216E+02 0.11575764372E+02 0.10465157917E+02 0.92171921190E+01 0.85446523575E+01
 0.84303060117E+01 0.82417580063E+01 0.75628522724E+01 0.66217832540E+01 0.58552377448E+01
 0.54138229300E+01 0.52974501700E+01 0.54675374541E+01 0.59903428255E+01 0.69068268351E+01
 0.81576401419E+01 0.93826707754E+01 0.10266720363E+02 0.10905079835E+02 0.11514085522E+02
 0.11575764372E+02 0.11950834172E+02 0.11492472774E+02 0.10470989664E+02 0.96602190374E+01
 0.93818978047E+01 0.91705483583E+01 0.84703629267E+01 0.73545557942E+01 0.63367230355E+01
 0.56936098079E+01 0.54343328659E+01 0.54978611956E+01 0.59088822221E+01 0.67280623659E+01
 0.79325733587E+01 0.91581510675E+01 0.99515180790E+01 0.10368978620E+02 0.10871446722E+02
 0.10465157917E+02 0.11492472774E+02 0.11958022673E+02 0.11584966806E+02 0.10877084318E+02
 0.10371144634E+02 0.99542226567E+01 0.91626976665E+01 0.79354608093E+01 0.67262161298E+01
 0.59046746562E+01 0.54966280659E+01 0.54375427486E+01 0.56969728603E+01 0.63358232396E+01
 0.73503259498E+01 0.84670827758E+01 0.91694885837E+01 0.93797351863E+01 0.96545560524E+01
 0.92171921190E+01 0.10470989664E+02 0.11584966806E+02 0.11908621280E+02 0.11517467506E+02
 0.10907633843E+02 0.10271193107E+02 0.93871251265E+01 0.81580455371E+01 0.69030589396E+01
 0.59871188674E+01 0.54686797876E+01 0.53010800249E+01 0.54149456529E+01 0.58522143967E+01
 0.66180419497E+01 0.75618535024E+01 0.82424359372E+01 0.84292967028E+01 0.85419834284E+01
 0.85446523575E+01 0.96602190374E+01 0.10877084318E+02 0.11517467506E+02 0.11365066216E+02
 0.10736322570E+02 0.99570044810E+01 0.90380603998E+01 0.79201200422E+01 0.67813639186E+01
 0.58959681595E+01 0.53418766466E+01 0.51067750349E+01 0.51138117814E+01 0.53703465473E+01
 0.59116209928E+01 0.66611876926E+01 0.73682357447E+01 0.77568923918E+01 0.79809543575E+01
 0.84303060117E+01 0.93818978047E+01 0.10371144634E+02 0.10907633843E+02 0.10736322570E+02
 0.10045518423E+02 0.91734727283E+01 0.82661128713E+01 0.73140812973E+01 0.63858960878E+01
 0.56336690066E+01 0.51247375889E+01 0.48774161424E+01 0.48285578747E+01 0.49565687235E+01
 0.53116354649E+01 0.58809829996E+01 0.65688383265E+01 0.72064738432E+01 0.77564872041E+01
 0.82417580063E+01 0.91705483583E+01 0.99542226567E+01 0.10271193107E+02 0.99570044810E+01
 0.91734727283E+01 0.82422646070E+01 0.73640605193E+01 0.65641277476E+01 0.58458232903E+01
 0.52603843641E+01 0.48500484304E+01 0.46396999234E+01 0.45813003221E+01 0.46398563638E+01
 0.48502311663E+01 0.52609489251E+01 0.58475013878E+01 0.65668110047E+01 0.73660944729E+01
 0.75628522724E+01 0.84703629267E+01 0.91626976665E+01 0.93871251265E+01 0.90380603998E+01
 0.82661128713E+01 0.73640605193E+01 0.65465242574E+01 0.58664514774E+01 0.53075975342E+01
 0.48671159373E+01 0.45683587099E+01 0.44201967247E+01 0.43828554631E+01 0.44195529281E+01
 0.45436555362E+01 0.48099613775E+01 0.52588892263E+01 0.58781244908E+01 0.66596628948E+01
 0.66217832540E+01 0.73545557942E+01 0.79354608093E+01 0.81580455371E+01 0.79201200422E+01
 0.73140812973E+01 0.65641277476E+01 0.58664514774E+01 0.52985121826E+01 0.48571270141E+01
 0.45308404812E+01 0.43280621671E+01 0.42398214083E+01 0.42331461924E+01 0.42760080514E+01
 0.43673724967E+01 0.45424386818E+01 0.48483458410E+01 0.53108242182E+01 0.59132274968E+01
 0.58552377448E+01 0.63367230355E+01 0.67262161298E+01 0.69030589396E+01 0.67813639186E+01
 0.63858960878E+01 0.58458232903E+01 0.53075975342E+01 0.48571270141E+01 0.45171740151E+01
 0.42866887581E+01 0.41559088591E+01 0.41098013832E+01 0.41261577354E+01 0.41833725736E+01
 0.42756670192E+01 0.44190145248E+01 0.46401133436E+01 0.49585361234E+01 0.53736821651E+01
 0.54138229300E+01 0.56936098079E+01 0.59046746562E+01 0.59871188674E+01 0.58959681595E+01
 0.56336690066E+01 0.52603843641E+01 0.48671159373E+01 0.45308404812E+01 0.42866887581E+01
 0.41327569785E+01 0.40525012118E+01 0.40310421540E+01 0.40580446625E+01 0.41262701302E+01
 0.42334064469E+01 0.43836377624E+01 0.45829220506E+01 0.48305670468E+01 0.51148877167E+01
 0.52974501700E+01 0.54343328659E+01 0.54966280659E+01 0.54686797876E+01 0.53418766466E+01
 0.51247375889E+01 0.48500484304E+01 0.45683587099E+01 0.43280621671E+01 0.41559088591E+01
 0.40525012118E+01 0.40039017998E+01 0.39976470311E+01 0.40312282043E+01 0.41101700711E+01
 0.42404162577E+01 0.44209459143E+01 0.46401133436E+01 0.48766471740E+01 0.51042994654E+01
 0.54675374541E+01 0.54978611956E+01 0.54375427486E+01 0.53010800249E+01 0.51067750349E+01
 0.48774161424E+01 0.46396999234E+01 0.44201967247E+01 0.42398214083E+01 0.41098013832E+01
 0.40310421540E+01 0.39976470311E+01 0.40040626987E+01 0.40527098814E+01 0.41560193337E+01
 0.43278938043E+01 0.45675989028E+01 0.48483458410E+01 0.51221561950E+01 0.53393038250E+01
 0.59903428255E+01 0.59088822221E+01 0.56969728603E+01 0.54149456529E+01 0.51138117814E+01
 0.48285578747E+01 0.45813003221E+01 0.43828554631E+01 0.42331461924E+01 0.41261577354E+01
 0.40580446625E+01 0.40312282043E+01 0.40527098814E+01 0.41326279545E+01 0.42859694950E+01
 0.45295449169E+01 0.48654813542E+01 0.52588892263E+01 0.56331087912E+01 0.58971991126E+01
 0.69068268351E+01 0.67280623659E+01 0.63358232396E+01 0.58522143967E+01 0.53703465473E+01
 0.49565687235E+01 0.46398563638E+01 0.44195529281E+01 0.42760080514E+01 0.41833725736E+01
 0.41262701302E+01 0.41101700711E+01 0.41560193337E+01 0.42859694950E+01 0.45157582075E+01
 0.48558946291E+01 0.53075514024E+01 0.58475013878E+01 0.63891939506E+01 0.67855502168E+01
 0.81576401419E+01 0.79325733587E+01 0.73503259498E+01 0.66180419497E+01 0.59116209928E+01
 0.53116354649E+01 0.48502311663E+01 0.45436555362E+01 0.43673724967E+01 0.42756670192E+01
 0.42334064469E+01 0.42404162577E+01 0.43278938043E+01 0.45295449169E+01 0.48558946291E+01
 0.52991323367E+01 0.58696295360E+01 0.65688383265E+01 0.73183956798E+01 0.79224272399E+01
 0.93826707754E+01 0.91581510675E+01 0.84670827758E+01 0.75618535024E+01 0.66611876926E+01
 0.58809829996E+01 0.52609489251E+01 0.48099613775E+01 0.45424386818E+01 0.44190145248E+01
 0.43836377624E+01 0.44209459143E+01 0.45675989028E+01 0.48654813542E+01 0.53075514024E+01
 0.58696295360E+01 0.65517446289E+01 0.73682357447E+01 0.82669113355E+01 0.90354461090E+01
 0.10266720363E+02 0.99515180790E+01 0.91694885837E+01 0.82424359372E+01 0.73682357447E+01
 0.65688383265E+01 0.58475013878E+01 0.52588892263E+01 0.48483458410E+01 0.46401133436E+01
 0.45829220506E+01 0.46401133436E+01 0.48483458410E+01 0.52588892263E+01 0.58475013878E+01
 0.65688383265E+01 0.73682357447E+01 0.82424359372E+01 0.91694885837E+01 0.99515180790E+01
 0.10905079835E+02 0.10368978620E+02 0.93797351863E+01 0.84292967028E+01 0.77568923918E+01
 0.72064738432E+01 0.65668110047E+01 0.58781244908E+01 0.53108242182E+01 0.49585361234E+01
 0.48305670468E+01 0.48766471740E+01 0.51221561950E+01 0.56331087912E+01 0.63891939506E+01
 0.73183956798E+01 0.82669113355E+01 0.91694885837E+01 0.10039658318E+02 0.10731901943E+02
 0.11514085522E+02 0.10871446722E+02 0.96545560524E+01 0.85419834284E+01 0.79809543575E+01
 0.77564872041E+01 0.73660944729E+01 0.66596628948E+01 0.59132274968E+01 0.53736821651E+01
 0.51148877167E+01 0.51042994654E+01 0.53393038250E+01 0.58971991126E+01 0.67855502168E+01
 0.79224272399E+01 0.90354461090E+01 0.99515180790E+01 0.10731901943E+02 0.11362465686E+02
 0.11793501080E+02 0.11350527360E+02 0.10076824319E+02 0.85446523575E+01 0.74721262493E+01
 0.70624991785E+01 0.69079418532E+01 0.65523154510E+01 0.59705603144E+01 0.54190964313E+01
 0.50618039582E+01 0.49433447383E+01 0.50261247515E+01 0.53459535128E+01 0.59789027867E+01
 0.69287020814E+01 0.81330515556E+01 0.93826707754E+01 0.10511451117E+02 0.11401322247E+02
 0.11350527360E+02 0.11504954156E+02 0.10870472326E+02 0.96602190374E+01 0.85488022544E+01
 0.79858338743E+01 0.77603711406E+01 0.73700205059E+01 0.66619126135E+01 0.59118731243E+01