   1   1   0   0
  0.1716406E+02  0.2814583E-09  0.2814583E-09  0.2814583E-09  0.5000000E-15
  1.000000000000000E-004
  CAR 
 BCC W                                   
     27.12468801     -3.94274583  301      6.76375971      1.00000000
     -3.943  0.0000E+00  0.0000E+00
     -3.839  0.0000E+00  0.0000E+00
     -3.736  0.0000E+00  0.0000E+00
     -3.632 -0.2858E-31 -0.2960E-32
     -3.529 -0.1291E-27 -0.1337E-28
     -3.425 -0.3397E-24 -0.3519E-25
     -3.321 -0.5202E-21 -0.5391E-22
     -3.218 -0.4633E-18 -0.4803E-19
     -3.114 -0.2332E-15 -0.2420E-16
     -3.011 -0.6944E-13 -0.7215E-14
     -2.907 -0.1197E-10 -0.1246E-11
     -2.804 -0.1186E-08 -0.1241E-09
     -2.700 -0.6727E-07 -0.7090E-08
     -2.596 -0.2158E-05 -0.2306E-06
     -2.493 -0.3846E-04 -0.4213E-05
     -2.389 -0.3657E-03 -0.4208E-04
     -2.286 -0.1666E-02 -0.2146E-03
     -2.182 -0.2026E-02 -0.4244E-03
     -2.079  0.9535E-02  0.5630E-03
     -1.975  0.3630E-01  0.4322E-02
     -1.872  0.4599E-01  0.9086E-02
     -1.768  0.2343E-01  0.1151E-01
     -1.664  0.1556E-01  0.1312E-01
     -1.561  0.4470E-01  0.1775E-01
     -1.457  0.5554E-01  0.2350E-01
     -1.354  0.2890E-01  0.2650E-01
     -1.250  0.5570E-01  0.3226E-01
     -1.147  0.1585E+00  0.4868E-01
     -1.043  0.1853E+00  0.6787E-01
     -0.940  0.8703E-01  0.7689E-01
     -0.836  0.2307E-02  0.7712E-01
     -0.732 -0.1880E-01  0.7518E-01
     -0.629 -0.1018E-01  0.7412E-01
     -0.525  0.6022E-01  0.8036E-01
     -0.422  0.1895E+00  0.9998E-01
     -0.318  0.2208E+00  0.1228E+00
     -0.215  0.1316E+00  0.1365E+00
     -0.111  0.1199E+00  0.1489E+00
     -0.008  0.1917E+00  0.1687E+00
      0.096  0.2246E+00  0.1920E+00
      0.200  0.2177E+00  0.2145E+00
      0.303  0.1458E+00  0.2296E+00
      0.407  0.3641E-01  0.2334E+00
      0.510 -0.2460E-01  0.2309E+00
      0.614 -0.3444E-01  0.2273E+00
      0.717  0.7234E-01  0.2348E+00
      0.821  0.3628E+00  0.2724E+00
      0.924  0.5513E+00  0.3295E+00
      1.028  0.4489E+00  0.3759E+00
      1.132  0.4560E+00  0.4232E+00
      1.235  0.6779E+00  0.4934E+00
      1.339  0.7195E+00  0.5679E+00
      1.442  0.4707E+00  0.6166E+00
      1.546  0.1710E+00  0.6343E+00
      1.649  0.1836E+00  0.6533E+00
      1.753  0.6112E+00  0.7166E+00
      1.857  0.1062E+01  0.8267E+00
      1.960  0.1236E+01  0.9547E+00
      2.064  0.1182E+01  0.1077E+01
      2.167  0.9834E+00  0.1179E+01
      2.271  0.6894E+00  0.1250E+01
      2.374  0.4217E+00  0.1294E+01
      2.478  0.5532E+00  0.1351E+01
      2.581  0.1249E+01  0.1481E+01
      2.685  0.1719E+01  0.1659E+01
      2.789  0.1407E+01  0.1804E+01
      2.892  0.1039E+01  0.1912E+01
      2.996  0.9120E+00  0.2006E+01
      3.099  0.5590E+00  0.2064E+01
      3.203  0.1426E+00  0.2079E+01
      3.306  0.1040E+00  0.2090E+01
      3.410  0.4517E+00  0.2137E+01
      3.513  0.7819E+00  0.2218E+01
      3.617  0.8301E+00  0.2304E+01
      3.721  0.8832E+00  0.2395E+01
      3.824  0.1177E+01  0.2517E+01
      3.928  0.1721E+01  0.2695E+01
      4.031  0.2286E+01  0.2932E+01
      4.135  0.2304E+01  0.3171E+01
      4.238  0.1730E+01  0.3350E+01
      4.342  0.1122E+01  0.3466E+01
      4.445  0.9802E+00  0.3567E+01
      4.549  0.1312E+01  0.3703E+01
      4.653  0.1640E+01  0.3873E+01
      4.756  0.1597E+01  0.4039E+01
      4.860  0.1433E+01  0.4187E+01
      4.963  0.1710E+01  0.4364E+01
      5.067  0.2110E+01  0.4583E+01
      5.170  0.1917E+01  0.4781E+01
      5.274  0.1395E+01  0.4926E+01
      5.377  0.1197E+01  0.5050E+01
      5.481  0.1251E+01  0.5179E+01
      5.585  0.1107E+01  0.5294E+01
      5.688  0.7983E+00  0.5376E+01
      5.792  0.6540E+00  0.5444E+01
      5.895  0.6588E+00  0.5512E+01
      5.999  0.6087E+00  0.5575E+01
      6.102  0.5167E+00  0.5629E+01
      6.206  0.4382E+00  0.5674E+01
      6.310  0.4319E+00  0.5719E+01
      6.413  0.5434E+00  0.5775E+01
      6.517  0.6197E+00  0.5839E+01
      6.620  0.6396E+00  0.5906E+01
      6.724  0.6741E+00  0.5975E+01
      6.827  0.5431E+00  0.6032E+01
      6.931  0.3623E+00  0.6069E+01
      7.034  0.4341E+00  0.6114E+01
      7.138  0.5276E+00  0.6169E+01
      7.242  0.3343E+00  0.6203E+01
      7.345  0.1677E+00  0.6221E+01
      7.449  0.4482E+00  0.6267E+01
      7.552  0.9322E+00  0.6364E+01
      7.656  0.1134E+01  0.6481E+01
      7.759  0.1015E+01  0.6586E+01
      7.863  0.8584E+00  0.6675E+01
      7.966  0.8745E+00  0.6766E+01
      8.070  0.9287E+00  0.6862E+01
      8.174  0.9558E+00  0.6961E+01
      8.277  0.1092E+01  0.7074E+01
      8.381  0.1260E+01  0.7204E+01
      8.484  0.1446E+01  0.7354E+01
      8.588  0.1529E+01  0.7512E+01
      8.691  0.1448E+01  0.7662E+01
      8.795  0.1375E+01  0.7805E+01
      8.898  0.1316E+01  0.7941E+01
      9.002  0.1109E+01  0.8056E+01
      9.106  0.9357E+00  0.8153E+01
      9.209  0.1134E+01  0.8270E+01
      9.313  0.1355E+01  0.8410E+01
      9.416  0.1512E+01  0.8567E+01
      9.520  0.2040E+01  0.8778E+01
      9.623  0.2556E+01  0.9043E+01
      9.727  0.2585E+01  0.9311E+01
      9.830  0.2455E+01  0.9565E+01
      9.934  0.2305E+01  0.9803E+01
     10.038  0.1825E+01  0.9992E+01
     10.141  0.1224E+01  0.1012E+02
     10.245  0.8768E+00  0.1021E+02
     10.348  0.6549E+00  0.1028E+02
     10.452  0.4633E+00  0.1033E+02
     10.555  0.3331E+00  0.1036E+02
     10.659  0.2487E+00  0.1039E+02
     10.763  0.2297E+00  0.1041E+02
     10.866  0.2819E+00  0.1044E+02
     10.970  0.3648E+00  0.1048E+02
     11.073  0.3430E+00  0.1051E+02
     11.177  0.2307E+00  0.1054E+02
     11.280  0.2045E+00  0.1056E+02
     11.384  0.2425E+00  0.1058E+02
     11.487  0.3020E+00  0.1061E+02
     11.591  0.3476E+00  0.1065E+02
     11.695  0.3319E+00  0.1068E+02
     11.798  0.5606E+00  0.1074E+02
     11.902  0.1049E+01  0.1085E+02
     12.005  0.1217E+01  0.1098E+02
     12.109  0.9050E+00  0.1107E+02
     12.212  0.5627E+00  0.1113E+02
     12.316  0.3882E+00  0.1117E+02
     12.419  0.2679E+00  0.1120E+02
     12.523  0.2215E+00  0.1122E+02
     12.627  0.2381E+00  0.1124E+02
     12.730  0.2434E+00  0.1127E+02
     12.834  0.1962E+00  0.1129E+02
     12.937  0.1469E+00  0.1131E+02
     13.041  0.2114E+00  0.1133E+02
     13.144  0.3365E+00  0.1136E+02
     13.248  0.3007E+00  0.1139E+02
     13.351  0.1127E+00  0.1140E+02
     13.455 -0.1526E-01  0.1140E+02
     13.559  0.1132E-01  0.1140E+02
     13.662  0.1956E+00  0.1142E+02
     13.766  0.4371E+00  0.1147E+02
     13.869  0.5046E+00  0.1152E+02
     13.973  0.3554E+00  0.1156E+02
     14.076  0.2334E+00  0.1158E+02
     14.180  0.3772E+00  0.1162E+02
     14.283  0.7949E+00  0.1170E+02
     14.387  0.9804E+00  0.1181E+02
     14.491  0.6088E+00  0.1187E+02
     14.594  0.1673E+00  0.1189E+02
     14.698  0.3497E-01  0.1189E+02
     14.801  0.1072E+00  0.1190E+02
     14.905  0.1808E+00  0.1192E+02
     15.008  0.1696E+00  0.1194E+02
     15.112  0.1734E+00  0.1196E+02
     15.216  0.1717E+00  0.1197E+02
     15.319  0.8593E-01  0.1198E+02
     15.423  0.6001E-01  0.1199E+02
     15.526  0.1813E+00  0.1201E+02
     15.630  0.3525E+00  0.1204E+02
     15.733  0.6686E+00  0.1211E+02
     15.837  0.1237E+01  0.1224E+02
     15.940  0.1467E+01  0.1239E+02
     16.044  0.9882E+00  0.1249E+02
     16.148  0.4933E+00  0.1255E+02
     16.251  0.3750E+00  0.1258E+02
     16.355  0.3140E+00  0.1262E+02
     16.458  0.2349E+00  0.1264E+02
     16.562  0.2054E+00  0.1266E+02
     16.665  0.1167E+00  0.1268E+02
     16.769  0.2086E-01  0.1268E+02
     16.872  0.1448E+00  0.1269E+02
     16.976  0.4971E+00  0.1274E+02
     17.080  0.7057E+00  0.1282E+02
     17.183  0.5308E+00  0.1287E+02
     17.287  0.2399E+00  0.1290E+02
     17.390  0.6348E-01  0.1290E+02
     17.494 -0.1747E-01  0.1290E+02
     17.597  0.3891E-01  0.1291E+02
     17.701  0.2827E+00  0.1293E+02
     17.804  0.5130E+00  0.1299E+02
     17.908  0.5699E+00  0.1305E+02
     18.012  0.6463E+00  0.1311E+02
     18.115  0.7529E+00  0.1319E+02
     18.219  0.6919E+00  0.1326E+02
     18.322  0.4896E+00  0.1331E+02
     18.426  0.3719E+00  0.1335E+02
     18.529  0.5026E+00  0.1340E+02
     18.633  0.6133E+00  0.1347E+02
     18.736  0.5299E+00  0.1352E+02
     18.840  0.4321E+00  0.1357E+02
     18.944  0.2854E+00  0.1360E+02
     19.047  0.1227E+00  0.1361E+02
     19.151  0.1824E+00  0.1363E+02
     19.254  0.4156E+00  0.1367E+02
     19.358  0.5224E+00  0.1373E+02
     19.461  0.4512E+00  0.1377E+02
     19.565  0.4997E+00  0.1382E+02
     19.669  0.7766E+00  0.1390E+02
     19.772  0.9281E+00  0.1400E+02
     19.876  0.7907E+00  0.1408E+02
     19.979  0.6734E+00  0.1415E+02
     20.083  0.8161E+00  0.1424E+02
     20.186  0.1080E+01  0.1435E+02
     20.290  0.1031E+01  0.1446E+02
     20.393  0.6257E+00  0.1452E+02
     20.497  0.3397E+00  0.1456E+02
     20.601  0.3965E+00  0.1460E+02
     20.704  0.4601E+00  0.1464E+02
     20.808  0.3716E+00  0.1468E+02
     20.911  0.4472E+00  0.1473E+02
     21.015  0.6382E+00  0.1480E+02
     21.118  0.5794E+00  0.1486E+02
     21.222  0.3701E+00  0.1489E+02
     21.325  0.3513E+00  0.1493E+02
     21.429  0.5538E+00  0.1499E+02
     21.533  0.7563E+00  0.1507E+02
     21.636  0.8023E+00  0.1515E+02
     21.740  0.6152E+00  0.1521E+02
     21.843  0.2566E+00  0.1524E+02
     21.947  0.8867E-02  0.1524E+02
     22.050 -0.3726E-01  0.1524E+02
     22.154 -0.4784E-03  0.1524E+02
     22.257  0.5196E-01  0.1524E+02
     22.361  0.9611E-01  0.1525E+02
     22.465  0.2794E+00  0.1528E+02
     22.568  0.8200E+00  0.1537E+02
     22.672  0.1312E+01  0.1550E+02
     22.775  0.1156E+01  0.1562E+02
     22.879  0.6288E+00  0.1569E+02
     22.982  0.2498E+00  0.1571E+02
     23.086  0.8735E-01  0.1572E+02
     23.189  0.1971E-01  0.1572E+02
     23.293 -0.1939E-01  0.1572E+02
     23.397  0.3149E-01  0.1572E+02
     23.500  0.2608E+00  0.1575E+02
     23.604  0.5340E+00  0.1581E+02
     23.707  0.5834E+00  0.1587E+02
     23.811  0.4076E+00  0.1591E+02
     23.914  0.1916E+00  0.1593E+02
     24.018  0.6282E-01  0.1594E+02
     24.122  0.2088E-01  0.1594E+02
     24.225  0.1698E-01  0.1594E+02
     24.329  0.8440E-01  0.1595E+02
     24.432  0.1829E+00  0.1597E+02
     24.536  0.1630E+00  0.1598E+02
     24.639  0.5375E-01  0.1599E+02
     24.743 -0.6298E-02  0.1599E+02
     24.846 -0.1034E-01  0.1599E+02
     24.950  0.9576E-03  0.1599E+02
     25.054  0.2590E-01  0.1599E+02
     25.157  0.4820E-01  0.1600E+02
     25.261  0.3679E-01  0.1600E+02
     25.364  0.9586E-02  0.1600E+02
     25.468 -0.2023E-02  0.1600E+02
     25.571 -0.1666E-02  0.1600E+02
     25.675 -0.3656E-03  0.1600E+02
     25.778 -0.3846E-04  0.1600E+02
     25.882 -0.2158E-05  0.1600E+02
     25.986 -0.6727E-07  0.1600E+02
     26.089 -0.1186E-08  0.1600E+02
     26.193 -0.1197E-10  0.1600E+02
     26.296 -0.6942E-13  0.1600E+02
     26.400 -0.2316E-15  0.1600E+02
     26.503  0.0000E+00  0.1600E+02
     26.607  0.0000E+00  0.1600E+02
     26.710  0.0000E+00  0.1600E+02
     26.814  0.0000E+00  0.1600E+02
     26.918  0.0000E+00  0.1600E+02
     27.021  0.0000E+00  0.1600E+02
     27.125  0.0000E+00  0.1600E+02
