    1    1    1    1
  0.1716406E+02  0.2814583E-09  0.2814583E-09  0.2814583E-09  0.5000000E-15
  1.000000000000000E-004
  CAR 
 BCC W                                   
      6     44      8
 
  0.5000000E-01  0.5000000E-01  0.5000000E-01  0.8000000E-02
    1       -1.528660   1.000000
    2        5.483211   1.000000
    3        5.483211   1.000000
    4        6.526292   1.035231
    5        8.698075  -0.000000
    6        8.698075  -0.000000
    7       22.375374   0.000000
    8       23.067749   0.000000
 
  0.1500000E+00  0.5000000E-01  0.5000000E-01  0.2400000E-01
    1       -0.411361   1.000000
    2        4.876131   1.000000
    3        5.114750   1.000000
    4        7.853546  -0.000000
    5        8.393369  -0.000000
    6        8.934635  -0.000000
    7       22.651198   0.000000
    8       23.594486   0.000000
 
  0.2500000E+00  0.5000000E-01  0.5000000E-01  0.2400000E-01
    1        0.870702   1.000000
    2        4.267277   1.000000
    3        5.004985   1.000000
    4        8.558450  -0.000000
    5        9.213034  -0.000000
    6        9.769110  -0.000000
    7       21.013112   0.000000
    8       21.093080   0.000000
 
  0.3500000E+00  0.5000000E-01  0.5000000E-01  0.2400000E-01
    1        1.390552   1.000000
    2        3.842879   1.000000
    3        6.088435   1.000010
    4        8.859705  -0.000000
    5        9.497003  -0.000000
    6       11.807299  -0.000000
    7       17.841476   0.000000
    8       19.494003   0.000000
 
  0.4500000E+00  0.5000000E-01  0.5000000E-01  0.1200000E-01
    1        1.409288   1.000000
    2        3.692563   1.000000
    3        7.145559  -0.010607
    4        8.838442  -0.000000
    5        9.629634  -0.000000
    6       12.844467   0.000000
    7       16.365415   0.000000
    8       18.869608   0.000000
 
 -0.5000000E-01  0.5000000E-01  0.5000000E-01  0.6000000E-02
    1       -1.942746   1.000000
    2        5.762090   1.000000
    3        5.762476   1.000000
    4        5.882741   1.000000
    5        8.588000  -0.000000
    6        9.002827  -0.000000
    7       22.255867   0.000000
    8       22.325913   0.000000
 
  0.1500000E+00  0.1500000E+00  0.5000000E-01  0.2400000E-01
    1        0.846659   1.000000
    2        4.451122   1.000000
    3        4.481592   1.000000
    4        8.451487  -0.000000
    5        9.230432  -0.000000
    6        9.728555  -0.000000
    7       21.644530   0.000000
    8       22.776882   0.000000
 
  0.2500000E+00  0.1500000E+00  0.5000000E-01  0.4800000E-01
    1        1.922119   1.000000
    2        3.985222   1.000000
    3        4.709923   1.000000
    4        8.710120  -0.000000
    5        9.514003  -0.000000
    6       11.954811  -0.000000
    7       18.550713   0.000000
    8       20.929495   0.000000
 
  0.3500000E+00  0.1500000E+00  0.5000000E-01  0.4800000E-01
    1        2.096526   1.000000
    2        3.765930   1.000000
    3        5.865466   1.000000
    4        8.944122  -0.000000
    5        9.700831  -0.000000
    6       13.815438   0.000000
    7       15.863209   0.000000
    8       19.648402   0.000000
 
 -0.1500000E+00  0.1500000E+00  0.5000000E-01  0.2400000E-01
    1       -1.129418   1.000000
    2        5.358540   1.000000
    3        5.617838   1.000000
    4        6.675420   0.836417
    5        7.986005  -0.000000
    6        9.166718  -0.000000
    7       22.723153   0.000000
    8       23.635658   0.000000
 
  0.2500000E+00  0.2500000E+00  0.5000000E-01  0.2400000E-01
    1        2.707597   1.000000
    2        3.990127   1.000000
    3        4.777664   1.000000
    4        8.992141  -0.000000
    5        9.614550  -0.000000
    6       14.288645   0.000000
    7       15.851364   0.000000
    8       19.838606   0.000000
 
  0.3500000E+00  0.2500000E+00  0.5000000E-01  0.2400000E-01
    1        2.829918   1.000000
    2        4.072701   1.000000
    3        5.070810   1.000000
    4        9.215937  -0.000000
    5        9.664352  -0.000000
    6       14.305385   0.000000
    7       15.962840   0.000000
    8       18.545615   0.000000
 
 -0.2500000E+00  0.2500000E+00  0.5000000E-01  0.2400000E-01
    1        0.175518   1.000000
    2        4.730220   1.000000
    3        5.234631   1.000000
    4        7.973688  -0.000000
    5        8.239843  -0.000000
    6        9.336101  -0.000000
    7       21.690399   0.000000
    8       22.879546   0.000000
 
 -0.1500000E+00  0.2500000E+00  0.5000000E-01  0.2400000E-01
    1       -0.052303   1.000000
    2        5.158426   1.000000
    3        5.163808   1.000000
    4        7.462581  -0.000005
    5        7.779076  -0.000000
    6        9.501622  -0.000000
    7       22.554551   0.000000
    8       23.521089   0.000000
 
 -0.3500000E+00  0.3500000E+00  0.5000000E-01  0.2400000E-01
    1        1.126253   1.000000
    2        4.176603   1.000000
    3        5.559394   1.000000
    4        8.472496  -0.000000
    5        9.535733  -0.000000
    6       10.262446  -0.000000
    7       19.296741   0.000000
    8       20.547375   0.000000
 
 -0.2500000E+00  0.3500000E+00  0.5000000E-01  0.4800000E-01
    1        1.208520   1.000000
    2        4.512108   1.000000
    3        4.961321   1.000000
    4        7.727196  -0.000000
    5        9.484828  -0.000000
    6        9.869394  -0.000000
    7       20.161356   0.000000
    8       22.627873   0.000000
 
 -0.4500000E+00  0.4500000E+00  0.5000000E-01  0.2400000E-01
    1        1.290476   1.000000
    2        3.863505   1.000000
    3        6.763031   0.503085
    4        8.618114  -0.000000
    5        9.976676  -0.000000
    6       12.017224  -0.000000
    7       17.074484   0.000000
    8       19.178327   0.000000
 
 -0.3500000E+00  0.4500000E+00  0.5000000E-01  0.4800000E-01
    1        1.749860   1.000000
    2        4.173228   1.000000
    3        5.449298   1.000000
    4        8.251235  -0.000000
    5        9.894992  -0.000000
    6       11.889737  -0.000000
    7       17.741027   0.000000
    8       20.660618   0.000000
 
 -0.2500000E+00  0.4500000E+00  0.5000000E-01  0.2400000E-01
    1        2.247300   1.000000
    2        4.013172   1.000000
    3        5.008110   1.000000
    4        8.005997  -0.000000
    5        9.587601  -0.000000
    6       12.056510  -0.000000
    7       18.113571   0.000000
    8       21.645463   0.000000
 
 -0.4500000E+00 -0.4500000E+00  0.5000000E-01  0.2400000E-01
    1        1.763301   1.000000
    2        4.060105   1.000000
    3        6.015201   1.000001
    4        8.205444  -0.000000
    5       10.492320  -0.000000
    6       13.083016   0.000000
    7       16.219754   0.000000
    8       19.929578   0.000000
 
 -0.3500000E+00 -0.4500000E+00  0.5000000E-01  0.4800000E-01
    1        2.610908   1.000000
    2        4.049182   1.000000
    3        5.002172   1.000000
    4        8.457877  -0.000000
    5        9.869103  -0.000000
    6       14.376690   0.000000
    7       15.830467   0.000000
    8       19.719933   0.000000
 
 -0.3500000E+00 -0.3500000E+00  0.5000000E-01  0.8000000E-02
    1        3.174538   1.000000
    2        4.246337   1.000000
    3        4.246450   1.000000
    4        9.346398  -0.000000
    5        9.346689  -0.000000
    6       14.588127   0.000000
    7       17.259759   0.000000
    8       17.260285   0.000000
 
  0.1500000E+00  0.1500000E+00  0.1500000E+00  0.8000000E-02
    1        2.219048   1.000000
    2        3.989199   1.000000
    3        3.989199   1.000000
    4        9.183186  -0.000000
    5        9.183186  -0.000000
    6       12.064179  -0.000000
    7       19.433603   0.000000
    8       21.417057   0.000000
 
  0.2500000E+00  0.1500000E+00  0.1500000E+00  0.2400000E-01
    1        2.967171   1.000000
    2        3.752687   1.000000
    3        4.573878   1.000000
    4        9.320890  -0.000000
    5        9.581873  -0.000000
    6       14.271562   0.000000
    7       15.988686   0.000000
    8       20.189457   0.000000
 
  0.3500000E+00  0.1500000E+00  0.1500000E+00  0.1200000E-01
    1        2.917173   1.000000
    2        3.682694   1.000000
    3        5.463066   1.000000
    4        9.383437  -0.000000
    5        9.704060  -0.000000
    6       14.288677   0.000000
    7       15.490392   0.000000
    8       19.722376   0.000000
 
 -0.1500000E+00  0.1500000E+00  0.1500000E+00  0.6000000E-02
    1       -0.352409   1.000000
    2        5.796848   1.000000
    3        5.797200   1.000000
    4        6.680124   0.821912
    5        6.704675   0.738325
    6        9.675154  -0.000000
    7       23.746755   0.000000
    8       24.037503   0.000000
 
  0.2500000E+00  0.2500000E+00  0.1500000E+00  0.2400000E-01
    1        3.434006   1.000000
    2        4.106601   1.000000
    3        4.616926   1.000000
    4        9.585212  -0.000000
    5        9.694388  -0.000000
    6       13.685033   0.000000
    7       16.532852   0.000000
    8       18.732264   0.000000
 
 -0.2500000E+00  0.2500000E+00  0.1500000E+00  0.2400000E-01
    1        0.897496   1.000000
    2        5.142124   1.000000
    3        5.472318   1.000000
    4        6.698306   0.761199
    5        8.008105  -0.000000
    6        9.876567  -0.000000
    7       21.274250   0.000000
    8       24.417290   0.000000
 
 -0.3500000E+00  0.3500000E+00  0.1500000E+00  0.2400000E-01
    1        1.853140   1.000000
    2        4.653130   1.000000
    3        4.995506   1.000000
    4        7.501176  -0.000001
    5       10.032390  -0.000000
    6       10.145723  -0.000000
    7       19.313286   0.000000
    8       22.587897   0.000000
 
 -0.2500000E+00  0.3500000E+00  0.1500000E+00  0.2400000E-01
    1        2.024626   1.000000
    2        4.252890   1.000000
    3        5.668537   1.000000
    4        6.964819  -0.025668
    5        9.213691  -0.000000
    6       10.216457  -0.000000
    7       20.065286   0.000000
    8       23.784904   0.000000
 
 -0.4500000E+00  0.4500000E+00  0.1500000E+00  0.2400000E-01
    1        1.979947   1.000000
    2        4.712525   1.000000
    3        5.098146   1.000000
    4        7.487462  -0.000002
    5       11.545496  -0.000000
    6       11.835065  -0.000000
    7       16.998203   0.000000
    8       21.408715   0.000000
 
 -0.3500000E+00  0.4500000E+00  0.1500000E+00  0.4800000E-01
    1        2.609379   1.000000
    2        3.937803   1.000000
    3        5.316752   1.000000
    4        7.598224  -0.000000
    5       10.046641  -0.000000
    6       12.241518   0.000000
    7       18.002030   0.000000
    8       21.495467   0.000000
 
 -0.4500000E+00 -0.4500000E+00  0.1500000E+00  0.2400000E-01
    1        2.566059   1.000000
    2        4.356401   1.000000
    3        4.869236   1.000000
    4        7.620172  -0.000000
    5       11.035033  -0.000000
    6       14.058651   0.000000
    7       15.905054   0.000000
    8       20.144784   0.000000
 
 -0.3500000E+00 -0.4500000E+00  0.1500000E+00  0.2400000E-01
    1        3.432798   1.000000
    2        3.454693   1.000000
    3        4.621648   1.000000
    4        8.787801  -0.000000
    5        9.928002  -0.000000
    6       14.859406   0.000000
    7       16.189044   0.000000
    8       18.835872   0.000000
 
  0.2500000E+00  0.2500000E+00  0.2500000E+00  0.2000000E-02
    1        4.179796   1.000000
    2        4.179796   1.000000
    3        4.180127   1.000000
    4        9.750527  -0.000000
    5        9.750527  -0.000000
    6       12.863092   0.000000
    7       18.380852   0.000000
    8       18.381191   0.000000
 
 -0.2500000E+00  0.2500000E+00  0.2500000E+00  0.6000000E-02
    1        1.956484   1.000000
    2        4.467576   1.000000
    3        6.440773   1.022377
    4        6.441117   1.022456
    5        8.142469  -0.000000
    6        9.940623  -0.000000
    7       21.073975   0.000000
    8       25.124688   0.000000
 
 -0.3500000E+00  0.3500000E+00  0.2500000E+00  0.2400000E-01
    1        2.686928   1.000000
    2        3.584659   1.000000
    3        6.498426   1.034070
    4        7.114876  -0.016195
    5        9.744735  -0.000000
    6       10.406517  -0.000000
    7       20.277432   0.000000
    8       22.643323   0.000000
 
 -0.4500000E+00  0.4500000E+00  0.2500000E+00  0.2400000E-01
    1        2.608108   1.000000
    2        3.545022   1.000000
    3        6.331482   1.004586
    4        7.083750  -0.023068
    5       11.557517  -0.000000
    6       12.677824   0.000000
    7       17.063419   0.000000
    8       20.340736   0.000000
 
 -0.3500000E+00  0.4500000E+00  0.2500000E+00  0.2400000E-01
    1        2.921293   1.000000
    2        2.928736   1.000000
    3        6.419815   1.017696
    4        8.291543  -0.000000
    5       10.225070  -0.000000
    6       12.481126   0.000000
    7       18.274198   0.000000
    8       19.940763   0.000000
 
 -0.4500000E+00 -0.4500000E+00  0.2500000E+00  0.2400000E-01
    1        2.666595   1.000000
    2        2.994073   1.000000
    3        6.185468   1.000169
    4        8.810216  -0.000000
    5       10.936545  -0.000000
    6       15.142294   0.000000
    7       15.608892   0.000000
    8       18.244833   0.000000
 
 -0.3500000E+00  0.3500000E+00  0.3500000E+00  0.6000000E-02
    1        2.709174   1.000000
    2        2.735914   1.000000
    3        8.100748  -0.000000
    4        8.101112  -0.000000
    5        9.925014  -0.000000
    6       10.875370  -0.000000
    7       20.284034   0.000000
    8       20.284346   0.000000
 
 -0.4500000E+00  0.4500000E+00  0.3500000E+00  0.2400000E-01
    1        2.271193   1.000000
    2        2.443201   1.000000
    3        8.528013  -0.000000
    4        8.649192  -0.000000
    5       11.301936  -0.000000
    6       13.178629   0.000000
    7       16.942978   0.000000
    8       18.098066   0.000000
 
 -0.4500000E+00 -0.4500000E+00  0.3500000E+00  0.8000000E-02
    1        2.120350   1.000000
    2        2.120353   1.000000
    3        8.542667  -0.000000
    4       10.740632  -0.000000
    5       10.741274  -0.000000
    6       15.569034   0.000000
    7       15.696467   0.000000
    8       15.696655   0.000000
 
 -0.4500000E+00  0.4500000E+00  0.4500000E+00  0.6000000E-02
    1        1.819449   1.000000
    2        1.868313   1.000000
    3       10.656474  -0.000000
    4       10.656967  -0.000000
    5       11.273211  -0.000000
    6       13.948786   0.000000
    7       15.832704   0.000000
    8       15.832829   0.000000
