       N       E                     dE             d eps       ncg     rms          rms(c)
DAV:   1    -0.106680767705E+02   -0.10668E+02   -0.18021E+03   944   0.287E+02
DAV:   2    -0.148031688186E+02   -0.41351E+01   -0.39157E+01   816   0.477E+01
DAV:   3    -0.148224060810E+02   -0.19237E-01   -0.19214E-01  1016   0.340E+00
DAV:   4    -0.148224136194E+02   -0.75385E-05   -0.75378E-05   824   0.480E-02
DAV:   5    -0.148224136309E+02   -0.11443E-07   -0.12125E-07   776   0.148E-03    0.435E+00
DAV:   6    -0.142077366871E+02    0.61468E+00   -0.62483E-01   784   0.465E+00    0.218E+00
DAV:   7    -0.140108813320E+02    0.19686E+00   -0.60369E-01   800   0.449E+00    0.276E-01
DAV:   8    -0.140100738324E+02    0.80750E-03   -0.19270E-02   792   0.884E-01    0.205E-01
DAV:   9    -0.140082116670E+02    0.18622E-02   -0.66323E-03   792   0.484E-01    0.122E-02
DAV:  10    -0.140082148557E+02   -0.31887E-05   -0.38747E-05   400   0.527E-02
   1 F= -.14008215E+02 E0= -.14008012E+02  d E =-.608261E-03
