<?xml version="1.0" encoding="ISO-8859-1"?>
<modeling>
 <generator>
  <i name="program" type="string">vasp </i>
  <i name="version" type="string">5.4.4.18Apr17-6-g9f103f2a35  </i>
  <i name="subversion" type="string">(build Jul 01 2019 03:25:34) complex            parallel </i>
  <i name="platform" type="string">LinuxIFC </i>
  <i name="date" type="string">2020 07 08 </i>
  <i name="time" type="string">19:51:35 </i>
 </generator>
 <incar>
  <i type="string" name="SYSTEM"> BCC W</i>
  <i type="string" name="PREC">normal</i>
  <i name="EDIFF">      0.00010000</i>
  <i name="ENCUT">    224.00000000</i>
  <v type="int" name="KPOINT_BSE">    -1     0     0     0</v>
 </incar>
 <structure name="primitive_cell" >
  <crystal>
   <varray name="basis" >
    <v>      -1.62500000       1.62500000       1.62500000 </v>
    <v>       1.62500000      -1.62500000       1.62500000 </v>
    <v>       1.62500000       1.62500000      -1.62500000 </v>
   </varray>
   <i name="volume">     17.16406250 </i>
   <varray name="rec_basis" >
    <v>       0.00000000       0.30769231       0.30769231 </v>
    <v>       0.30769231       0.00000000       0.30769231 </v>
    <v>       0.30769231       0.30769231       0.00000000 </v>
   </varray>
  </crystal>
  <varray name="positions" >
   <v>       0.00000000       0.00000000       0.00000000 </v>
  </varray>
 </structure>
 <varray name="primitive_index" >
  <v type="int" >        1 </v>
 </varray>
 <kpoints>
  <generation param="Monkhorst-Pack">
   <v type="int" name="divisions">      10       10       10 </v>
   <v name="usershift">      0.00000000       0.00000000       0.00000000 </v>
   <v name="genvec1">      0.10000000       0.00000000       0.00000000 </v>
   <v name="genvec2">      0.00000000       0.10000000       0.00000000 </v>
   <v name="genvec3">      0.00000000       0.00000000       0.10000000 </v>
   <v name="shift">      0.50000000       0.50000000       0.50000000 </v>
  </generation>
  <varray name="kpointlist" >
   <v>       0.05000000       0.05000000       0.05000000 </v>
   <v>       0.15000000       0.05000000       0.05000000 </v>
   <v>       0.25000000       0.05000000       0.05000000 </v>
   <v>       0.35000000       0.05000000       0.05000000 </v>
   <v>       0.45000000       0.05000000       0.05000000 </v>
   <v>      -0.05000000       0.05000000       0.05000000 </v>
   <v>       0.15000000       0.15000000       0.05000000 </v>
   <v>       0.25000000       0.15000000       0.05000000 </v>
   <v>       0.35000000       0.15000000       0.05000000 </v>
   <v>      -0.15000000       0.15000000       0.05000000 </v>
   <v>       0.25000000       0.25000000       0.05000000 </v>
   <v>       0.35000000       0.25000000       0.05000000 </v>
   <v>      -0.25000000       0.25000000       0.05000000 </v>
   <v>      -0.15000000       0.25000000       0.05000000 </v>
   <v>      -0.35000000       0.35000000       0.05000000 </v>
   <v>      -0.25000000       0.35000000       0.05000000 </v>
   <v>      -0.45000000       0.45000000       0.05000000 </v>
   <v>      -0.35000000       0.45000000       0.05000000 </v>
   <v>      -0.25000000       0.45000000       0.05000000 </v>
   <v>      -0.45000000      -0.45000000       0.05000000 </v>
   <v>      -0.35000000      -0.45000000       0.05000000 </v>
   <v>      -0.35000000      -0.35000000       0.05000000 </v>
   <v>       0.15000000       0.15000000       0.15000000 </v>
   <v>       0.25000000       0.15000000       0.15000000 </v>
   <v>       0.35000000       0.15000000       0.15000000 </v>
   <v>      -0.15000000       0.15000000       0.15000000 </v>
   <v>       0.25000000       0.25000000       0.15000000 </v>
   <v>      -0.25000000       0.25000000       0.15000000 </v>
   <v>      -0.35000000       0.35000000       0.15000000 </v>
   <v>      -0.25000000       0.35000000       0.15000000 </v>
   <v>      -0.45000000       0.45000000       0.15000000 </v>
   <v>      -0.35000000       0.45000000       0.15000000 </v>
   <v>      -0.45000000      -0.45000000       0.15000000 </v>
   <v>      -0.35000000      -0.45000000       0.15000000 </v>
   <v>       0.25000000       0.25000000       0.25000000 </v>
   <v>      -0.25000000       0.25000000       0.25000000 </v>
   <v>      -0.35000000       0.35000000       0.25000000 </v>
   <v>      -0.45000000       0.45000000       0.25000000 </v>
   <v>      -0.35000000       0.45000000       0.25000000 </v>
   <v>      -0.45000000      -0.45000000       0.25000000 </v>
   <v>      -0.35000000       0.35000000       0.35000000 </v>
   <v>      -0.45000000       0.45000000       0.35000000 </v>
   <v>      -0.45000000      -0.45000000       0.35000000 </v>
   <v>      -0.45000000       0.45000000       0.45000000 </v>
  </varray>
  <varray name="weights" >
   <v>       0.00800000 </v>
   <v>       0.02400000 </v>
   <v>       0.02400000 </v>
   <v>       0.02400000 </v>
   <v>       0.01200000 </v>
   <v>       0.00600000 </v>
   <v>       0.02400000 </v>
   <v>       0.04800000 </v>
   <v>       0.04800000 </v>
   <v>       0.02400000 </v>
   <v>       0.02400000 </v>
   <v>       0.02400000 </v>
   <v>       0.02400000 </v>
   <v>       0.02400000 </v>
   <v>       0.02400000 </v>
   <v>       0.04800000 </v>
   <v>       0.02400000 </v>
   <v>       0.04800000 </v>
   <v>       0.02400000 </v>
   <v>       0.02400000 </v>
   <v>       0.04800000 </v>
   <v>       0.00800000 </v>
   <v>       0.00800000 </v>
   <v>       0.02400000 </v>
   <v>       0.01200000 </v>
   <v>       0.00600000 </v>
   <v>       0.02400000 </v>
   <v>       0.02400000 </v>
   <v>       0.02400000 </v>
   <v>       0.02400000 </v>
   <v>       0.02400000 </v>
   <v>       0.04800000 </v>
   <v>       0.02400000 </v>
   <v>       0.02400000 </v>
   <v>       0.00200000 </v>
   <v>       0.00600000 </v>
   <v>       0.02400000 </v>
   <v>       0.02400000 </v>
   <v>       0.02400000 </v>
   <v>       0.02400000 </v>
   <v>       0.00600000 </v>
   <v>       0.02400000 </v>
   <v>       0.00800000 </v>
   <v>       0.00600000 </v>
  </varray>
 </kpoints>
 <parameters>
  <separator name="general" >
   <i type="string" name="SYSTEM">BCC W</i>
   <i type="logical" name="LCOMPAT"> F  </i>
  </separator>
  <separator name="electronic" >
   <i type="string" name="PREC">normal</i>
   <i name="ENMAX">    224.00000000</i>
   <i name="ENAUG">    373.43800000</i>
   <i name="EDIFF">      0.00010000</i>
   <i type="int" name="IALGO">    38</i>
   <i type="int" name="IWAVPR">    10</i>
   <i type="int" name="NBANDS">     8</i>
   <i name="NELECT">      6.00000000</i>
   <i type="int" name="TURBO">     0</i>
   <i type="int" name="IRESTART">     0</i>
   <i type="int" name="NREBOOT">     0</i>
   <i type="int" name="NMIN">     0</i>
   <i name="EREF">      0.00000000</i>
   <separator name="electronic smearing" >
    <i type="int" name="ISMEAR">     1</i>
    <i name="SIGMA">      0.20000000</i>
    <i name="KSPACING">      0.50000000</i>
    <i type="logical" name="KGAMMA"> T  </i>
   </separator>
   <separator name="electronic projectors" >
    <i type="logical" name="LREAL"> F  </i>
    <v name="ROPT">      0.00000000</v>
    <i type="int" name="LMAXPAW">  -100</i>
    <i type="int" name="LMAXMIX">     2</i>
    <i type="logical" name="NLSPLINE"> F  </i>
   </separator>
   <separator name="electronic startup" >
    <i type="int" name="ISTART">     0</i>
    <i type="int" name="ICHARG">     2</i>
    <i type="int" name="INIWAV">     1</i>
   </separator>
   <separator name="electronic spin" >
    <i type="int" name="ISPIN">     1</i>
    <i type="logical" name="LNONCOLLINEAR"> F  </i>
    <v name="MAGMOM">      1.00000000</v>
    <i name="NUPDOWN">     -1.00000000</i>
    <i type="logical" name="LSORBIT"> F  </i>
    <v name="SAXIS">      0.00000000      0.00000000      1.00000000</v>
    <i type="logical" name="LSPIRAL"> F  </i>
    <v name="QSPIRAL">      0.00000000      0.00000000      0.00000000</v>
    <i type="logical" name="LZEROZ"> F  </i>
   </separator>
   <separator name="electronic exchange-correlation" >
    <i type="logical" name="LASPH"> F  </i>
    <i type="logical" name="LMETAGGA"> F  </i>
   </separator>
   <separator name="electronic convergence" >
    <i type="int" name="NELM">    60</i>
    <i type="int" name="NELMDL">    -5</i>
    <i type="int" name="NELMIN">     2</i>
    <i name="ENINI">    224.00000000</i>
    <separator name="electronic convergence detail" >
     <i type="logical" name="LDIAG"> T  </i>
     <i type="logical" name="LSUBROT"> F  </i>
     <i name="WEIMIN">      0.00000000</i>
     <i name="EBREAK">      0.00000313</i>
     <i name="DEPER">      0.30000000</i>
     <i type="int" name="NRMM">     4</i>
     <i name="TIME">      0.40000000</i>
    </separator>
   </separator>
   <separator name="electronic mixer" >
    <i name="AMIX">      0.40000000</i>
    <i name="BMIX">      1.00000000</i>
    <i name="AMIN">      0.10000000</i>
    <i name="AMIX_MAG">      1.60000000</i>
    <i name="BMIX_MAG">      1.00000000</i>
    <separator name="electronic mixer details" >
     <i type="int" name="IMIX">     4</i>
     <i type="logical" name="MIXFIRST"> F  </i>
     <i type="int" name="MAXMIX">   -45</i>
     <i name="WC">    100.00000000</i>
     <i type="int" name="INIMIX">     1</i>
     <i type="int" name="MIXPRE">     1</i>
     <i type="int" name="MREMOVE">     5</i>
    </separator>
   </separator>
   <separator name="electronic dipolcorrection" >
    <i type="logical" name="LDIPOL"> F  </i>
    <i type="logical" name="LMONO"> F  </i>
    <i type="int" name="IDIPOL">     0</i>
    <i name="EPSILON">      1.00000000</i>
    <v name="DIPOL">   -100.00000000   -100.00000000   -100.00000000</v>
    <i name="EFIELD">      0.00000000</i>
   </separator>
  </separator>
  <separator name="grids" >
   <i type="int" name="NGX">    10</i>
   <i type="int" name="NGY">    10</i>
   <i type="int" name="NGZ">    10</i>
   <i type="int" name="NGXF">    20</i>
   <i type="int" name="NGYF">    20</i>
   <i type="int" name="NGZF">    20</i>
   <i type="logical" name="ADDGRID"> F  </i>
  </separator>
  <separator name="ionic" >
   <i type="int" name="NSW">     0</i>
   <i type="int" name="IBRION">    -1</i>
   <i type="int" name="MDALGO">     0</i>
   <i type="int" name="ISIF">     2</i>
   <i name="PSTRESS">      0.00000000</i>
   <i name="EDIFFG">      0.00100000</i>
   <i type="int" name="NFREE">     0</i>
   <i name="POTIM">      0.50000000</i>
   <i name="SMASS">     -3.00000000</i>
   <i name="SCALEE">      1.00000000</i>
  </separator>
  <separator name="ionic md" >
   <i name="TEBEG">      0.00010000</i>
   <i name="TEEND">      0.00010000</i>
   <i type="int" name="NBLOCK">     1</i>
   <i type="int" name="KBLOCK">     1</i>
   <i type="int" name="NPACO">   256</i>
   <i name="APACO">     16.00000000</i>
  </separator>
  <separator name="symmetry" >
   <i type="int" name="ISYM">     2</i>
   <i name="SYMPREC">      0.00001000</i>
  </separator>
  <separator name="dos" >
   <i type="int" name="LORBIT">     0</i>
   <v name="RWIGS">     -1.00000000</v>
   <i type="int" name="NEDOS">   301</i>
   <i name="EMIN">     10.00000000</i>
   <i name="EMAX">    -10.00000000</i>
   <i name="EFERMI">      0.00000000</i>
  </separator>
  <separator name="writing" >
   <i type="int" name="NWRITE">     2</i>
   <i type="logical" name="LWAVE"> T  </i>
   <i type="logical" name="LDOWNSAMPLE"> F  </i>
   <i type="logical" name="LCHARG"> T  </i>
   <i type="logical" name="LPARD"> F  </i>
   <i type="logical" name="LVTOT"> F  </i>
   <i type="logical" name="LVHAR"> F  </i>
   <i type="logical" name="LELF"> F  </i>
   <i type="logical" name="LOPTICS"> F  </i>
   <v name="STM">      0.00000000      0.00000000      0.00000000      0.00000000      0.00000000      0.00000000      0.00000000</v>
  </separator>
  <separator name="performance" >
   <i type="int" name="NPAR">     4</i>
   <i type="int" name="NSIM">     4</i>
   <i type="int" name="NBLK">    -1</i>
   <i type="logical" name="LPLANE"> T  </i>
   <i type="logical" name="LSCALAPACK"> T  </i>
   <i type="logical" name="LSCAAWARE"> F  </i>
   <i type="logical" name="LSCALU"> F  </i>
   <i type="logical" name="LASYNC"> F  </i>
   <i type="logical" name="LORBITALREAL"> F  </i>
  </separator>
  <separator name="miscellaneous" >
   <i type="int" name="IDIOT">     3</i>
   <i type="int" name="ISPECIAL">     0</i>
   <i type="logical" name="LMUSIC"> F  </i>
   <v name="POMASS">    183.85000000</v>
   <v name="DARWINR">      0.00000000</v>
   <v name="DARWINV">      1.00000000</v>
   <i type="logical" name="LCORR"> T  </i>
  </separator>
  <i type="logical" name="GGA_COMPAT"> T  </i>
  <i type="logical" name="LBERRY"> F  </i>
  <i type="int" name="ICORELEVEL">     0</i>
  <i type="logical" name="LDAU"> F  </i>
  <i type="int" name="I_CONSTRAINED_M">     0</i>
  <separator name="electronic exchange-correlation" >
   <i type="string" name="GGA">--</i>
   <i type="int" name="VOSKOWN">     0</i>
   <i type="logical" name="LHFCALC"> F  </i>
   <i type="string" name="PRECFOCK"></i>
   <i type="logical" name="LSYMGRAD"> F  </i>
   <i type="logical" name="LHFONE"> F  </i>
   <i type="logical" name="LRHFCALC"> F  </i>
   <i type="logical" name="LTHOMAS"> F  </i>
   <i type="logical" name="LMODELHF"> F  </i>
   <i name="ENCUT4O">     -1.00000000</i>
   <i type="int" name="EXXOEP">     0</i>
   <i type="int" name="FOURORBIT">     0</i>
   <i name="AEXX">      0.00000000</i>
   <i name="HFALPHA">      0.00000000</i>
   <i name="MCALPHA">      0.00000000</i>
   <i name="ALDAX">      1.00000000</i>
   <i name="AGGAX">      1.00000000</i>
   <i name="ALDAC">      1.00000000</i>
   <i name="AGGAC">      1.00000000</i>
   <i type="int" name="NKREDX">     1</i>
   <i type="int" name="NKREDY">     1</i>
   <i type="int" name="NKREDZ">     1</i>
   <i type="logical" name="SHIFTRED"> F  </i>
   <i type="logical" name="ODDONLY"> F  </i>
   <i type="logical" name="EVENONLY"> F  </i>
   <i type="int" name="LMAXFOCK">     0</i>
   <i type="int" name="NMAXFOCKAE">     0</i>
   <i type="logical" name="LFOCKAEDFT"> F  </i>
   <i name="HFSCREEN">      0.00000000</i>
   <i name="HFSCREENC">      0.00000000</i>
   <i type="int" name="NBANDSGWLOW">     0</i>
  </separator>
  <separator name="vdW DFT" >
   <i type="logical" name="LUSE_VDW"> F  </i>
   <i name="Zab_VDW">     -0.84910000</i>
   <i name="PARAM1">      0.12340000</i>
   <i name="PARAM2">      1.00000000</i>
   <i name="PARAM3">      0.00000000</i>
  </separator>
  <separator name="model GW" >
   <i type="int" name="MODEL_GW">     0</i>
   <i name="MODEL_EPS0">     10.29843750</i>
   <i name="MODEL_ALPHA">      1.00000000</i>
  </separator>
  <separator name="linear response parameters" >
   <i type="logical" name="LEPSILON"> F  </i>
   <i type="logical" name="LRPA"> F  </i>
   <i type="logical" name="LNABLA"> F  </i>
   <i type="logical" name="LVEL"> F  </i>
   <i type="int" name="KINTER">     0</i>
   <i name="CSHIFT">      0.10000000</i>
   <i name="OMEGAMAX">     -1.00000000</i>
   <i name="DEG_THRESHOLD">      0.00200000</i>
   <i name="RTIME">     -0.10000000</i>
   <i name="WPLASMAI">      0.00000000</i>
   <v name="DFIELD">      0.00000000      0.00000000      0.00000000</v>
   <v name="WPLASMA">      0.00000000      0.00000000      0.00000000      0.00000000      0.00000000      0.00000000      0.00000000      0.00000000      0.00000000</v>
  </separator>
  <separator name="orbital magnetization" >
   <i type="logical" name="NUCIND"> F  </i>
   <v name="MAGPOS">      0.00000000      0.00000000      0.00000000</v>
   <i type="logical" name="LNICSALL"> T  </i>
   <i type="logical" name="ORBITALMAG"> F  </i>
   <i type="logical" name="LMAGBLOCH"> F  </i>
   <i type="logical" name="LCHIMAG"> F  </i>
   <i type="logical" name="LGAUGE"> T  </i>
   <i type="int" name="MAGATOM">     0</i>
   <v name="MAGDIPOL">      0.00000000      0.00000000      0.00000000</v>
   <v name="AVECCONST">      0.00000000      0.00000000      0.00000000</v>
  </separator>
  <separator name="response functions" >
   <i type="logical" name="LADDER"> F  </i>
   <i type="logical" name="LRPAFORCE"> F  </i>
   <i type="logical" name="LFXC"> F  </i>
   <i type="logical" name="LHARTREE"> T  </i>
   <i type="int" name="IBSE">     0</i>
   <v type="int" name="KPOINT">    -1     0     0     0</v>
   <i type="logical" name="LTCTE"> F  </i>
   <i type="logical" name="LTETE"> F  </i>
   <i type="logical" name="LTRIPLET"> F  </i>
   <i type="logical" name="LFXCEPS"> F  </i>
   <i type="logical" name="LFXHEG"> F  </i>
   <i type="int" name="NATURALO">     2</i>
   <i type="logical" name="L2ORDER"> F  </i>
   <i type="logical" name="LMP2LT"> F  </i>
   <i type="logical" name="LUSEW"> F  </i>
   <i name="ENCUTGW">     -2.00000000</i>
   <i name="ENCUTGWSOFT">     -2.00000000</i>
   <i name="ENCUTLF">     -1.00000000</i>
   <i type="int" name="LMAXMP2">    -1</i>
   <i name="SCISSOR">      0.00000000</i>
   <i type="int" name="NOMEGA">     0</i>
   <i type="int" name="NOMEGAR">     0</i>
   <i type="int" name="NBANDSGW">    -1</i>
   <i type="int" name="NBANDSO">    -1</i>
   <i type="int" name="NBANDSV">    -1</i>
   <i type="int" name="NELM">     1</i>
   <i type="int" name="NELMHF">     1</i>
   <i type="int" name="DIM">     3</i>
   <i type="int" name="ANTIRES">     0</i>
   <i name="OMEGAMAX">    -30.00000000</i>
   <i name="OMEGAMIN">    -30.00000000</i>
   <i name="OMEGATL">   -200.00000000</i>
   <i type="int" name="OMEGAGRID">   140</i>
   <i name="CSHIFT">     -0.10000000</i>
   <i type="logical" name="SELFENERGY"> F  </i>
   <i type="logical" name="LSPECTRAL"> F  </i>
   <i type="logical" name="LSPECTRALGW"> F  </i>
   <i type="logical" name="LSINGLES"> F  </i>
   <i type="logical" name="LFERMIGW"> F  </i>
   <i type="logical" name="ODDONLYGW"> F  </i>
   <i type="logical" name="EVENONLYGW"> F  </i>
   <i type="int" name="NKREDLFX">     1</i>
   <i type="int" name="NKREDLFY">     1</i>
   <i type="int" name="NKREDLFZ">     1</i>
   <i type="int" name="MAXMEM">  2800</i>
   <i type="int" name="TELESCOPE">     0</i>
   <i type="int" name="TAUPAR">     1</i>
   <i type="int" name="OMEGAPAR">    -1</i>
   <i name="LAMBDA">      1.00000000</i>
  </separator>
  <separator name="External order field" >
   <i name="OFIELD_KAPPA">      0.00000000</i>
   <v name="OFIELD_K">      0.00000000      0.00000000      0.00000000</v>
   <i name="OFIELD_Q6_NEAR">      0.00000000</i>
   <i name="OFIELD_Q6_FAR">      0.00000000</i>
   <i name="OFIELD_A">      0.00000000</i>
  </separator>
 </parameters>
 <atominfo>
  <atoms>       1 </atoms>
  <types>       1 </types>
  <array name="atoms" >
   <dimension dim="1">ion</dimension>
   <field type="string">element</field>
   <field type="int">atomtype</field>
   <set>
    <rc><c>W </c><c>   1</c></rc>
   </set>
  </array>
  <array name="atomtypes" >
   <dimension dim="1">type</dimension>
   <field type="int">atomspertype</field>
   <field type="string">element</field>
   <field>mass</field>
   <field>valence</field>
   <field type="string">pseudopotential</field>
   <set>
    <rc><c>   1</c><c>W </c><c>    183.85000000</c><c>      6.00000000</c><c> PAW W 19Jan2001                        </c></rc>
   </set>
  </array>
 </atominfo>
 <structure name="initialpos" >
  <crystal>
   <varray name="basis" >
    <v>      -1.62500000       1.62500000       1.62500000 </v>
    <v>       1.62500000      -1.62500000       1.62500000 </v>
    <v>       1.62500000       1.62500000      -1.62500000 </v>
   </varray>
   <i name="volume">     17.16406250 </i>
   <varray name="rec_basis" >
    <v>       0.00000000       0.30769231       0.30769231 </v>
    <v>       0.30769231       0.00000000       0.30769231 </v>
    <v>       0.30769231       0.30769231       0.00000000 </v>
   </varray>
  </crystal>
  <varray name="positions" >
   <v>       0.00000000       0.00000000       0.00000000 </v>
  </varray>
 </structure>
 <calculation>
  <scstep>
   <time name="dav">    0.04    0.04</time>
   <time name="total">    0.04    0.04</time>
   <energy>
    <i name="alphaZ">     40.66819379 </i>
    <i name="ewald">   -290.23857480 </i>
    <i name="hartreedc">     -6.85027760 </i>
    <i name="XCdc">    -47.48558698 </i>
    <i name="pawpsdc">    183.53490256 </i>
    <i name="pawaedc">   -125.80866524 </i>
    <i name="eentropy">      0.00028841 </i>
    <i name="bandstr">     29.00378474 </i>
    <i name="atom">    206.50785835 </i>
    <i name="e_fr_energy">    -10.66807677 </i>
    <i name="e_wo_entrp">    -10.66836518 </i>
    <i name="e_0_energy">    -10.66817291 </i>
   </energy>
  </scstep>
  <scstep>
   <time name="dav">    0.03    0.03</time>
   <time name="total">    0.03    0.03</time>
   <energy>
    <i name="e_fr_energy">    -14.80316882 </i>
    <i name="e_wo_entrp">    -14.80336454 </i>
    <i name="e_0_energy">    -14.80323406 </i>
   </energy>
  </scstep>
  <scstep>
   <time name="dav">    0.04    0.04</time>
   <time name="total">    0.04    0.04</time>
   <energy>
    <i name="e_fr_energy">    -14.82240608 </i>
    <i name="e_wo_entrp">    -14.82257868 </i>
    <i name="e_0_energy">    -14.82246361 </i>
   </energy>
  </scstep>
  <scstep>
   <time name="dav">    0.03    0.03</time>
   <time name="total">    0.03    0.03</time>
   <energy>
    <i name="e_fr_energy">    -14.82241362 </i>
    <i name="e_wo_entrp">    -14.82258624 </i>
    <i name="e_0_energy">    -14.82247116 </i>
   </energy>
  </scstep>
  <scstep>
   <time name="dav">    0.03    0.03</time>
   <time name="total">    0.03    0.03</time>
   <energy>
    <i name="e_fr_energy">    -14.82241363 </i>
    <i name="e_wo_entrp">    -14.82258625 </i>
    <i name="e_0_energy">    -14.82247117 </i>
   </energy>
  </scstep>
  <scstep>
   <time name="dav">    0.03    0.03</time>
   <time name="total">    0.03    0.03</time>
   <energy>
    <i name="e_fr_energy">    -14.20773669 </i>
    <i name="e_wo_entrp">    -14.20703072 </i>
    <i name="e_0_energy">    -14.20750137 </i>
   </energy>
  </scstep>
  <scstep>
   <time name="dav">    0.03    0.03</time>
   <time name="total">    0.03    0.03</time>
   <energy>
    <i name="e_fr_energy">    -14.01088133 </i>
    <i name="e_wo_entrp">    -14.01036221 </i>
    <i name="e_0_energy">    -14.01070829 </i>
   </energy>
  </scstep>
  <scstep>
   <time name="dav">    0.03    0.03</time>
   <time name="total">    0.03    0.03</time>
   <energy>
    <i name="e_fr_energy">    -14.01007383 </i>
    <i name="e_wo_entrp">    -14.00927952 </i>
    <i name="e_0_energy">    -14.00980906 </i>
   </energy>
  </scstep>
  <scstep>
   <time name="dav">    0.03    0.03</time>
   <time name="total">    0.03    0.03</time>
   <energy>
    <i name="e_fr_energy">    -14.00821167 </i>
    <i name="e_wo_entrp">    -14.00761305 </i>
    <i name="e_0_energy">    -14.00801213 </i>
   </energy>
  </scstep>
  <scstep>
   <time name="dav">    0.02    0.02</time>
   <time name="total">    0.02    0.02</time>
   <energy>
    <i name="alphaZ">     40.66819379 </i>
    <i name="ewald">   -290.23857480 </i>
    <i name="hartreedc">     -2.84810665 </i>
    <i name="XCdc">    -47.05215125 </i>
    <i name="pawpsdc">    224.38068847 </i>
    <i name="pawaedc">   -168.04514452 </i>
    <i name="eentropy">     -0.00060826 </i>
    <i name="bandstr">     22.61963001 </i>
    <i name="atom">    206.50785835 </i>
    <i name="e_fr_energy">    -14.00821486 </i>
    <i name="e_wo_entrp">    -14.00760659 </i>
    <i name="e_0_energy">    -14.00801210 </i>
   </energy>
  </scstep>
  <structure>
   <crystal>
    <varray name="basis" >
     <v>      -1.62500000       1.62500000       1.62500000 </v>
     <v>       1.62500000      -1.62500000       1.62500000 </v>
     <v>       1.62500000       1.62500000      -1.62500000 </v>
    </varray>
    <i name="volume">     17.16406250 </i>
    <varray name="rec_basis" >
     <v>       0.00000000       0.30769231       0.30769231 </v>
     <v>       0.30769231       0.00000000       0.30769231 </v>
     <v>       0.30769231       0.30769231       0.00000000 </v>
    </varray>
   </crystal>
   <varray name="positions" >
    <v>       0.00000000       0.00000000       0.00000000 </v>
   </varray>
  </structure>
  <varray name="forces" >
   <v>       0.00000000      -0.00000000       0.00000000 </v>
  </varray>
  <varray name="stress" >
   <v>    -320.55942439      -0.00000000       0.00000000 </v>
   <v>      -0.00000000    -320.55942439      -0.00000000 </v>
   <v>       0.00000000       0.00000000    -320.55942439 </v>
  </varray>
  <energy>
   <i name="e_fr_energy">    -14.00821486 </i>
   <i name="e_wo_entrp">    -14.00801210 </i>
   <i name="e_0_energy">     -0.00060826 </i>
  </energy>
  <time name="totalsc">    0.37    0.37</time>
  <eigenvalues>
   <array>
    <dimension dim="1">band</dimension>
    <dimension dim="2">kpoint</dimension>
    <dimension dim="3">spin</dimension>
    <field>eigene</field>
    <field>occ</field>
    <set>
     <set comment="spin 1">
      <set comment="kpoint 1">
       <r>   -1.5287    1.0000 </r>
       <r>    5.4832    1.0000 </r>
       <r>    5.4832    1.0000 </r>
       <r>    6.5263    1.0352 </r>
       <r>    8.6981   -0.0000 </r>
       <r>    8.6981   -0.0000 </r>
       <r>   22.3754    0.0000 </r>
       <r>   23.0677    0.0000 </r>
      </set>
      <set comment="kpoint 2">
       <r>   -0.4114    1.0000 </r>
       <r>    4.8761    1.0000 </r>
       <r>    5.1148    1.0000 </r>
       <r>    7.8535   -0.0000 </r>
       <r>    8.3934   -0.0000 </r>
       <r>    8.9346   -0.0000 </r>
       <r>   22.6512    0.0000 </r>
       <r>   23.5945    0.0000 </r>
      </set>
      <set comment="kpoint 3">
       <r>    0.8707    1.0000 </r>
       <r>    4.2673    1.0000 </r>
       <r>    5.0050    1.0000 </r>
       <r>    8.5584   -0.0000 </r>
       <r>    9.2130   -0.0000 </r>
       <r>    9.7691   -0.0000 </r>
       <r>   21.0131    0.0000 </r>
       <r>   21.0931    0.0000 </r>
      </set>
      <set comment="kpoint 4">
       <r>    1.3906    1.0000 </r>
       <r>    3.8429    1.0000 </r>
       <r>    6.0884    1.0000 </r>
       <r>    8.8597   -0.0000 </r>
       <r>    9.4970   -0.0000 </r>
       <r>   11.8073   -0.0000 </r>
       <r>   17.8415    0.0000 </r>
       <r>   19.4940    0.0000 </r>
      </set>
      <set comment="kpoint 5">
       <r>    1.4093    1.0000 </r>
       <r>    3.6926    1.0000 </r>
       <r>    7.1456   -0.0106 </r>
       <r>    8.8384   -0.0000 </r>
       <r>    9.6296   -0.0000 </r>
       <r>   12.8445    0.0000 </r>
       <r>   16.3654    0.0000 </r>
       <r>   18.8696    0.0000 </r>
      </set>
      <set comment="kpoint 6">
       <r>   -1.9427    1.0000 </r>
       <r>    5.7621    1.0000 </r>
       <r>    5.7625    1.0000 </r>
       <r>    5.8827    1.0000 </r>
       <r>    8.5880   -0.0000 </r>
       <r>    9.0028   -0.0000 </r>
       <r>   22.2559    0.0000 </r>
       <r>   22.3259    0.0000 </r>
      </set>
      <set comment="kpoint 7">
       <r>    0.8467    1.0000 </r>
       <r>    4.4511    1.0000 </r>
       <r>    4.4816    1.0000 </r>
       <r>    8.4515   -0.0000 </r>
       <r>    9.2304   -0.0000 </r>
       <r>    9.7286   -0.0000 </r>
       <r>   21.6445    0.0000 </r>
       <r>   22.7769    0.0000 </r>
      </set>
      <set comment="kpoint 8">
       <r>    1.9221    1.0000 </r>
       <r>    3.9852    1.0000 </r>
       <r>    4.7099    1.0000 </r>
       <r>    8.7101   -0.0000 </r>
       <r>    9.5140   -0.0000 </r>
       <r>   11.9548   -0.0000 </r>
       <r>   18.5507    0.0000 </r>
       <r>   20.9295    0.0000 </r>
      </set>
      <set comment="kpoint 9">
       <r>    2.0965    1.0000 </r>
       <r>    3.7659    1.0000 </r>
       <r>    5.8655    1.0000 </r>
       <r>    8.9441   -0.0000 </r>
       <r>    9.7008   -0.0000 </r>
       <r>   13.8154    0.0000 </r>
       <r>   15.8632    0.0000 </r>
       <r>   19.6484    0.0000 </r>
      </set>
      <set comment="kpoint 10">
       <r>   -1.1294    1.0000 </r>
       <r>    5.3585    1.0000 </r>
       <r>    5.6178    1.0000 </r>
       <r>    6.6754    0.8364 </r>
       <r>    7.9860   -0.0000 </r>
       <r>    9.1667   -0.0000 </r>
       <r>   22.7232    0.0000 </r>
       <r>   23.6357    0.0000 </r>
      </set>
      <set comment="kpoint 11">
       <r>    2.7076    1.0000 </r>
       <r>    3.9901    1.0000 </r>
       <r>    4.7777    1.0000 </r>
       <r>    8.9921   -0.0000 </r>
       <r>    9.6146   -0.0000 </r>
       <r>   14.2886    0.0000 </r>
       <r>   15.8514    0.0000 </r>
       <r>   19.8386    0.0000 </r>
      </set>
      <set comment="kpoint 12">
       <r>    2.8299    1.0000 </r>
       <r>    4.0727    1.0000 </r>
       <r>    5.0708    1.0000 </r>
       <r>    9.2159   -0.0000 </r>
       <r>    9.6644   -0.0000 </r>
       <r>   14.3054    0.0000 </r>
       <r>   15.9628    0.0000 </r>
       <r>   18.5456    0.0000 </r>
      </set>
      <set comment="kpoint 13">
       <r>    0.1755    1.0000 </r>
       <r>    4.7302    1.0000 </r>
       <r>    5.2346    1.0000 </r>
       <r>    7.9737   -0.0000 </r>
       <r>    8.2398   -0.0000 </r>
       <r>    9.3361   -0.0000 </r>
       <r>   21.6904    0.0000 </r>
       <r>   22.8795    0.0000 </r>
      </set>
      <set comment="kpoint 14">
       <r>   -0.0523    1.0000 </r>
       <r>    5.1584    1.0000 </r>
       <r>    5.1638    1.0000 </r>
       <r>    7.4626   -0.0000 </r>
       <r>    7.7791   -0.0000 </r>
       <r>    9.5016   -0.0000 </r>
       <r>   22.5546    0.0000 </r>
       <r>   23.5211    0.0000 </r>
      </set>
      <set comment="kpoint 15">
       <r>    1.1263    1.0000 </r>
       <r>    4.1766    1.0000 </r>
       <r>    5.5594    1.0000 </r>
       <r>    8.4725   -0.0000 </r>
       <r>    9.5357   -0.0000 </r>
       <r>   10.2624   -0.0000 </r>
       <r>   19.2967    0.0000 </r>
       <r>   20.5474    0.0000 </r>
      </set>
      <set comment="kpoint 16">
       <r>    1.2085    1.0000 </r>
       <r>    4.5121    1.0000 </r>
       <r>    4.9613    1.0000 </r>
       <r>    7.7272   -0.0000 </r>
       <r>    9.4848   -0.0000 </r>
       <r>    9.8694   -0.0000 </r>
       <r>   20.1614    0.0000 </r>
       <r>   22.6279    0.0000 </r>
      </set>
      <set comment="kpoint 17">
       <r>    1.2905    1.0000 </r>
       <r>    3.8635    1.0000 </r>
       <r>    6.7630    0.5031 </r>
       <r>    8.6181   -0.0000 </r>
       <r>    9.9767   -0.0000 </r>
       <r>   12.0172   -0.0000 </r>
       <r>   17.0745    0.0000 </r>
       <r>   19.1783    0.0000 </r>
      </set>
      <set comment="kpoint 18">
       <r>    1.7499    1.0000 </r>
       <r>    4.1732    1.0000 </r>
       <r>    5.4493    1.0000 </r>
       <r>    8.2512   -0.0000 </r>
       <r>    9.8950   -0.0000 </r>
       <r>   11.8897   -0.0000 </r>
       <r>   17.7410    0.0000 </r>
       <r>   20.6606    0.0000 </r>
      </set>
      <set comment="kpoint 19">
       <r>    2.2473    1.0000 </r>
       <r>    4.0132    1.0000 </r>
       <r>    5.0081    1.0000 </r>
       <r>    8.0060   -0.0000 </r>
       <r>    9.5876   -0.0000 </r>
       <r>   12.0565   -0.0000 </r>
       <r>   18.1136    0.0000 </r>
       <r>   21.6455    0.0000 </r>
      </set>
      <set comment="kpoint 20">
       <r>    1.7633    1.0000 </r>
       <r>    4.0601    1.0000 </r>
       <r>    6.0152    1.0000 </r>
       <r>    8.2054   -0.0000 </r>
       <r>   10.4923   -0.0000 </r>
       <r>   13.0830    0.0000 </r>
       <r>   16.2198    0.0000 </r>
       <r>   19.9296    0.0000 </r>
      </set>
      <set comment="kpoint 21">
       <r>    2.6109    1.0000 </r>
       <r>    4.0492    1.0000 </r>
       <r>    5.0022    1.0000 </r>
       <r>    8.4579   -0.0000 </r>
       <r>    9.8691   -0.0000 </r>
       <r>   14.3767    0.0000 </r>
       <r>   15.8305    0.0000 </r>
       <r>   19.7199    0.0000 </r>
      </set>
      <set comment="kpoint 22">
       <r>    3.1745    1.0000 </r>
       <r>    4.2463    1.0000 </r>
       <r>    4.2465    1.0000 </r>
       <r>    9.3464   -0.0000 </r>
       <r>    9.3467   -0.0000 </r>
       <r>   14.5881    0.0000 </r>
       <r>   17.2598    0.0000 </r>
       <r>   17.2603    0.0000 </r>
      </set>
      <set comment="kpoint 23">
       <r>    2.2190    1.0000 </r>
       <r>    3.9892    1.0000 </r>
       <r>    3.9892    1.0000 </r>
       <r>    9.1832   -0.0000 </r>
       <r>    9.1832   -0.0000 </r>
       <r>   12.0642   -0.0000 </r>
       <r>   19.4336    0.0000 </r>
       <r>   21.4171    0.0000 </r>
      </set>
      <set comment="kpoint 24">
       <r>    2.9672    1.0000 </r>
       <r>    3.7527    1.0000 </r>
       <r>    4.5739    1.0000 </r>
       <r>    9.3209   -0.0000 </r>
       <r>    9.5819   -0.0000 </r>
       <r>   14.2716    0.0000 </r>
       <r>   15.9887    0.0000 </r>
       <r>   20.1895    0.0000 </r>
      </set>
      <set comment="kpoint 25">
       <r>    2.9172    1.0000 </r>
       <r>    3.6827    1.0000 </r>
       <r>    5.4631    1.0000 </r>
       <r>    9.3834   -0.0000 </r>
       <r>    9.7041   -0.0000 </r>
       <r>   14.2887    0.0000 </r>
       <r>   15.4904    0.0000 </r>
       <r>   19.7224    0.0000 </r>
      </set>
      <set comment="kpoint 26">
       <r>   -0.3524    1.0000 </r>
       <r>    5.7968    1.0000 </r>
       <r>    5.7972    1.0000 </r>
       <r>    6.6801    0.8219 </r>
       <r>    6.7047    0.7383 </r>
       <r>    9.6752   -0.0000 </r>
       <r>   23.7468    0.0000 </r>
       <r>   24.0375    0.0000 </r>
      </set>
      <set comment="kpoint 27">
       <r>    3.4340    1.0000 </r>
       <r>    4.1066    1.0000 </r>
       <r>    4.6169    1.0000 </r>
       <r>    9.5852   -0.0000 </r>
       <r>    9.6944   -0.0000 </r>
       <r>   13.6850    0.0000 </r>
       <r>   16.5329    0.0000 </r>
       <r>   18.7323    0.0000 </r>
      </set>
      <set comment="kpoint 28">
       <r>    0.8975    1.0000 </r>
       <r>    5.1421    1.0000 </r>
       <r>    5.4723    1.0000 </r>
       <r>    6.6983    0.7612 </r>
       <r>    8.0081   -0.0000 </r>
       <r>    9.8766   -0.0000 </r>
       <r>   21.2742    0.0000 </r>
       <r>   24.4173    0.0000 </r>
      </set>
      <set comment="kpoint 29">
       <r>    1.8531    1.0000 </r>
       <r>    4.6531    1.0000 </r>
       <r>    4.9955    1.0000 </r>
       <r>    7.5012   -0.0000 </r>
       <r>   10.0324   -0.0000 </r>
       <r>   10.1457   -0.0000 </r>
       <r>   19.3133    0.0000 </r>
       <r>   22.5879    0.0000 </r>
      </set>
      <set comment="kpoint 30">
       <r>    2.0246    1.0000 </r>
       <r>    4.2529    1.0000 </r>
       <r>    5.6685    1.0000 </r>
       <r>    6.9648   -0.0257 </r>
       <r>    9.2137   -0.0000 </r>
       <r>   10.2165   -0.0000 </r>
       <r>   20.0653    0.0000 </r>
       <r>   23.7849    0.0000 </r>
      </set>
      <set comment="kpoint 31">
       <r>    1.9799    1.0000 </r>
       <r>    4.7125    1.0000 </r>
       <r>    5.0981    1.0000 </r>
       <r>    7.4875   -0.0000 </r>
       <r>   11.5455   -0.0000 </r>
       <r>   11.8351   -0.0000 </r>
       <r>   16.9982    0.0000 </r>
       <r>   21.4087    0.0000 </r>
      </set>
      <set comment="kpoint 32">
       <r>    2.6094    1.0000 </r>
       <r>    3.9378    1.0000 </r>
       <r>    5.3168    1.0000 </r>
       <r>    7.5982   -0.0000 </r>
       <r>   10.0466   -0.0000 </r>
       <r>   12.2415    0.0000 </r>
       <r>   18.0020    0.0000 </r>
       <r>   21.4955    0.0000 </r>
      </set>
      <set comment="kpoint 33">
       <r>    2.5661    1.0000 </r>
       <r>    4.3564    1.0000 </r>
       <r>    4.8692    1.0000 </r>
       <r>    7.6202   -0.0000 </r>
       <r>   11.0350   -0.0000 </r>
       <r>   14.0587    0.0000 </r>
       <r>   15.9051    0.0000 </r>
       <r>   20.1448    0.0000 </r>
      </set>
      <set comment="kpoint 34">
       <r>    3.4328    1.0000 </r>
       <r>    3.4547    1.0000 </r>
       <r>    4.6216    1.0000 </r>
       <r>    8.7878   -0.0000 </r>
       <r>    9.9280   -0.0000 </r>
       <r>   14.8594    0.0000 </r>
       <r>   16.1890    0.0000 </r>
       <r>   18.8359    0.0000 </r>
      </set>
      <set comment="kpoint 35">
       <r>    4.1798    1.0000 </r>
       <r>    4.1798    1.0000 </r>
       <r>    4.1801    1.0000 </r>
       <r>    9.7505   -0.0000 </r>
       <r>    9.7505   -0.0000 </r>
       <r>   12.8631    0.0000 </r>
       <r>   18.3809    0.0000 </r>
       <r>   18.3812    0.0000 </r>
      </set>
      <set comment="kpoint 36">
       <r>    1.9565    1.0000 </r>
       <r>    4.4676    1.0000 </r>
       <r>    6.4408    1.0224 </r>
       <r>    6.4411    1.0225 </r>
       <r>    8.1425   -0.0000 </r>
       <r>    9.9406   -0.0000 </r>
       <r>   21.0740    0.0000 </r>
       <r>   25.1247    0.0000 </r>
      </set>
      <set comment="kpoint 37">
       <r>    2.6869    1.0000 </r>
       <r>    3.5847    1.0000 </r>
       <r>    6.4984    1.0341 </r>
       <r>    7.1149   -0.0162 </r>
       <r>    9.7447   -0.0000 </r>
       <r>   10.4065   -0.0000 </r>
       <r>   20.2774    0.0000 </r>
       <r>   22.6433    0.0000 </r>
      </set>
      <set comment="kpoint 38">
       <r>    2.6081    1.0000 </r>
       <r>    3.5450    1.0000 </r>
       <r>    6.3315    1.0046 </r>
       <r>    7.0837   -0.0231 </r>
       <r>   11.5575   -0.0000 </r>
       <r>   12.6778    0.0000 </r>
       <r>   17.0634    0.0000 </r>
       <r>   20.3407    0.0000 </r>
      </set>
      <set comment="kpoint 39">
       <r>    2.9213    1.0000 </r>
       <r>    2.9287    1.0000 </r>
       <r>    6.4198    1.0177 </r>
       <r>    8.2915   -0.0000 </r>
       <r>   10.2251   -0.0000 </r>
       <r>   12.4811    0.0000 </r>
       <r>   18.2742    0.0000 </r>
       <r>   19.9408    0.0000 </r>
      </set>
      <set comment="kpoint 40">
       <r>    2.6666    1.0000 </r>
       <r>    2.9941    1.0000 </r>
       <r>    6.1855    1.0002 </r>
       <r>    8.8102   -0.0000 </r>
       <r>   10.9365   -0.0000 </r>
       <r>   15.1423    0.0000 </r>
       <r>   15.6089    0.0000 </r>
       <r>   18.2448    0.0000 </r>
      </set>
      <set comment="kpoint 41">
       <r>    2.7092    1.0000 </r>
       <r>    2.7359    1.0000 </r>
       <r>    8.1007   -0.0000 </r>
       <r>    8.1011   -0.0000 </r>
       <r>    9.9250   -0.0000 </r>
       <r>   10.8754   -0.0000 </r>
       <r>   20.2840    0.0000 </r>
       <r>   20.2843    0.0000 </r>
      </set>
      <set comment="kpoint 42">
       <r>    2.2712    1.0000 </r>
       <r>    2.4432    1.0000 </r>
       <r>    8.5280   -0.0000 </r>
       <r>    8.6492   -0.0000 </r>
       <r>   11.3019   -0.0000 </r>
       <r>   13.1786    0.0000 </r>
       <r>   16.9430    0.0000 </r>
       <r>   18.0981    0.0000 </r>
      </set>
      <set comment="kpoint 43">
       <r>    2.1204    1.0000 </r>
       <r>    2.1204    1.0000 </r>
       <r>    8.5427   -0.0000 </r>
       <r>   10.7406   -0.0000 </r>
       <r>   10.7413   -0.0000 </r>
       <r>   15.5690    0.0000 </r>
       <r>   15.6965    0.0000 </r>
       <r>   15.6967    0.0000 </r>
      </set>
      <set comment="kpoint 44">
       <r>    1.8194    1.0000 </r>
       <r>    1.8683    1.0000 </r>
       <r>   10.6565   -0.0000 </r>
       <r>   10.6570   -0.0000 </r>
       <r>   11.2732   -0.0000 </r>
       <r>   13.9488    0.0000 </r>
       <r>   15.8327    0.0000 </r>
       <r>   15.8328    0.0000 </r>
      </set>
     </set>
    </set>
   </array>
  </eigenvalues>
  <separator name="orbital magnetization" >
   <v name="MAGDIPOLOUT">      0.00000000      0.00000000      0.00000000</v>
  </separator>
  <dos>
   <i name="efermi">      6.76375971 </i>
   <total>
    <array>
     <dimension dim="1">gridpoints</dimension>
     <dimension dim="2">spin</dimension>
     <field>energy</field>
     <field>total</field>
     <field>integrated</field>
     <set>
      <set comment="spin 1">
       <r>    -3.9427     0.0000     0.0000 </r>
       <r>    -3.8392     0.0000     0.0000 </r>
       <r>    -3.7356     0.0000     0.0000 </r>
       <r>    -3.6321    -0.0000    -0.0000 </r>
       <r>    -3.5285    -0.0000    -0.0000 </r>
       <r>    -3.4250    -0.0000    -0.0000 </r>
       <r>    -3.3214    -0.0000    -0.0000 </r>
       <r>    -3.2178    -0.0000    -0.0000 </r>
       <r>    -3.1143    -0.0000    -0.0000 </r>
       <r>    -3.0107    -0.0000    -0.0000 </r>
       <r>    -2.9072    -0.0000    -0.0000 </r>
       <r>    -2.8036    -0.0000    -0.0000 </r>
       <r>    -2.7000    -0.0000    -0.0000 </r>
       <r>    -2.5965    -0.0000    -0.0000 </r>
       <r>    -2.4929    -0.0000    -0.0000 </r>
       <r>    -2.3894    -0.0004    -0.0000 </r>
       <r>    -2.2858    -0.0017    -0.0002 </r>
       <r>    -2.1823    -0.0020    -0.0004 </r>
       <r>    -2.0787     0.0095     0.0006 </r>
       <r>    -1.9751     0.0363     0.0043 </r>
       <r>    -1.8716     0.0460     0.0091 </r>
       <r>    -1.7680     0.0234     0.0115 </r>
       <r>    -1.6645     0.0156     0.0131 </r>
       <r>    -1.5609     0.0447     0.0178 </r>
       <r>    -1.4574     0.0555     0.0235 </r>
       <r>    -1.3538     0.0289     0.0265 </r>
       <r>    -1.2502     0.0557     0.0323 </r>
       <r>    -1.1467     0.1585     0.0487 </r>
       <r>    -1.0431     0.1853     0.0679 </r>
       <r>    -0.9396     0.0870     0.0769 </r>
       <r>    -0.8360     0.0023     0.0771 </r>
       <r>    -0.7324    -0.0188     0.0752 </r>
       <r>    -0.6289    -0.0102     0.0741 </r>
       <r>    -0.5253     0.0602     0.0804 </r>
       <r>    -0.4218     0.1895     0.1000 </r>
       <r>    -0.3182     0.2208     0.1228 </r>
       <r>    -0.2147     0.1316     0.1365 </r>
       <r>    -0.1111     0.1199     0.1489 </r>
       <r>    -0.0075     0.1917     0.1687 </r>
       <r>     0.0960     0.2246     0.1920 </r>
       <r>     0.1996     0.2177     0.2145 </r>
       <r>     0.3031     0.1458     0.2296 </r>
       <r>     0.4067     0.0364     0.2334 </r>
       <r>     0.5103    -0.0246     0.2309 </r>
       <r>     0.6138    -0.0344     0.2273 </r>
       <r>     0.7174     0.0723     0.2348 </r>
       <r>     0.8209     0.3628     0.2724 </r>
       <r>     0.9245     0.5513     0.3295 </r>
       <r>     1.0280     0.4489     0.3759 </r>
       <r>     1.1316     0.4560     0.4232 </r>
       <r>     1.2352     0.6779     0.4934 </r>
       <r>     1.3387     0.7195     0.5679 </r>
       <r>     1.4423     0.4707     0.6166 </r>
       <r>     1.5458     0.1710     0.6343 </r>
       <r>     1.6494     0.1836     0.6533 </r>
       <r>     1.7530     0.6112     0.7166 </r>
       <r>     1.8565     1.0625     0.8267 </r>
       <r>     1.9601     1.2361     0.9547 </r>
       <r>     2.0636     1.1819     1.0771 </r>
       <r>     2.1672     0.9834     1.1789 </r>
       <r>     2.2707     0.6894     1.2503 </r>
       <r>     2.3743     0.4217     1.2940 </r>
       <r>     2.4779     0.5532     1.3513 </r>
       <r>     2.5814     1.2487     1.4806 </r>
       <r>     2.6850     1.7193     1.6586 </r>
       <r>     2.7885     1.4074     1.8044 </r>
       <r>     2.8921     1.0389     1.9120 </r>
       <r>     2.9956     0.9120     2.0064 </r>
       <r>     3.0992     0.5590     2.0643 </r>
       <r>     3.2028     0.1426     2.0791 </r>
       <r>     3.3063     0.1040     2.0898 </r>
       <r>     3.4099     0.4517     2.1366 </r>
       <r>     3.5134     0.7819     2.2176 </r>
       <r>     3.6170     0.8301     2.3035 </r>
       <r>     3.7206     0.8832     2.3950 </r>
       <r>     3.8241     1.1774     2.5169 </r>
       <r>     3.9277     1.7208     2.6951 </r>
       <r>     4.0312     2.2860     2.9319 </r>
       <r>     4.1348     2.3045     3.1705 </r>
       <r>     4.2383     1.7303     3.3497 </r>
       <r>     4.3419     1.1222     3.4659 </r>
       <r>     4.4455     0.9802     3.5674 </r>
       <r>     4.5490     1.3121     3.7033 </r>
       <r>     4.6526     1.6399     3.8731 </r>
       <r>     4.7561     1.5975     4.0386 </r>
       <r>     4.8597     1.4331     4.1870 </r>
       <r>     4.9633     1.7104     4.3641 </r>
       <r>     5.0668     2.1104     4.5826 </r>
       <r>     5.1704     1.9165     4.7811 </r>
       <r>     5.2739     1.3952     4.9256 </r>
       <r>     5.3775     1.1966     5.0495 </r>
       <r>     5.4810     1.2512     5.1791 </r>
       <r>     5.5846     1.1067     5.2937 </r>
       <r>     5.6882     0.7983     5.3764 </r>
       <r>     5.7917     0.6540     5.4441 </r>
       <r>     5.8953     0.6588     5.5123 </r>
       <r>     5.9988     0.6087     5.5754 </r>
       <r>     6.1024     0.5167     5.6289 </r>
       <r>     6.2059     0.4382     5.6742 </r>
       <r>     6.3095     0.4319     5.7190 </r>
       <r>     6.4131     0.5434     5.7752 </r>
       <r>     6.5166     0.6197     5.8394 </r>
       <r>     6.6202     0.6396     5.9056 </r>
       <r>     6.7237     0.6741     5.9755 </r>
       <r>     6.8273     0.5431     6.0317 </r>
       <r>     6.9309     0.3623     6.0692 </r>
       <r>     7.0344     0.4341     6.1142 </r>
       <r>     7.1380     0.5276     6.1688 </r>
       <r>     7.2415     0.3343     6.2034 </r>
       <r>     7.3451     0.1677     6.2208 </r>
       <r>     7.4486     0.4482     6.2672 </r>
       <r>     7.5522     0.9322     6.3637 </r>
       <r>     7.6558     1.1336     6.4811 </r>
       <r>     7.7593     1.0145     6.5862 </r>
       <r>     7.8629     0.8584     6.6751 </r>
       <r>     7.9664     0.8745     6.7656 </r>
       <r>     8.0700     0.9287     6.8618 </r>
       <r>     8.1736     0.9558     6.9608 </r>
       <r>     8.2771     1.0915     7.0738 </r>
       <r>     8.3807     1.2604     7.2044 </r>
       <r>     8.4842     1.4456     7.3541 </r>
       <r>     8.5878     1.5291     7.5124 </r>
       <r>     8.6913     1.4475     7.6623 </r>
       <r>     8.7949     1.3750     7.8047 </r>
       <r>     8.8985     1.3158     7.9410 </r>
       <r>     9.0020     1.1086     8.0558 </r>
       <r>     9.1056     0.9357     8.1527 </r>
       <r>     9.2091     1.1336     8.2701 </r>
       <r>     9.3127     1.3547     8.4104 </r>
       <r>     9.4163     1.5115     8.5669 </r>
       <r>     9.5198     2.0402     8.7782 </r>
       <r>     9.6234     2.5557     9.0428 </r>
       <r>     9.7269     2.5848     9.3105 </r>
       <r>     9.8305     2.4549     9.5647 </r>
       <r>     9.9340     2.3054     9.8035 </r>
       <r>    10.0376     1.8246     9.9924 </r>
       <r>    10.1412     1.2242    10.1192 </r>
       <r>    10.2447     0.8768    10.2100 </r>
       <r>    10.3483     0.6549    10.2778 </r>
       <r>    10.4518     0.4633    10.3258 </r>
       <r>    10.5554     0.3331    10.3603 </r>
       <r>    10.6589     0.2487    10.3861 </r>
       <r>    10.7625     0.2297    10.4098 </r>
       <r>    10.8661     0.2819    10.4390 </r>
       <r>    10.9696     0.3648    10.4768 </r>
       <r>    11.0732     0.3430    10.5123 </r>
       <r>    11.1767     0.2307    10.5362 </r>
       <r>    11.2803     0.2045    10.5574 </r>
       <r>    11.3839     0.2425    10.5825 </r>
       <r>    11.4874     0.3020    10.6138 </r>
       <r>    11.5910     0.3476    10.6498 </r>
       <r>    11.6945     0.3319    10.6842 </r>
       <r>    11.7981     0.5606    10.7422 </r>
       <r>    11.9016     1.0487    10.8508 </r>
       <r>    12.0052     1.2172    10.9769 </r>
       <r>    12.1088     0.9050    11.0706 </r>
       <r>    12.2123     0.5627    11.1289 </r>
       <r>    12.3159     0.3882    11.1691 </r>
       <r>    12.4194     0.2679    11.1968 </r>
       <r>    12.5230     0.2215    11.2197 </r>
       <r>    12.6266     0.2381    11.2444 </r>
       <r>    12.7301     0.2434    11.2696 </r>
       <r>    12.8337     0.1962    11.2899 </r>
       <r>    12.9372     0.1469    11.3051 </r>
       <r>    13.0408     0.2114    11.3270 </r>
       <r>    13.1443     0.3365    11.3619 </r>
       <r>    13.2479     0.3007    11.3930 </r>
       <r>    13.3515     0.1127    11.4047 </r>
       <r>    13.4550    -0.0153    11.4031 </r>
       <r>    13.5586     0.0113    11.4043 </r>
       <r>    13.6621     0.1956    11.4245 </r>
       <r>    13.7657     0.4371    11.4698 </r>
       <r>    13.8692     0.5046    11.5220 </r>
       <r>    13.9728     0.3554    11.5588 </r>
       <r>    14.0764     0.2334    11.5830 </r>
       <r>    14.1799     0.3772    11.6221 </r>
       <r>    14.2835     0.7949    11.7044 </r>
       <r>    14.3870     0.9804    11.8059 </r>
       <r>    14.4906     0.6088    11.8690 </r>
       <r>    14.5942     0.1673    11.8863 </r>
       <r>    14.6977     0.0350    11.8899 </r>
       <r>    14.8013     0.1072    11.9010 </r>
       <r>    14.9048     0.1808    11.9197 </r>
       <r>    15.0084     0.1696    11.9373 </r>
       <r>    15.1119     0.1734    11.9552 </r>
       <r>    15.2155     0.1717    11.9730 </r>
       <r>    15.3191     0.0859    11.9819 </r>
       <r>    15.4226     0.0600    11.9881 </r>
       <r>    15.5262     0.1813    12.0069 </r>
       <r>    15.6297     0.3525    12.0434 </r>
       <r>    15.7333     0.6686    12.1127 </r>
       <r>    15.8369     1.2369    12.2407 </r>
       <r>    15.9404     1.4668    12.3926 </r>
       <r>    16.0440     0.9882    12.4950 </r>
       <r>    16.1475     0.4933    12.5461 </r>
       <r>    16.2511     0.3750    12.5849 </r>
       <r>    16.3546     0.3140    12.6174 </r>
       <r>    16.4582     0.2349    12.6417 </r>
       <r>    16.5618     0.2054    12.6630 </r>
       <r>    16.6653     0.1167    12.6751 </r>
       <r>    16.7689     0.0209    12.6773 </r>
       <r>    16.8724     0.1448    12.6923 </r>
       <r>    16.9760     0.4971    12.7437 </r>
       <r>    17.0796     0.7057    12.8168 </r>
       <r>    17.1831     0.5308    12.8718 </r>
       <r>    17.2867     0.2399    12.8966 </r>
       <r>    17.3902     0.0635    12.9032 </r>
       <r>    17.4938    -0.0175    12.9014 </r>
       <r>    17.5973     0.0389    12.9054 </r>
       <r>    17.7009     0.2827    12.9347 </r>
       <r>    17.8045     0.5130    12.9878 </r>
       <r>    17.9080     0.5699    13.0468 </r>
       <r>    18.0116     0.6463    13.1138 </r>
       <r>    18.1151     0.7529    13.1917 </r>
       <r>    18.2187     0.6919    13.2634 </r>
       <r>    18.3222     0.4896    13.3141 </r>
       <r>    18.4258     0.3719    13.3526 </r>
       <r>    18.5294     0.5026    13.4047 </r>
       <r>    18.6329     0.6133    13.4682 </r>
       <r>    18.7365     0.5299    13.5230 </r>
       <r>    18.8400     0.4321    13.5678 </r>
       <r>    18.9436     0.2854    13.5973 </r>
       <r>    19.0472     0.1227    13.6100 </r>
       <r>    19.1507     0.1824    13.6289 </r>
       <r>    19.2543     0.4156    13.6720 </r>
       <r>    19.3578     0.5224    13.7261 </r>
       <r>    19.4614     0.4512    13.7728 </r>
       <r>    19.5649     0.4997    13.8245 </r>
       <r>    19.6685     0.7766    13.9050 </r>
       <r>    19.7721     0.9281    14.0011 </r>
       <r>    19.8756     0.7907    14.0830 </r>
       <r>    19.9792     0.6734    14.1527 </r>
       <r>    20.0827     0.8161    14.2372 </r>
       <r>    20.1863     1.0803    14.3491 </r>
       <r>    20.2899     1.0313    14.4559 </r>
       <r>    20.3934     0.6257    14.5207 </r>
       <r>    20.4970     0.3397    14.5559 </r>
       <r>    20.6005     0.3965    14.5969 </r>
       <r>    20.7041     0.4601    14.6446 </r>
       <r>    20.8076     0.3716    14.6830 </r>
       <r>    20.9112     0.4472    14.7294 </r>
       <r>    21.0148     0.6382    14.7954 </r>
       <r>    21.1183     0.5794    14.8554 </r>
       <r>    21.2219     0.3701    14.8938 </r>
       <r>    21.3254     0.3513    14.9302 </r>
       <r>    21.4290     0.5538    14.9875 </r>
       <r>    21.5325     0.7563    15.0658 </r>
       <r>    21.6361     0.8023    15.1489 </r>
       <r>    21.7397     0.6152    15.2126 </r>
       <r>    21.8432     0.2566    15.2392 </r>
       <r>    21.9468     0.0089    15.2401 </r>
       <r>    22.0503    -0.0373    15.2363 </r>
       <r>    22.1539    -0.0005    15.2362 </r>
       <r>    22.2575     0.0520    15.2416 </r>
       <r>    22.3610     0.0961    15.2515 </r>
       <r>    22.4646     0.2794    15.2805 </r>
       <r>    22.5681     0.8200    15.3654 </r>
       <r>    22.6717     1.3115    15.5012 </r>
       <r>    22.7752     1.1560    15.6209 </r>
       <r>    22.8788     0.6288    15.6860 </r>
       <r>    22.9824     0.2498    15.7119 </r>
       <r>    23.0859     0.0873    15.7209 </r>
       <r>    23.1895     0.0197    15.7230 </r>
       <r>    23.2930    -0.0194    15.7210 </r>
       <r>    23.3966     0.0315    15.7242 </r>
       <r>    23.5002     0.2608    15.7513 </r>
       <r>    23.6037     0.5340    15.8066 </r>
       <r>    23.7073     0.5834    15.8670 </r>
       <r>    23.8108     0.4076    15.9092 </r>
       <r>    23.9144     0.1916    15.9290 </r>
       <r>    24.0179     0.0628    15.9355 </r>
       <r>    24.1215     0.0209    15.9377 </r>
       <r>    24.2251     0.0170    15.9394 </r>
       <r>    24.3286     0.0844    15.9482 </r>
       <r>    24.4322     0.1829    15.9671 </r>
       <r>    24.5357     0.1630    15.9840 </r>
       <r>    24.6393     0.0537    15.9896 </r>
       <r>    24.7429    -0.0063    15.9889 </r>
       <r>    24.8464    -0.0103    15.9878 </r>
       <r>    24.9500     0.0010    15.9879 </r>
       <r>    25.0535     0.0259    15.9906 </r>
       <r>    25.1571     0.0482    15.9956 </r>
       <r>    25.2606     0.0368    15.9994 </r>
       <r>    25.3642     0.0096    16.0004 </r>
       <r>    25.4678    -0.0020    16.0002 </r>
       <r>    25.5713    -0.0017    16.0000 </r>
       <r>    25.6749    -0.0004    16.0000 </r>
       <r>    25.7784    -0.0000    16.0000 </r>
       <r>    25.8820    -0.0000    16.0000 </r>
       <r>    25.9855    -0.0000    16.0000 </r>
       <r>    26.0891    -0.0000    16.0000 </r>
       <r>    26.1927    -0.0000    16.0000 </r>
       <r>    26.2962    -0.0000    16.0000 </r>
       <r>    26.3998    -0.0000    16.0000 </r>
       <r>    26.5033     0.0000    16.0000 </r>
       <r>    26.6069     0.0000    16.0000 </r>
       <r>    26.7105     0.0000    16.0000 </r>
       <r>    26.8140     0.0000    16.0000 </r>
       <r>    26.9176     0.0000    16.0000 </r>
       <r>    27.0211     0.0000    16.0000 </r>
       <r>    27.1247     0.0000    16.0000 </r>
      </set>
     </set>
    </array>
   </total>
  </dos>
 </calculation>
 <structure name="finalpos" >
  <crystal>
   <varray name="basis" >
    <v>      -1.62500000       1.62500000       1.62500000 </v>
    <v>       1.62500000      -1.62500000       1.62500000 </v>
    <v>       1.62500000       1.62500000      -1.62500000 </v>
   </varray>
   <i name="volume">     17.16406250 </i>
   <varray name="rec_basis" >
    <v>       0.00000000       0.30769231       0.30769231 </v>
    <v>       0.30769231       0.00000000       0.30769231 </v>
    <v>       0.30769231       0.30769231       0.00000000 </v>
   </varray>
  </crystal>
  <varray name="positions" >
   <v>       0.00000000       0.00000000       0.00000000 </v>
  </varray>
 </structure>
</modeling>
