BCC W                                   
           1
    -1.625000    1.625000    1.625000
     1.625000   -1.625000    1.625000
     1.625000    1.625000   -1.625000
   W 
   1
Direct configuration=     1
   0.00000000  0.00000000  0.00000000
