fcc Au                                  
   3.85000000000000     
     0.000000    0.500000    0.500000
     0.500000    0.000000    0.500000
     0.500000    0.500000    0.000000
   Au
     1
Direct
  0.000000  0.000000  0.000000
 
   20   20   20
  68.386      65.213      57.207      47.394      37.711      28.437      19.707      12.556      8.0690      6.0627    
  5.4969      6.0627      8.0690      12.556      19.707      28.437      37.711      47.394      57.207      65.213    
  65.213      59.687      50.940      41.464      32.228      23.328      15.418      9.7138      6.6986      5.5405    
  5.5439      6.7030      9.7131      15.419      23.341      32.240      41.442      50.872      59.603      65.175    
  57.207      50.940      42.825      34.254      25.692      17.676      11.308      7.4276      5.6733      5.1649    
  5.6761      7.4272      11.307      17.685      25.712      34.260      42.788      50.866      57.145      59.603    
  47.394      41.464      34.254      26.509      18.903      12.455      8.1007      5.8600      4.9327      4.9331    
  5.8591      8.0964      12.452      18.908      26.522      34.265      41.462      47.384      50.866      50.872    
  37.711      32.228      25.692      18.903      12.872      8.5117      6.0272      4.8159      4.4568      4.8175    
  6.0270      8.5057      12.861      18.892      25.692      32.245      37.738      41.462      42.788      41.442    
  28.437      23.328      17.676      12.455      8.5117      6.0972      4.7750      4.1970      4.1977      4.7784    
  6.1027      8.5121      12.442      17.651      23.306      28.430      32.245      34.265      34.260      32.240    
  19.707      15.418      11.308      8.1007      6.0272      4.7750      4.1160      3.9172      4.1150      4.7805    
  6.0422      8.1153      11.307      15.395      19.670      23.306      25.692      26.522      25.712      23.341    
  12.556      9.7138      7.4276      5.8600      4.8159      4.1970      3.9172      3.9145      4.1921      4.8167    
  5.8741      7.4535      9.7371      12.558      15.395      17.651      18.892      18.908      17.685      15.419    
  8.0690      6.6986      5.6733      4.9327      4.4568      4.1977      4.1150      4.1921      4.4434      4.9180    
  5.6735      6.7231      8.1055      9.7371      11.307      12.442      12.861      12.452      11.307      9.7131    
  6.0627      5.5405      5.1649      4.9331      4.8175      4.7784      4.7805      4.8167      4.9180      5.1378    
  5.5188      6.0623      6.7231      7.4535      8.1153      8.5121      8.5057      8.0964      7.4272      6.7030    
  5.4969      5.5439      5.6761      5.8591      6.0270      6.1027      6.0422      5.8741      5.6735      5.5188    
  5.4618      5.5188      5.6735      5.8741      6.0422      6.1027      6.0270      5.8591      5.6761      5.5439    
  6.0627      6.7030      7.4272      8.0964      8.5057      8.5121      8.1153      7.4535      6.7231      6.0623    
  5.5188      5.1378      4.9180      4.8167      4.7805      4.7784      4.8175      4.9331      5.1649      5.5405    
  8.0690      9.7131      11.307      12.452      12.861      12.442      11.307      9.7371      8.1055      6.7231    
  5.6735      4.9180      4.4434      4.1921      4.1150      4.1977      4.4568      4.9327      5.6733      6.6986    
  12.556      15.419      17.685      18.908      18.892      17.651      15.395      12.558      9.7371      7.4535    
  5.8741      4.8167      4.1921      3.9145      3.9172      4.1970      4.8159      5.8600      7.4276      9.7138    
  19.707      23.341      25.712      26.522      25.692      23.306      19.670      15.395      11.307      8.1153    
  6.0422      4.7805      4.1150      3.9172      4.1160      4.7750      6.0272      8.1007      11.308      15.418    
  28.437      32.240      34.260      34.265      32.245      28.430      23.306      17.651      12.442      8.5121    
  6.1027      4.7784      4.1977      4.1970      4.7750      6.0972      8.5117      12.455      17.676      23.328    
  37.711      41.442      42.788      41.462      37.738      32.245      25.692      18.892      12.861      8.5057    
  6.0270      4.8175      4.4568      4.8159      6.0272      8.5117      12.872      18.903      25.692      32.228    
  47.394      50.872      50.866      47.384      41.462      34.265      26.522      18.908      12.452      8.0964    
  5.8591      4.9331      4.9327      5.8600      8.1007      12.455      18.903      26.509      34.254      41.464    
  57.207      59.603      57.145      50.866      42.788      34.260      25.712      17.685      11.307      7.4272    
  5.6761      5.1649      5.6733      7.4276      11.308      17.676      25.692      34.254      42.825      50.940    
  65.213      65.175      59.603      50.872      41.442      32.240      23.341      15.419      9.7131      6.7030    
  5.5439      5.5405      6.6986      9.7138      15.418      23.328      32.228      41.464      50.940      59.687    
  65.213      59.687      50.940      41.464      32.228      23.328      15.418      9.7138      6.6986      5.5405    
  5.5439      6.7030      9.7131      15.419      23.341      32.240      41.442      50.872      59.603      65.175    
  59.687      52.853      44.173      35.246      26.484      18.281      11.694      7.6333      5.8031      5.2775    
  5.8066      7.6326      11.693      18.296      26.514      35.250      44.109      52.732      59.587      62.312    
  50.940      44.173      36.299      28.136      20.177      13.320      8.5803      6.1234      5.1296      5.1306    
  6.1225      8.5755      13.323      20.199      28.165      36.299      44.124      50.870      54.988      55.021    
  41.464      35.246      28.136      20.837      14.231      9.2968      6.4308      5.0759      4.6759      5.0788    
  6.4292      9.2882      14.225      20.845      28.159      35.270      41.478      45.905      47.541      45.901    
  32.228      26.484      20.177      14.231      9.5669      6.6327      5.0785      4.4047      4.4070      5.0824    
  6.6312      9.5557      14.215      20.168      26.495      32.258      36.675      39.088      39.074      36.642    
  23.328      18.281      13.320      9.2968      6.6327      5.0899      4.2842      4.0450      4.2845      5.0947    
  6.6407      9.2975      13.305      18.256      23.310      27.581      30.398      31.374      30.393      27.584    
  15.418      11.694      8.5803      6.4308      5.0785      4.2842      3.9337      3.9313      4.2830      5.0882    
  6.4509      8.5972      11.693      15.396      19.014      21.834      23.361      23.371      21.860      19.046    
  9.7138      7.6333      6.1234      5.0759      4.4047      4.0450      3.9313      4.0399      4.3985      5.0772    
  6.1399      7.6620      9.7381      12.131      14.357      15.921      16.490      15.941      14.375      12.128    
  6.6986      5.8031      5.1296      4.6759      4.4070      4.2845      4.2830      4.3985      4.6575      5.1121    
  5.8046      6.7242      7.8714      9.1329      10.234      10.880      10.882      10.231      9.1126      7.8379    
  5.5405      5.2775      5.1306      5.0788      5.0824      5.0947      5.0882      5.0772      5.1121      5.2490    
  5.5198      5.9170      6.3920      6.8812      7.2665      7.4102      7.2535      6.8608      6.3758      5.9177    
  5.5439      5.8066      6.1225      6.4292      6.6312      6.6407      6.4509      6.1399      5.8046      5.5198    
  5.3372      5.2733      5.3092      5.3917      5.4522      5.4458      5.3809      5.3110      5.2955      5.3700    
  6.7030      7.6326      8.5755      9.2882      9.5557      9.2975      8.5972      7.6620      6.7242      5.9170    
  5.2733      4.8299      4.5685      4.4392      4.3999      4.4396      4.5780      4.8510      5.2928      5.9177    
  9.7131      11.693      13.323      14.225      14.215      13.305      11.693      9.7381      7.8714      6.3920    
  5.3092      4.5685      4.1328      3.9362      3.9390      4.1413      4.5786      5.3093      6.3721      7.8379    
  15.419      18.296      20.199      20.845      20.168      18.256      15.396      12.131      9.1329      6.8812    
  5.3917      4.4392      3.9362      3.7846      3.9392      4.4395      5.3825      6.8617      9.1134      12.128    
  23.341      26.514      28.165      28.159      26.495      23.310      19.014      14.357      10.234      7.2665    
  5.4522      4.3999      3.9390      3.9392      4.3973      5.4433      7.2566      10.236      14.377      19.046    
  32.240      35.250      36.299      35.270      32.258      27.581      21.834      15.921      10.880      7.4102    
  5.4458      4.4396      4.1413      4.4395      5.4433      7.4084      10.888      15.942      21.855      27.584    
  41.442      44.109      44.124      41.478      36.675      30.398      23.361      16.490      10.882      7.2535    
  5.3809      4.5780      4.5786      5.3825      7.2566      10.888      16.498      23.363      30.383      36.642    
  50.872      52.732      50.870      45.905      39.088      31.374      23.371      15.941      10.231      6.8608    
  5.3110      4.8510      5.3093      6.8617      10.236      15.942      23.363      31.359      39.076      45.901    
  59.603      59.587      54.988      47.541      39.074      30.393      21.860      14.375      9.1126      6.3758    
  5.2955      5.2928      6.3721      9.1134      14.377      21.855      30.383      39.076      47.564      55.021    
  65.175      62.312      55.021      45.901      36.642      27.584      19.046      12.128      7.8379      5.9177    
  5.3700      5.9177      7.8379      12.128      19.046      27.584      36.642      45.901      55.021      62.312    
  57.207      50.940      42.825      34.254      25.692      17.676      11.308      7.4276      5.6733      5.1649    
  5.6761      7.4272      11.307      17.685      25.712      34.260      42.788      50.866      57.145      59.603    
  50.940      44.173      36.299      28.136      20.177      13.320      8.5803      6.1234      5.1296      5.1306    
  6.1225      8.5755      13.323      20.199      28.165      36.299      44.124      50.870      54.988      55.021    
  42.825      36.299      28.968      21.498      14.707      9.5795      6.5767      5.1692      4.7542      5.1720    
  6.5740      9.5712      14.707      21.519      29.001      36.321      42.824      47.554      49.327      47.564    
  34.254      28.136      21.498      15.197      10.161      6.9366      5.2484      4.5216      4.5243      5.2516    
  6.9318      10.148      15.186      21.506      28.172      34.308      39.124      41.817      41.797      39.076    
  25.692      20.177      14.707      10.161      7.0766      5.3144      4.4055      4.1380      4.4069      5.3166    
  7.0746      10.148      14.686      20.167      25.711      30.427      33.583      34.680      33.546      30.383    
  17.676      13.320      9.5795      6.9366      5.3144      4.3731      3.9632      3.9614      4.3728      5.3220    
  6.9468      9.5784      13.302      17.653      21.843      25.093      26.849      26.846      25.092      21.855    
  11.308      8.5803      6.5767      5.2484      4.4055      3.9632      3.8263      3.9590      4.4057      5.2602    
  6.5969      8.5961      11.308      14.358      17.134      19.053      19.741      19.071      17.160      14.377    
  7.4276      6.1234      5.1692      4.5216      4.1380      3.9614      3.9590      4.1310      4.5137      5.1696    
  6.1399      7.4552      9.1349      10.940      12.470      13.350      13.357      12.482      10.938      9.1134    
  5.6733      5.1296      4.7542      4.5243      4.4069      4.3728      4.4057      4.5137      4.7329      5.1118    
  5.6755      6.3946      7.2284      8.0713      8.7138      8.9550      8.7096      8.0559      7.2020      6.3721    
  5.1649      5.1306      5.1720      5.2516      5.3166      5.3220      5.2602      5.1696      5.1118      5.1390    
  5.2752      5.5112      5.8025      6.0753      6.2437      6.2379      6.0616      5.7907      5.5122      5.2928    
  5.6761      6.1225      6.5740      6.9318      7.0746      6.9468      6.5969      6.1399      5.6755      5.2752    
  4.9910      4.8354      4.7824      4.7809      4.7829      4.7744      4.7822      4.8516      5.0180      5.2955    
  7.4272      8.5755      9.5712      10.148      10.148      9.5784      8.5961      7.4552      6.3946      5.5112    
  4.8354      4.3870      4.1293      4.0136      4.0137      4.1336      4.3998      4.8496      5.5122      6.3758    
  11.307      13.323      14.707      15.186      14.686      13.302      11.308      9.1349      7.2284      5.8025    
  4.7824      4.1293      3.7814      3.6750      3.7859      4.1352      4.7821      5.7881      7.2020      9.1126    
  17.685      20.199      21.519      21.506      20.167      17.653      14.358      10.940      8.0713      6.0753    
  4.7809      4.0136      3.6750      3.6764      4.0146      4.7757      6.0625      8.0577      10.938      14.375    
  25.712      28.165      29.001      28.172      25.711      21.843      17.134      12.470      8.7138      6.2437    
  4.7829      4.0137      3.7859      4.0146      4.7792      6.2363      8.7136      12.487      17.160      21.860    
  34.260      36.299      36.321      34.308      30.427      25.093      19.053      13.350      8.9550      6.2379    
  4.7744      4.1336      4.1352      4.7757      6.2363      8.9572      13.364      19.071      25.092      30.393    
  42.788      44.124      42.824      39.124      33.583      26.849      19.741      13.357      8.7096      6.0616    
  4.7822      4.3998      4.7821      6.0625      8.7136      13.364      19.744      26.836      33.546      39.074    
  50.866      50.870      47.554      41.817      34.680      26.846      19.071      12.482      8.0559      5.7907    
  4.8516      4.8496      5.7881      8.0577      12.487      19.071      26.836      34.660      41.797      47.541    
  57.145      54.988      49.327      41.797      33.546      25.092      17.160      10.938      7.2020      5.5122    
  5.0180      5.5122      7.2020      10.938      17.160      25.092      33.546      41.797      49.327      54.988    
  59.603      55.021      47.564      39.076      30.383      21.855      14.377      9.1134      6.3721      5.2928    
  5.2955      6.3758      9.1126      14.375      21.860      30.393      39.074      47.541      54.988      59.587    
  47.394      41.464      34.254      26.509      18.903      12.455      8.1007      5.8600      4.9327      4.9331    
  5.8591      8.0964      12.452      18.908      26.522      34.265      41.462      47.384      50.866      50.872    
  41.464      35.246      28.136      20.837      14.231      9.2968      6.4308      5.0759      4.6759      5.0788    
  6.4292      9.2882      14.225      20.845      28.159      35.270      41.478      45.905      47.541      45.901    
  34.254      28.136      21.498      15.197      10.161      6.9366      5.2484      4.5216      4.5243      5.2516    
  6.9318      10.148      15.186      21.506      28.172      34.308      39.124      41.817      41.797      39.076    
  26.509      20.837      15.197      10.473      7.2383      5.3952      4.4504      4.1726      4.4514      5.3966    
  7.2341      10.457      15.175      20.833      26.546      31.427      34.715      35.858      34.660      31.359    
  18.903      14.231      10.161      7.2383      5.4523      4.4278      3.9851      3.9838      4.4281      5.4574    
  7.2385      10.143      14.200      18.887      23.381      26.873      28.760      28.741      26.836      23.363    
  12.455      9.2968      6.9366      5.3952      4.4278      3.9263      3.7742      3.9234      4.4302      5.4057    
  6.9453      9.2910      12.434      15.919      19.058      21.214      21.978      21.218      19.071      15.942    
  8.1007      6.4308      5.2484      4.4504      3.9851      3.7742      3.7713      3.9801      4.4515      5.2600    
  6.4485      8.1130      10.233      12.469      14.330      15.384      15.393      14.350      12.487      10.236    
  5.8600      5.0759      4.5216      4.1726      3.9838      3.9234      3.9801      4.1643      4.5128      5.0759    
  5.8743      6.8833      8.0724      9.2484      10.122      10.448      10.127      9.2473      8.0577      6.8617    
  4.9327      4.6759      4.5243      4.4514      4.4281      4.4302      4.4515      4.5128      4.6549      4.9170    
  5.3111      5.8043      6.3286      6.7985      7.0833      7.0805      6.7883      6.3109      5.7881      5.3093    
  4.9331      5.0788      5.2516      5.3966      5.4574      5.4057      5.2600      5.0759      4.9170      4.8304    
  4.8361      4.9254      5.0598      5.1782      5.2224      5.1707      5.0521      4.9264      4.8496      4.8510    
  5.8591      6.4292      6.9318      7.2341      7.2385      6.9453      6.4485      5.8743      5.3111      4.8361    
  4.4951      4.2893      4.1866      4.1458      4.1433      4.1849      4.2984      4.5140      4.8516      5.3110    
  8.0964      9.2882      10.148      10.457      10.143      9.2910      8.1130      6.8833      5.8043      4.9254    
  4.2893      3.8873      3.6716      3.6038      3.6728      3.8929      4.2975      4.9264      5.7907      6.8608    
  12.452      14.225      15.186      15.175      14.200      12.434      10.233      8.0724      6.3286      5.0598    
  4.1866      3.6716      3.4402      3.4417      3.6746      4.1861      5.0506      6.3109      8.0559      10.231    
  18.908      20.845      21.506      20.833      18.887      15.919      12.469      9.2484      6.7985      5.1782    
  4.1458      3.6038      3.4417      3.6060      4.1446      5.1701      6.7889      9.2473      12.482      15.941    
  26.522      28.159      28.172      26.546      23.381      19.058      14.330      10.122      7.0833      5.2224    
  4.1433      3.6728      3.6746      4.1446      5.2185      7.0804      10.131      14.350      19.071      23.371    
  34.265      35.270      34.308      31.427      26.873      21.214      15.384      10.448      7.0805      5.1707    
  4.1849      3.8929      4.1861      5.1701      7.0804      10.456      15.399      21.218      26.846      31.374    
  41.462      41.478      39.124      34.715      28.760      21.978      15.393      10.127      6.7883      5.0521    
  4.2984      4.2975      5.0506      6.7889      10.131      15.399      21.976      28.741      34.680      39.088    
  47.384      45.905      41.817      35.858      28.741      21.218      14.350      9.2473      6.3109      4.9264    
  4.5140      4.9264      6.3109      9.2473      14.350      21.218      28.741      35.858      41.817      45.905    
  50.866      47.541      41.797      34.660      26.836      19.071      12.487      8.0577      5.7881      4.8496    
  4.8516      5.7907      8.0559      12.482      19.071      26.846      34.680      41.817      47.554      50.870    
  50.872      45.901      39.076      31.359      23.363      15.942      10.236      6.8617      5.3093      4.8510    
  5.3110      6.8608      10.231      15.941      23.371      31.374      39.088      45.905      50.870      52.732    
  37.711      32.228      25.692      18.903      12.872      8.5117      6.0272      4.8159      4.4568      4.8175    
  6.0270      8.5057      12.861      18.892      25.692      32.245      37.738      41.462      42.788      41.442    
  32.228      26.484      20.177      14.231      9.5669      6.6327      5.0785      4.4047      4.4070      5.0824    
  6.6312      9.5557      14.215      20.168      26.495      32.258      36.675      39.088      39.074      36.642    
  25.692      20.177      14.707      10.161      7.0766      5.3144      4.4055      4.1380      4.4069      5.3166    
  7.0746      10.148      14.686      20.167      25.711      30.427      33.583      34.680      33.546      30.383    
  18.903      14.231      10.161      7.2383      5.4523      4.4278      3.9851      3.9838      4.4281      5.4574    
  7.2385      10.143      14.200      18.887      23.381      26.873      28.760      28.741      26.836      23.363    
  12.872      9.5669      7.0766      5.4523      4.4383      3.9158      3.7592      3.9143      4.4422      5.4610    
  7.0768      9.5477      12.842      16.477      19.745      21.985      22.773      21.976      19.744      16.498    
  8.5117      6.6327      5.3144      4.4278      3.9158      3.6883      3.6865      3.9142      4.4327      5.3248    
  6.6396      8.5061      10.870      13.342      15.382      16.531      16.537      15.399      13.364      10.888    
  6.0272      5.0785      4.4055      3.9851      3.7592      3.6865      3.7554      3.9813      4.4073      5.0885    
  6.0413      7.2655      8.7101      10.118      11.148      11.530      11.160      10.131      8.7136      7.2566    
  4.8159      4.4047      4.1380      3.9838      3.9143      3.9142      3.9813      4.1309      4.3968      4.8155    
  5.3926      6.0766      6.7977      7.4327      7.8108      7.8116      7.4314      6.7889      6.0625      5.3825    
  4.4568      4.4070      4.4069      4.4281      4.4422      4.4327      4.4073      4.3968      4.4403      4.5671    
  4.7824      5.0599      5.3421      5.5545      5.6328      5.5486      5.3317      5.0506      4.7821      4.5786    
  4.8175      5.0824      5.3166      5.4574      5.4610      5.3248      5.0885      4.8155      4.5671      4.3856    
  4.2881      4.2656      4.2863      4.3090      4.3063      4.2818      4.2663      4.2975      4.3998      4.5780    
  6.0270      6.6312      7.0746      7.2385      7.0768      6.6396      6.0413      5.3926      4.7824      4.2881    
  3.9393      3.7238      3.6104      3.5742      3.6091      3.7274      3.9500      4.2984      4.7822      5.3809    
  8.5057      9.5557      10.148      10.143      9.5477      8.5061      7.2655      6.0766      5.0599      4.2656    
  3.7238      3.4010      3.2520      3.2520      3.4026      3.7272      4.2663      5.0521      6.0616      7.2535    
  12.861      14.215      14.686      14.200      12.842      10.870      8.7101      6.7977      5.3421      4.2863    
  3.6104      3.2520      3.1424      3.2538      3.6105      4.2810      5.3317      6.7883      8.7096      10.882    
  18.892      20.168      20.167      18.887      16.477      13.342      10.118      7.4327      5.5545      4.3090    
  3.5742      3.2520      3.2538      3.5760      4.3057      5.5481      7.4314      10.127      13.357      16.490    
  25.692      26.495      25.711      23.381      19.745      15.382      11.148      7.8108      5.6328      4.3063    
  3.6091      3.4026      3.6105      4.3057      5.6310      7.8146      11.160      15.393      19.741      23.361    
  32.245      32.258      30.427      26.873      21.985      16.531      11.530      7.8116      5.5486      4.2818    
  3.7274      3.7272      4.2810      5.5481      7.8146      11.538      16.537      21.978      26.849      30.398    
  37.738      36.675      33.583      28.760      22.773      16.537      11.160      7.4314      5.3317      4.2663    
  3.9500      4.2663      5.3317      7.4314      11.160      16.537      22.773      28.760      33.583      36.675    
  41.462      39.088      34.680      28.741      21.976      15.399      10.131      6.7889      5.0506      4.2975    
  4.2984      5.0521      6.7883      10.127      15.393      21.978      28.760      34.715      39.124      41.478    
  42.788      39.074      33.546      26.836      19.744      13.364      8.7136      6.0625      4.7821      4.3998    
  4.7822      6.0616      8.7096      13.357      19.741      26.849      33.583      39.124      42.824      44.124    
  41.442      36.642      30.383      23.363      16.498      10.888      7.2566      5.3825      4.5786      4.5780    
  5.3809      7.2535      10.882      16.490      23.361      30.398      36.675      41.478      44.124      44.109    
  28.437      23.328      17.676      12.455      8.5117      6.0972      4.7750      4.1970      4.1977      4.7784    
  6.1027      8.5121      12.442      17.651      23.306      28.430      32.245      34.265      34.260      32.240    
  23.328      18.281      13.320      9.2968      6.6327      5.0899      4.2842      4.0450      4.2845      5.0947    
  6.6407      9.2975      13.305      18.256      23.310      27.581      30.398      31.374      30.393      27.584    
  17.676      13.320      9.5795      6.9366      5.3144      4.3731      3.9632      3.9614      4.3728      5.3220    
  6.9468      9.5784      13.302      17.653      21.843      25.093      26.849      26.846      25.092      21.855    
  12.455      9.2968      6.9366      5.3952      4.4278      3.9263      3.7742      3.9234      4.4302      5.4057    
  6.9453      9.2910      12.434      15.919      19.058      21.214      21.978      21.218      19.071      15.942    
  8.5117      6.6327      5.3144      4.4278      3.9158      3.6883      3.6865      3.9142      4.4327      5.3248    
  6.6396      8.5061      10.870      13.342      15.382      16.531      16.537      15.399      13.364      10.888    
  6.0972      5.0899      4.3731      3.9263      3.6883      3.6129      3.6862      3.9253      4.3771      5.0995    
  6.1075      7.4111      8.9475      10.438      11.524      11.926      11.538      10.456      8.9572      7.4084    
  4.7750      4.2842      3.9632      3.7742      3.6865      3.6862      3.7728      3.9609      4.2848      4.7826    
  5.4558      6.2452      7.0791      7.8065      8.2370      8.2416      7.8146      7.0804      6.2363      5.4433    
  4.1970      4.0450      3.9614      3.9234      3.9142      3.9253      3.9609      4.0398      4.1913      4.4394    
  4.7823      5.1784      5.5529      5.8266      5.9285      5.8254      5.5481      5.1701      4.7757      4.4395    
  4.1977      4.2845      4.3728      4.4302      4.4327      4.3771      4.2848      4.1913      4.1314      4.1279    
  4.1851      4.2852      4.3906      4.4570      4.4547      4.3853      4.2810      4.1861      4.1352      4.1413    
  4.7784      5.0947      5.3220      5.4057      5.3248      5.0995      4.7826      4.4394      4.1279      3.8847    
  3.7219      3.6302      3.5881      3.5755      3.5862      3.6305      3.7272      3.8929      4.1336      4.4396    
  6.1027      6.6407      6.9468      6.9453      6.6396      6.1075      5.4558      4.7823      4.1851      3.7219    
  3.4023      3.2072      3.1147      3.1143      3.2081      3.4069      3.7274      4.1849      4.7744      5.4458    
  8.5121      9.2975      9.5784      9.2910      8.5061      7.4111      6.2452      5.1784      4.2852      3.6302    
  3.2072      2.9754      2.9019      2.9759      3.2083      3.6305      4.2818      5.1707      6.2379      7.4102    
  12.442      13.305      13.302      12.434      10.870      8.9475      7.0791      5.5529      4.3906      3.5881    
  3.1147      2.9019      2.9030      3.1160      3.5861      4.3853      5.5486      7.0805      8.9550      10.880    
  17.651      18.256      17.653      15.919      13.342      10.438      7.8065      5.8266      4.4570      3.5755    
  3.1143      2.9759      3.1160      3.5754      4.4542      5.8254      7.8116      10.448      13.350      15.921    
  23.306      23.310      21.843      19.058      15.382      11.524      8.2370      5.9285      4.4547      3.5862    
  3.2081      3.2083      3.5861      4.4542      5.9296      8.2416      11.530      15.384      19.053      21.834    
  28.430      27.581      25.093      21.214      16.531      11.926      8.2416      5.8254      4.3853      3.6305    
  3.4069      3.6305      4.3853      5.8254      8.2416      11.926      16.531      21.214      25.093      27.581    
  32.245      30.398      26.849      21.978      16.537      11.538      7.8146      5.5481      4.2810      3.7272    
  3.7274      4.2818      5.5486      7.8116      11.530      16.531      21.985      26.873      30.427      32.258    
  34.265      31.374      26.846      21.218      15.399      10.456      7.0804      5.1701      4.1861      3.8929    
  4.1849      5.1707      7.0805      10.448      15.384      21.214      26.873      31.427      34.308      35.270    
  34.260      30.393      25.092      19.071      13.364      8.9572      6.2363      4.7757      4.1352      4.1336    
  4.7744      6.2379      8.9550      13.350      19.053      25.093      30.427      34.308      36.321      36.299    
  32.240      27.584      21.855      15.942      10.888      7.4084      5.4433      4.4395      4.1413      4.4396    
  5.4458      7.4102      10.880      15.921      21.834      27.581      32.258      35.270      36.299      35.250    
  19.707      15.418      11.308      8.1007      6.0272      4.7750      4.1160      3.9172      4.1150      4.7805    
  6.0422      8.1153      11.307      15.395      19.670      23.306      25.692      26.522      25.712      23.341    
  15.418      11.694      8.5803      6.4308      5.0785      4.2842      3.9337      3.9313      4.2830      5.0882    
  6.4509      8.5972      11.693      15.396      19.014      21.834      23.361      23.371      21.860      19.046    
  11.308      8.5803      6.5767      5.2484      4.4055      3.9632      3.8263      3.9590      4.4057      5.2602    