fcc Au                                  
   3.85000000000000     
     0.000000    0.500000    0.500000
     0.500000    0.000000    0.500000
     0.500000    0.500000    0.000000
   Au
     1
Direct
  0.000000  0.000000  0.000000
 
   20   20   20
 0.68386291147E+02 0.65213256981E+02 0.57207428777E+02 0.47393551667E+02 0.37711385618E+02
 0.28437034114E+02 0.19706663474E+02 0.12555985164E+02 0.80689737203E+01 0.60627174805E+01
 0.54969015124E+01 0.60627174805E+01 0.80689737203E+01 0.12555985164E+02 0.19706663474E+02
 0.28437034114E+02 0.37711385618E+02 0.47393551667E+02 0.57207428777E+02 0.65213256981E+02
 0.65213256981E+02 0.59686677768E+02 0.50940480338E+02 0.41463591020E+02 0.32228111248E+02
 0.23328396060E+02 0.15418207773E+02 0.97137562774E+01 0.66985503248E+01 0.55405335588E+01
 0.55438758394E+01 0.67029644575E+01 0.97131369933E+01 0.15419403706E+02 0.23340760113E+02
 0.32239685423E+02 0.41442467002E+02 0.50871765344E+02 0.59603231988E+02 0.65175304985E+02
 0.57207428777E+02 0.50940480338E+02 0.42824874411E+02 0.34254053705E+02 0.25691776569E+02
 0.17675726589E+02 0.11308169979E+02 0.74276058747E+01 0.56733002833E+01 0.51649350416E+01
 0.56760824787E+01 0.74272134219E+01 0.11306740790E+02 0.17684944190E+02 0.25712069978E+02
 0.34260257479E+02 0.42787649602E+02 0.50866072312E+02 0.57145357337E+02 0.59603231988E+02
 0.47393551667E+02 0.41463591020E+02 0.34254053705E+02 0.26508966362E+02 0.18902707175E+02
 0.12455063534E+02 0.81006678532E+01 0.58600369244E+01 0.49326966512E+01 0.49330787230E+01
 0.58590509207E+01 0.80963756768E+01 0.12451751298E+02 0.18907512971E+02 0.26521703444E+02
 0.34264502854E+02 0.41462302761E+02 0.47383664377E+02 0.50866072312E+02 0.50871765344E+02
 0.37711385618E+02 0.32228111248E+02 0.25691776569E+02 0.18902707175E+02 0.12872323492E+02
 0.85116572138E+01 0.60271999193E+01 0.48159080892E+01 0.44568474124E+01 0.48175433376E+01
 0.60270216950E+01 0.85056743135E+01 0.12860561415E+02 0.18891882681E+02 0.25692099937E+02
 0.32244740417E+02 0.37737597810E+02 0.41462302761E+02 0.42787649602E+02 0.41442467002E+02
 0.28437034114E+02 0.23328396060E+02 0.17675726589E+02 0.12455063534E+02 0.85116572138E+01
 0.60972426125E+01 0.47750079894E+01 0.41969976371E+01 0.41977408727E+01 0.47784149003E+01
 0.61027317419E+01 0.85121137902E+01 0.12442162711E+02 0.17651287221E+02 0.23306166373E+02
 0.28429521468E+02 0.32244740417E+02 0.34264502854E+02 0.34260257479E+02 0.32239685423E+02
 0.19706663474E+02 0.15418207773E+02 0.11308169979E+02 0.81006678532E+01 0.60271999193E+01
 0.47750079894E+01 0.41159980186E+01 0.39172107723E+01 0.41150116593E+01 0.47805333041E+01
 0.60421612900E+01 0.81153023388E+01 0.11307110430E+02 0.15395051198E+02 0.19669880040E+02
 0.23306166373E+02 0.25692099937E+02 0.26521703444E+02 0.25712069978E+02 0.23340760113E+02
 0.12555985164E+02 0.97137562774E+01 0.74276058747E+01 0.58600369244E+01 0.48159080892E+01
 0.41969976371E+01 0.39172107723E+01 0.39145276542E+01 0.41920547800E+01 0.48166839553E+01
 0.58740915038E+01 0.74535184557E+01 0.97370861509E+01 0.12558095602E+02 0.15395051198E+02
 0.17651287221E+02 0.18891882681E+02 0.18907512971E+02 0.17684944190E+02 0.15419403706E+02
 0.80689737203E+01 0.66985503248E+01 0.56733002833E+01 0.49326966512E+01 0.44568474124E+01
 0.41977408727E+01 0.41150116593E+01 0.41920547800E+01 0.44434204452E+01 0.49179873614E+01
 0.56735106356E+01 0.67230643456E+01 0.81055041949E+01 0.97370861509E+01 0.11307110430E+02
 0.12442162711E+02 0.12860561415E+02 0.12451751298E+02 0.11306740790E+02 0.97131369933E+01
 0.60627174805E+01 0.55405335588E+01 0.51649350416E+01 0.49330787230E+01 0.48175433376E+01
 0.47784149003E+01 0.47805333041E+01 0.48166839553E+01 0.49179873614E+01 0.51378391214E+01
 0.55188428462E+01 0.60622911521E+01 0.67230643456E+01 0.74535184557E+01 0.81153023388E+01
 0.85121137902E+01 0.85056743135E+01 0.80963756768E+01 0.74272134219E+01 0.67029644575E+01
 0.54969015124E+01 0.55438758394E+01 0.56760824787E+01 0.58590509207E+01 0.60270216950E+01
 0.61027317419E+01 0.60421612900E+01 0.58740915038E+01 0.56735106356E+01 0.55188428462E+01
 0.54617710254E+01 0.55188428462E+01 0.56735106356E+01 0.58740915038E+01 0.60421612900E+01
 0.61027317419E+01 0.60270216950E+01 0.58590509207E+01 0.56760824787E+01 0.55438758394E+01
 0.60627174805E+01 0.67029644575E+01 0.74272134219E+01 0.80963756768E+01 0.85056743135E+01
 0.85121137902E+01 0.81153023388E+01 0.74535184557E+01 0.67230643456E+01 0.60622911521E+01
 0.55188428462E+01 0.51378391214E+01 0.49179873614E+01 0.48166839553E+01 0.47805333041E+01
 0.47784149003E+01 0.48175433376E+01 0.49330787230E+01 0.51649350416E+01 0.55405335588E+01
 0.80689737203E+01 0.97131369933E+01 0.11306740790E+02 0.12451751298E+02 0.12860561415E+02
 0.12442162711E+02 0.11307110430E+02 0.97370861509E+01 0.81055041949E+01 0.67230643456E+01
 0.56735106356E+01 0.49179873614E+01 0.44434204452E+01 0.41920547800E+01 0.41150116593E+01
 0.41977408727E+01 0.44568474124E+01 0.49326966512E+01 0.56733002833E+01 0.66985503248E+01
 0.12555985164E+02 0.15419403706E+02 0.17684944190E+02 0.18907512971E+02 0.18891882681E+02
 0.17651287221E+02 0.15395051198E+02 0.12558095602E+02 0.97370861509E+01 0.74535184557E+01
 0.58740915038E+01 0.48166839553E+01 0.41920547800E+01 0.39145276542E+01 0.39172107723E+01
 0.41969976371E+01 0.48159080892E+01 0.58600369244E+01 0.74276058747E+01 0.97137562774E+01
 0.19706663474E+02 0.23340760113E+02 0.25712069978E+02 0.26521703444E+02 0.25692099937E+02
 0.23306166373E+02 0.19669880040E+02 0.15395051198E+02 0.11307110430E+02 0.81153023388E+01
 0.60421612900E+01 0.47805333041E+01 0.41150116593E+01 0.39172107723E+01 0.41159980186E+01
 0.47750079894E+01 0.60271999193E+01 0.81006678532E+01 0.11308169979E+02 0.15418207773E+02
 0.28437034114E+02 0.32239685423E+02 0.34260257479E+02 0.34264502854E+02 0.32244740417E+02
 0.28429521468E+02 0.23306166373E+02 0.17651287221E+02 0.12442162711E+02 0.85121137902E+01
 0.61027317419E+01 0.47784149003E+01 0.41977408727E+01 0.41969976371E+01 0.47750079894E+01
 0.60972426125E+01 0.85116572138E+01 0.12455063534E+02 0.17675726589E+02 0.23328396060E+02
 0.37711385618E+02 0.41442467002E+02 0.42787649602E+02 0.41462302761E+02 0.37737597810E+02
 0.32244740417E+02 0.25692099937E+02 0.18891882681E+02 0.12860561415E+02 0.85056743135E+01
 0.60270216950E+01 0.48175433376E+01 0.44568474124E+01 0.48159080892E+01 0.60271999193E+01
 0.85116572138E+01 0.12872323492E+02 0.18902707175E+02 0.25691776569E+02 0.32228111248E+02
 0.47393551667E+02 0.50871765344E+02 0.50866072312E+02 0.47383664377E+02 0.41462302761E+02
 0.34264502854E+02 0.26521703444E+02 0.18907512971E+02 0.12451751298E+02 0.80963756768E+01
 0.58590509207E+01 0.49330787230E+01 0.49326966512E+01 0.58600369244E+01 0.81006678532E+01
 0.12455063534E+02 0.18902707175E+02 0.26508966362E+02 0.34254053705E+02 0.41463591020E+02
 0.57207428777E+02 0.59603231988E+02 0.57145357337E+02 0.50866072312E+02 0.42787649602E+02
 0.34260257479E+02 0.25712069978E+02 0.17684944190E+02 0.11306740790E+02 0.74272134219E+01
 0.56760824787E+01 0.51649350416E+01 0.56733002833E+01 0.74276058747E+01 0.11308169979E+02
 0.17675726589E+02 0.25691776569E+02 0.34254053705E+02 0.42824874411E+02 0.50940480338E+02
 0.65213256981E+02 0.65175304985E+02 0.59603231988E+02 0.50871765344E+02 0.41442467002E+02
 0.32239685423E+02 0.23340760113E+02 0.15419403706E+02 0.97131369933E+01 0.67029644575E+01
 0.55438758394E+01 0.55405335588E+01 0.66985503248E+01 0.97137562774E+01 0.15418207773E+02
 0.23328396060E+02 0.32228111248E+02 0.41463591020E+02 0.50940480338E+02 0.59686677768E+02
 0.65213256981E+02 0.59686677768E+02 0.50940480338E+02 0.41463591020E+02 0.32228111248E+02
 0.23328396060E+02 0.15418207773E+02 0.97137562774E+01 0.66985503248E+01 0.55405335588E+01
 0.55438758394E+01 0.67029644575E+01 0.97131369933E+01 0.15419403706E+02 0.23340760113E+02
 0.32239685423E+02 0.41442467002E+02 0.50871765344E+02 0.59603231988E+02 0.65175304985E+02
 0.59686677768E+02 0.52852971789E+02 0.44173374505E+02 0.35245997771E+02 0.26484383144E+02
 0.18280923550E+02 0.11693863436E+02 0.76332924994E+01 0.58030709405E+01 0.52775434617E+01
 0.58066271657E+01 0.76326192055E+01 0.11692916327E+02 0.18296165450E+02 0.26513942462E+02
 0.35250166018E+02 0.44108631744E+02 0.52731792127E+02 0.59587402792E+02 0.62311666370E+02
 0.50940480338E+02 0.44173374505E+02 0.36299119839E+02 0.28136280148E+02 0.20177352124E+02
 0.13320110954E+02 0.85803358702E+01 0.61233849190E+01 0.51296156616E+01 0.51306336495E+01
 0.61224744095E+01 0.85755208722E+01 0.13322750619E+02 0.20199342215E+02 0.28164871129E+02
 0.36298633889E+02 0.44123883214E+02 0.50870406816E+02 0.54987742937E+02 0.55020938176E+02
 0.41463591020E+02 0.35245997771E+02 0.28136280148E+02 0.20836810626E+02 0.14230927003E+02
 0.92968140339E+01 0.64308438167E+01 0.50759249974E+01 0.46759041757E+01 0.50788148990E+01
 0.64291680996E+01 0.92881605619E+01 0.14224842392E+02 0.20845174289E+02 0.28158857107E+02
 0.35269980354E+02 0.41477571680E+02 0.45905392008E+02 0.47541017083E+02 0.45901315954E+02
 0.32228111248E+02 0.26484383144E+02 0.20177352124E+02 0.14230927003E+02 0.95669294734E+01
 0.66327131230E+01 0.50785376164E+01 0.44046631450E+01 0.44070382616E+01 0.50824477652E+01
 0.66311718097E+01 0.95557100615E+01 0.14214504032E+02 0.20168461667E+02 0.26495014051E+02
 0.32257835669E+02 0.36674694873E+02 0.39088451463E+02 0.39074284947E+02 0.36642045393E+02
 0.23328396060E+02 0.18280923550E+02 0.13320110954E+02 0.92968140339E+01 0.66327131230E+01
 0.50898530685E+01 0.42842158536E+01 0.40449968737E+01 0.42845025113E+01 0.50946979897E+01
 0.66407352900E+01 0.92975147072E+01 0.13305131961E+02 0.18256385140E+02 0.23310489189E+02
 0.27581355484E+02 0.30397965366E+02 0.31374425225E+02 0.30393101261E+02 0.27584012305E+02
 0.15418207773E+02 0.11693863436E+02 0.85803358702E+01 0.64308438167E+01 0.50785376164E+01
 0.42842158536E+01 0.39337005729E+01 0.39313102834E+01 0.42829529967E+01 0.50881721690E+01
 0.64509238973E+01 0.85972280742E+01 0.11692649745E+02 0.15396136912E+02 0.19014382047E+02
 0.21833932931E+02 0.23361465596E+02 0.23371455146E+02 0.21860343685E+02 0.19046341177E+02
 0.97137562774E+01 0.76332924994E+01 0.61233849190E+01 0.50759249974E+01 0.44046631450E+01
 0.40449968737E+01 0.39313102834E+01 0.40398825084E+01 0.43984845025E+01 0.50772158742E+01
 0.61399126852E+01 0.76620044936E+01 0.97381044864E+01 0.12131068440E+02 0.14356789773E+02
 0.15921187271E+02 0.16489726746E+02 0.15940617736E+02 0.14375064269E+02 0.12128189733E+02
 0.66985503248E+01 0.58030709405E+01 0.51296156616E+01 0.46759041757E+01 0.44070382616E+01
 0.42845025113E+01 0.42829529967E+01 0.43984845025E+01 0.46575374616E+01 0.51120998037E+01
 0.58045788836E+01 0.67242369827E+01 0.78714405940E+01 0.91328900054E+01 0.10234328473E+02
 0.10880403692E+02 0.10882264683E+02 0.10231452695E+02 0.91126400100E+01 0.78379020411E+01
 0.55405335588E+01 0.52775434617E+01 0.51306336495E+01 0.50788148990E+01 0.50824477652E+01
 0.50946979897E+01 0.50881721690E+01 0.50772158742E+01 0.51120998037E+01 0.52489625482E+01
 0.55198292377E+01 0.59170499748E+01 0.63920457116E+01 0.68812132139E+01 0.72664620785E+01
 0.74101688451E+01 0.72535151647E+01 0.68607884376E+01 0.63757807638E+01 0.59177359619E+01
 0.55438758394E+01 0.58066271657E+01 0.61224744095E+01 0.64291680996E+01 0.66311718097E+01
 0.66407352900E+01 0.64509238973E+01 0.61399126852E+01 0.58045788836E+01 0.55198292377E+01
 0.53372095124E+01 0.52733277165E+01 0.53092402357E+01 0.53917319782E+01 0.54522359020E+01
 0.54457708474E+01 0.53809220513E+01 0.53109983212E+01 0.52954895253E+01 0.53700207248E+01
 0.67029644575E+01 0.76326192055E+01 0.85755208722E+01 0.92881605619E+01 0.95557100615E+01
 0.92975147072E+01 0.85972280742E+01 0.76620044936E+01 0.67242369827E+01 0.59170499748E+01
 0.52733277165E+01 0.48299133649E+01 0.45685038661E+01 0.44392332359E+01 0.43999360456E+01
 0.44395807423E+01 0.45780371710E+01 0.48509779433E+01 0.52928426438E+01 0.59177359619E+01
 0.97131369933E+01 0.11692916327E+02 0.13322750619E+02 0.14224842392E+02 0.14214504032E+02
 0.13305131961E+02 0.11692649745E+02 0.97381044864E+01 0.78714405940E+01 0.63920457116E+01
 0.53092402357E+01 0.45685038661E+01 0.41328176154E+01 0.39362034319E+01 0.39390296536E+01
 0.41413211504E+01 0.45786159633E+01 0.53093164840E+01 0.63721024017E+01 0.78379020411E+01
 0.15419403706E+02 0.18296165450E+02 0.20199342215E+02 0.20845174289E+02 0.20168461667E+02
 0.18256385140E+02 0.15396136912E+02 0.12131068440E+02 0.91328900054E+01 0.68812132139E+01
 0.53917319782E+01 0.44392332359E+01 0.39362034319E+01 0.37845649525E+01 0.39391738532E+01
 0.44395022610E+01 0.53824685798E+01 0.68617224941E+01 0.91133675691E+01 0.12128189733E+02
 0.23340760113E+02 0.26513942462E+02 0.28164871129E+02 0.28158857107E+02 0.26495014051E+02
 0.23310489189E+02 0.19014382047E+02 0.14356789773E+02 0.10234328473E+02 0.72664620785E+01
 0.54522359020E+01 0.43999360456E+01 0.39390296536E+01 0.39391738532E+01 0.43972500940E+01
 0.54432914313E+01 0.72565834885E+01 0.10235798172E+02 0.14376626337E+02 0.19046341177E+02
 0.32239685423E+02 0.35250166018E+02 0.36298633889E+02 0.35269980354E+02 0.32257835669E+02
 0.27581355484E+02 0.21833932931E+02 0.15921187271E+02 0.10880403692E+02 0.74101688451E+01
 0.54457708474E+01 0.44395807423E+01 0.41413211504E+01 0.44395022610E+01 0.54432914313E+01
 0.74083958405E+01 0.10888450508E+02 0.15941963762E+02 0.21854769634E+02 0.27584012305E+02
 0.41442467002E+02 0.44108631744E+02 0.44123883214E+02 0.41477571680E+02 0.36674694873E+02
 0.30397965366E+02 0.23361465596E+02 0.16489726746E+02 0.10882264683E+02 0.72535151647E+01
 0.53809220513E+01 0.45780371710E+01 0.45786159633E+01 0.53824685798E+01 0.72565834885E+01
 0.10888450508E+02 0.16497730225E+02 0.23363224215E+02 0.30383009472E+02 0.36642045393E+02
 0.50871765344E+02 0.52731792127E+02 0.50870406816E+02 0.45905392008E+02 0.39088451463E+02
 0.31374425225E+02 0.23371455146E+02 0.15940617736E+02 0.10231452695E+02 0.68607884376E+01
 0.53109983212E+01 0.48509779433E+01 0.53093164840E+01 0.68617224941E+01 0.10235798172E+02
 0.15941963762E+02 0.23363224215E+02 0.31358955051E+02 0.39075516031E+02 0.45901315954E+02
 0.59603231988E+02 0.59587402792E+02 0.54987742937E+02 0.47541017083E+02 0.39074284947E+02
 0.30393101261E+02 0.21860343685E+02 0.14375064269E+02 0.91126400100E+01 0.63757807638E+01
 0.52954895253E+01 0.52928426438E+01 0.63721024017E+01 0.91133675691E+01 0.14376626337E+02
 0.21854769634E+02 0.30383009472E+02 0.39075516031E+02 0.47564328921E+02 0.55020938176E+02
 0.65175304985E+02 0.62311666370E+02 0.55020938176E+02 0.45901315954E+02 0.36642045393E+02
 0.27584012305E+02 0.19046341177E+02 0.12128189733E+02 0.78379020411E+01 0.59177359619E+01
 0.53700207248E+01 0.59177359619E+01 0.78379020411E+01 0.12128189733E+02 0.19046341177E+02
 0.27584012305E+02 0.36642045393E+02 0.45901315954E+02 0.55020938176E+02 0.62311666370E+02
 0.57207428777E+02 0.50940480338E+02 0.42824874411E+02 0.34254053705E+02 0.25691776569E+02
 0.17675726589E+02 0.11308169979E+02 0.74276058747E+01 0.56733002833E+01 0.51649350416E+01
 0.56760824787E+01 0.74272134219E+01 0.11306740790E+02 0.17684944190E+02 0.25712069978E+02
 0.34260257479E+02 0.42787649602E+02 0.50866072312E+02 0.57145357337E+02 0.59603231988E+02
 0.50940480338E+02 0.44173374505E+02 0.36299119839E+02 0.28136280148E+02 0.20177352124E+02
 0.13320110954E+02 0.85803358702E+01 0.61233849190E+01 0.51296156616E+01 0.51306336495E+01
 0.61224744095E+01 0.85755208722E+01 0.13322750619E+02 0.20199342215E+02 0.28164871129E+02
 0.36298633889E+02 0.44123883214E+02 0.50870406816E+02 0.54987742937E+02 0.55020938176E+02
 0.42824874411E+02 0.36299119839E+02 0.28968015993E+02 0.21497881295E+02 0.14706762169E+02
 0.95795080110E+01 0.65767078995E+01 0.51692314273E+01 0.47542385467E+01 0.51720198443E+01
 0.65740471000E+01 0.95711626538E+01 0.14707036028E+02 0.21519026707E+02 0.29001297659E+02
 0.36321166776E+02 0.42824160966E+02 0.47554096212E+02 0.49327220551E+02 0.47564328921E+02
 0.34254053705E+02 0.28136280148E+02 0.21497881295E+02 0.15197388393E+02 0.10161353300E+02
 0.69365762566E+01 0.52483607514E+01 0.45216401950E+01 0.45243228359E+01 0.52516149232E+01
 0.69318346245E+01 0.10147603928E+02 0.15186080662E+02 0.21505745226E+02 0.28171646794E+02
 0.34307872371E+02 0.39124407293E+02 0.41816751969E+02 0.41797048180E+02 0.39075516031E+02
 0.25691776569E+02 0.20177352124E+02 0.14706762169E+02 0.10161353300E+02 0.70766262599E+01
 0.53143620510E+01 0.44054960980E+01 0.41380343719E+01 0.44068713316E+01 0.53166212114E+01
 0.70746441305E+01 0.10148291500E+02 0.14685998007E+02 0.20167495419E+02 0.25711314672E+02
 0.30426975291E+02 0.33582964169E+02 0.34679736505E+02 0.33545719114E+02 0.30383009472E+02
 0.17675726589E+02 0.13320110954E+02 0.95795080110E+01 0.69365762566E+01 0.53143620510E+01
 0.43730502442E+01 0.39632173289E+01 0.39614494450E+01 0.43727637630E+01 0.53219604267E+01
 0.69468131202E+01 0.95784361101E+01 0.13302264165E+02 0.17652730883E+02 0.21842663446E+02
 0.25092663417E+02 0.26849039685E+02 0.26846211111E+02 0.25091600322E+02 0.21854769634E+02
 0.11308169979E+02 0.85803358702E+01 0.65767078995E+01 0.52483607514E+01 0.44054960980E+01
 0.39632173289E+01 0.38263253642E+01 0.39590431120E+01 0.44057016787E+01 0.52601845304E+01
 0.65968570274E+01 0.85960647961E+01 0.11307551628E+02 0.14358276379E+02 0.17134037267E+02
 0.19053101454E+02 0.19741087123E+02 0.19071183521E+02 0.17159764943E+02 0.14376626337E+02
 0.74276058747E+01 0.61233849190E+01 0.51692314273E+01 0.45216401950E+01 0.41380343719E+01
 0.39614494450E+01 0.39590431120E+01 0.41310227795E+01 0.45136579175E+01 0.51696317066E+01
 0.61399111565E+01 0.74552004812E+01 0.91349124311E+01 0.10940063639E+02 0.12470339647E+02
 0.13349724527E+02 0.13356734309E+02 0.12481569184E+02 0.10937584198E+02 0.91133675691E+01
 0.56733002833E+01 0.51296156616E+01 0.47542385467E+01 0.45243228359E+01 0.44068713316E+01
 0.43727637630E+01 0.44057016787E+01 0.45136579175E+01 0.47329308151E+01 0.51117938344E+01
 0.56754765393E+01 0.63945517426E+01 0.72283766752E+01 0.80713386985E+01 0.87137722431E+01
 0.89550397388E+01 0.87096255232E+01 0.80559245568E+01 0.72020045187E+01 0.63721024017E+01
 0.51649350416E+01 0.51306336495E+01 0.51720198443E+01 0.52516149232E+01 0.53166212114E+01
 0.53219604267E+01 0.52601845304E+01 0.51696317066E+01 0.51117938344E+01 0.51389588240E+01
 0.52751887267E+01 0.55112183775E+01 0.58025121768E+01 0.60752959920E+01 0.62437085089E+01
 0.62379299166E+01 0.60616330880E+01 0.57907199542E+01 0.55122094516E+01 0.52928426438E+01
 0.56760824787E+01 0.61224744095E+01 0.65740471000E+01 0.69318346245E+01 0.70746441305E+01
 0.69468131202E+01 0.65968570274E+01 0.61399111565E+01 0.56754765393E+01 0.52751887267E+01
 0.49910209914E+01 0.48353666221E+01 0.47823853074E+01 0.47808746124E+01 0.47828826826E+01
 0.47743807278E+01 0.47822378722E+01 0.48516320953E+01 0.50179748826E+01 0.52954895253E+01
 0.74272134219E+01 0.85755208722E+01 0.95711626538E+01 0.10147603928E+02 0.10148291500E+02
 0.95784361101E+01 0.85960647961E+01 0.74552004812E+01 0.63945517426E+01 0.55112183775E+01
 0.48353666221E+01 0.43870286902E+01 0.41292820951E+01 0.40135741613E+01 0.40137112746E+01
 0.41336355976E+01 0.43997915674E+01 0.48496461440E+01 0.55122094516E+01 0.63757807638E+01
 0.11306740790E+02 0.13322750619E+02 0.14707036028E+02 0.15186080662E+02 0.14685998007E+02
 0.13302264165E+02 0.11307551628E+02 0.91349124311E+01 0.72283766752E+01 0.58025121768E+01
 0.47823853074E+01 0.41292820951E+01 0.37814220812E+01 0.36750021896E+01 0.37859259433E+01
 0.41352017612E+01 0.47820730320E+01 0.57880775549E+01 0.72020045187E+01 0.91126400100E+01
 0.17684944190E+02 0.20199342215E+02 0.21519026707E+02 0.21505745226E+02 0.20167495419E+02
 0.17652730883E+02 0.14358276379E+02 0.10940063639E+02 0.80713386985E+01 0.60752959920E+01
 0.47808746124E+01 0.40135741613E+01 0.36750021896E+01 0.36763523339E+01 0.40145678364E+01
 0.47757136907E+01 0.60624648430E+01 0.80576926622E+01 0.10937584198E+02 0.14375064269E+02
 0.25712069978E+02 0.28164871129E+02 0.29001297659E+02 0.28171646794E+02 0.25711314672E+02
 0.21842663446E+02 0.17134037267E+02 0.12470339647E+02 0.87137722431E+01 0.62437085089E+01
 0.47828826826E+01 0.40137112746E+01 0.37859259433E+01 0.40145678364E+01 0.47792330418E+01
 0.62362747510E+01 0.87136241014E+01 0.12486504210E+02 0.17159764943E+02 0.21860343685E+02
 0.34260257479E+02 0.36298633889E+02 0.36321166776E+02 0.34307872371E+02 0.30426975291E+02
 0.25092663417E+02 0.19053101454E+02 0.13349724527E+02 0.89550397388E+01 0.62379299166E+01
 0.47743807278E+01 0.41336355976E+01 0.41352017612E+01 0.47757136907E+01 0.62362747510E+01
 0.89571601231E+01 0.13363850996E+02 0.19071414505E+02 0.25091600322E+02 0.30393101261E+02
 0.42787649602E+02 0.44123883214E+02 0.42824160966E+02 0.39124407293E+02 0.33582964169E+02
 0.26849039685E+02 0.19741087123E+02 0.13356734309E+02 0.87096255232E+01 0.60616330880E+01
 0.47822378722E+01 0.43997915674E+01 0.47820730320E+01 0.60624648430E+01 0.87136241014E+01
 0.13363850996E+02 0.19744256960E+02 0.26835520098E+02 0.33545719114E+02 0.39074284947E+02
 0.50866072312E+02 0.50870406816E+02 0.47554096212E+02 0.41816751969E+02 0.34679736505E+02
 0.26846211111E+02 0.19071183521E+02 0.12481569184E+02 0.80559245568E+01 0.57907199542E+01
 0.48516320953E+01 0.48496461440E+01 0.57880775549E+01 0.80576926622E+01 0.12486504210E+02
 0.19071414505E+02 0.26835520098E+02 0.34660365819E+02 0.41797048180E+02 0.47541017083E+02
 0.57145357337E+02 0.54987742937E+02 0.49327220551E+02 0.41797048180E+02 0.33545719114E+02
 0.25091600322E+02 0.17159764943E+02 0.10937584198E+02 0.72020045187E+01 0.55122094516E+01
 0.50179748826E+01 0.55122094516E+01 0.72020045187E+01 0.10937584198E+02 0.17159764943E+02
 0.25091600322E+02 0.33545719114E+02 0.41797048180E+02 0.49327220551E+02 0.54987742937E+02
 0.59603231988E+02 0.55020938176E+02 0.47564328921E+02 0.39075516031E+02 0.30383009472E+02
 0.21854769634E+02 0.14376626337E+02 0.91133675691E+01 0.63721024017E+01 0.52928426438E+01
 0.52954895253E+01 0.63757807638E+01 0.91126400100E+01 0.14375064269E+02 0.21860343685E+02
 0.30393101261E+02 0.39074284947E+02 0.47541017083E+02 0.54987742937E+02 0.59587402792E+02
 0.47393551667E+02 0.41463591020E+02 0.34254053705E+02 0.26508966362E+02 0.18902707175E+02
 0.12455063534E+02 0.81006678532E+01 0.58600369244E+01 0.49326966512E+01 0.49330787230E+01
 0.58590509207E+01 0.80963756768E+01 0.12451751298E+02 0.18907512971E+02 0.26521703444E+02
 0.34264502854E+02 0.41462302761E+02 0.47383664377E+02 0.50866072312E+02 0.50871765344E+02
 0.41463591020E+02 0.35245997771E+02 0.28136280148E+02 0.20836810626E+02 0.14230927003E+02
 0.92968140339E+01 0.64308438167E+01 0.50759249974E+01 0.46759041757E+01 0.50788148990E+01
 0.64291680996E+01 0.92881605619E+01 0.14224842392E+02 0.20845174289E+02 0.28158857107E+02
 0.35269980354E+02 0.41477571680E+02 0.45905392008E+02 0.47541017083E+02 0.45901315954E+02
 0.34254053705E+02 0.28136280148E+02 0.21497881295E+02 0.15197388393E+02 0.10161353300E+02
 0.69365762566E+01 0.52483607514E+01 0.45216401950E+01 0.45243228359E+01 0.52516149232E+01
 0.69318346245E+01 0.10147603928E+02 0.15186080662E+02 0.21505745226E+02 0.28171646794E+02
 0.34307872371E+02 0.39124407293E+02 0.41816751969E+02 0.41797048180E+02 0.39075516031E+02
 0.26508966362E+02 0.20836810626E+02 0.15197388393E+02 0.10473409481E+02 0.72383106888E+01
 0.53952320160E+01 0.44503973042E+01 0.41725723209E+01 0.44514042869E+01 0.53965729691E+01
 0.72340941098E+01 0.10456694329E+02 0.15174674959E+02 0.20832848070E+02 0.26545937308E+02
 0.31426883789E+02 0.34715227598E+02 0.35858089780E+02 0.34660365819E+02 0.31358955051E+02
 0.18902707175E+02 0.14230927003E+02 0.10161353300E+02 0.72383106888E+01 0.54523209954E+01
 0.44278478186E+01 0.39850796207E+01 0.39837587533E+01 0.44280911798E+01 0.54573591341E+01
 0.72385113232E+01 0.10143442410E+02 0.14200419758E+02 0.18886551063E+02 0.23381285387E+02
 0.26873192172E+02 0.28760450919E+02 0.28741126498E+02 0.26835520098E+02 0.23363224215E+02
 0.12455063534E+02 0.92968140339E+01 0.69365762566E+01 0.53952320160E+01 0.44278478186E+01
 0.39262847859E+01 0.37742327727E+01 0.39234406600E+01 0.44302246768E+01 0.54056937323E+01
 0.69452526690E+01 0.92909820398E+01 0.12434336484E+02 0.15919118025E+02 0.19058125209E+02
 0.21214024849E+02 0.21977944432E+02 0.21217732017E+02 0.19071414505E+02 0.15941963762E+02
 0.81006678532E+01 0.64308438167E+01 0.52483607514E+01 0.44503973042E+01 0.39850796207E+01
 0.37742327727E+01 0.37712853257E+01 0.39801319754E+01 0.44515159978E+01 0.52600008170E+01
 0.64485261978E+01 0.81130484765E+01 0.10233169469E+02 0.12469202570E+02 0.14329756350E+02
 0.15384403322E+02 0.15393435177E+02 0.14350241725E+02 0.12486504210E+02 0.10235798172E+02
 0.58600369244E+01 0.50759249974E+01 0.45216401950E+01 0.41725723209E+01 0.39837587533E+01
 0.39234406600E+01 0.39801319754E+01 0.41643388386E+01 0.45127526999E+01 0.50758660462E+01
 0.58743269213E+01 0.68833485026E+01 0.80723904055E+01 0.92484142756E+01 0.10121889342E+02
 0.10447727453E+02 0.10126830819E+02 0.92472763512E+01 0.80576926622E+01 0.68617224941E+01
 0.49326966512E+01 0.46759041757E+01 0.45243228359E+01 0.44514042869E+01 0.44280911798E+01
 0.44302246768E+01 0.44515159978E+01 0.45127526999E+01 0.46548784200E+01 0.49170482818E+01
 0.53111237617E+01 0.58043369386E+01 0.63285588326E+01 0.67984864791E+01 0.70832539193E+01
 0.70804958199E+01 0.67883230819E+01 0.63108723923E+01 0.57880775549E+01 0.53093164840E+01
 0.49330787230E+01 0.50788148990E+01 0.52516149232E+01 0.53965729691E+01 0.54573591341E+01
 0.54056937323E+01 0.52600008170E+01 0.50758660462E+01 0.49170482818E+01 0.48304030111E+01
 0.48360576199E+01 0.49254016241E+01 0.50598458629E+01 0.51782073399E+01 0.52223870425E+01
 0.51707434520E+01 0.50520914633E+01 0.49264489947E+01 0.48496461440E+01 0.48509779433E+01
 0.58590509207E+01 0.64291680996E+01 0.69318346245E+01 0.72340941098E+01 0.72385113232E+01
 0.69452526690E+01 0.64485261978E+01 0.58743269213E+01 0.53111237617E+01 0.48360576199E+01
 0.44951307496E+01 0.42893060833E+01 0.41865557298E+01 0.41458468009E+01 0.41432832639E+01
 0.41849149833E+01 0.42983525290E+01 0.45140355871E+01 0.48516320953E+01 0.53109983212E+01
 0.80963756768E+01 0.92881605619E+01 0.10147603928E+02 0.10456694329E+02 0.10143442410E+02
 0.92909820398E+01 0.81130484765E+01 0.68833485026E+01 0.58043369386E+01 0.49254016241E+01
 0.42893060833E+01 0.38872637461E+01 0.36716340630E+01 0.36037888924E+01 0.36727663623E+01
 0.38928576275E+01 0.42975101237E+01 0.49264489947E+01 0.57907199542E+01 0.68607884376E+01
 0.12451751298E+02 0.14224842392E+02 0.15186080662E+02 0.15174674959E+02 0.14200419758E+02
 0.12434336484E+02 0.10233169469E+02 0.80723904055E+01 0.63285588326E+01 0.50598458629E+01
 0.41865557298E+01 0.36716340630E+01 0.34401539987E+01 0.34417266789E+01 0.36746194155E+01
 0.41860879230E+01 0.50506301363E+01 0.63108723923E+01 0.80559245568E+01 0.10231452695E+02
 0.18907512971E+02 0.20845174289E+02 0.21505745226E+02 0.20832848070E+02 0.18886551063E+02
 0.15919118025E+02 0.12469202570E+02 0.92484142756E+01 0.67984864791E+01 0.51782073399E+01
 0.41458468009E+01 0.36037888924E+01 0.34417266789E+01 0.36060384886E+01 0.41445764668E+01
 0.51701445294E+01 0.67889190881E+01 0.92472763512E+01 0.12481569184E+02 0.15940617736E+02
 0.26521703444E+02 0.28158857107E+02 0.28171646794E+02 0.26545937308E+02 0.23381285387E+02
 0.19058125209E+02 0.14329756350E+02 0.10121889342E+02 0.70832539193E+01 0.52223870425E+01
 0.41432832639E+01 0.36727663623E+01 0.36746194155E+01 0.41445764668E+01 0.52184950670E+01
 0.70803936192E+01 0.10131402166E+02 0.14350241725E+02 0.19071183521E+02 0.23371455146E+02
 0.34264502854E+02 0.35269980354E+02 0.34307872371E+02 0.31426883789E+02 0.26873192172E+02
 0.21214024849E+02 0.15384403322E+02 0.10447727453E+02 0.70804958199E+01 0.51707434520E+01
 0.41849149833E+01 0.38928576275E+01 0.41860879230E+01 0.51701445294E+01 0.70803936192E+01
 0.10455554540E+02 0.15399137283E+02 0.21217732017E+02 0.26846211111E+02 0.31374425225E+02
 0.41462302761E+02 0.41477571680E+02 0.39124407293E+02 0.34715227598E+02 0.28760450919E+02
 0.21977944432E+02 0.15393435177E+02 0.10126830819E+02 0.67883230819E+01 0.50520914633E+01
 0.42983525290E+01 0.42975101237E+01 0.50506301363E+01 0.67889190881E+01 0.10131402166E+02
 0.15399137283E+02 0.21975769882E+02 0.28741126498E+02 0.34679736505E+02 0.39088451463E+02
 0.47383664377E+02 0.45905392008E+02 0.41816751969E+02 0.35858089780E+02 0.28741126498E+02
 0.21217732017E+02 0.14350241725E+02 0.92472763512E+01 0.63108723923E+01 0.49264489947E+01
 0.45140355871E+01 0.49264489947E+01 0.63108723923E+01 0.92472763512E+01 0.14350241725E+02
 0.21217732017E+02 0.28741126498E+02 0.35858089780E+02 0.41816751969E+02 0.45905392008E+02
 0.50866072312E+02 0.47541017083E+02 0.41797048180E+02 0.34660365819E+02 0.26835520098E+02
 0.19071414505E+02 0.12486504210E+02 0.80576926622E+01 0.57880775549E+01 0.48496461440E+01
 0.48516320953E+01 0.57907199542E+01 0.80559245568E+01 0.12481569184E+02 0.19071183521E+02
 0.26846211111E+02 0.34679736505E+02 0.41816751969E+02 0.47554096212E+02 0.50870406816E+02
 0.50871765344E+02 0.45901315954E+02 0.39075516031E+02 0.31358955051E+02 0.23363224215E+02
 0.15941963762E+02 0.10235798172E+02 0.68617224941E+01 0.53093164840E+01 0.48509779433E+01
 0.53109983212E+01 0.68607884376E+01 0.10231452695E+02 0.15940617736E+02 0.23371455146E+02
 0.31374425225E+02 0.39088451463E+02 0.45905392008E+02 0.50870406816E+02 0.52731792127E+02
 0.37711385618E+02 0.32228111248E+02 0.25691776569E+02 0.18902707175E+02 0.12872323492E+02
 0.85116572138E+01 0.60271999193E+01 0.48159080892E+01 0.44568474124E+01 0.48175433376E+01
 0.60270216950E+01 0.85056743135E+01 0.12860561415E+02 0.18891882681E+02 0.25692099937E+02
 0.32244740417E+02 0.37737597810E+02 0.41462302761E+02 0.42787649602E+02 0.41442467002E+02
 0.32228111248E+02 0.26484383144E+02 0.20177352124E+02 0.14230927003E+02 0.95669294734E+01
 0.66327131230E+01 0.50785376164E+01 0.44046631450E+01 0.44070382616E+01 0.50824477652E+01