   1   1   1   0
  0.1426666E+02  0.2722361E-09  0.2722361E-09  0.2722361E-09  0.5000000E-15
  1.000000000000000E-004
  CAR 
 fcc Au                                  
     41.99624260     -5.90308692  301      8.27616153      1.00000000
     -5.903  0.0000E+00  0.0000E+00
     -5.743  0.0000E+00  0.0000E+00
     -5.584  0.0000E+00  0.0000E+00
     -5.424 -0.2918E-32 -0.4659E-33
     -5.264 -0.1080E-26 -0.1724E-27
     -5.105 -0.1105E-21 -0.1764E-22
     -4.945 -0.3118E-17 -0.4979E-18
     -4.785 -0.2333E-13 -0.3725E-14
     -4.626 -0.4872E-10 -0.7783E-11
     -4.466 -0.2725E-07 -0.4358E-08
     -4.306 -0.3957E-05 -0.6362E-06
     -4.147 -0.1372E-03 -0.2254E-04
     -3.987 -0.7636E-03 -0.1445E-03
     -3.827  0.3158E-02  0.3597E-03
     -3.668  0.1366E-01  0.2541E-02
     -3.508  0.2894E-01  0.7162E-02
     -3.348  0.4723E-01  0.1470E-01
     -3.189  0.4539E-01  0.2195E-01
     -3.029  0.4865E-01  0.2972E-01
     -2.869  0.6288E-01  0.3976E-01
     -2.710  0.8670E-01  0.5360E-01
     -2.550  0.9533E-01  0.6882E-01
     -2.390  0.5564E-01  0.7770E-01
     -2.231  0.7185E-01  0.8918E-01
     -2.071  0.1404E+00  0.1116E+00
     -1.911  0.1531E+00  0.1360E+00
     -1.752  0.9392E-01  0.1510E+00
     -1.592  0.1162E+00  0.1696E+00
     -1.432  0.1979E+00  0.2012E+00
     -1.273  0.1605E+00  0.2268E+00
     -1.113  0.2336E+00  0.2641E+00
     -0.953  0.4305E+00  0.3328E+00
     -0.794  0.6183E+00  0.4316E+00
     -0.634  0.6446E+00  0.5345E+00
     -0.474  0.8875E+00  0.6762E+00
     -0.315  0.1137E+01  0.8577E+00
     -0.155  0.1433E+01  0.1086E+01
      0.004  0.1485E+01  0.1324E+01
      0.164  0.1441E+01  0.1554E+01
      0.324  0.1549E+01  0.1801E+01
      0.483  0.1169E+01  0.1988E+01
      0.643  0.1272E+01  0.2191E+01
      0.803  0.1276E+01  0.2394E+01
      0.962  0.8203E+00  0.2525E+01
      1.122  0.9628E+00  0.2679E+01
      1.282  0.1362E+01  0.2897E+01
      1.441  0.1377E+01  0.3117E+01
      1.601  0.1460E+01  0.3350E+01
      1.761  0.1304E+01  0.3558E+01
      1.920  0.1354E+01  0.3774E+01
      2.080  0.1695E+01  0.4045E+01
      2.240  0.1638E+01  0.4306E+01
      2.399  0.1627E+01  0.4566E+01
      2.559  0.1813E+01  0.4856E+01
      2.719  0.2426E+01  0.5243E+01
      2.878  0.2491E+01  0.5641E+01
      3.038  0.1631E+01  0.5901E+01
      3.198  0.1293E+01  0.6108E+01
      3.357  0.1131E+01  0.6288E+01
      3.517  0.1182E+01  0.6477E+01
      3.677  0.1206E+01  0.6669E+01
      3.836  0.1231E+01  0.6866E+01
      3.996  0.1535E+01  0.7111E+01
      4.156  0.1573E+01  0.7362E+01
      4.315  0.1524E+01  0.7605E+01
      4.475  0.1142E+01  0.7788E+01
      4.635  0.1455E+01  0.8020E+01
      4.794  0.1549E+01  0.8267E+01
      4.954  0.8142E+00  0.8397E+01
      5.114  0.9333E+00  0.8546E+01
      5.273  0.1506E+01  0.8787E+01
      5.433  0.1172E+01  0.8974E+01
      5.593  0.1008E+01  0.9135E+01
      5.752  0.1661E+01  0.9400E+01
      5.912  0.1899E+01  0.9703E+01
      6.072  0.1823E+01  0.9994E+01
      6.231  0.1688E+01  0.1026E+02
      6.391  0.1225E+01  0.1046E+02
      6.551  0.8969E+00  0.1060E+02
      6.710  0.2229E+00  0.1064E+02
      6.870 -0.1607E-01  0.1064E+02
      7.030  0.1206E+00  0.1065E+02
      7.189  0.3459E+00  0.1071E+02
      7.349  0.4762E+00  0.1079E+02
      7.509  0.3464E+00  0.1084E+02
      7.668  0.1509E+00  0.1087E+02
      7.828  0.1367E+00  0.1089E+02
      7.988  0.2113E+00  0.1092E+02
      8.147  0.2595E+00  0.1096E+02
      8.307  0.2904E+00  0.1101E+02
      8.467  0.2577E+00  0.1105E+02
      8.626  0.1673E+00  0.1108E+02
      8.786  0.2436E+00  0.1112E+02
      8.946  0.3973E+00  0.1118E+02
      9.105  0.3213E+00  0.1123E+02
      9.265  0.2435E+00  0.1127E+02
      9.425  0.1619E+00  0.1130E+02
      9.584  0.1631E+00  0.1132E+02
      9.744  0.9961E-01  0.1134E+02
      9.904  0.2878E+00  0.1138E+02
     10.063  0.4379E+00  0.1145E+02
     10.223  0.2259E+00  0.1149E+02
     10.383  0.1797E+00  0.1152E+02
     10.542  0.2183E+00  0.1155E+02
     10.702  0.1762E+00  0.1158E+02
     10.862  0.1881E+00  0.1161E+02
     11.021  0.2527E+00  0.1165E+02
     11.181  0.2178E+00  0.1169E+02
     11.341  0.2033E+00  0.1172E+02
     11.500  0.2571E+00  0.1176E+02
     11.660  0.8626E-01  0.1177E+02
     11.820  0.1215E+00  0.1179E+02
     11.979  0.2150E+00  0.1183E+02
     12.139  0.2330E+00  0.1186E+02
     12.299  0.5470E+00  0.1195E+02
     12.458  0.5086E+00  0.1203E+02
     12.618  0.2152E+00  0.1207E+02
     12.778  0.1164E+00  0.1209E+02
     12.937  0.2383E+00  0.1212E+02
     13.097  0.4796E+00  0.1220E+02
     13.257  0.4399E+00  0.1227E+02
     13.416  0.2388E+00  0.1231E+02
     13.576  0.1257E+00  0.1233E+02
     13.736  0.1651E+00  0.1236E+02
     13.895  0.3599E+00  0.1241E+02
     14.055  0.2724E+00  0.1246E+02
     14.215  0.3085E+00  0.1251E+02
     14.374  0.2841E+00  0.1255E+02
     14.534  0.2365E+00  0.1259E+02
     14.694  0.4808E+00  0.1267E+02
     14.853  0.4101E+00  0.1273E+02
     15.013  0.1058E+00  0.1275E+02
     15.173  0.2555E+00  0.1279E+02
     15.332  0.3154E+00  0.1284E+02
     15.492  0.2807E+00  0.1288E+02
     15.652  0.2257E+00  0.1292E+02
     15.811  0.4933E+00  0.1300E+02
     15.971  0.4025E+00  0.1306E+02
     16.131  0.1117E+00  0.1308E+02
     16.290  0.8863E-01  0.1309E+02
     16.450  0.1333E+00  0.1312E+02
     16.610  0.2661E+00  0.1316E+02
     16.769  0.2953E+00  0.1321E+02
     16.929  0.2789E+00  0.1325E+02
     17.089  0.5256E+00  0.1333E+02
     17.248  0.5589E+00  0.1342E+02
     17.408  0.4951E+00  0.1350E+02
     17.568  0.3749E+00  0.1356E+02
     17.727  0.6680E-01  0.1357E+02
     17.887  0.1454E+00  0.1360E+02
     18.047  0.2825E+00  0.1364E+02
     18.206  0.3392E+00  0.1370E+02
     18.366  0.3729E+00  0.1375E+02
     18.526  0.4115E+00  0.1382E+02
     18.685  0.3443E+00  0.1388E+02
     18.845  0.2909E+00  0.1392E+02
     19.005  0.3342E+00  0.1398E+02
     19.164  0.5232E+00  0.1406E+02
     19.324  0.6772E+00  0.1417E+02
     19.484  0.4693E+00  0.1424E+02
     19.643  0.3128E+00  0.1429E+02
     19.803  0.3882E+00  0.1435E+02
     19.963  0.4498E+00  0.1443E+02
     20.122  0.4522E+00  0.1450E+02
     20.282  0.4640E+00  0.1457E+02
     20.442  0.4551E+00  0.1464E+02
     20.601  0.2368E+00  0.1468E+02
     20.761  0.3614E+00  0.1474E+02
     20.921  0.5934E+00  0.1483E+02
     21.080  0.5591E+00  0.1492E+02
     21.240  0.6407E+00  0.1503E+02
     21.400  0.4823E+00  0.1510E+02
     21.559  0.4375E+00  0.1517E+02
     21.719  0.3134E+00  0.1522E+02
     21.879  0.2415E+00  0.1526E+02
     22.038  0.5539E+00  0.1535E+02
     22.198  0.7300E+00  0.1547E+02
     22.358  0.3853E+00  0.1553E+02
     22.517  0.1647E+00  0.1555E+02
     22.677  0.4239E+00  0.1562E+02
     22.837  0.6142E+00  0.1572E+02
     22.996  0.6582E+00  0.1583E+02
     23.156  0.9029E+00  0.1597E+02
     23.316  0.9784E+00  0.1613E+02
     23.475  0.6831E+00  0.1623E+02
     23.635  0.4347E+00  0.1630E+02
     23.794  0.4491E+00  0.1638E+02
     23.954  0.6800E+00  0.1648E+02
     24.114  0.5621E+00  0.1657E+02
     24.273  0.3657E+00  0.1663E+02
     24.433  0.3146E+00  0.1668E+02
     24.593  0.4336E+00  0.1675E+02
     24.752  0.6008E+00  0.1685E+02
     24.912  0.9105E+00  0.1699E+02
     25.072  0.9860E+00  0.1715E+02
     25.231  0.5728E+00  0.1724E+02
     25.391  0.3282E+00  0.1729E+02
     25.551  0.4708E+00  0.1737E+02
     25.710  0.3941E+00  0.1743E+02
     25.870  0.1943E+00  0.1746E+02
     26.030  0.2442E+00  0.1750E+02
     26.189  0.3269E+00  0.1755E+02
     26.349  0.2189E+00  0.1759E+02
     26.509  0.3271E+00  0.1764E+02
     26.668  0.5816E+00  0.1774E+02
     26.828  0.5663E+00  0.1783E+02
     26.988  0.4695E+00  0.1790E+02
     27.147  0.6075E+00  0.1800E+02
     27.307  0.6056E+00  0.1809E+02
     27.467  0.7810E+00  0.1822E+02
     27.626  0.6869E+00  0.1833E+02
     27.786  0.6780E+00  0.1844E+02
     27.946  0.7133E+00  0.1855E+02
     28.105  0.8758E+00  0.1869E+02
     28.265  0.8675E+00  0.1883E+02
     28.425  0.6353E+00  0.1893E+02
     28.584  0.5840E+00  0.1902E+02
     28.744  0.5742E+00  0.1912E+02
     28.904  0.5913E+00  0.1921E+02
     29.063  0.7465E+00  0.1933E+02
     29.223  0.5878E+00  0.1942E+02
     29.383  0.3430E+00  0.1948E+02
     29.542  0.3285E+00  0.1953E+02
     29.702  0.5225E+00  0.1961E+02
     29.862  0.6516E+00  0.1972E+02
     30.021  0.5667E+00  0.1981E+02
     30.181  0.4814E+00  0.1988E+02
     30.341  0.3348E+00  0.1994E+02
     30.500  0.2022E+00  0.1997E+02
     30.660  0.3389E+00  0.2002E+02
     30.820  0.4221E+00  0.2009E+02
     30.979  0.2502E+00  0.2013E+02
     31.139  0.2526E+00  0.2017E+02
     31.299  0.3781E+00  0.2023E+02
     31.458  0.5354E+00  0.2032E+02
     31.618  0.5427E+00  0.2040E+02
     31.778  0.3814E+00  0.2047E+02
     31.937  0.2122E+00  0.2050E+02
     32.097  0.2795E+00  0.2054E+02
     32.257  0.3362E+00  0.2060E+02
     32.416  0.2815E+00  0.2064E+02
     32.576  0.2996E+00  0.2069E+02
     32.736  0.2857E+00  0.2074E+02
     32.895  0.5354E+00  0.2082E+02
     33.055  0.9533E+00  0.2097E+02
     33.215  0.7904E+00  0.2110E+02
     33.374  0.2413E+00  0.2114E+02
     33.534  0.2044E+00  0.2117E+02
     33.694  0.3985E+00  0.2123E+02
     33.853  0.4675E+00  0.2131E+02
     34.013  0.6260E+00  0.2141E+02
     34.173  0.4793E+00  0.2149E+02
     34.332  0.2696E+00  0.2153E+02
     34.492  0.4617E+00  0.2160E+02
     34.652  0.4190E+00  0.2167E+02
     34.811  0.4946E+00  0.2175E+02
     34.971  0.6961E+00  0.2186E+02
     35.131  0.6029E+00  0.2196E+02
     35.290  0.6035E+00  0.2205E+02
     35.450  0.5594E+00  0.2214E+02
     35.610  0.6754E+00  0.2225E+02
     35.769  0.8120E+00  0.2238E+02
     35.929  0.5320E+00  0.2246E+02
     36.089  0.5009E+00  0.2254E+02
     36.248  0.6717E+00  0.2265E+02
     36.408  0.7521E+00  0.2277E+02
     36.568  0.6767E+00  0.2288E+02
     36.727  0.4859E+00  0.2296E+02
     36.887  0.4828E+00  0.2303E+02
     37.047  0.7312E+00  0.2315E+02
     37.206  0.1062E+01  0.2332E+02
     37.366  0.1126E+01  0.2350E+02
     37.526  0.6942E+00  0.2361E+02
     37.685  0.2573E+00  0.2365E+02
     37.845  0.1285E+00  0.2367E+02
     38.005  0.1916E+00  0.2370E+02
     38.164  0.2334E+00  0.2374E+02
     38.324  0.1260E+00  0.2376E+02
     38.484  0.2107E+00  0.2379E+02
     38.643  0.3803E+00  0.2386E+02
     38.803  0.4247E+00  0.2392E+02
     38.963  0.2377E+00  0.2396E+02
     39.122  0.2873E-01  0.2397E+02
     39.282 -0.7969E-03  0.2397E+02
     39.442  0.4085E-01  0.2397E+02
     39.601  0.4456E-01  0.2398E+02
     39.761  0.6708E-01  0.2399E+02
     39.921  0.5748E-01  0.2400E+02
     40.080  0.9813E-02  0.2400E+02
     40.240 -0.2605E-02  0.2400E+02
     40.400 -0.4231E-03  0.2400E+02
     40.559 -0.1196E-04  0.2400E+02
     40.719 -0.8191E-07  0.2400E+02
     40.879 -0.1462E-09  0.2400E+02
     41.038 -0.6999E-13  0.2400E+02
     41.198 -0.1669E-16  0.2400E+02
     41.358  0.0000E+00  0.2400E+02
     41.517  0.0000E+00  0.2400E+02
     41.677  0.0000E+00  0.2400E+02
     41.837  0.0000E+00  0.2400E+02
     41.996  0.0000E+00  0.2400E+02
     41.99624260     -5.90308692  301      8.27616153      1.00000000
     -5.903  0.0000E+00  0.0000E+00  0.0000E+00
     -5.743  0.0000E+00  0.0000E+00  0.0000E+00
     -5.584  0.0000E+00  0.0000E+00  0.0000E+00
     -5.424 -0.2353E-32 -0.1961E-34 -0.3828E-36
     -5.264 -0.8707E-27 -0.7258E-29 -0.1417E-30
     -5.105 -0.8910E-22 -0.7427E-24 -0.1450E-25
     -4.945 -0.2515E-17 -0.2096E-19 -0.4091E-21
     -4.785 -0.1881E-13 -0.1568E-15 -0.3060E-17
     -4.626 -0.3929E-10 -0.3275E-12 -0.6392E-14
     -4.466 -0.2197E-07 -0.1832E-09 -0.3576E-11
     -4.306 -0.3191E-05 -0.2662E-07 -0.5204E-09
     -4.147 -0.1106E-03 -0.9290E-06 -0.1847E-07
     -3.987 -0.6151E-03 -0.5811E-05 -0.1460E-06
     -3.827  0.2561E-02  0.6357E-05 -0.5951E-06
     -3.668  0.1105E-01  0.6189E-04 -0.5948E-06
     -3.508  0.2299E-01  0.5418E-03  0.2289E-04
     -3.348  0.3721E-01  0.1173E-02  0.6785E-04
     -3.189  0.3523E-01  0.1588E-02  0.1722E-03
     -3.029  0.3721E-01  0.2169E-02  0.2912E-03
     -2.869  0.4730E-01  0.3485E-02  0.5269E-03
     -2.710  0.6407E-01  0.5662E-02  0.1111E-02
     -2.550  0.6955E-01  0.6714E-02  0.1743E-02
     -2.390  0.3984E-01  0.4187E-02  0.1621E-02
     -2.231  0.4997E-01  0.6603E-02  0.2398E-02
     -2.071  0.9568E-01  0.1369E-01  0.6033E-02
     -1.911  0.1025E+00  0.1568E-01  0.7928E-02
     -1.752  0.6128E-01  0.9867E-02  0.6479E-02
     -1.592  0.7230E-01  0.1320E-01  0.1111E-01
     -1.432  0.1195E+00  0.2253E-01  0.2312E-01
     -1.273  0.9297E-01  0.1881E-01  0.2240E-01
     -1.113  0.1210E+00  0.2553E-01  0.5196E-01
     -0.953  0.1849E+00  0.3429E-01  0.1571E+00
     -0.794  0.2237E+00  0.4052E-01  0.2831E+00
     -0.634  0.1834E+00  0.3522E-01  0.3547E+00
     -0.474  0.2122E+00  0.5000E-01  0.5277E+00
     -0.315  0.2510E+00  0.6910E-01  0.6943E+00
     -0.155  0.2336E+00  0.7399E-01  0.9858E+00
      0.004  0.1966E+00  0.6733E-01  0.1091E+01
      0.164  0.1606E+00  0.7119E-01  0.1087E+01
      0.324  0.1395E+00  0.7408E-01  0.1210E+01
      0.483  0.8630E-01  0.6317E-01  0.9260E+00
      0.643  0.7927E-01  0.7822E-01  0.1009E+01
      0.803  0.4862E-01  0.7651E-01  0.1051E+01
      0.962  0.2080E-01  0.6117E-01  0.6734E+00
      1.122  0.1588E-01  0.7623E-01  0.7921E+00
      1.282  0.1997E-01  0.1161E+00  0.1115E+01
      1.441  0.1825E-01  0.1092E+00  0.1137E+01
      1.601  0.1765E-01  0.9973E-01  0.1228E+01
      1.761  0.2185E-01  0.8033E-01  0.1107E+01
      1.920  0.2676E-01  0.7717E-01  0.1156E+01
      2.080  0.3613E-01  0.1240E+00  0.1417E+01
      2.240  0.4075E-01  0.1267E+00  0.1361E+01
      2.399  0.4644E-01  0.1059E+00  0.1368E+01
      2.559  0.4204E-01  0.1166E+00  0.1541E+01
      2.719  0.4386E-01  0.1720E+00  0.2064E+01
      2.878  0.4899E-01  0.1721E+00  0.2122E+01
      3.038  0.3991E-01  0.1165E+00  0.1376E+01
      3.198  0.2747E-01  0.7803E-01  0.1112E+01
      3.357  0.1909E-01  0.9283E-01  0.9463E+00
      3.517  0.2210E-01  0.1093E+00  0.9708E+00
      3.677  0.1864E-01  0.7971E-01  0.1035E+01
      3.836  0.2318E-01  0.9062E-01  0.1040E+01
      3.996  0.2663E-01  0.9920E-01  0.1319E+01
      4.156  0.1700E-01  0.5659E-01  0.1418E+01
      4.315  0.1778E-01  0.5852E-01  0.1365E+01
      4.475  0.1184E-01  0.7069E-01  0.9926E+00
      4.635  0.1886E-01  0.7453E-01  0.1286E+01
      4.794  0.2357E-01  0.6474E-01  0.1386E+01
      4.954  0.1087E-01  0.2555E-01  0.7423E+00
      5.114  0.3128E-02  0.3106E-01  0.8596E+00
      5.273  0.1092E-01  0.5822E-01  0.1372E+01
      5.433  0.1692E-01  0.3931E-01  0.1067E+01
      5.593  0.1036E-01  0.2408E-01  0.9356E+00
      5.752  0.1284E-01  0.3935E-01  0.1550E+01
      5.912  0.1470E-01  0.3405E-01  0.1788E+01
      6.072  0.5727E-02  0.1480E-01  0.1751E+01
      6.231  0.8209E-02  0.1918E-01  0.1615E+01
      6.391  0.3241E-01  0.4476E-01  0.1106E+01
      6.551  0.3735E-01  0.4727E-01  0.7779E+00
      6.710  0.1120E-01  0.1377E-01  0.1887E+00
      6.870  0.6004E-03  0.5578E-03 -0.1711E-01
      7.030  0.9432E-02  0.2288E-01  0.7832E-01
      7.189  0.3011E-01  0.6018E-01  0.2291E+00
      7.349  0.5286E-01  0.6735E-01  0.3251E+00
      7.509  0.4002E-01  0.6343E-01  0.2167E+00
      7.668  0.1277E-01  0.5026E-01  0.7035E-01
      7.828  0.1513E-01  0.4211E-01  0.6474E-01
      7.988  0.2810E-01  0.4200E-01  0.1237E+00
      8.147  0.3909E-01  0.3982E-01  0.1616E+00
      8.307  0.4160E-01  0.5497E-01  0.1699E+00
      8.467  0.3700E-01  0.5742E-01  0.1405E+00
      8.626  0.2375E-01  0.4305E-01  0.8489E-01
      8.786  0.2712E-01  0.8759E-01  0.1009E+00
      8.946  0.4556E-01  0.1379E+00  0.1668E+00
      9.105  0.4988E-01  0.8544E-01  0.1507E+00
      9.265  0.4396E-01  0.5419E-01  0.1206E+00
      9.425  0.2671E-01  0.4420E-01  0.7434E-01
      9.584  0.2978E-01  0.4423E-01  0.7349E-01
      9.744  0.2123E-01  0.2289E-01  0.4620E-01
      9.904  0.5301E-01  0.8870E-01  0.1117E+00
     10.063  0.6700E-01  0.1556E+00  0.1585E+00
     10.223  0.3559E-01  0.7546E-01  0.8642E-01
     10.383  0.3674E-01  0.4996E-01  0.7242E-01
     10.542  0.3857E-01  0.6966E-01  0.8423E-01
     10.702  0.3572E-01  0.5396E-01  0.6433E-01
     10.862  0.3052E-01  0.6911E-01  0.6193E-01
     11.021  0.5191E-01  0.8284E-01  0.8229E-01
     11.181  0.6287E-01  0.5646E-01  0.6786E-01
     11.341  0.3727E-01  0.7508E-01  0.6427E-01
     11.500  0.5175E-01  0.8870E-01  0.8321E-01
     11.660  0.2380E-01  0.2302E-01  0.2797E-01
     11.820  0.5039E-01  0.2411E-01  0.2624E-01
     11.979  0.6197E-01  0.6580E-01  0.5414E-01
     12.139  0.6820E-01  0.6233E-01  0.7337E-01
     12.299  0.2295E+00  0.7615E-01  0.1731E+00
     12.458  0.2254E+00  0.6328E-01  0.1540E+00
     12.618  0.8053E-01  0.4984E-01  0.5250E-01
     12.778  0.3561E-01  0.3867E-01  0.2293E-01
     12.937  0.9445E-01  0.4458E-01  0.6601E-01
     13.097  0.1646E+00  0.1044E+00  0.1442E+00
     13.257  0.1297E+00  0.1221E+00  0.1201E+00
     13.416  0.7791E-01  0.6943E-01  0.4924E-01
     13.576  0.2852E-01  0.5050E-01  0.2372E-01
     13.736  0.3639E-01  0.6285E-01  0.3602E-01
     13.895  0.1217E+00  0.1008E+00  0.6943E-01
     14.055  0.9288E-01  0.6969E-01  0.6258E-01
     14.215  0.8224E-01  0.8986E-01  0.8961E-01
     14.374  0.8322E-01  0.8476E-01  0.6832E-01
     14.534  0.6542E-01  0.8322E-01  0.4489E-01
     14.694  0.1493E+00  0.1553E+00  0.8299E-01
     14.853  0.1456E+00  0.1148E+00  0.6904E-01
     15.013  0.2385E-01  0.3795E-01  0.2564E-01
     15.173  0.5436E-01  0.9347E-01  0.6625E-01
     15.332  0.1098E+00  0.7990E-01  0.7198E-01
     15.492  0.9859E-01  0.7112E-01  0.5668E-01
     15.652  0.7753E-01  0.6208E-01  0.4113E-01
     15.811  0.1476E+00  0.1523E+00  0.9150E-01
     15.971  0.1181E+00  0.1285E+00  0.7047E-01
     16.131  0.2960E-01  0.4331E-01  0.1564E-01
     16.290  0.8707E-02  0.4619E-01  0.1691E-01
     16.450  0.3294E-01  0.4907E-01  0.2033E-01
     16.610  0.7799E-01  0.8013E-01  0.4766E-01
     16.769  0.9032E-01  0.8522E-01  0.5666E-01
     16.929  0.6390E-01  0.9563E-01  0.6087E-01
     17.089  0.9222E-01  0.2027E+00  0.1183E+00
     17.248  0.9929E-01  0.2194E+00  0.1248E+00
     17.408  0.1050E+00  0.1789E+00  0.1058E+00
     17.568  0.7497E-01  0.1303E+00  0.8575E-01
     17.727  0.8716E-02  0.2607E-01  0.1570E-01
     17.887  0.3294E-02  0.7431E-01  0.3140E-01
     18.047  0.2387E-01  0.1294E+00  0.6457E-01
     18.206  0.4091E-01  0.1407E+00  0.8314E-01
     18.366  0.5865E-01  0.1486E+00  0.6971E-01
     18.526  0.7810E-01  0.1597E+00  0.5722E-01
     18.685  0.6076E-01  0.1383E+00  0.4810E-01
     18.845  0.3020E-01  0.1354E+00  0.5393E-01
     19.005  0.3173E-01  0.1460E+00  0.8607E-01
     19.164  0.2744E-01  0.2370E+00  0.1362E+00
     19.324  0.2193E-01  0.2992E+00  0.1771E+00
     19.484  0.2687E-01  0.1986E+00  0.1049E+00
     19.643  0.4330E-01  0.1178E+00  0.5720E-01
     19.803  0.4967E-01  0.1501E+00  0.7274E-01
     19.963  0.4372E-01  0.1947E+00  0.7530E-01
     20.122  0.3016E-01  0.1947E+00  0.9360E-01
     20.282  0.1683E-01  0.2016E+00  0.1250E+00
     20.442  0.1620E-01  0.2032E+00  0.1254E+00
     20.601  0.5877E-02  0.1069E+00  0.5930E-01
     20.761  0.1352E-01  0.1682E+00  0.6416E-01
     20.921  0.3340E-01  0.2518E+00  0.1159E+00
     21.080  0.3826E-01  0.2062E+00  0.1367E+00
     21.240  0.3350E-01  0.2583E+00  0.1488E+00
     21.400  0.2342E-01  0.2030E+00  0.1103E+00
     21.559  0.2538E-01  0.1723E+00  0.1123E+00
     21.719  0.1136E-01  0.1238E+00  0.8794E-01
     21.879  0.7786E-02  0.9111E-01  0.6369E-01
     22.038  0.1808E-01  0.2178E+00  0.1268E+00
     22.198  0.2700E-01  0.2758E+00  0.1625E+00
     22.358  0.1558E-01  0.1393E+00  0.7936E-01
     22.517  0.4567E-02  0.6644E-01  0.3305E-01
     22.677  0.1150E-01  0.1583E+00  0.9947E-01
     22.837  0.1166E-01  0.2217E+00  0.1360E+00
     22.996  0.1296E-01  0.2333E+00  0.1244E+00
     23.156  0.2130E-01  0.2323E+00  0.1664E+00
     23.316  0.2473E-01  0.1978E+00  0.1909E+00
     23.475  0.1584E-01  0.1423E+00  0.1301E+00
     23.635  0.1191E-01  0.1059E+00  0.8217E-01
     23.794  0.7349E-02  0.9904E-01  0.8427E-01
     23.954  0.7279E-02  0.1654E+00  0.1354E+00
     24.114  0.6931E-02  0.1590E+00  0.1082E+00
     24.273  0.5624E-02  0.8484E-01  0.5674E-01
     24.433  0.6913E-02  0.5513E-01  0.4312E-01
     24.593  0.4726E-02  0.9476E-01  0.7458E-01
     24.752  0.4228E-02  0.1420E+00  0.1179E+00
     24.912  0.1279E-01  0.1866E+00  0.1522E+00
     25.072  0.2085E-01  0.2162E+00  0.1559E+00
     25.231  0.1331E-01  0.1237E+00  0.1049E+00
     25.391  0.4533E-02  0.6685E-01  0.5445E-01
     25.551  0.6568E-02  0.1090E+00  0.5885E-01
     25.710  0.7181E-02  0.1036E+00  0.4560E-01
     25.870  0.5598E-02  0.6332E-01  0.1810E-01
     26.030  0.5368E-02  0.6721E-01  0.2398E-01
     26.189  0.5420E-02  0.9129E-01  0.3916E-01
     26.349  0.3185E-02  0.7240E-01  0.2682E-01
     26.509  0.5692E-02  0.1071E+00  0.3543E-01
     26.668  0.9459E-02  0.1679E+00  0.7178E-01
     26.828  0.1126E-01  0.1589E+00  0.7667E-01
     26.988  0.1258E-01  0.1638E+00  0.5458E-01
     27.147  0.1596E-01  0.2274E+00  0.6681E-01
     27.307  0.1601E-01  0.1992E+00  0.8735E-01
     27.467  0.2629E-01  0.2249E+00  0.1233E+00
     27.626  0.3146E-01  0.1708E+00  0.1251E+00
     27.786  0.2408E-01  0.1426E+00  0.1405E+00
     27.946  0.1542E-01  0.1914E+00  0.1193E+00
     28.105  0.3396E-01  0.2323E+00  0.1439E+00
     28.265  0.4076E-01  0.2067E+00  0.1511E+00
     28.425  0.3139E-01  0.1259E+00  0.1185E+00
     28.584  0.2612E-01  0.1172E+00  0.1101E+00
     28.744  0.1223E-01  0.1297E+00  0.9118E-01
     28.904  0.5488E-02  0.1329E+00  0.1007E+00
     29.063  0.1057E-01  0.1765E+00  0.1321E+00
     29.223  0.9697E-02  0.1678E+00  0.9648E-01
     29.383  0.9183E-02  0.9308E-01  0.6979E-01
     29.542  0.7039E-02  0.6781E-01  0.5722E-01
     29.702  0.1447E-01  0.7874E-01  0.9904E-01
     29.862  0.2351E-01  0.1343E+00  0.1215E+00
     30.021  0.1933E-01  0.1374E+00  0.9052E-01
     30.181  0.1678E-01  0.9991E-01  0.9655E-01
     30.341  0.6791E-02  0.5743E-01  0.9513E-01
     30.500  0.5539E-05  0.3318E-01  0.7460E-01
     30.660  0.3385E-02  0.4494E-01  0.1211E+00
     30.820  0.6121E-02  0.7166E-01  0.1212E+00
     30.979  0.5998E-02  0.4324E-01  0.7725E-01
     31.139  0.7973E-02  0.3542E-01  0.6649E-01
     31.299  0.1567E-01  0.8130E-01  0.7074E-01
     31.458  0.2989E-01  0.1503E+00  0.8862E-01
     31.618  0.2313E-01  0.1097E+00  0.1195E+00
     31.778  0.8523E-02  0.3614E-01  0.9502E-01
     31.937  0.2320E-02  0.3347E-01  0.4733E-01
     32.097  0.4629E-02  0.6637E-01  0.5024E-01
     32.257  0.4770E-02  0.7047E-01  0.5797E-01
     32.416  0.2007E-02  0.5733E-01  0.4525E-01
     32.576  0.7883E-02  0.6532E-01  0.4144E-01
     32.736  0.1137E-01  0.6786E-01  0.3897E-01
     32.895  0.1271E-01  0.1273E+00  0.8000E-01
     33.055  0.2598E-01  0.2186E+00  0.1506E+00
     33.215  0.3454E-01  0.1638E+00  0.1456E+00
     33.374  0.1478E-01  0.4016E-01  0.5799E-01
     33.534  0.8816E-03  0.1564E-01  0.4349E-01
     33.694  0.1243E-02  0.3284E-01  0.7919E-01
     33.853  0.9905E-03  0.4700E-01  0.8965E-01
     34.013  0.9565E-03  0.5421E-01  0.1461E+00
     34.173  0.1511E-02  0.3414E-01  0.1182E+00
     34.332  0.3860E-02  0.1310E-01  0.6638E-01
     34.492  0.5508E-02  0.2040E-01  0.1160E+00
     34.652  0.1986E-02  0.3162E-01  0.1007E+00
     34.811  0.3845E-02  0.8043E-01  0.1201E+00
     34.971  0.1404E-01  0.1013E+00  0.1900E+00
     35.131  0.1538E-01  0.8084E-01  0.1611E+00
     35.290  0.8057E-02  0.8264E-01  0.1443E+00
     35.450  0.5174E-02  0.4162E-01  0.1556E+00
     35.610  0.6432E-02  0.2737E-01  0.2156E+00
     35.769  0.6479E-02  0.4075E-01  0.2514E+00
     35.929  0.4004E-02  0.2460E-01  0.1538E+00
     36.089  0.2732E-02  0.4246E-01  0.1659E+00
     36.248  0.2362E-02  0.5074E-01  0.2328E+00
     36.408  0.8544E-02  0.4786E-01  0.2450E+00
     36.568  0.1310E-01  0.2927E-01  0.2233E+00
     36.727  0.1063E-01  0.1529E-01  0.1713E+00
     36.887  0.1139E-01  0.2339E-01  0.1637E+00
     37.047  0.2580E-01  0.3149E-01  0.2110E+00
     37.206  0.3185E-01  0.4993E-01  0.2755E+00
     37.366  0.2356E-01  0.6248E-01  0.2487E+00
     37.526  0.1262E-01  0.2620E-01  0.1221E+00
     37.685  0.3784E-02  0.6085E-02  0.5085E-01
     37.845  0.2905E-02  0.6689E-02  0.3374E-01
     38.005  0.1549E-02  0.5251E-02  0.4540E-01
     38.164  0.4430E-02  0.1655E-01  0.4826E-01
     38.324  0.3252E-02  0.1229E-01  0.2016E-01
     38.484  0.1499E-02  0.5769E-02  0.3016E-01
     38.643  0.6192E-02  0.1545E-01  0.5707E-01
     38.803  0.5747E-02  0.1452E-01  0.5090E-01
     38.963  0.2682E-02  0.7515E-02  0.2958E-01
     39.122  0.7666E-03  0.1945E-02  0.6097E-02
     39.282 -0.1229E-03 -0.3429E-03 -0.1247E-02
     39.442 -0.3424E-04 -0.9461E-04  0.1395E-03
     39.601 -0.1276E-05  0.2116E-05  0.8481E-03
     39.761 -0.1101E-07  0.2741E-03  0.2490E-02
     39.921  0.1920E-09  0.4855E-03  0.2648E-02
     40.080  0.5700E-10  0.1225E-03  0.5319E-03
     40.240 -0.1032E-10 -0.2290E-04 -0.1211E-03
     40.400 -0.1946E-11 -0.4259E-05 -0.2079E-04
     40.559 -0.5629E-13 -0.1229E-06 -0.5929E-06
     40.719 -0.3877E-15 -0.8462E-09 -0.4070E-08
     40.879 -0.6933E-18 -0.1513E-11 -0.7270E-11
     41.038 -0.3319E-21 -0.7243E-15 -0.3480E-14
     41.198 -0.7916E-25 -0.1727E-18 -0.8299E-18
     41.358  0.0000E+00  0.0000E+00  0.0000E+00
     41.517  0.0000E+00  0.0000E+00  0.0000E+00
     41.677  0.0000E+00  0.0000E+00  0.0000E+00
     41.837  0.0000E+00  0.0000E+00  0.0000E+00
     41.996  0.0000E+00  0.0000E+00  0.0000E+00
