    1    1    1    1
  0.1426666E+02  0.2722361E-09  0.2722361E-09  0.2722361E-09  0.5000000E-15
  1.000000000000000E-004
  CAR 
 fcc Au                                  
     11    110     12
 
  0.5000000E-01  0.5000000E-01  0.5000000E-01  0.2000000E-02
    1       -3.725845   1.000000
    2        2.296484   1.000000
    3        2.378445   1.000000
    4        2.378445   1.000000
    5        4.413691   1.000000
    6        4.413691   1.000000
    7       23.507369   0.000000
    8       27.599762   0.000000
    9       28.445338   0.000000
   10       28.445338   0.000000
   11       33.678818   0.000000
   12       38.417305   0.000000
 
  0.1500000E+00  0.5000000E-01  0.5000000E-01  0.6000000E-02
    1       -3.191108   1.000000
    2        2.080811   1.000000
    3        2.560860   1.000000
    4        2.602326   1.000000
    5        4.200267   1.000000
    6        4.475683   1.000000
    7       24.171029   0.000000
    8       25.545132   0.000000
    9       28.338153   0.000000
   10       29.570804   0.000000
   11       34.012004   0.000000
   12       36.909580   0.000000
 
  0.2500000E+00  0.5000000E-01  0.5000000E-01  0.6000000E-02
    1       -2.060696   1.000000
    2        1.909589   1.000000
    3        2.754700   1.000000
    4        2.788532   1.000000
    5        4.204196   1.000000
    6        4.757674   1.000000
    7       22.020982   0.000000
    8       24.968499   0.000000
    9       29.060165   0.000000
   10       31.292057   0.000000
   11       31.488445   0.000000
   12       34.612500   0.000000
 
  0.3500000E+00  0.5000000E-01  0.5000000E-01  0.6000000E-02
    1       -1.131439   1.000000
    2        2.506293   1.000000
    3        2.627222   1.000000
    4        2.729829   1.000000
    5        4.863932   1.000000
    6        5.516845   1.000000
    7       17.998430   0.000000
    8       24.109949   0.000000
    9       28.257180   0.000000
   10       30.771765   0.000000
   11       32.463654   0.000000
   12       34.026157   0.000000
 
  0.4500000E+00  0.5000000E-01  0.5000000E-01  0.6000000E-02
    1       -0.956112   1.000000
    2        2.306199   1.000000
    3        2.403424   1.000000
    4        4.538828   1.000000
    5        5.691458   1.000000
    6        6.490989   1.000000
    7       14.025460   0.000000
    8       23.075514   0.000000
    9       27.006206   0.000000
   10       28.207318   0.000000
   11       34.965462   0.000000
   12       35.622131   0.000000
 
 -0.4500000E+00  0.5000000E-01  0.5000000E-01  0.6000000E-02
    1       -0.967702   1.000000
    2        2.216610   1.000000
    3        2.349031   1.000000
    4        5.181931   1.000000
    5        6.089536   1.000000
    6        7.144420   1.000000
    7       12.364477  -0.000000
    8       22.795758   0.000000
    9       26.993254   0.000000
   10       27.085759   0.000000
   11       35.831349   0.000000
   12       35.962140   0.000000
 
 -0.3500000E+00  0.5000000E-01  0.5000000E-01  0.6000000E-02
    1       -0.968728   1.000000
    2        2.346884   1.000000
    3        2.497176   1.000000
    4        3.848236   1.000000
    5        5.807072   1.000000
    6        5.842960   1.000000
    7       15.256011   0.000000
    8       23.360362   0.000000
    9       27.597410   0.000000
   10       28.540644   0.000000
   11       34.917563   0.000000
   12       34.944483   0.000000
 
 -0.2500000E+00  0.5000000E-01  0.5000000E-01  0.6000000E-02
    1       -1.352001   1.000000
    2        2.219354   1.000000
    3        2.639844   1.000000
    4        2.731570   1.000000
    5        4.732260   1.000000
    6        5.113654   1.000000
    7       19.387862   0.000000
    8       24.550486   0.000000
    9       28.887342   0.000000
   10       30.793177   0.000000
   11       32.346094   0.000000
   12       34.010359   0.000000
 
 -0.1500000E+00  0.5000000E-01  0.5000000E-01  0.6000000E-02
    1       -2.470356   1.000000
    2        1.900102   1.000000
    3        2.747098   1.000000
    4        2.766002   1.000000
    5        4.145761   1.000000
    6        4.592276   1.000000
    7       23.254563   0.000000
    8       24.915218   0.000000
    9       28.970190   0.000000
   10       30.225946   0.000000
   11       32.537791   0.000000
   12       35.088618   0.000000
 
 -0.5000000E-01  0.5000000E-01  0.5000000E-01  0.6000000E-02
    1       -3.453133   1.000000
    2        2.147524   1.000000
    3        2.503749   1.000000
    4        2.511996   1.000000
    5        4.236659   1.000000
    6        4.491229   1.000000
    7       23.877332   0.000000
    8       26.649226   0.000000
    9       28.354433   0.000000
   10       28.670717   0.000000
   11       34.834311   0.000000
   12       37.321715   0.000000
 
  0.1500000E+00  0.1500000E+00  0.5000000E-01  0.6000000E-02
    1       -2.926347   1.000000
    2        1.851869   1.000000
    3        2.766264   1.000000
    4        2.772812   1.000000
    5        3.927153   1.000000
    6        4.639380   1.000000
    7       24.557908   0.000000
    8       25.754695   0.000000
    9       27.975128   0.000000
   10       28.447007   0.000000
   11       34.789927   0.000000
   12       36.055766   0.000000
 
  0.2500000E+00  0.1500000E+00  0.5000000E-01  0.1200000E-01
    1       -1.980515   1.000000
    2        1.515854   1.000000
    3        2.884850   1.000000
    4        3.140041   1.000000
    5        3.848086   1.000000
    6        4.933725   1.000000
    7       23.546810   0.000000
    8       25.236082   0.000000
    9       27.403131   0.000000
   10       28.764143   0.000000
   11       32.683495   0.000000
   12       35.224429   0.000000
 
  0.3500000E+00  0.1500000E+00  0.5000000E-01  0.1200000E-01
    1       -0.872763   1.000000
    2        1.622243   1.000000
    3        2.469686   1.000000
    4        3.147388   1.000000
    5        4.719893   1.000000
    6        5.695303   1.000000
    7       19.645763   0.000000
    8       24.718079   0.000000
    9       26.449042   0.000000
   10       29.031679   0.000000
   11       33.130329   0.000000
   12       34.521488   0.000000
 
  0.4500000E+00  0.1500000E+00  0.5000000E-01  0.1200000E-01
    1       -0.516384   1.000000
    2        2.058701   1.000000
    3        2.746901   1.000000
    4        2.969158   1.000000
    5        5.760564   1.000000
    6        7.058985   1.000000
    7       15.400966   0.000000
    8       23.748497   0.000000
    9       25.358196   0.000000
   10       27.769957   0.000000
   11       34.615672   0.000000
   12       36.248488   0.000000
 
 -0.4500000E+00  0.1500000E+00  0.5000000E-01  0.1200000E-01
    1       -0.517601   1.000000
    2        1.888932   1.000000
    3        2.742474   1.000000
    4        3.842950   1.000000
    5        6.020480   1.000000
    6        8.940003  -0.000014
    7       12.272066  -0.000000
    8       23.207598   0.000000
    9       25.038373   0.000000
   10       26.611764   0.000000
   11       35.617912   0.000000
   12       36.578338   0.000000
 
 -0.3500000E+00  0.1500000E+00  0.5000000E-01  0.1200000E-01
    1       -0.481655   1.000000
    2        1.999343   1.000000
    3        2.774620   1.000000
    4        3.411793   1.000000
    5        5.568746   1.000000
    6        7.875702   1.007935
    7       14.198540   0.000000
    8       23.276524   0.000000
    9       24.990335   0.000000
   10       27.890802   0.000000
   11       34.318541   0.000000
   12       36.369250   0.000000
 
 -0.2500000E+00  0.1500000E+00  0.5000000E-01  0.1200000E-01
    1       -0.619649   1.000000
    2        1.991556   1.000000
    3        2.383314   1.000000
    4        3.028801   1.000000
    5        4.615535   1.000000
    6        6.383885   1.000000
    7       18.247832   0.000000
    8       23.878981   0.000000
    9       26.031559   0.000000
   10       30.048236   0.000000
   11       32.191583   0.000000
   12       35.330943   0.000000
 
 -0.1500000E+00  0.1500000E+00  0.5000000E-01  0.1200000E-01
    1       -1.575121   1.000000
    2        1.571682   1.000000
    3        2.737171   1.000000
    4        3.169823   1.000000
    5        3.841480   1.000000
    6        5.279531   1.000000
    7       22.162714   0.000000
    8       24.645402   0.000000
    9       27.814316   0.000000
   10       28.938725   0.000000
   11       33.031147   0.000000
   12       34.825565   0.000000
 
 -0.5000000E-01  0.1500000E+00  0.5000000E-01  0.1200000E-01
    1       -2.685062   1.000000
    2        1.854285   1.000000
    3        2.767930   1.000000
    4        2.784028   1.000000
    5        3.982506   1.000000
    6        4.647023   1.000000
    7       24.376860   0.000000
    8       24.820998   0.000000
    9       28.011154   0.000000
   10       29.866104   0.000000
   11       32.942872   0.000000
   12       36.160544   0.000000
 
  0.2500000E+00  0.2500000E+00  0.5000000E-01  0.6000000E-02
    1       -1.367828   1.000000
    2        1.042286   1.000000
    3        3.075471   1.000000
    4        3.646559   1.000000
    5        3.895307   1.000000
    6        5.101476   1.000000
    7       24.212448   0.000000
    8       25.607244   0.000000
    9       26.087781   0.000000
   10       27.038656   0.000000
   11       30.102279   0.000000
   12       36.045275   0.000000
 
  0.3500000E+00  0.2500000E+00  0.5000000E-01  0.1200000E-01
    1       -0.504228   1.000000
    2        0.747733   1.000000
    3        2.723259   1.000000
    4        4.108675   1.000000
    5        4.758683   1.000000
    6        5.729134   1.000000
    7       21.465274   0.000000
    8       23.572088   0.000000
    9       25.076259   0.000000
   10       28.050446   0.000000
   11       29.805804   0.000000
   12       36.234636   0.000000
 
  0.4500000E+00  0.2500000E+00  0.5000000E-01  0.1200000E-01
    1       -0.040818   1.000000
    2        1.072458   1.000000
    3        2.401722   1.000000
    4        3.925424   1.000000
    5        5.888832   1.000000
    6        7.402101   1.000000
    7       17.044617   0.000000
    8       22.875690   0.000000
    9       23.264139   0.000000
   10       27.579487   0.000000
   11       33.064518   0.000000
   12       36.527971   0.000000
 
 -0.4500000E+00  0.2500000E+00  0.5000000E-01  0.1200000E-01
    1        0.090987   1.000000
    2        1.393063   1.000000
    3        2.641704   1.000000
    4        3.652576   1.000000
    5        6.067630   1.000000
    6       10.210066  -0.000000
    7       13.116052  -0.000000
    8       21.520049   0.000000
    9       23.379429   0.000000
   10       26.811589   0.000000
   11       35.620943   0.000000
   12       37.735039   0.000000
 
 -0.3500000E+00  0.2500000E+00  0.5000000E-01  0.1200000E-01
    1        0.324778   1.000000
    2        1.483339   1.000000
    3        2.644862   1.000000
    4        3.510866   1.000000
    5        5.509168   1.000000
    6       10.040291  -0.000000
    7       13.817642   0.000000
    8       20.335901   0.000000
    9       24.590344   0.000000
   10       27.033974   0.000000
   11       34.475140   0.000000
   12       37.141330   0.000000
 
 -0.2500000E+00  0.2500000E+00  0.5000000E-01  0.1200000E-01
    1        0.477185   1.000000
    2        1.620071   1.000000
    3        1.910625   1.000000
    4        3.615885   1.000000
    5        4.566079   1.000000
    6        8.108894   0.998768
    7       17.458292   0.000000
    8       20.355482   0.000000
    9       25.496583   0.000000
   10       29.184719   0.000000
   11       31.724487   0.000000
   12       37.149268   0.000000
 
 -0.1500000E+00  0.2500000E+00  0.5000000E-01  0.1200000E-01
    1       -0.392981   1.000000
    2        1.467357   1.000000
    3        2.350460   1.000000
    4        3.464824   1.000000
    5        4.025097   1.000000
    6        6.510443   1.000000
    7       19.715026   0.000000
    8       22.768506   0.000000
    9       26.400943   0.000000
   10       29.643161   0.000000
   11       31.943887   0.000000
   12       36.032458   0.000000
 
 -0.5000000E-01  0.2500000E+00  0.5000000E-01  0.1200000E-01
    1       -1.500548   1.000000
    2        1.806258   1.000000
    3        2.704548   1.000000
    4        2.913710   1.000000
    5        4.281119   1.000000
    6        5.180050   1.000000
    7       20.844199   0.000000
    8       24.934547   0.000000
    9       28.045126   0.000000
   10       30.135861   0.000000
   11       32.838581   0.000000
   12       33.824651   0.000000
 
  0.3500000E+00  0.3500000E+00  0.5000000E-01  0.6000000E-02
    1       -0.433357   1.000000
    2        0.251336   1.000000
    3        3.822788   1.000000
    4        4.830629   1.000000
    5        5.332006   1.000000
    6        5.668143   1.000000
    7       21.416222   0.000000
    8       22.273269   0.000000
    9       22.960663   0.000000
   10       26.991756   0.000000
   11       28.940420   0.000000
   12       38.679258   0.000000
 
  0.4500000E+00  0.3500000E+00  0.5000000E-01  0.1200000E-01
    1       -0.316668   1.000000
    2        0.112509   1.000000
    3        3.905951   1.000000
    4        5.225513   1.000000
    5        5.906333   1.000000
    6        7.392832   1.000000
    7       18.390794   0.000000
    8       20.537158   0.000000
    9       21.215884   0.000000
   10       28.116827   0.000000
   11       30.165593   0.000000
   12       38.404843   0.000000
 
 -0.4500000E+00  0.3500000E+00  0.5000000E-01  0.1200000E-01
    1       -0.124103   1.000000
    2        0.510630   1.000000
    3        3.443933   1.000000
    4        4.813743   1.000000
    5        6.204353   1.000000
    6       10.468963  -0.000000
    7       14.689966   0.000000
    8       18.963517   0.000000
    9       21.197472   0.000000
   10       28.249633   0.000000
   11       33.167473   0.000000
   12       37.393583   0.000000
 
 -0.3500000E+00  0.3500000E+00  0.5000000E-01  0.1200000E-01
    1        0.257405   1.000000
    2        1.157750   1.000000
    3        2.735589   1.000000
    4        4.361656   1.000000
    5        5.751622   1.000000
    6       11.823215  -0.000000
    7       14.176066   0.000000
    8       17.140371   0.000000
    9       22.824325   0.000000
   10       27.737058   0.000000
   11       35.828701   0.000000
   12       37.012511   0.000000
 
 -0.2500000E+00  0.3500000E+00  0.5000000E-01  0.1200000E-01
    1        0.663282   1.000000
    2        1.532630   1.000000
    3        2.085989   1.000000
    4        3.873036   1.000000
    5        5.181216   1.000000
    6        9.897545  -0.000000
    7       15.836884   0.000000
    8       18.139829   0.000000
    9       24.732126   0.000000
   10       27.499649   0.000000
   11       33.834102   0.000000
   12       37.310810   0.000000
 
 -0.1500000E+00  0.3500000E+00  0.5000000E-01  0.1200000E-01
    1       -0.025092   1.000000
    2        1.860965   1.000000
    3        2.469984   1.000000
    4        3.209645   1.000000
    5        5.056835   1.000000
    6        8.043516   1.034824
    7       15.790728   0.000000
    8       22.072167   0.000000
    9       25.049081   0.000000
   10       28.562687   0.000000
   11       32.887004   0.000000
   12       36.738414   0.000000
 
 -0.5000000E-01  0.3500000E+00  0.5000000E-01  0.1200000E-01
    1       -0.846400   1.000000
    2        2.348763   1.000000
    3        2.680680   1.000000
    4        2.907083   1.000000
    5        5.226879   1.000000
    6        6.139567   1.000000
    7       16.677875   0.000000
    8       23.855311   0.000000
    9       26.801216   0.000000
   10       29.403854   0.000000
   11       33.487050   0.000000
   12       35.068192   0.000000
 
  0.4500000E+00  0.4500000E+00  0.5000000E-01  0.6000000E-02
    1       -0.673799   1.000000
    2       -0.263524   1.000000
    3        5.671701   1.000000
    4        5.782014   1.000000
    5        6.245151   1.000000
    6        7.678311   1.000099
    7       17.306092   0.000000
    8       19.451139   0.000000
    9       19.723096   0.000000
   10       27.450697   0.000000
   11       30.278573   0.000000
   12       39.662122   0.000000
 
 -0.4500000E+00  0.4500000E+00  0.5000000E-01  0.1200000E-01
    1       -0.594458   1.000000
    2       -0.195156   1.000000
    3        5.140046   1.000000
    4        5.704591   1.000000
    5        6.451626   1.000000
    6        9.969511  -0.000000
    7       15.243405   0.000000
    8       18.380838   0.000000
    9       19.336874   0.000000
   10       28.537284   0.000000
   11       30.833636   0.000000
   12       38.715036   0.000000
 
 -0.3500000E+00  0.4500000E+00  0.5000000E-01  0.1200000E-01
    1       -0.204452   1.000000
    2        0.396309   1.000000
    3        3.818470   1.000000
    4        5.049103   1.000000
    5        6.197480   1.000000
    6       11.973061  -0.000000
    7       13.853933   0.000000
    8       17.443418   0.000000
    9       20.791008   0.000000
   10       28.563581   0.000000
   11       33.230331   0.000000
   12       37.430400   0.000000
 
 -0.2500000E+00  0.4500000E+00  0.5000000E-01  0.1200000E-01
    1        0.231096   1.000000
    2        1.213069   1.000000
    3        2.679696   1.000000
    4        4.062412   1.000000
    5        5.924452   1.000000
    6       12.163867  -0.000000
    7       12.302273  -0.000000
    8       19.294655   0.000000
    9       23.006733   0.000000
   10       27.318981   0.000000
   11       35.727730   0.000000
   12       37.419313   0.000000
 
 -0.1500000E+00  0.4500000E+00  0.5000000E-01  0.1200000E-01
    1       -0.122737   1.000000
    2        1.645445   1.000000
    3        3.093101   1.000000
    4        3.257048   1.000000
    5        5.842141   1.000000
    6        9.978364  -0.000000
    7       12.359130  -0.000000
    8       22.337902   0.000000
    9       24.425889   0.000000
   10       26.596022   0.000000
   11       35.240139   0.000000
   12       36.886339   0.000000
 
 -0.5000000E-01  0.4500000E+00  0.5000000E-01  0.1200000E-01
    1       -0.803129   1.000000
    2        2.129164   1.000000
    3        2.503223   1.000000
    4        4.356433   1.000000
    5        5.954464   1.000000
    6        7.546372   1.000002
    7       12.998602  -0.000000
    8       23.089072   0.000000
    9       26.140651   0.000000
   10       27.340852   0.000000
   11       35.436725   0.000000
   12       36.139618   0.000000
 
 -0.4500000E+00 -0.4500000E+00  0.5000000E-01  0.6000000E-02
    1       -0.781428   1.000000
    2       -0.372289   1.000000
    3        5.948252   1.000000
    4        6.105144   1.000000
    5        6.468401   1.000000
    6        8.863315  -0.000133
    7       15.662855   0.000000
    8       18.781216   0.000000
    9       19.126546   0.000000
   10       27.661907   0.000000
   11       30.563313   0.000000
   12       39.391977   0.000000
 
 -0.3500000E+00 -0.4500000E+00  0.5000000E-01  0.1200000E-01
    1       -0.484155   1.000000
    2       -0.090693   1.000000
    3        4.649674   1.000000
    4        5.601209   1.000000
    5        6.233175   1.000000
    6        8.752702  -0.001924
    7       16.675007   0.000000
    8       19.168691   0.000000
    9       19.943038   0.000000
   10       28.348925   0.000000
   11       30.599884   0.000000
   12       38.726948   0.000000
 
 -0.2500000E+00 -0.4500000E+00  0.5000000E-01  0.1200000E-01
    1       -0.027223   1.000000
    2        0.744664   1.000000
    3        2.890835   1.000000
    4        4.398110   1.000000
    5        6.134694   1.000000
    6        8.833397  -0.000294
    7       15.774835   0.000000
    8       21.012076   0.000000
    9       21.995547   0.000000
   10       27.810266   0.000000
   11       33.094059   0.000000
   12       37.132278   0.000000
 
 -0.1500000E+00 -0.4500000E+00  0.5000000E-01  0.1200000E-01
    1       -0.181430   1.000000
    2        1.703804   1.000000
    3        2.673309   1.000000
    4        3.260409   1.000000
    5        6.043253   1.000000
    6        8.460559  -0.015023
    7       14.190009   0.000000
    8       23.300801   0.000000
    9       24.013722   0.000000
   10       26.776897   0.000000
   11       35.324175   0.000000
   12       37.295207   0.000000
 
 -0.3500000E+00 -0.3500000E+00  0.5000000E-01  0.6000000E-02
    1       -0.510875   1.000000
    2       -0.051397   1.000000
    3        4.835247   1.000000
    4        5.394418   1.000000
    5        5.952622   1.000000
    6        6.354995   1.000000
    7       19.496217   0.000000
    8       20.804413   0.000000
    9       20.819354   0.000000
   10       27.140976   0.000000
   11       29.732096   0.000000
   12       39.819000   0.000000
 
 -0.2500000E+00 -0.3500000E+00  0.5000000E-01  0.1200000E-01
    1       -0.236444   1.000000
    2        0.399896   1.000000
    3        3.143211   1.000000
    4        4.681739   1.000000
    5        5.427550   1.000000
    6        6.355267   1.000000
    7       20.012287   0.000000
    8       22.037946   0.000000
    9       23.135412   0.000000
   10       28.076882   0.000000
   11       29.663933   0.000000
   12       37.467900   0.000000
 
 -0.1500000E+00 -0.3500000E+00  0.5000000E-01  0.1200000E-01
    1       -0.324787   1.000000
    2        1.390903   1.000000
    3        2.253288   1.000000
    4        3.491331   1.000000
    5        5.380895   1.000000
    6        6.358555   1.000000
    7       18.371258   0.000000
    8       24.089410   0.000000
    9       24.866996   0.000000
   10       27.978678   0.000000
   11       33.085271   0.000000
   12       35.625081   0.000000
 
 -0.2500000E+00 -0.2500000E+00  0.5000000E-01  0.6000000E-02
    1       -0.691256   1.000000
    2        0.625327   1.000000
    3        3.161965   1.000000
    4        4.219583   1.000000
    5        4.532698   1.000000
    6        5.385345   1.000000
    7       23.014062   0.000000
    8       23.929613   0.000000
    9       25.082282   0.000000
   10       27.505631   0.000000
   11       28.155385   0.000000
   12       37.170188   0.000000
 
 -0.1500000E+00 -0.2500000E+00  0.5000000E-01  0.1200000E-01
    1       -1.179395   1.000000
    2        1.131047   1.000000
    3        2.763321   1.000000
    4        3.586917   1.000000
    5        4.144710   1.000000
    6        5.294522   1.000000
    7       22.633854   0.000000
    8       24.879324   0.000000
    9       26.645642   0.000000
   10       27.753368   0.000000
   11       31.351610   0.000000
   12       35.180375   0.000000
 
 -0.1500000E+00 -0.1500000E+00  0.5000000E-01  0.6000000E-02
    1       -2.193654   1.000000
    2        1.466618   1.000000
    3        3.081262   1.000000
    4        3.156794   1.000000
    5        3.645297   1.000000
    6        4.848294   1.000000
    7       24.945925   0.000000
    8       25.538880   0.000000
    9       27.054060   0.000000
   10       27.692464   0.000000
   11       32.900257   0.000000
   12       35.591650   0.000000
 
  0.1500000E+00  0.1500000E+00  0.1500000E+00  0.2000000E-02
    1       -2.944619   1.000000
    2        2.055221   1.000000
    3        2.627165   1.000000
    4        2.627165   1.000000
    5        4.338744   1.000000
    6        4.338744   1.000000
    7       24.173233   0.000000
    8       24.714458   0.000000
    9       29.458562   0.000000
   10       29.458562   0.000000
   11       33.387723   0.000000
   12       36.379633   0.000000
 
  0.2500000E+00  0.1500000E+00  0.1500000E+00  0.6000000E-02
    1       -2.220580   1.000000
    2        1.775987   1.000000
    3        2.786536   1.000000
    4        2.899604   1.000000
    5        3.905089   1.000000
    6        4.858719   1.000000
    7       23.239838   0.000000
    8       24.861416   0.000000
    9       27.931954   0.000000
   10       30.694848   0.000000
   11       31.618091   0.000000
   12       36.369141   0.000000
 
  0.3500000E+00  0.1500000E+00  0.1500000E+00  0.6000000E-02
    1       -1.022120   1.000000
    2        1.565316   1.000000
    3        2.619556   1.000000
    4        3.273142   1.000000
    5        3.777989   1.000000
    6        5.840280   1.000000
    7       20.902978   0.000000
    8       23.822977   0.000000
    9       27.433436   0.000000
   10       29.067081   0.000000
   11       32.948479   0.000000
   12       35.148886   0.000000
 
  0.4500000E+00  0.1500000E+00  0.1500000E+00  0.6000000E-02
    1       -0.334236   1.000000
    2        2.074941   1.000000
    3        2.490279   1.000000
    4        2.990955   1.000000
    5        4.689721   1.000000
    6        7.155892   1.000000
    7       16.966185   0.000000
    8       22.997959   0.000000
    9       25.551934   0.000000
   10       29.866187   0.000000
   11       31.918907   0.000000
   12       36.154216   0.000000
 
 -0.4500000E+00  0.1500000E+00  0.1500000E+00  0.6000000E-02
    1       -0.351203   1.000000
    2        1.867679   1.000000
    3        2.843220   1.000000
    4        3.547429   1.000000
    5        5.643501   1.000000
    6        8.818763  -0.000424
    7       13.176962  -0.000000
    8       22.772856   0.000000
    9       24.963988   0.000000
   10       27.082349   0.000000
   11       34.882375   0.000000
   12       36.368739   0.000000
 
 -0.3500000E+00  0.1500000E+00  0.1500000E+00  0.6000000E-02
    1       -0.405141   1.000000
    2        1.825163   1.000000
    3        2.908764   1.000000
    4        3.349563   1.000000
    5        6.132571   1.000000
    6        8.714927  -0.004069
    7       12.962384  -0.000000
    8       23.209259   0.000000
    9       25.582011   0.000000
   10       25.724162   0.000000
   11       36.051851   0.000000
   12       36.584926   0.000000
 
 -0.2500000E+00  0.1500000E+00  0.1500000E+00  0.6000000E-02
    1       -0.459559   1.000000
    2        1.935795   1.000000
    3        2.286150   1.000000
    4        3.129888   1.000000
    5        5.929157   1.000000
    6        6.372680   1.000000
    7       16.801262   0.000000
    8       24.188989   0.000000
    9       25.497811   0.000000
   10       27.347426   0.000000
   11       35.001843   0.000000
   12       35.553055   0.000000
 
 -0.1500000E+00  0.1500000E+00  0.1500000E+00  0.6000000E-02
    1       -1.069764   1.000000
    2        1.302177   1.000000
    3        2.636302   1.000000
    4        3.314565   1.000000
    5        4.607480   1.000000
    6        5.304698   1.000000
    7       21.164095   0.000000
    8       25.490824   0.000000
    9       26.235547   0.000000
   10       28.310652   0.000000
   11       32.110316   0.000000
   12       35.301585   0.000000
 
  0.2500000E+00  0.2500000E+00  0.1500000E+00  0.6000000E-02
    1       -1.813368   1.000000
    2        1.626549   1.000000
    3        2.806142   1.000000
    4        2.994500   1.000000
    5        4.145655   1.000000
    6        4.929268   1.000000
    7       22.232509   0.000000
    8       25.318287   0.000000
    9       27.831398   0.000000
   10       29.530894   0.000000
   11       32.492389   0.000000
   12       34.788382   0.000000
 
  0.3500000E+00  0.2500000E+00  0.1500000E+00  0.1200000E-01
    1       -0.833447   1.000000
    2        1.288831   1.000000
    3        2.498176   1.000000
    4        3.544881   1.000000
    5        4.113572   1.000000
    6        5.811030   1.000000
    7       21.094780   0.000000
    8       23.870744   0.000000
    9       26.677187   0.000000
   10       28.611464   0.000000
   11       32.954387   0.000000
   12       34.343495   0.000000
 
  0.4500000E+00  0.2500000E+00  0.1500000E+00  0.1200000E-01
    1        0.202266   1.000000
    2        1.320482   1.000000
    3        1.959523   1.000000
    4        3.834130   1.000000
    5        4.535479   1.000000
    6        7.284184   1.000000
    7       18.558424   0.000000
    8       21.552043   0.000000
    9       25.174626   0.000000
   10       29.868856   0.000000
   11       31.398063   0.000000
   12       36.741860   0.000000
 
 -0.4500000E+00  0.2500000E+00  0.1500000E+00  0.1200000E-01
    1        0.302384   1.000000
    2        1.515478   1.000000
    3        2.349781   1.000000
    4        3.565084   1.000000
    5        5.490375   1.000000
    6        9.170347  -0.000000
    7       14.722300   0.000000
    8       21.176486   0.000000
    9       23.889929   0.000000
   10       28.128550   0.000000
   11       33.594235   0.000000
   12       37.619566   0.000000
 
 -0.3500000E+00  0.2500000E+00  0.1500000E+00  0.1200000E-01
    1        0.202552   1.000000
    2        1.392754   1.000000
    3        2.777893   1.000000
    4        3.479145   1.000000
    5        5.903100   1.000000
    6       10.875168  -0.000000
    7       12.270857  -0.000000
    8       21.898133   0.000000
    9       22.815436   0.000000
   10       27.407549   0.000000
   11       34.812391   0.000000
   12       37.996726   0.000000
 
 -0.2500000E+00  0.2500000E+00  0.1500000E+00  0.1200000E-01
    1        0.148048   1.000000
    2        1.508336   1.000000
    3        2.078301   1.000000
    4        3.740173   1.000000
    5        5.657733   1.000000
    6        8.304495   0.381437
    7       15.776372   0.000000
    8       22.113829   0.000000
    9       23.454148   0.000000
   10       28.178352   0.000000
   11       33.604394   0.000000
   12       37.197611   0.000000
 
 -0.1500000E+00  0.2500000E+00  0.1500000E+00  0.1200000E-01
    1       -0.172553   1.000000
    2        0.986641   1.000000
    3        2.265947   1.000000
    4        4.010355   1.000000
    5        4.659343   1.000000
    6        6.459727   1.000000
    7       19.906133   0.000000
    8       22.664232   0.000000
    9       25.067907   0.000000
   10       28.951620   0.000000
   11       31.484575   0.000000