 running on    4 total cores
 distrk:  each k-point on    4 cores,    1 groups
 distr:  one band on    1 cores,    4 groups
 using from now: INCAR     
 vasp.5.4.4.18Apr17-6-g9f103f2a35 (build May 18 2018 14:42:58) complex          
  
 POSCAR found type information on POSCAR  Au
 POSCAR found :  1 types and       1 ions
 scaLAPACK will be used
 LDA part: xc-table for Ceperly-Alder, standard interpolation
 POSCAR, INCAR and KPOINTS ok, starting setup
 FFT: planning ...
 WAVECAR not read
 entering main loop
       N       E                     dE             d eps       ncg     rms          rms(c)
DAV:   1     0.302589441866E+02    0.30259E+02   -0.36154E+03  3284   0.440E+02
DAV:   2    -0.409617507348E+01   -0.34355E+02   -0.32337E+02  3028   0.146E+02
DAV:   3    -0.437708506635E+01   -0.28091E+00   -0.28081E+00  3172   0.135E+01
DAV:   4    -0.437779033608E+01   -0.70527E-03   -0.70525E-03  3180   0.715E-01
DAV:   5    -0.437779460643E+01   -0.42704E-05   -0.42710E-05  2968   0.523E-02    0.314E+00
DAV:   6    -0.412313135784E+01    0.25466E+00   -0.50098E-01  3132   0.729E+00    0.100E+00
DAV:   7    -0.408349632623E+01    0.39635E-01   -0.68813E-02  3188   0.237E+00    0.228E-01
DAV:   8    -0.407719955422E+01    0.62968E-02   -0.21221E-03  2928   0.531E-01    0.110E-02
DAV:   9    -0.407717976624E+01    0.19788E-04   -0.12634E-05  2080   0.238E-02
   1 F= -.40771798E+01 E0= -.40770401E+01  d E =-.419136E-03
 writing wavefunctions
