 vasp.5.4.4.18Apr17-6-g9f103f2a35 (build May 18 2018 14:42:58) complex          
  
 executed on             LinuxIFC date 2020.06.30  13:40:34
 running on    4 total cores
 distrk:  each k-point on    4 cores,    1 groups
 distr:  one band on NCORES_PER_BAND=   1 cores,    4 groups


--------------------------------------------------------------------------------------------------------


 INCAR:
 POTCAR:   PAW Au 04Feb1998                       
 POTCAR:   PAW Au 04Feb1998                       
   VRHFIN =Au: s1d10                                                            
   LEXCH  = CA                                                                  
   EATOM  =   929.4667 eV,   68.3139 Ry                                         
                                                                                
   TITEL  = PAW Au 04Feb1998                                                    
   LULTRA =        F    use ultrasoft PP ?                                      
   IUNSCR =        1    unscreen: 0-lin 1-nonlin 2-no                           
   RPACOR =    2.330    partial core radius                                     
   POMASS =  196.966; ZVAL   =   11.000    mass and valenz                      
   RCORE  =    2.500    outmost cutoff radius                                   
   RWIGS  =    2.840; RWIGS  =    1.503    wigner-seitz radius (au A)           
   ENMAX  =  229.869; ENMIN  =  172.402 eV                                      
   RCLOC  =    1.964    cutoff for local pot                                    
   LCOR   =        T    correct aug charges                                     
   LPAW   =        T    paw PP                                                  
   EAUG   =  356.670                                                            
   DEXC   =    -.020                                                            
   RMAX   =    3.041    core radius for proj-oper                               
   RDEP   =    2.598    core radius for depl-charge                             
   QCUT   =   -4.110; QGAM   =    8.221    optimization parameters              
                                                                                
   Description                                                                  
     l     E      TYP  RCUT    TYP  RCUT                                        
     2   .000     23  2.500                                                     
     2   .000     23  2.500                                                     
     0   .000     23  2.500                                                     
     0   .000     23  2.500                                                     
     1  -.200     23  2.500                                                     
     1   .000     23  2.500                                                     
     3   .000      7   .000                                                     
  local pseudopotential read in
  partial core-charges read in
  atomic valenz-charges read in
  non local Contribution for L=           2  read in
    real space projection operators read in
  non local Contribution for L=           2  read in
    real space projection operators read in
  non local Contribution for L=           0  read in
    real space projection operators read in
  non local Contribution for L=           0  read in
    real space projection operators read in
  non local Contribution for L=           1  read in
    real space projection operators read in
  non local Contribution for L=           1  read in
    real space projection operators read in
    PAW grid and wavefunctions read in
 
   number of l-projection  operators is LMAX  =           6
   number of lm-projection operators is LMMAX =          18
 
 PAW Au 04Feb1998                       :
 energy of atom  1       EATOM= -929.4667
 kinetic energy error for atom=    0.0706 (will be added to EATOM!!)
 
 
 POSCAR: FCC Au Bulk                             
  positions in direct lattice
  No initial velocities read in
 exchange correlation table for  LEXCH =        2
   RHO(1)=    0.500       N(1)  =     2000
   RHO(2)=  100.500       N(2)  =     4000
 


--------------------------------------------------------------------------------------------------------


 ion  position               nearest neighbor table
   1  0.000  0.000  0.000-
 
  LATTYP: Found a face centered cubic cell.
 ALAT       =     3.8500000000
  
  Lattice vectors:
  
 A1 = (   0.0000000000,   1.9250000000,   1.9250000000)
 A2 = (   1.9250000000,   0.0000000000,   1.9250000000)
 A3 = (   1.9250000000,   1.9250000000,   0.0000000000)


Analysis of symmetry for initial positions (statically):
=====================================================================
 Subroutine PRICEL returns:
 Original cell was already a primitive cell.
 

 Routine SETGRP: Setting up the symmetry group for a 
 face centered cubic supercell.


 Subroutine GETGRP returns: Found 48 space group operations
 (whereof 48 operations were pure point group operations)
 out of a pool of 48 trial point group operations.


The static configuration has the point symmetry O_h .


Analysis of symmetry for dynamics (positions and initial velocities):
=====================================================================
 Subroutine PRICEL returns:
 Original cell was already a primitive cell.
 

 Routine SETGRP: Setting up the symmetry group for a 
 face centered cubic supercell.


 Subroutine GETGRP returns: Found 48 space group operations
 (whereof 48 operations were pure point group operations)
 out of a pool of 48 trial point group operations.


The dynamic configuration has the point symmetry O_h .


 Subroutine INISYM returns: Found 48 space group operations
 (whereof 48 operations are pure point group operations),
 and found     1 'primitive' translations

 
 
 KPOINTS: 10x10x10                                

Automatic generation of k-mesh.
Space group operators:
 irot       det(A)        alpha          n_x          n_y          n_z        tau_x        tau_y        tau_z
    1     1.000000     0.000001     1.000000     0.000000     0.000000     0.000000     0.000000     0.000000
    2    -1.000000     0.000001     1.000000     0.000000     0.000000     0.000000     0.000000     0.000000
    3     1.000000   120.000000    -0.577350    -0.577350    -0.577350     0.000000     0.000000     0.000000
    4    -1.000000   120.000000    -0.577350    -0.577350    -0.577350     0.000000     0.000000     0.000000
    5     1.000000   120.000000     0.577350     0.577350     0.577350     0.000000     0.000000     0.000000
    6    -1.000000   120.000000     0.577350     0.577350     0.577350     0.000000     0.000000     0.000000
    7     1.000000    90.000000     0.000000     0.000000    -1.000000     0.000000     0.000000     0.000000
    8    -1.000000    90.000000     0.000000     0.000000    -1.000000     0.000000     0.000000     0.000000
    9     1.000000   180.000000     0.000000     0.707107     0.707107     0.000000     0.000000     0.000000
   10    -1.000000   180.000000     0.000000     0.707107     0.707107     0.000000     0.000000     0.000000
   11     1.000000    90.000000     0.000000     1.000000     0.000000     0.000000     0.000000     0.000000
   12    -1.000000    90.000000     0.000000     1.000000     0.000000     0.000000     0.000000     0.000000
   13     1.000000   180.000000     0.000000     0.000000     1.000000     0.000000     0.000000     0.000000
   14    -1.000000   180.000000     0.000000     0.000000     1.000000     0.000000     0.000000     0.000000
   15     1.000000   120.000000    -0.577350     0.577350     0.577350     0.000000     0.000000     0.000000
   16    -1.000000   120.000000    -0.577350     0.577350     0.577350     0.000000     0.000000     0.000000
   17     1.000000   120.000000    -0.577350     0.577350    -0.577350     0.000000     0.000000     0.000000
   18    -1.000000   120.000000    -0.577350     0.577350    -0.577350     0.000000     0.000000     0.000000
   19     1.000000    90.000000     0.000000     0.000000     1.000000     0.000000     0.000000     0.000000
   20    -1.000000    90.000000     0.000000     0.000000     1.000000     0.000000     0.000000     0.000000
   21     1.000000    90.000000    -1.000000     0.000000     0.000000     0.000000     0.000000     0.000000
   22    -1.000000    90.000000    -1.000000     0.000000     0.000000     0.000000     0.000000     0.000000
   23     1.000000   180.000000     0.707107     0.000000     0.707107     0.000000     0.000000     0.000000
   24    -1.000000   180.000000     0.707107     0.000000     0.707107     0.000000     0.000000     0.000000
   25     1.000000   120.000000     0.577350    -0.577350     0.577350     0.000000     0.000000     0.000000
   26    -1.000000   120.000000     0.577350    -0.577350     0.577350     0.000000     0.000000     0.000000
   27     1.000000   120.000000    -0.577350    -0.577350     0.577350     0.000000     0.000000     0.000000
   28    -1.000000   120.000000    -0.577350    -0.577350     0.577350     0.000000     0.000000     0.000000
   29     1.000000   180.000000     1.000000     0.000000     0.000000     0.000000     0.000000     0.000000
   30    -1.000000   180.000000     1.000000     0.000000     0.000000     0.000000     0.000000     0.000000
   31     1.000000    90.000000     0.000000    -1.000000     0.000000     0.000000     0.000000     0.000000
   32    -1.000000    90.000000     0.000000    -1.000000     0.000000     0.000000     0.000000     0.000000
   33     1.000000   180.000000     0.707107     0.707107     0.000000     0.000000     0.000000     0.000000
   34    -1.000000   180.000000     0.707107     0.707107     0.000000     0.000000     0.000000     0.000000
   35     1.000000    90.000000     1.000000     0.000000     0.000000     0.000000     0.000000     0.000000
   36    -1.000000    90.000000     1.000000     0.000000     0.000000     0.000000     0.000000     0.000000
   37     1.000000   120.000000     0.577350    -0.577350    -0.577350     0.000000     0.000000     0.000000
   38    -1.000000   120.000000     0.577350    -0.577350    -0.577350     0.000000     0.000000     0.000000
   39     1.000000   180.000000     0.000000     1.000000     0.000000     0.000000     0.000000     0.000000
   40    -1.000000   180.000000     0.000000     1.000000     0.000000     0.000000     0.000000     0.000000
   41     1.000000   120.000000     0.577350     0.577350    -0.577350     0.000000     0.000000     0.000000
   42    -1.000000   120.000000     0.577350     0.577350    -0.577350     0.000000     0.000000     0.000000
   43     1.000000   180.000000     0.000000    -0.707107     0.707107     0.000000     0.000000     0.000000
   44    -1.000000   180.000000     0.000000    -0.707107     0.707107     0.000000     0.000000     0.000000
   45     1.000000   180.000000     0.707107    -0.707107     0.000000     0.000000     0.000000     0.000000
   46    -1.000000   180.000000     0.707107    -0.707107     0.000000     0.000000     0.000000     0.000000
   47     1.000000   180.000000     0.707107     0.000000    -0.707107     0.000000     0.000000     0.000000
   48    -1.000000   180.000000     0.707107     0.000000    -0.707107     0.000000     0.000000     0.000000
 
 Subroutine IBZKPT returns following result:
 ===========================================
 
 Found    110 irreducible k-points:
 
 Following reciprocal coordinates:
            Coordinates               Weight
  0.050000  0.050000  0.050000     96.000000
  0.150000  0.050000  0.050000    288.000000
  0.250000  0.050000  0.050000    288.000000
  0.350000  0.050000  0.050000    288.000000
  0.450000  0.050000  0.050000    288.000000
 -0.450000  0.050000  0.050000    288.000000
 -0.350000  0.050000  0.050000    288.000000
 -0.250000  0.050000  0.050000    288.000000
 -0.150000  0.050000  0.050000    288.000000
 -0.050000  0.050000  0.050000    288.000000
  0.150000  0.150000  0.050000    288.000000
  0.250000  0.150000  0.050000    576.000000
  0.350000  0.150000  0.050000    576.000000
  0.450000  0.150000  0.050000    576.000000
 -0.450000  0.150000  0.050000    576.000000
 -0.350000  0.150000  0.050000    576.000000
 -0.250000  0.150000  0.050000    576.000000
 -0.150000  0.150000  0.050000    576.000000
 -0.050000  0.150000  0.050000    576.000000
  0.250000  0.250000  0.050000    288.000000
  0.350000  0.250000  0.050000    576.000000
  0.450000  0.250000  0.050000    576.000000
 -0.450000  0.250000  0.050000    576.000000
 -0.350000  0.250000  0.050000    576.000000
 -0.250000  0.250000  0.050000    576.000000
 -0.150000  0.250000  0.050000    576.000000
 -0.050000  0.250000  0.050000    576.000000
  0.350000  0.350000  0.050000    288.000000
  0.450000  0.350000  0.050000    576.000000
 -0.450000  0.350000  0.050000    576.000000
 -0.350000  0.350000  0.050000    576.000000
 -0.250000  0.350000  0.050000    576.000000
 -0.150000  0.350000  0.050000    576.000000
 -0.050000  0.350000  0.050000    576.000000
  0.450000  0.450000  0.050000    288.000000
 -0.450000  0.450000  0.050000    576.000000
 -0.350000  0.450000  0.050000    576.000000
 -0.250000  0.450000  0.050000    576.000000
 -0.150000  0.450000  0.050000    576.000000
 -0.050000  0.450000  0.050000    576.000000
 -0.450000 -0.450000  0.050000    288.000000
 -0.350000 -0.450000  0.050000    576.000000
 -0.250000 -0.450000  0.050000    576.000000
 -0.150000 -0.450000  0.050000    576.000000
 -0.350000 -0.350000  0.050000    288.000000
 -0.250000 -0.350000  0.050000    576.000000
 -0.150000 -0.350000  0.050000    576.000000
 -0.250000 -0.250000  0.050000    288.000000
 -0.150000 -0.250000  0.050000    576.000000
 -0.150000 -0.150000  0.050000    288.000000
  0.150000  0.150000  0.150000     96.000000
  0.250000  0.150000  0.150000    288.000000
  0.350000  0.150000  0.150000    288.000000
  0.450000  0.150000  0.150000    288.000000
 -0.450000  0.150000  0.150000    288.000000
 -0.350000  0.150000  0.150000    288.000000
 -0.250000  0.150000  0.150000    288.000000
 -0.150000  0.150000  0.150000    288.000000
  0.250000  0.250000  0.150000    288.000000
  0.350000  0.250000  0.150000    576.000000
  0.450000  0.250000  0.150000    576.000000
 -0.450000  0.250000  0.150000    576.000000
 -0.350000  0.250000  0.150000    576.000000
 -0.250000  0.250000  0.150000    576.000000
 -0.150000  0.250000  0.150000    576.000000
  0.350000  0.350000  0.150000    288.000000
  0.450000  0.350000  0.150000    576.000000
 -0.450000  0.350000  0.150000    576.000000
 -0.350000  0.350000  0.150000    576.000000
 -0.250000  0.350000  0.150000    576.000000
 -0.150000  0.350000  0.150000    576.000000
  0.450000  0.450000  0.150000    288.000000
 -0.450000  0.450000  0.150000    576.000000
 -0.350000  0.450000  0.150000    576.000000
 -0.250000  0.450000  0.150000    576.000000
 -0.150000  0.450000  0.150000    576.000000
 -0.450000 -0.450000  0.150000    288.000000
 -0.350000 -0.450000  0.150000    576.000000
 -0.250000 -0.450000  0.150000    576.000000
 -0.350000 -0.350000  0.150000    288.000000
 -0.250000 -0.350000  0.150000    576.000000
 -0.250000 -0.250000  0.150000    288.000000
  0.250000  0.250000  0.250000     96.000000
  0.350000  0.250000  0.250000    288.000000
  0.450000  0.250000  0.250000    288.000000
 -0.450000  0.250000  0.250000    288.000000
 -0.350000  0.250000  0.250000    288.000000
 -0.250000  0.250000  0.250000    288.000000
  0.350000  0.350000  0.250000    288.000000
  0.450000  0.350000  0.250000    576.000000
 -0.450000  0.350000  0.250000    576.000000
 -0.350000  0.350000  0.250000    576.000000
 -0.250000  0.350000  0.250000    576.000000
  0.450000  0.450000  0.250000    288.000000
 -0.450000  0.450000  0.250000    576.000000
 -0.350000  0.450000  0.250000    576.000000
 -0.250000  0.450000  0.250000    576.000000
 -0.450000 -0.450000  0.250000    288.000000
 -0.350000 -0.450000  0.250000    576.000000
 -0.350000 -0.350000  0.250000    288.000000
  0.350000  0.350000  0.350000     96.000000
  0.450000  0.350000  0.350000    288.000000
 -0.450000  0.350000  0.350000    288.000000
 -0.350000  0.350000  0.350000    288.000000
  0.450000  0.450000  0.350000    288.000000
 -0.450000  0.450000  0.350000    576.000000
 -0.350000  0.450000  0.350000    576.000000
 -0.450000 -0.450000  0.350000    288.000000
  0.450000  0.450000  0.450000     96.000000
 -0.450000  0.450000  0.450000    288.000000
 
 Following cartesian coordinates:
            Coordinates               Weight
  0.050000  0.050000  0.050000     96.000000
 -0.050000  0.150000  0.150000    288.000000
 -0.150000  0.250000  0.250000    288.000000
 -0.250000  0.350000  0.350000    288.000000
 -0.350000  0.450000  0.450000    288.000000
  0.550000 -0.450000 -0.450000    288.000000
  0.450000 -0.350000 -0.350000    288.000000
  0.350000 -0.250000 -0.250000    288.000000
  0.250000 -0.150000 -0.150000    288.000000
  0.150000 -0.050000 -0.050000    288.000000
  0.050000  0.050000  0.250000    288.000000
 -0.050000  0.150000  0.350000    576.000000
 -0.150000  0.250000  0.450000    576.000000
 -0.250000  0.350000  0.550000    576.000000
  0.650000 -0.550000 -0.350000    576.000000
  0.550000 -0.450000 -0.250000    576.000000
  0.450000 -0.350000 -0.150000    576.000000
  0.350000 -0.250000 -0.050000    576.000000
  0.250000 -0.150000  0.050000    576.000000
  0.050000  0.050000  0.450000    288.000000
 -0.050000  0.150000  0.550000    576.000000
 -0.150000  0.250000  0.650000    576.000000
  0.750000 -0.650000 -0.250000    576.000000
  0.650000 -0.550000 -0.150000    576.000000
  0.550000 -0.450000 -0.050000    576.000000
  0.450000 -0.350000  0.050000    576.000000
  0.350000 -0.250000  0.150000    576.000000
  0.050000  0.050000  0.650000    288.000000
 -0.050000  0.150000  0.750000    576.000000
  0.850000 -0.750000 -0.150000    576.000000
  0.750000 -0.650000 -0.050000    576.000000
  0.650000 -0.550000  0.050000    576.000000
  0.550000 -0.450000  0.150000    576.000000
  0.450000 -0.350000  0.250000    576.000000
  0.050000  0.050000  0.850000    288.000000
  0.950000 -0.850000 -0.050000    576.000000
  0.850000 -0.750000  0.050000    576.000000
  0.750000 -0.650000  0.150000    576.000000
  0.650000 -0.550000  0.250000    576.000000
  0.550000 -0.450000  0.350000    576.000000
  0.050000  0.050000 -0.950000    288.000000
 -0.050000  0.150000 -0.850000    576.000000
 -0.150000  0.250000 -0.750000    576.000000
 -0.250000  0.350000 -0.650000    576.000000
  0.050000  0.050000 -0.750000    288.000000
 -0.050000  0.150000 -0.650000    576.000000
 -0.150000  0.250000 -0.550000    576.000000
  0.050000  0.050000 -0.550000    288.000000
 -0.050000  0.150000 -0.450000    576.000000
  0.050000  0.050000 -0.350000    288.000000
  0.150000  0.150000  0.150000     96.000000
  0.050000  0.250000  0.250000    288.000000
 -0.050000  0.350000  0.350000    288.000000
 -0.150000  0.450000  0.450000    288.000000
  0.750000 -0.450000 -0.450000    288.000000
  0.650000 -0.350000 -0.350000    288.000000
  0.550000 -0.250000 -0.250000    288.000000
  0.450000 -0.150000 -0.150000    288.000000
  0.150000  0.150000  0.350000    288.000000
  0.050000  0.250000  0.450000    576.000000
 -0.050000  0.350000  0.550000    576.000000
  0.850000 -0.550000 -0.350000    576.000000
  0.750000 -0.450000 -0.250000    576.000000
  0.650000 -0.350000 -0.150000    576.000000
  0.550000 -0.250000 -0.050000    576.000000
  0.150000  0.150000  0.550000    288.000000
  0.050000  0.250000  0.650000    576.000000
  0.950000 -0.650000 -0.250000    576.000000
  0.850000 -0.550000 -0.150000    576.000000
  0.750000 -0.450000 -0.050000    576.000000
  0.650000 -0.350000  0.050000    576.000000
  0.150000  0.150000  0.750000    288.000000
  1.050000 -0.750000 -0.150000    576.000000
  0.950000 -0.650000 -0.050000    576.000000
  0.850000 -0.550000  0.050000    576.000000
  0.750000 -0.450000  0.150000    576.000000
  0.150000  0.150000 -1.050000    288.000000
  0.050000  0.250000 -0.950000    576.000000
 -0.050000  0.350000 -0.850000    576.000000
  0.150000  0.150000 -0.850000    288.000000
  0.050000  0.250000 -0.750000    576.000000
  0.150000  0.150000 -0.650000    288.000000
  0.250000  0.250000  0.250000     96.000000
  0.150000  0.350000  0.350000    288.000000
  0.050000  0.450000  0.450000    288.000000
  0.950000 -0.450000 -0.450000    288.000000
  0.850000 -0.350000 -0.350000    288.000000
  0.750000 -0.250000 -0.250000    288.000000
  0.250000  0.250000  0.450000    288.000000
  0.150000  0.350000  0.550000    576.000000
  1.050000 -0.550000 -0.350000    576.000000
  0.950000 -0.450000 -0.250000    576.000000
  0.850000 -0.350000 -0.150000    576.000000
  0.250000  0.250000  0.650000    288.000000
  1.150000 -0.650000 -0.250000    576.000000
  1.050000 -0.550000 -0.150000    576.000000
  0.950000 -0.450000 -0.050000    576.000000
  0.250000  0.250000 -1.150000    288.000000
  0.150000  0.350000 -1.050000    576.000000
  0.250000  0.250000 -0.950000    288.000000
  0.350000  0.350000  0.350000     96.000000
  0.250000  0.450000  0.450000    288.000000
  1.150000 -0.450000 -0.450000    288.000000
  1.050000 -0.350000 -0.350000    288.000000
  0.350000  0.350000  0.550000    288.000000
  1.250000 -0.550000 -0.350000    576.000000
  1.150000 -0.450000 -0.250000    576.000000
  0.350000  0.350000 -1.250000    288.000000
  0.450000  0.450000  0.450000     96.000000
  1.350000 -0.450000 -0.450000    288.000000
 


--------------------------------------------------------------------------------------------------------




 Dimension of arrays:
   k-points           NKPTS =    110   k-points in BZ     NKDIM =    110   number of bands    NBANDS=     12
   number of dos      NEDOS =    301   number of ions     NIONS =      1
   non local maximal  LDIM  =      6   non local SUM 2l+1 LMDIM =     18
   total plane-waves  NPLWV =   1000
   max r-space proj   IRMAX =      1   max aug-charges    IRDMAX=   4485
   dimension x,y,z NGX =    10 NGY =   10 NGZ =   10
   dimension x,y,z NGXF=    20 NGYF=   20 NGZF=   20
   support grid    NGXF=    20 NGYF=   20 NGZF=   20
   ions per type =               1
   NGX,Y,Z   is equivalent  to a cutoff of   6.11,  6.11,  6.11 a.u.
   NGXF,Y,Z  is equivalent  to a cutoff of  12.21, 12.21, 12.21 a.u.

 SYSTEM =  fcc Au                                  
 POSCAR =  FCC Au Bulk                             

 Startparameter for this run:
   NWRITE =      2    write-flag & timer
   PREC   = normal    normal or accurate (medium, high low for compatibility)
   ISTART =      0    job   : 0-new  1-cont  2-samecut
   ICHARG =      2    charge: 1-file 2-atom 10-const
   ISPIN  =      1    spin polarized calculation?
   LNONCOLLINEAR =      F non collinear calculations
   LSORBIT =      F    spin-orbit coupling
   INIWAV =      1    electr: 0-lowe 1-rand  2-diag
   LASPH  =      F    aspherical Exc in radial PAW
   METAGGA=      F    non-selfconsistent MetaGGA calc.

 Electronic Relaxation 1
   ENCUT  =  229.9 eV  16.89 Ry    4.11 a.u.   3.37  3.37  3.37*2*pi/ulx,y,z
   ENINI  =  229.9     initial cutoff
   ENAUG  =  356.7 eV  augmentation charge cutoff
   NELM   =     60;   NELMIN=  2; NELMDL= -5     # of ELM steps 
   EDIFF  = 0.1E-03   stopping-criterion for ELM
   LREAL  =      F    real-space projection
   NLSPLINE    = F    spline interpolate recip. space projectors
   LCOMPAT=      F    compatible to vasp.4.4
   GGA_COMPAT  = T    GGA compatible to vasp.4.4-vasp.4.6
   LMAXPAW     = -100 max onsite density
   LMAXMIX     =    2 max onsite mixed and CHGCAR
   VOSKOWN=      0    Vosko Wilk Nusair interpolation
   ROPT   =    0.00000
 Ionic relaxation
   EDIFFG = 0.1E-02   stopping-criterion for IOM
   NSW    =      0    number of steps for IOM
   NBLOCK =      1;   KBLOCK =      1    inner block; outer block 
   IBRION =     -1    ionic relax: 0-MD 1-quasi-New 2-CG
   NFREE  =      0    steps in history (QN), initial steepest desc. (CG)
   ISIF   =      2    stress and relaxation
   IWAVPR =     10    prediction:  0-non 1-charg 2-wave 3-comb
   ISYM   =      2    0-nonsym 1-usesym 2-fastsym
   LCORR  =      T    Harris-Foulkes like correction to forces

   POTIM  = 0.5000    time-step for ionic-motion
   TEIN   =    0.0    initial temperature
   TEBEG  =    0.0;   TEEND  =   0.0 temperature during run
   SMASS  =  -3.00    Nose mass-parameter (am)
   estimated Nose-frequenzy (Omega)   =  0.10E-29 period in steps =****** mass=  -0.169E-27a.u.
   SCALEE = 1.0000    scale energy and forces
   NPACO  =    256;   APACO  = 16.0  distance and # of slots for P.C.
   PSTRESS=    0.0 pullay stress

  Mass of Ions in am
   POMASS = 196.97
  Ionic Valenz
   ZVAL   =  11.00
  Atomic Wigner-Seitz radii
   RWIGS  =   1.50
  virtual crystal weights 
   VCA    =   1.00
   NELECT =      11.0000    total number of electrons
   NUPDOWN=      -1.0000    fix difference up-down

 DOS related values:
   EMIN   =  10.00;   EMAX   =-10.00  energy-range for DOS
   EFERMI =   0.00
   ISMEAR =     1;   SIGMA  =   0.20  broadening in eV -4-tet -1-fermi 0-gaus

 Electronic relaxation 2 (details)
   IALGO  =     38    algorithm
   LDIAG  =      T    sub-space diagonalisation (order eigenvalues)
   LSUBROT=      F    optimize rotation matrix (better conditioning)
   TURBO    =      0    0=normal 1=particle mesh
   IRESTART =      0    0=no restart 2=restart with 2 vectors
   NREBOOT  =      0    no. of reboots
   NMIN     =      0    reboot dimension
   EREF     =   0.00    reference energy to select bands
   IMIX   =      4    mixing-type and parameters
     AMIX     =   0.40;   BMIX     =  1.00
     AMIX_MAG =   1.60;   BMIX_MAG =  1.00
     AMIN     =   0.10
     WC   =   100.;   INIMIX=   1;  MIXPRE=   1;  MAXMIX= -45

 Intra band minimization:
   WEIMIN = 0.0000     energy-eigenvalue tresh-hold
   EBREAK =  0.21E-05  absolut break condition
   DEPER  =   0.30     relativ break condition  

   TIME   =   0.40     timestep for ELM

  volume/ion in A,a.u.               =      14.27        96.28
  Fermi-wavevector in a.u.,A,eV,Ry     =   1.501176  2.836812 30.661135  2.253530
  Thomas-Fermi vector in A             =   2.612581
 
 Write flags
   LWAVE        =      T    write WAVECAR
   LDOWNSAMPLE  =      F    k-point downsampling of WAVECAR
   LCHARG       =      T    write CHGCAR
   LVTOT        =      F    write LOCPOT, total local potential
   LVHAR        =      F    write LOCPOT, Hartree potential only
   LELF         =      F    write electronic localiz. function (ELF)
   LORBIT       =      0    0 simple, 1 ext, 2 COOP (PROOUT), +10 PAW based schemes


 Dipole corrections
   LMONO  =      F    monopole corrections only (constant potential shift)
   LDIPOL =      F    correct potential (dipole corrections)
   IDIPOL =      0    1-x, 2-y, 3-z, 4-all directions 
   EPSILON=  1.0000000 bulk dielectric constant

 Exchange correlation treatment:
   GGA     =    --    GGA type
   LEXCH   =     2    internal setting for exchange type
   VOSKOWN=      0    Vosko Wilk Nusair interpolation
   LHFCALC =     F    Hartree Fock is set to
   LHFONE  =     F    Hartree Fock one center treatment
   AEXX    =    0.0000 exact exchange contribution

 Linear response parameters
   LEPSILON=     F    determine dielectric tensor
   LRPA    =     F    only Hartree local field effects (RPA)
   LNABLA  =     F    use nabla operator in PAW spheres
   LVEL    =     F    velocity operator in full k-point grid
   LINTERFAST=   F  fast interpolation
   KINTER  =     0    interpolate to denser k-point grid
   CSHIFT  =0.1000    complex shift for real part using Kramers Kronig
   OMEGAMAX=  -1.0    maximum frequency
   DEG_THRESHOLD= 0.2000000E-02 threshold for treating states as degnerate
   RTIME   =   -0.100 relaxation time in fs
  (WPLASMAI=    0.000 imaginary part of plasma frequency in eV, 0.658/RTIME)
   DFIELD  = 0.0000000 0.0000000 0.0000000 field for delta impulse in time
 
 Orbital magnetization related:
   ORBITALMAG=     F  switch on orbital magnetization
   LCHIMAG   =     F  perturbation theory with respect to B field
   DQ        =  0.001000  dq finite difference perturbation B field
   LLRAUG    =     F  two centre corrections for induced B field



--------------------------------------------------------------------------------------------------------


 Static calculation
 charge density and potential will be updated during run
 non-spin polarized calculation
 Variant of blocked Davidson
 Davidson routine will perform the subspace rotation
 perform sub-space diagonalisation
    after iterative eigenvector-optimisation
 modified Broyden-mixing scheme, WC =      100.0
 initial mixing is a Kerker type mixing with AMIX =  0.4000 and BMIX =      1.0000
 Hartree-type preconditioning will be used
 using additional bands            6
 reciprocal scheme for non local part
 use partial core corrections
 calculate Harris-corrections to forces 
   (improved forces if not selfconsistent)
 use of overlap-Matrix (Vanderbilt PP)
 Methfessel and Paxton  Order N= 1 SIGMA  =   0.20


--------------------------------------------------------------------------------------------------------


  energy-cutoff  :      229.87
  volume of cell :       14.27
      direct lattice vectors                 reciprocal lattice vectors
     0.000000000  1.925000000  1.925000000    -0.259740260  0.259740260  0.259740260
     1.925000000  0.000000000  1.925000000     0.259740260 -0.259740260  0.259740260
     1.925000000  1.925000000  0.000000000     0.259740260  0.259740260 -0.259740260

  length of vectors
     2.722361108  2.722361108  2.722361108     0.449883327  0.449883327  0.449883327


 
 k-points in units of 2pi/SCALE and weight: 10x10x10                                
   0.05000000  0.05000000  0.05000000       0.002
  -0.05000000  0.15000000  0.15000000       0.006
  -0.15000000  0.25000000  0.25000000       0.006
  -0.25000000  0.35000000  0.35000000       0.006
  -0.35000000  0.45000000  0.45000000       0.006
   0.55000000 -0.45000000 -0.45000000       0.006
   0.45000000 -0.35000000 -0.35000000       0.006
   0.35000000 -0.25000000 -0.25000000       0.006
   0.25000000 -0.15000000 -0.15000000       0.006
   0.15000000 -0.05000000 -0.05000000       0.006
   0.05000000  0.05000000  0.25000000       0.006
  -0.05000000  0.15000000  0.35000000       0.012
  -0.15000000  0.25000000  0.45000000       0.012
  -0.25000000  0.35000000  0.55000000       0.012
   0.65000000 -0.55000000 -0.35000000       0.012
   0.55000000 -0.45000000 -0.25000000       0.012
   0.45000000 -0.35000000 -0.15000000       0.012
   0.35000000 -0.25000000 -0.05000000       0.012
   0.25000000 -0.15000000  0.05000000       0.012
   0.05000000  0.05000000  0.45000000       0.006
  -0.05000000  0.15000000  0.55000000       0.012
  -0.15000000  0.25000000  0.65000000       0.012
   0.75000000 -0.65000000 -0.25000000       0.012
   0.65000000 -0.55000000 -0.15000000       0.012
   0.55000000 -0.45000000 -0.05000000       0.012
   0.45000000 -0.35000000  0.05000000       0.012
   0.35000000 -0.25000000  0.15000000       0.012
   0.05000000  0.05000000  0.65000000       0.006
  -0.05000000  0.15000000  0.75000000       0.012
   0.85000000 -0.75000000 -0.15000000       0.012
   0.75000000 -0.65000000 -0.05000000       0.012
   0.65000000 -0.55000000  0.05000000       0.012
   0.55000000 -0.45000000  0.15000000       0.012
   0.45000000 -0.35000000  0.25000000       0.012
   0.05000000  0.05000000  0.85000000       0.006
   0.95000000 -0.85000000 -0.05000000       0.012
   0.85000000 -0.75000000  0.05000000       0.012
   0.75000000 -0.65000000  0.15000000       0.012
   0.65000000 -0.55000000  0.25000000       0.012
   0.55000000 -0.45000000  0.35000000       0.012
   0.05000000  0.05000000 -0.95000000       0.006
  -0.05000000  0.15000000 -0.85000000       0.012
  -0.15000000  0.25000000 -0.75000000       0.012
  -0.25000000  0.35000000 -0.65000000       0.012
   0.05000000  0.05000000 -0.75000000       0.006
  -0.05000000  0.15000000 -0.65000000       0.012
  -0.15000000  0.25000000 -0.55000000       0.012
   0.05000000  0.05000000 -0.55000000       0.006
  -0.05000000  0.15000000 -0.45000000       0.012
   0.05000000  0.05000000 -0.35000000       0.006
   0.15000000  0.15000000  0.15000000       0.002
   0.05000000  0.25000000  0.25000000       0.006
  -0.05000000  0.35000000  0.35000000       0.006
  -0.15000000  0.45000000  0.45000000       0.006
   0.75000000 -0.45000000 -0.45000000       0.006
   0.65000000 -0.35000000 -0.35000000       0.006
   0.55000000 -0.25000000 -0.25000000       0.006
   0.45000000 -0.15000000 -0.15000000       0.006
   0.15000000  0.15000000  0.35000000       0.006
   0.05000000  0.25000000  0.45000000       0.012
  -0.05000000  0.35000000  0.55000000       0.012
   0.85000000 -0.55000000 -0.35000000       0.012
   0.75000000 -0.45000000 -0.25000000       0.012
   0.65000000 -0.35000000 -0.15000000       0.012
   0.55000000 -0.25000000 -0.05000000       0.012
   0.15000000  0.15000000  0.55000000       0.006
   0.05000000  0.25000000  0.65000000       0.012
   0.95000000 -0.65000000 -0.25000000       0.012
   0.85000000 -0.55000000 -0.15000000       0.012
   0.75000000 -0.45000000 -0.05000000       0.012
   0.65000000 -0.35000000  0.05000000       0.012
   0.15000000  0.15000000  0.75000000       0.006
   1.05000000 -0.75000000 -0.15000000       0.012
   0.95000000 -0.65000000 -0.05000000       0.012
   0.85000000 -0.55000000  0.05000000       0.012
   0.75000000 -0.45000000  0.15000000       0.012
   0.15000000  0.15000000 -1.05000000       0.006
   0.05000000  0.25000000 -0.95000000       0.012
  -0.05000000  0.35000000 -0.85000000       0.012
   0.15000000  0.15000000 -0.85000000       0.006
   0.05000000  0.25000000 -0.75000000       0.012
   0.15000000  0.15000000 -0.65000000       0.006
   0.25000000  0.25000000  0.25000000       0.002
   0.15000000  0.35000000  0.35000000       0.006
   0.05000000  0.45000000  0.45000000       0.006
   0.95000000 -0.45000000 -0.45000000       0.006
   0.85000000 -0.35000000 -0.35000000       0.006
   0.75000000 -0.25000000 -0.25000000       0.006
   0.25000000  0.25000000  0.45000000       0.006
   0.15000000  0.35000000  0.55000000       0.012
   1.05000000 -0.55000000 -0.35000000       0.012
   0.95000000 -0.45000000 -0.25000000       0.012
   0.85000000 -0.35000000 -0.15000000       0.012
   0.25000000  0.25000000  0.65000000       0.006
   1.15000000 -0.65000000 -0.25000000       0.012
   1.05000000 -0.55000000 -0.15000000       0.012
   0.95000000 -0.45000000 -0.05000000       0.012
   0.25000000  0.25000000 -1.15000000       0.006
   0.15000000  0.35000000 -1.05000000       0.012
   0.25000000  0.25000000 -0.95000000       0.006
   0.35000000  0.35000000  0.35000000       0.002
   0.25000000  0.45000000  0.45000000       0.006
   1.15000000 -0.45000000 -0.45000000       0.006
   1.05000000 -0.35000000 -0.35000000       0.006
   0.35000000  0.35000000  0.55000000       0.006
   1.25000000 -0.55000000 -0.35000000       0.012
   1.15000000 -0.45000000 -0.25000000       0.012
   0.35000000  0.35000000 -1.25000000       0.006
   0.45000000  0.45000000  0.45000000       0.002
   1.35000000 -0.45000000 -0.45000000       0.006
 
 k-points in reciprocal lattice and weights: 10x10x10                                
   0.05000000  0.05000000  0.05000000       0.002
   0.15000000  0.05000000  0.05000000       0.006
   0.25000000  0.05000000  0.05000000       0.006
   0.35000000  0.05000000  0.05000000       0.006
   0.45000000  0.05000000  0.05000000       0.006
  -0.45000000  0.05000000  0.05000000       0.006
  -0.35000000  0.05000000  0.05000000       0.006
  -0.25000000  0.05000000  0.05000000       0.006
  -0.15000000  0.05000000  0.05000000       0.006
  -0.05000000  0.05000000  0.05000000       0.006
   0.15000000  0.15000000  0.05000000       0.006
   0.25000000  0.15000000  0.05000000       0.012
   0.35000000  0.15000000  0.05000000       0.012
   0.45000000  0.15000000  0.05000000       0.012
  -0.45000000  0.15000000  0.05000000       0.012
  -0.35000000  0.15000000  0.05000000       0.012
  -0.25000000  0.15000000  0.05000000       0.012
  -0.15000000  0.15000000  0.05000000       0.012
  -0.05000000  0.15000000  0.05000000       0.012
   0.25000000  0.25000000  0.05000000       0.006
   0.35000000  0.25000000  0.05000000       0.012
   0.45000000  0.25000000  0.05000000       0.012
  -0.45000000  0.25000000  0.05000000       0.012
  -0.35000000  0.25000000  0.05000000       0.012
  -0.25000000  0.25000000  0.05000000       0.012
  -0.15000000  0.25000000  0.05000000       0.012
  -0.05000000  0.25000000  0.05000000       0.012
   0.35000000  0.35000000  0.05000000       0.006
   0.45000000  0.35000000  0.05000000       0.012
  -0.45000000  0.35000000  0.05000000       0.012
  -0.35000000  0.35000000  0.05000000       0.012
  -0.25000000  0.35000000  0.05000000       0.012
  -0.15000000  0.35000000  0.05000000       0.012
  -0.05000000  0.35000000  0.05000000       0.012
   0.45000000  0.45000000  0.05000000       0.006
  -0.45000000  0.45000000  0.05000000       0.012
  -0.35000000  0.45000000  0.05000000       0.012
  -0.25000000  0.45000000  0.05000000       0.012
  -0.15000000  0.45000000  0.05000000       0.012
  -0.05000000  0.45000000  0.05000000       0.012
  -0.45000000 -0.45000000  0.05000000       0.006
  -0.35000000 -0.45000000  0.05000000       0.012
  -0.25000000 -0.45000000  0.05000000       0.012
  -0.15000000 -0.45000000  0.05000000       0.012
  -0.35000000 -0.35000000  0.05000000       0.006
  -0.25000000 -0.35000000  0.05000000       0.012
  -0.15000000 -0.35000000  0.05000000       0.012
  -0.25000000 -0.25000000  0.05000000       0.006
  -0.15000000 -0.25000000  0.05000000       0.012
  -0.15000000 -0.15000000  0.05000000       0.006
   0.15000000  0.15000000  0.15000000       0.002
   0.25000000  0.15000000  0.15000000       0.006
   0.35000000  0.15000000  0.15000000       0.006
   0.45000000  0.15000000  0.15000000       0.006
  -0.45000000  0.15000000  0.15000000       0.006
  -0.35000000  0.15000000  0.15000000       0.006
  -0.25000000  0.15000000  0.15000000       0.006
  -0.15000000  0.15000000  0.15000000       0.006
   0.25000000  0.25000000  0.15000000       0.006
   0.35000000  0.25000000  0.15000000       0.012
   0.45000000  0.25000000  0.15000000       0.012
  -0.45000000  0.25000000  0.15000000       0.012
  -0.35000000  0.25000000  0.15000000       0.012
  -0.25000000  0.25000000  0.15000000       0.012
  -0.15000000  0.25000000  0.15000000       0.012
   0.35000000  0.35000000  0.15000000       0.006
   0.45000000  0.35000000  0.15000000       0.012
  -0.45000000  0.35000000  0.15000000       0.012
  -0.35000000  0.35000000  0.15000000       0.012
  -0.25000000  0.35000000  0.15000000       0.012
  -0.15000000  0.35000000  0.15000000       0.012
   0.45000000  0.45000000  0.15000000       0.006
  -0.45000000  0.45000000  0.15000000       0.012
  -0.35000000  0.45000000  0.15000000       0.012
  -0.25000000  0.45000000  0.15000000       0.012
  -0.15000000  0.45000000  0.15000000       0.012
  -0.45000000 -0.45000000  0.15000000       0.006
  -0.35000000 -0.45000000  0.15000000       0.012
  -0.25000000 -0.45000000  0.15000000       0.012
  -0.35000000 -0.35000000  0.15000000       0.006
  -0.25000000 -0.35000000  0.15000000       0.012
  -0.25000000 -0.25000000  0.15000000       0.006
   0.25000000  0.25000000  0.25000000       0.002
   0.35000000  0.25000000  0.25000000       0.006
   0.45000000  0.25000000  0.25000000       0.006
  -0.45000000  0.25000000  0.25000000       0.006
  -0.35000000  0.25000000  0.25000000       0.006
  -0.25000000  0.25000000  0.25000000       0.006
   0.35000000  0.35000000  0.25000000       0.006
   0.45000000  0.35000000  0.25000000       0.012
  -0.45000000  0.35000000  0.25000000       0.012
  -0.35000000  0.35000000  0.25000000       0.012
  -0.25000000  0.35000000  0.25000000       0.012
   0.45000000  0.45000000  0.25000000       0.006
  -0.45000000  0.45000000  0.25000000       0.012
  -0.35000000  0.45000000  0.25000000       0.012
  -0.25000000  0.45000000  0.25000000       0.012
  -0.45000000 -0.45000000  0.25000000       0.006
  -0.35000000 -0.45000000  0.25000000       0.012
  -0.35000000 -0.35000000  0.25000000       0.006
   0.35000000  0.35000000  0.35000000       0.002
   0.45000000  0.35000000  0.35000000       0.006
  -0.45000000  0.35000000  0.35000000       0.006
  -0.35000000  0.35000000  0.35000000       0.006
   0.45000000  0.45000000  0.35000000       0.006
  -0.45000000  0.45000000  0.35000000       0.012
  -0.35000000  0.45000000  0.35000000       0.012
  -0.45000000 -0.45000000  0.35000000       0.006
   0.45000000  0.45000000  0.45000000       0.002
  -0.45000000  0.45000000  0.45000000       0.006
 
 position of ions in fractional coordinates (direct lattice) 
   0.00000000  0.00000000  0.00000000
 
 position of ions in cartesian coordinates  (Angst):
   0.00000000  0.00000000  0.00000000
 


--------------------------------------------------------------------------------------------------------


 k-point  1 :   0.0500 0.0500 0.0500  plane waves:     113
 k-point  2 :   0.1500 0.0500 0.0500  plane waves:     118
 k-point  3 :   0.2500 0.0500 0.0500  plane waves:     116
 k-point  4 :   0.3500 0.0500 0.0500  plane waves:     115
 k-point  5 :   0.4500 0.0500 0.0500  plane waves:     112
 k-point  6 :  -0.4500 0.0500 0.0500  plane waves:     114
 k-point  7 :  -0.3500 0.0500 0.0500  plane waves:     114
 k-point  8 :  -0.2500 0.0500 0.0500  plane waves:     114
 k-point  9 :  -0.1500 0.0500 0.0500  plane waves:     118
 k-point 10 :  -0.0500 0.0500 0.0500  plane waves:     114
 k-point 11 :   0.1500 0.1500 0.0500  plane waves:     119
 k-point 12 :   0.2500 0.1500 0.0500  plane waves:     117
 k-point 13 :   0.3500 0.1500 0.0500  plane waves:     114
 k-point 14 :   0.4500 0.1500 0.0500  plane waves:     113
 k-point 15 :  -0.4500 0.1500 0.0500  plane waves:     113
 k-point 16 :  -0.3500 0.1500 0.0500  plane waves:     113
 k-point 17 :  -0.2500 0.1500 0.0500  plane waves:     113
 k-point 18 :  -0.1500 0.1500 0.0500  plane waves:     115
 k-point 19 :  -0.0500 0.1500 0.0500  plane waves:     118
 k-point 20 :   0.2500 0.2500 0.0500  plane waves:     120
 k-point 21 :   0.3500 0.2500 0.0500  plane waves:     117
 k-point 22 :   0.4500 0.2500 0.0500  plane waves:     113
 k-point 23 :  -0.4500 0.2500 0.0500  plane waves:     114
 k-point 24 :  -0.3500 0.2500 0.0500  plane waves:     114
 k-point 25 :  -0.2500 0.2500 0.0500  plane waves:     112
 k-point 26 :  -0.1500 0.2500 0.0500  plane waves:     115
 k-point 27 :  -0.0500 0.2500 0.0500  plane waves:     113
 k-point 28 :   0.3500 0.3500 0.0500  plane waves:     115
 k-point 29 :   0.4500 0.3500 0.0500  plane waves:     115
 k-point 30 :  -0.4500 0.3500 0.0500  plane waves:     109
 k-point 31 :  -0.3500 0.3500 0.0500  plane waves:     109
 k-point 32 :  -0.2500 0.3500 0.0500  plane waves:     112
 k-point 33 :  -0.1500 0.3500 0.0500  plane waves:     114
 k-point 34 :  -0.0500 0.3500 0.0500  plane waves:     112
 k-point 35 :   0.4500 0.4500 0.0500  plane waves:     115
 k-point 36 :  -0.4500 0.4500 0.0500  plane waves:     113
 k-point 37 :  -0.3500 0.4500 0.0500  plane waves:     109
 k-point 38 :  -0.2500 0.4500 0.0500  plane waves:     111
 k-point 39 :  -0.1500 0.4500 0.0500  plane waves:     112
 k-point 40 :  -0.0500 0.4500 0.0500  plane waves:     113
 k-point 41 :  -0.4500-0.4500 0.0500  plane waves:     115
 k-point 42 :  -0.3500-0.4500 0.0500  plane waves:     113
 k-point 43 :  -0.2500-0.4500 0.0500  plane waves:     112
 k-point 44 :  -0.1500-0.4500 0.0500  plane waves:     114
 k-point 45 :  -0.3500-0.3500 0.0500  plane waves:     114
 k-point 46 :  -0.2500-0.3500 0.0500  plane waves:     115
 k-point 47 :  -0.1500-0.3500 0.0500  plane waves:     114
 k-point 48 :  -0.2500-0.2500 0.0500  plane waves:     117
 k-point 49 :  -0.1500-0.2500 0.0500  plane waves:     117
 k-point 50 :  -0.1500-0.1500 0.0500  plane waves:     117
 k-point 51 :   0.1500 0.1500 0.1500  plane waves:     116
 k-point 52 :   0.2500 0.1500 0.1500  plane waves:     117
 k-point 53 :   0.3500 0.1500 0.1500  plane waves:     113
 k-point 54 :   0.4500 0.1500 0.1500  plane waves:     114
 k-point 55 :  -0.4500 0.1500 0.1500  plane waves:     111
 k-point 56 :  -0.3500 0.1500 0.1500  plane waves:     115
 k-point 57 :  -0.2500 0.1500 0.1500  plane waves:     112
 k-point 58 :  -0.1500 0.1500 0.1500  plane waves:     114
 k-point 59 :   0.2500 0.2500 0.1500  plane waves:     117
 k-point 60 :   0.3500 0.2500 0.1500  plane waves:     115
 k-point 61 :   0.4500 0.2500 0.1500  plane waves:     113
 k-point 62 :  -0.4500 0.2500 0.1500  plane waves:     114
 k-point 63 :  -0.3500 0.2500 0.1500  plane waves:     114
 k-point 64 :  -0.2500 0.2500 0.1500  plane waves:     114
 k-point 65 :  -0.1500 0.2500 0.1500  plane waves:     116
 k-point 66 :   0.3500 0.3500 0.1500  plane waves:     116
 k-point 67 :   0.4500 0.3500 0.1500  plane waves:     115
 k-point 68 :  -0.4500 0.3500 0.1500  plane waves:     110
 k-point 69 :  -0.3500 0.3500 0.1500  plane waves:     112
 k-point 70 :  -0.2500 0.3500 0.1500  plane waves:     110
 k-point 71 :  -0.1500 0.3500 0.1500  plane waves:     113
 k-point 72 :   0.4500 0.4500 0.1500  plane waves:     113
 k-point 73 :  -0.4500 0.4500 0.1500  plane waves:     109
 k-point 74 :  -0.3500 0.4500 0.1500  plane waves:     109
 k-point 75 :  -0.2500 0.4500 0.1500  plane waves:     110
 k-point 76 :  -0.1500 0.4500 0.1500  plane waves:     113
 k-point 77 :  -0.4500-0.4500 0.1500  plane waves:     110
 k-point 78 :  -0.3500-0.4500 0.1500  plane waves:     108
 k-point 79 :  -0.2500-0.4500 0.1500  plane waves:     109
 k-point 80 :  -0.3500-0.3500 0.1500  plane waves:     110
 k-point 81 :  -0.2500-0.3500 0.1500  plane waves:     112
 k-point 82 :  -0.2500-0.2500 0.1500  plane waves:     116
 k-point 83 :   0.2500 0.2500 0.2500  plane waves:     113
 k-point 84 :   0.3500 0.2500 0.2500  plane waves:     111
 k-point 85 :   0.4500 0.2500 0.2500  plane waves:     115
 k-point 86 :  -0.4500 0.2500 0.2500  plane waves:     113
 k-point 87 :  -0.3500 0.2500 0.2500  plane waves:     112
 k-point 88 :  -0.2500 0.2500 0.2500  plane waves:     110
 k-point 89 :   0.3500 0.3500 0.2500  plane waves:     109
 k-point 90 :   0.4500 0.3500 0.2500  plane waves:     114
 k-point 91 :  -0.4500 0.3500 0.2500  plane waves:     112
 k-point 92 :  -0.3500 0.3500 0.2500  plane waves:     110
 k-point 93 :  -0.2500 0.3500 0.2500  plane waves:     109
 k-point 94 :   0.4500 0.4500 0.2500  plane waves:     113
 k-point 95 :  -0.4500 0.4500 0.2500  plane waves:     113
 k-point 96 :  -0.3500 0.4500 0.2500  plane waves:     111
 k-point 97 :  -0.2500 0.4500 0.2500  plane waves:     109
 k-point 98 :  -0.4500-0.4500 0.2500  plane waves:     110
 k-point 99 :  -0.3500-0.4500 0.2500  plane waves:     109
 k-point ** :  -0.3500-0.3500 0.2500  plane waves:     110
 k-point ** :   0.3500 0.3500 0.3500  plane waves:     114
 k-point ** :   0.4500 0.3500 0.3500  plane waves:     113
 k-point ** :  -0.4500 0.3500 0.3500  plane waves:     109
 k-point ** :  -0.3500 0.3500 0.3500  plane waves:     112
 k-point ** :   0.4500 0.4500 0.3500  plane waves:     115
 k-point ** :  -0.4500 0.4500 0.3500  plane waves:     115
 k-point ** :  -0.3500 0.4500 0.3500  plane waves:     112
 k-point ** :  -0.4500-0.4500 0.3500  plane waves:     112
 k-point ** :   0.4500 0.4500 0.4500  plane waves:     114
 k-point ** :  -0.4500 0.4500 0.4500  plane waves:     114

 maximum and minimum number of plane-waves per node :       120      108

 maximum number of plane-waves:       120
 maximum index in each direction: 
   IXMAX=    3   IYMAX=    3   IZMAX=    3
   IXMIN=   -3   IYMIN=   -3   IZMIN=   -3


 serial   3D FFT for wavefunctions
 parallel 3D FFT for charge:
    minimum data exchange during FFTs selected (reduces bandwidth)


 total amount of memory used by VASP MPI-rank0    32990. kBytes
=======================================================================

   base      :      30000. kBytes
   nonl-proj :       1902. kBytes
   fftplans  :        142. kBytes
   grid      :        192. kBytes
   one-center:         15. kBytes
   wavefun   :        739. kBytes
 
     INWAV:  cpu time    0.0001: real time    0.0002
 Broyden mixing: mesh for mixing (old mesh)
   NGX =  7   NGY =  7   NGZ =  7
  (NGX  = 20   NGY  = 20   NGZ  = 20)
  gives a total of    343 points

 initial charge density was supplied:
 charge density of overlapping atoms calculated
 number of electron      11.0000000 magnetization 
 keeping initial charge density in first step


--------------------------------------------------------------------------------------------------------


 Maximum index for augmentation-charges         1033 (set IRDMAX)


--------------------------------------------------------------------------------------------------------


 First call to EWALD:  gamma=   0.731
 Maximum number of real-space cells 3x 3x 3
 Maximum number of reciprocal cells 3x 3x 3

    FEWALD:  cpu time    0.0013: real time    0.0014


--------------------------------------- Iteration      1(   1)  ---------------------------------------


    POTLOK:  cpu time    0.0017: real time    0.0066
    SETDIJ:  cpu time    0.0025: real time    0.0026
     EDDAV:  cpu time    0.2559: real time    0.2740
       DOS:  cpu time    0.0015: real time    0.0014
    --------------------------------------------
      LOOP:  cpu time    0.2615: real time    0.2846

 eigenvalue-minimisations  :  3284
 total energy-change (2. order) : 0.3025894E+02  (-0.3615378E+03)
 number of electron      11.0000000 magnetization 
 augmentation part       11.0000000 magnetization 

 Free energy of the ion-electron system (eV)
  ---------------------------------------------------
  alpha Z        PSCENC =       128.82341228
  Ewald energy   TEWEN  =     -1037.47345503
  -Hartree energ DENC   =      -100.98065536
  -exchange      EXHF   =         0.00000000
  -V(xc)+E(xc)   XCENC  =        16.92145349
  PAW double counting   =       746.10209728     -725.46159323
  entropy T*S    EENTRO =        -0.00121433
  eigenvalues    EBANDS =        72.93274928
  atomic energy  EATOM  =       929.39614979
  Solvation  Ediel_sol  =         0.00000000
  ---------------------------------------------------
  free energy    TOTEN  =        30.25894419 eV

  energy without entropy =       30.26015851  energy(sigma->0) =       30.25934896


--------------------------------------------------------------------------------------------------------




--------------------------------------- Iteration      1(   2)  ---------------------------------------


     EDDAV:  cpu time    0.2240: real time    0.2290
       DOS:  cpu time    0.0015: real time    0.0015
    --------------------------------------------
      LOOP:  cpu time    0.2255: real time    0.2304

 eigenvalue-minimisations  :  3028
 total energy-change (2. order) :-0.3435512E+02  (-0.3233710E+02)
 number of electron      11.0000000 magnetization 
 augmentation part       11.0000000 magnetization 

 Free energy of the ion-electron system (eV)
  ---------------------------------------------------
  alpha Z        PSCENC =       128.82341228
  Ewald energy   TEWEN  =     -1037.47345503
  -Hartree energ DENC   =      -100.98065536
  -exchange      EXHF   =         0.00000000
  -V(xc)+E(xc)   XCENC  =        16.92145349
  PAW double counting   =       746.10209728     -725.46159323
  entropy T*S    EENTRO =        -0.00086209
  eigenvalues    EBANDS =        38.57727778
  atomic energy  EATOM  =       929.39614979
  Solvation  Ediel_sol  =         0.00000000
  ---------------------------------------------------
  free energy    TOTEN  =        -4.09617507 eV

  energy without entropy =       -4.09531299  energy(sigma->0) =       -4.09588771


--------------------------------------------------------------------------------------------------------




--------------------------------------- Iteration      1(   3)  ---------------------------------------


     EDDAV:  cpu time    0.2363: real time    0.2415
       DOS:  cpu time    0.0016: real time    0.0016
    --------------------------------------------
      LOOP:  cpu time    0.2378: real time    0.2430

 eigenvalue-minimisations  :  3172
 total energy-change (2. order) :-0.2809100E+00  (-0.2808113E+00)
 number of electron      11.0000000 magnetization 
 augmentation part       11.0000000 magnetization 

 Free energy of the ion-electron system (eV)
  ---------------------------------------------------
  alpha Z        PSCENC =       128.82341228
  Ewald energy   TEWEN  =     -1037.47345503
  -Hartree energ DENC   =      -100.98065536
  -exchange      EXHF   =         0.00000000
  -V(xc)+E(xc)   XCENC  =        16.92145349
  PAW double counting   =       746.10209728     -725.46159323
  entropy T*S    EENTRO =        -0.00071848
  eigenvalues    EBANDS =        38.29622419
  atomic energy  EATOM  =       929.39614979
  Solvation  Ediel_sol  =         0.00000000
  ---------------------------------------------------
  free energy    TOTEN  =        -4.37708507 eV

  energy without entropy =       -4.37636658  energy(sigma->0) =       -4.37684557


--------------------------------------------------------------------------------------------------------




--------------------------------------- Iteration      1(   4)  ---------------------------------------


     EDDAV:  cpu time    0.2509: real time    0.2565
       DOS:  cpu time    0.0014: real time    0.0014
    --------------------------------------------
      LOOP:  cpu time    0.2523: real time    0.2580

 eigenvalue-minimisations  :  3180
 total energy-change (2. order) :-0.7052697E-03  (-0.7052490E-03)
 number of electron      11.0000000 magnetization 
 augmentation part       11.0000000 magnetization 

 Free energy of the ion-electron system (eV)
  ---------------------------------------------------
  alpha Z        PSCENC =       128.82341228
  Ewald energy   TEWEN  =     -1037.47345503
  -Hartree energ DENC   =      -100.98065536
  -exchange      EXHF   =         0.00000000
  -V(xc)+E(xc)   XCENC  =        16.92145349
  PAW double counting   =       746.10209728     -725.46159323
  entropy T*S    EENTRO =        -0.00071813
  eigenvalues    EBANDS =        38.29551856
  atomic energy  EATOM  =       929.39614979
  Solvation  Ediel_sol  =         0.00000000
  ---------------------------------------------------
  free energy    TOTEN  =        -4.37779034 eV

  energy without entropy =       -4.37707221  energy(sigma->0) =       -4.37755096


--------------------------------------------------------------------------------------------------------




--------------------------------------- Iteration      1(   5)  ---------------------------------------


     EDDAV:  cpu time    0.2466: real time    0.2523
       DOS:  cpu time    0.0016: real time    0.0015
    CHARGE:  cpu time    0.0031: real time    0.0041
    MIXING:  cpu time    0.0003: real time    0.0003
    --------------------------------------------
      LOOP:  cpu time    0.2516: real time    0.2583

 eigenvalue-minimisations  :  2968
 total energy-change (2. order) :-0.4270355E-05  (-0.4271043E-05)
 number of electron      10.9999917 magnetization 
 augmentation part        3.8200273 magnetization 

 Broyden mixing:
  rms(total) = 0.31397E+00    rms(broyden)= 0.31364E+00
  rms(prec ) = 0.13004E+01
  weight for this iteration     100.00

 Free energy of the ion-electron system (eV)
  ---------------------------------------------------
  alpha Z        PSCENC =       128.82341228
  Ewald energy   TEWEN  =     -1037.47345503
  -Hartree energ DENC   =      -100.98065536
  -exchange      EXHF   =         0.00000000
  -V(xc)+E(xc)   XCENC  =        16.92145349
  PAW double counting   =       746.10209728     -725.46159323
  entropy T*S    EENTRO =        -0.00071813
  eigenvalues    EBANDS =        38.29551429
  atomic energy  EATOM  =       929.39614979
  Solvation  Ediel_sol  =         0.00000000
  ---------------------------------------------------
  free energy    TOTEN  =        -4.37779461 eV

  energy without entropy =       -4.37707648  energy(sigma->0) =       -4.37755523


--------------------------------------------------------------------------------------------------------




--------------------------------------- Iteration      1(   6)  ---------------------------------------


    POTLOK:  cpu time    0.0015: real time    0.0016
    SETDIJ:  cpu time    0.0014: real time    0.0014
     EDDAV:  cpu time    0.2541: real time    0.2600
       DOS:  cpu time    0.0016: real time    0.0015
    CHARGE:  cpu time    0.0029: real time    0.0030
    MIXING:  cpu time    0.0006: real time    0.0008
    --------------------------------------------
      LOOP:  cpu time    0.2629: real time    0.2683

 eigenvalue-minimisations  :  3132
 total energy-change (2. order) : 0.2546632E+00  (-0.5009767E-01)
 number of electron      10.9999914 magnetization 
 augmentation part        3.9292473 magnetization 

 Broyden mixing:
  rms(total) = 0.10033E+00    rms(broyden)= 0.10031E+00
  rms(prec ) = 0.41714E+00
  weight for this iteration     100.00

 eigenvalues of (default mixing * dielectric matrix)
  average eigenvalue GAMMA=   1.4080
  1.4080

 Free energy of the ion-electron system (eV)
  ---------------------------------------------------
  alpha Z        PSCENC =       128.82341228
  Ewald energy   TEWEN  =     -1037.47345503
  -Hartree energ DENC   =       -94.11319213
  -exchange      EXHF   =         0.00000000
  -V(xc)+E(xc)   XCENC  =        16.56974173
  PAW double counting   =       757.59498589     -738.68750383
  entropy T*S    EENTRO =        -0.00050177
  eigenvalues    EBANDS =        33.76723170
  atomic energy  EATOM  =       929.39614979
  Solvation  Ediel_sol  =         0.00000000
  ---------------------------------------------------
  free energy    TOTEN  =        -4.12313136 eV

  energy without entropy =       -4.12262959  energy(sigma->0) =       -4.12296410


--------------------------------------------------------------------------------------------------------




--------------------------------------- Iteration      1(   7)  ---------------------------------------


    POTLOK:  cpu time    0.0014: real time    0.0015
    SETDIJ:  cpu time    0.0013: real time    0.0013
     EDDAV:  cpu time    0.2327: real time    0.2376
       DOS:  cpu time    0.0014: real time    0.0014
    CHARGE:  cpu time    0.0032: real time    0.0032
    MIXING:  cpu time    0.0003: real time    0.0003
    --------------------------------------------
      LOOP:  cpu time    0.2395: real time    0.2453

 eigenvalue-minimisations  :  3188
 total energy-change (2. order) : 0.3963503E-01  (-0.6881344E-02)
 number of electron      10.9999914 magnetization 
 augmentation part        3.9678717 magnetization 

 Broyden mixing:
  rms(total) = 0.22803E-01    rms(broyden)= 0.22794E-01
  rms(prec ) = 0.58035E-01
  weight for this iteration     100.00

 eigenvalues of (default mixing * dielectric matrix)
  average eigenvalue GAMMA=   1.8283
  1.2978  2.3589

 Free energy of the ion-electron system (eV)
  ---------------------------------------------------
  alpha Z        PSCENC =       128.82341228
  Ewald energy   TEWEN  =     -1037.47345503
  -Hartree energ DENC   =       -91.00291762
  -exchange      EXHF   =         0.00000000
  -V(xc)+E(xc)   XCENC  =        16.40960773
  PAW double counting   =       773.61741992     -756.05726598
  entropy T*S    EENTRO =        -0.00043035
  eigenvalues    EBANDS =        32.20398294
  atomic energy  EATOM  =       929.39614979
  Solvation  Ediel_sol  =         0.00000000
  ---------------------------------------------------
  free energy    TOTEN  =        -4.08349633 eV

  energy without entropy =       -4.08306597  energy(sigma->0) =       -4.08335288


--------------------------------------------------------------------------------------------------------




--------------------------------------- Iteration      1(   8)  ---------------------------------------


    POTLOK:  cpu time    0.0016: real time    0.0016
    SETDIJ:  cpu time    0.0015: real time    0.0015
     EDDAV:  cpu time    0.2180: real time    0.2228
       DOS:  cpu time    0.0014: real time    0.0014
    CHARGE:  cpu time    0.0027: real time    0.0026
    MIXING:  cpu time    0.0002: real time    0.0002
    --------------------------------------------
      LOOP:  cpu time    0.2253: real time    0.2301

 eigenvalue-minimisations  :  2928
 total energy-change (2. order) : 0.6296772E-02  (-0.2122063E-03)
 number of electron      10.9999914 magnetization 
 augmentation part        3.9656606 magnetization 

 Broyden mixing:
  rms(total) = 0.10968E-02    rms(broyden)= 0.10929E-02
  rms(prec ) = 0.37005E-02
  weight for this iteration     100.00

 eigenvalues of (default mixing * dielectric matrix)
  average eigenvalue GAMMA=   1.6933
  1.3256  1.3256  2.4287

 Free energy of the ion-electron system (eV)
  ---------------------------------------------------
  alpha Z        PSCENC =       128.82341228
  Ewald energy   TEWEN  =     -1037.47345503
  -Hartree energ DENC   =       -90.31549701
  -exchange      EXHF   =         0.00000000
  -V(xc)+E(xc)   XCENC  =        16.37177193
  PAW double counting   =       787.93343588     -771.19716692
  entropy T*S    EENTRO =        -0.00042083
  eigenvalues    EBANDS =        32.38457036
  atomic energy  EATOM  =       929.39614979
  Solvation  Ediel_sol  =         0.00000000
  ---------------------------------------------------
  free energy    TOTEN  =        -4.07719955 eV

  energy without entropy =       -4.07677872  energy(sigma->0) =       -4.07705928


--------------------------------------------------------------------------------------------------------




--------------------------------------- Iteration      1(   9)  ---------------------------------------


    POTLOK:  cpu time    0.0012: real time    0.0012
    SETDIJ:  cpu time    0.0011: real time    0.0011
     EDDAV:  cpu time    0.1601: real time    0.1650
       DOS:  cpu time    0.0014: real time    0.0014
    --------------------------------------------
      LOOP:  cpu time    0.1638: real time    0.1688

 eigenvalue-minimisations  :  2080
 total energy-change (2. order) : 0.1978798E-04  (-0.1263424E-05)
 number of electron      10.9999914 magnetization 
 augmentation part        3.9656606 magnetization 

 Free energy of the ion-electron system (eV)
  ---------------------------------------------------
  alpha Z        PSCENC =       128.82341228
  Ewald energy   TEWEN  =     -1037.47345503
  -Hartree energ DENC   =       -90.27780963
  -exchange      EXHF   =         0.00000000
  -V(xc)+E(xc)   XCENC  =        16.36974582
  PAW double counting   =       789.03014378     -772.32362328
  entropy T*S    EENTRO =        -0.00041914
  eigenvalues    EBANDS =        32.37867564
  atomic energy  EATOM  =       929.39614979
  Solvation  Ediel_sol  =         0.00000000
  ---------------------------------------------------
  free energy    TOTEN  =        -4.07717977 eV

  energy without entropy =       -4.07676063  energy(sigma->0) =       -4.07704005


--------------------------------------------------------------------------------------------------------




 average (electrostatic) potential at core
  the test charge radii are     1.2098
  (the norm of the test charge is              1.0000)
       1 -43.9026
 
 
 
 E-fermi :   8.2762     XC(G=0): -14.0322     alpha+bet :-12.2930


 k-point     1 :       0.0500    0.0500    0.0500
  band No.  band energies     occupation 
      1      -3.7258      2.00000
      2       2.2965      2.00000
      3       2.3784      2.00000
      4       2.3784      2.00000
      5       4.4137      2.00000
      6       4.4137      2.00000
      7      23.5074      0.00000
      8      27.5998      0.00000
      9      28.4453      0.00000
     10      28.4453      0.00000
     11      33.6788      0.00000
     12      38.4173      0.00000

 k-point     2 :       0.1500    0.0500    0.0500
  band No.  band energies     occupation 
      1      -3.1911      2.00000
      2       2.0808      2.00000
      3       2.5609      2.00000
      4       2.6023      2.00000
      5       4.2003      2.00000
      6       4.4757      2.00000
      7      24.1710      0.00000
      8      25.5451      0.00000
      9      28.3382      0.00000
     10      29.5708      0.00000
     11      34.0120      0.00000
     12      36.9096      0.00000

 k-point     3 :       0.2500    0.0500    0.0500
  band No.  band energies     occupation 
      1      -2.0607      2.00000
      2       1.9096      2.00000
      3       2.7547      2.00000
      4       2.7885      2.00000
      5       4.2042      2.00000
      6       4.7577      2.00000
      7      22.0210      0.00000
      8      24.9685      0.00000
      9      29.0602      0.00000
     10      31.2921      0.00000
     11      31.4884      0.00000
     12      34.6125      0.00000

 k-point     4 :       0.3500    0.0500    0.0500
  band No.  band energies     occupation 
      1      -1.1314      2.00000
      2       2.5063      2.00000
      3       2.6272      2.00000
      4       2.7298      2.00000
      5       4.8639      2.00000
      6       5.5168      2.00000
      7      17.9984      0.00000
      8      24.1099      0.00000
      9      28.2572      0.00000
     10      30.7718      0.00000
     11      32.4637      0.00000
     12      34.0262      0.00000

 k-point     5 :       0.4500    0.0500    0.0500
  band No.  band energies     occupation 
      1      -0.9561      2.00000
      2       2.3062      2.00000
      3       2.4034      2.00000
      4       4.5388      2.00000
      5       5.6915      2.00000
      6       6.4910      2.00000
      7      14.0255      0.00000
      8      23.0755      0.00000
      9      27.0062      0.00000
     10      28.2073      0.00000
     11      34.9655      0.00000
     12      35.6221      0.00000

 k-point     6 :      -0.4500    0.0500    0.0500
  band No.  band energies     occupation 
      1      -0.9677      2.00000
      2       2.2166      2.00000
      3       2.3490      2.00000
      4       5.1819      2.00000
      5       6.0895      2.00000
      6       7.1444      2.00000
      7      12.3645     -0.00000
      8      22.7958      0.00000
      9      26.9933      0.00000
     10      27.0858      0.00000
     11      35.8313      0.00000
     12      35.9621      0.00000

 k-point     7 :      -0.3500    0.0500    0.0500
  band No.  band energies     occupation 
      1      -0.9687      2.00000
      2       2.3469      2.00000
      3       2.4972      2.00000
      4       3.8482      2.00000
      5       5.8071      2.00000
      6       5.8430      2.00000
      7      15.2560      0.00000
      8      23.3604      0.00000
      9      27.5974      0.00000
     10      28.5406      0.00000
     11      34.9176      0.00000
     12      34.9445      0.00000

 k-point     8 :      -0.2500    0.0500    0.0500
  band No.  band energies     occupation 
      1      -1.3520      2.00000
      2       2.2194      2.00000
      3       2.6398      2.00000
      4       2.7316      2.00000
      5       4.7323      2.00000
      6       5.1137      2.00000
      7      19.3879      0.00000
      8      24.5505      0.00000
      9      28.8873      0.00000
     10      30.7932      0.00000
     11      32.3461      0.00000
     12      34.0104      0.00000

 k-point     9 :      -0.1500    0.0500    0.0500
  band No.  band energies     occupation 
      1      -2.4704      2.00000
      2       1.9001      2.00000
      3       2.7471      2.00000
      4       2.7660      2.00000
      5       4.1458      2.00000
      6       4.5923      2.00000
      7      23.2546      0.00000
      8      24.9152      0.00000
      9      28.9702      0.00000
     10      30.2259      0.00000
     11      32.5378      0.00000
     12      35.0886      0.00000

 k-point    10 :      -0.0500    0.0500    0.0500
  band No.  band energies     occupation 
      1      -3.4531      2.00000
      2       2.1475      2.00000
      3       2.5037      2.00000
      4       2.5120      2.00000
      5       4.2367      2.00000
      6       4.4912      2.00000
      7      23.8773      0.00000
      8      26.6492      0.00000
      9      28.3544      0.00000
     10      28.6707      0.00000
     11      34.8343      0.00000
     12      37.3217      0.00000

 k-point    11 :       0.1500    0.1500    0.0500
  band No.  band energies     occupation 
      1      -2.9263      2.00000
      2       1.8519      2.00000
      3       2.7663      2.00000
      4       2.7728      2.00000
      5       3.9272      2.00000
      6       4.6394      2.00000
      7      24.5579      0.00000
      8      25.7547      0.00000
      9      27.9751      0.00000
     10      28.4470      0.00000
     11      34.7899      0.00000
     12      36.0558      0.00000

 k-point    12 :       0.2500    0.1500    0.0500
  band No.  band energies     occupation 
      1      -1.9805      2.00000
      2       1.5159      2.00000
      3       2.8848      2.00000
      4       3.1400      2.00000
      5       3.8481      2.00000
      6       4.9337      2.00000
      7      23.5468      0.00000
      8      25.2361      0.00000
      9      27.4031      0.00000
     10      28.7641      0.00000
     11      32.6835      0.00000
     12      35.2244      0.00000

 k-point    13 :       0.3500    0.1500    0.0500
  band No.  band energies     occupation 
      1      -0.8728      2.00000
      2       1.6222      2.00000
      3       2.4697      2.00000
      4       3.1474      2.00000
      5       4.7199      2.00000
      6       5.6953      2.00000
      7      19.6458      0.00000
      8      24.7181      0.00000
      9      26.4490      0.00000
     10      29.0317      0.00000
     11      33.1303      0.00000
     12      34.5215      0.00000

 k-point    14 :       0.4500    0.1500    0.0500
  band No.  band energies     occupation 
      1      -0.5164      2.00000
      2       2.0587      2.00000
      3       2.7469      2.00000
      4       2.9692      2.00000
      5       5.7606      2.00000
      6       7.0590      2.00000
      7      15.4010      0.00000
      8      23.7485      0.00000
      9      25.3582      0.00000
     10      27.7700      0.00000
     11      34.6157      0.00000
     12      36.2485      0.00000

 k-point    15 :      -0.4500    0.1500    0.0500
  band No.  band energies     occupation 
      1      -0.5176      2.00000
      2       1.8889      2.00000
      3       2.7425      2.00000
      4       3.8430      2.00000
      5       6.0205      2.00000
      6       8.9400     -0.00003
      7      12.2721     -0.00000
      8      23.2076      0.00000
      9      25.0384      0.00000
     10      26.6118      0.00000
     11      35.6179      0.00000
     12      36.5783      0.00000

 k-point    16 :      -0.3500    0.1500    0.0500
  band No.  band energies     occupation 
      1      -0.4817      2.00000
      2       1.9993      2.00000
      3       2.7746      2.00000
      4       3.4118      2.00000
      5       5.5687      2.00000
      6       7.8757      2.01587
      7      14.1985      0.00000
      8      23.2765      0.00000
      9      24.9903      0.00000
     10      27.8908      0.00000
     11      34.3185      0.00000
     12      36.3692      0.00000

 k-point    17 :      -0.2500    0.1500    0.0500
  band No.  band energies     occupation 
      1      -0.6196      2.00000
      2       1.9916      2.00000
      3       2.3833      2.00000
      4       3.0288      2.00000
      5       4.6155      2.00000
      6       6.3839      2.00000
      7      18.2478      0.00000
      8      23.8790      0.00000
      9      26.0316      0.00000
     10      30.0482      0.00000
     11      32.1916      0.00000
     12      35.3309      0.00000

 k-point    18 :      -0.1500    0.1500    0.0500
  band No.  band energies     occupation 
      1      -1.5751      2.00000
      2       1.5717      2.00000
      3       2.7372      2.00000
      4       3.1698      2.00000
      5       3.8415      2.00000
      6       5.2795      2.00000
      7      22.1627      0.00000
      8      24.6454      0.00000
      9      27.8143      0.00000
     10      28.9387      0.00000
     11      33.0311      0.00000
     12      34.8256      0.00000

 k-point    19 :      -0.0500    0.1500    0.0500
  band No.  band energies     occupation 
      1      -2.6851      2.00000
      2       1.8543      2.00000
      3       2.7679      2.00000
      4       2.7840      2.00000
      5       3.9825      2.00000
      6       4.6470      2.00000
      7      24.3769      0.00000
      8      24.8210      0.00000
      9      28.0112      0.00000
     10      29.8661      0.00000
     11      32.9429      0.00000
     12      36.1605      0.00000

 k-point    20 :       0.2500    0.2500    0.0500
  band No.  band energies     occupation 
      1      -1.3678      2.00000
      2       1.0423      2.00000
      3       3.0755      2.00000
      4       3.6466      2.00000
      5       3.8953      2.00000
      6       5.1015      2.00000
      7      24.2124      0.00000
      8      25.6072      0.00000
      9      26.0878      0.00000
     10      27.0387      0.00000
     11      30.1023      0.00000
     12      36.0453      0.00000

 k-point    21 :       0.3500    0.2500    0.0500
  band No.  band energies     occupation 
      1      -0.5042      2.00000
      2       0.7477      2.00000
      3       2.7233      2.00000
      4       4.1087      2.00000
      5       4.7587      2.00000
      6       5.7291      2.00000
      7      21.4653      0.00000
      8      23.5721      0.00000
      9      25.0763      0.00000
     10      28.0504      0.00000
     11      29.8058      0.00000
     12      36.2346      0.00000

 k-point    22 :       0.4500    0.2500    0.0500
  band No.  band energies     occupation 
      1      -0.0408      2.00000
      2       1.0725      2.00000
      3       2.4017      2.00000
      4       3.9254      2.00000
      5       5.8888      2.00000
      6       7.4021      2.00000
      7      17.0446      0.00000
      8      22.8757      0.00000
      9      23.2641      0.00000
     10      27.5795      0.00000
     11      33.0645      0.00000
     12      36.5280      0.00000

 k-point    23 :      -0.4500    0.2500    0.0500
  band No.  band energies     occupation 
      1       0.0910      2.00000
      2       1.3931      2.00000
      3       2.6417      2.00000
      4       3.6526      2.00000
      5       6.0676      2.00000
      6      10.2101     -0.00000
      7      13.1161     -0.00000
      8      21.5200      0.00000
      9      23.3794      0.00000
     10      26.8116      0.00000
     11      35.6209      0.00000
     12      37.7350      0.00000

 k-point    24 :      -0.3500    0.2500    0.0500
  band No.  band energies     occupation 
      1       0.3248      2.00000
      2       1.4833      2.00000
      3       2.6449      2.00000
      4       3.5109      2.00000
      5       5.5092      2.00000
      6      10.0403     -0.00000
      7      13.8176      0.00000
      8      20.3359      0.00000
      9      24.5903      0.00000
     10      27.0340      0.00000
     11      34.4751      0.00000
     12      37.1413      0.00000

 k-point    25 :      -0.2500    0.2500    0.0500
  band No.  band energies     occupation 
      1       0.4772      2.00000
      2       1.6201      2.00000
      3       1.9106      2.00000
      4       3.6159      2.00000
      5       4.5661      2.00000
      6       8.1089      1.99754
      7      17.4583      0.00000
      8      20.3555      0.00000
      9      25.4966      0.00000
     10      29.1847      0.00000
     11      31.7245      0.00000
     12      37.1493      0.00000

 k-point    26 :      -0.1500    0.2500    0.0500
  band No.  band energies     occupation 
      1      -0.3930      2.00000
      2       1.4674      2.00000
      3       2.3505      2.00000
      4       3.4648      2.00000
      5       4.0251      2.00000
      6       6.5104      2.00000
      7      19.7150      0.00000
      8      22.7685      0.00000
      9      26.4009      0.00000
     10      29.6432      0.00000
     11      31.9439      0.00000
     12      36.0325      0.00000

 k-point    27 :      -0.0500    0.2500    0.0500
  band No.  band energies     occupation 
      1      -1.5005      2.00000
      2       1.8063      2.00000
      3       2.7045      2.00000
      4       2.9137      2.00000
      5       4.2811      2.00000
      6       5.1801      2.00000
      7      20.8442      0.00000
      8      24.9345      0.00000
      9      28.0451      0.00000
     10      30.1359      0.00000
     11      32.8386      0.00000
     12      33.8247      0.00000

 k-point    28 :       0.3500    0.3500    0.0500
  band No.  band energies     occupation 
      1      -0.4334      2.00000
      2       0.2513      2.00000
      3       3.8228      2.00000
      4       4.8306      2.00000
      5       5.3320      2.00000
      6       5.6681      2.00000
      7      21.4162      0.00000
      8      22.2733      0.00000
      9      22.9607      0.00000
     10      26.9918      0.00000
     11      28.9404      0.00000
     12      38.6793      0.00000

 k-point    29 :       0.4500    0.3500    0.0500
  band No.  band energies     occupation 
      1      -0.3167      2.00000
      2       0.1125      2.00000
      3       3.9060      2.00000
      4       5.2255      2.00000
      5       5.9063      2.00000
      6       7.3928      2.00000
      7      18.3908      0.00000
      8      20.5372      0.00000
      9      21.2159      0.00000
     10      28.1168      0.00000
     11      30.1656      0.00000
     12      38.4048      0.00000

 k-point    30 :      -0.4500    0.3500    0.0500
  band No.  band energies     occupation 
      1      -0.1241      2.00000
      2       0.5106      2.00000
      3       3.4439      2.00000
      4       4.8137      2.00000
      5       6.2044      2.00000
      6      10.4690     -0.00000
      7      14.6900      0.00000
      8      18.9635      0.00000
      9      21.1975      0.00000
     10      28.2496      0.00000
     11      33.1675      0.00000
     12      37.3936      0.00000

 k-point    31 :      -0.3500    0.3500    0.0500
  band No.  band energies     occupation 
      1       0.2574      2.00000
      2       1.1578      2.00000
      3       2.7356      2.00000
      4       4.3617      2.00000
      5       5.7516      2.00000
      6      11.8232     -0.00000
      7      14.1761      0.00000
      8      17.1404      0.00000
      9      22.8243      0.00000
     10      27.7371      0.00000
     11      35.8287      0.00000
     12      37.0125      0.00000

 k-point    32 :      -0.2500    0.3500    0.0500
  band No.  band energies     occupation 
      1       0.6633      2.00000
      2       1.5326      2.00000
      3       2.0860      2.00000
      4       3.8730      2.00000
      5       5.1812      2.00000
      6       9.8975     -0.00000
      7      15.8369      0.00000
      8      18.1398      0.00000
      9      24.7321      0.00000
     10      27.4996      0.00000
     11      33.8341      0.00000
     12      37.3108      0.00000

 k-point    33 :      -0.1500    0.3500    0.0500
  band No.  band energies     occupation 
      1      -0.0251      2.00000
      2       1.8610      2.00000
[...]
      1       0.2557      2.00000
      2       0.9349      2.00000
      3       2.6514      2.00000
      4       4.4621      2.00000
      5       6.0756      2.00000
      6      11.4543     -0.00000
      7      13.8429      0.00000
      8      18.8828      0.00000
      9      21.1587      0.00000
     10      28.9276      0.00000
     11      34.4133      0.00000
     12      36.6151      0.00000

 k-point    94 :       0.4500    0.4500    0.2500
  band No.  band energies     occupation 
      1      -0.1461      2.00000
      2       1.5010      2.00000
      3       2.4277      2.00000
      4       3.4919      2.00000
      5       6.1544      2.00000
      6       7.7876      2.00298
      7      15.5026      0.00000
      8      23.2161      0.00000
      9      24.1712      0.00000
     10      26.5306      0.00000
     11      35.3009      0.00000
     12      36.3844      0.00000

 k-point    95 :      -0.4500    0.4500    0.2500
  band No.  band energies     occupation 
      1       0.2843      2.00000
      2       1.1488      2.00000
      3       2.3144      2.00000
      4       4.1588      2.00000
      5       5.9400      2.00000
      6       9.7635     -0.00000
      7      14.6853      0.00000
      8      20.8024      0.00000
      9      21.9663      0.00000
     10      28.3896      0.00000
     11      34.0195      0.00000
     12      37.1248      0.00000

 k-point    96 :      -0.3500    0.4500    0.2500
  band No.  band energies     occupation 
      1       0.7061      2.00000
      2       1.2685      2.00000
      3       1.8640      2.00000
      4       4.3016      2.00000
      5       6.1345      2.00000
      6      11.8502     -0.00000
      7      15.1035      0.00000
      8      17.1974      0.00000
      9      20.2951      0.00000
     10      31.2030      0.00000
     11      33.0193      0.00000
     12      37.2897      0.00000

 k-point    97 :      -0.2500    0.4500    0.2500
  band No.  band energies     occupation 
      1       0.5452      2.00000
      2       1.2756      2.00000
      3       2.0647      2.00000
      4       4.2401      2.00000
      5       6.4433      2.00000
      6      13.3639     -0.00000
      7      14.6518      0.00000
      8      16.1832      0.00000
      9      19.2442      0.00000
     10      32.1474      0.00000
     11      33.6633      0.00000
     12      35.6666      0.00000

 k-point    98 :      -0.4500   -0.4500    0.2500
  band No.  band energies     occupation 
      1      -0.0073      2.00000
      2       0.8863      2.00000
      3       3.1091      2.00000
      4       4.3798      2.00000
      5       6.1028      2.00000
      6      11.2848     -0.00000
      7      13.3803     -0.00000
      8      19.0874      0.00000
      9      22.5177      0.00000
     10      27.2847      0.00000
     11      35.0285      0.00000
     12      37.4165      0.00000

 k-point    99 :      -0.3500   -0.4500    0.2500
  band No.  band energies     occupation 
      1       0.1912      2.00000
      2       0.8480      2.00000
      3       2.9125      2.00000
      4       4.5727      2.00000
      5       6.1492      2.00000
      6      12.8593     -0.00000
      7      13.5536     -0.00000
      8      17.0788      0.00000
      9      20.8195      0.00000
     10      29.3418      0.00000
     11      34.9275      0.00000
     12      35.9049      0.00000

 k-point   100 :      -0.3500   -0.3500    0.2500
  band No.  band energies     occupation 
      1      -0.0431      2.00000
      2       0.7731      2.00000
      3       3.3609      2.00000
      4       4.7290      2.00000
      5       5.9303      2.00000
      6      12.6248     -0.00000
      7      13.1652     -0.00000
      8      17.2128      0.00000
      9      22.1977      0.00000
     10      27.6512      0.00000
     11      35.0055      0.00000
     12      37.5612      0.00000

 k-point   101 :       0.3500    0.3500    0.3500
  band No.  band energies     occupation 
      1      -1.1021      2.00000
      2       2.4933      2.00000
      3       2.4933      2.00000
      4       3.4592      2.00000
      5       5.3858      2.00000
      6       5.3858      2.00000
      7      16.5708      0.00000
      8      23.6172      0.00000
      9      29.0797      0.00000
     10      29.0797      0.00000
     11      34.1975      0.00000
     12      34.4001      0.00000

 k-point   102 :       0.4500    0.3500    0.3500
  band No.  band energies     occupation 
      1      -0.7108      2.00000
      2       2.2390      2.00000
      3       2.6374      2.00000
      4       3.3916      2.00000
      5       5.2324      2.00000
      6       6.9007      2.00000
      7      15.3803      0.00000
      8      23.5006      0.00000
      9      25.8991      0.00000
     10      29.0679      0.00000
     11      33.5159      0.00000
     12      35.7174      0.00000

 k-point   103 :      -0.4500    0.3500    0.3500
  band No.  band energies     occupation 
      1       0.1371      2.00000
      2       1.7125      2.00000
      3       2.7316      2.00000
      4       3.2400      2.00000
      5       5.2023      2.00000
      6       8.9487     -0.00002
      7      14.7499      0.00000
      8      21.1244      0.00000
      9      25.3974      0.00000
     10      27.2977      0.00000
     11      33.7515      0.00000
     12      36.6598      0.00000

 k-point   104 :      -0.3500    0.3500    0.3500
  band No.  band energies     occupation 
      1       0.4159      2.00000
      2       1.4589      2.00000
      3       2.4411      2.00000
      4       4.0698      2.00000
      5       5.4042      2.00000
      6      10.7617     -0.00000
      7      15.0779      0.00000
      8      17.4336      0.00000
      9      24.6738      0.00000
     10      26.6203      0.00000
     11      35.4103      0.00000
     12      36.9923      0.00000

 k-point   105 :       0.4500    0.4500    0.3500
  band No.  band energies     occupation 
      1      -0.7299      2.00000
      2       2.1129      2.00000
      3       2.6397      2.00000
      4       3.6739      2.00000
      5       6.0684      2.00000
      6       7.0862      2.00000
      7      14.0446      0.00000
      8      23.3628      0.00000
      9      26.4208      0.00000
     10      27.0951      0.00000
     11      35.4948      0.00000
     12      36.1830      0.00000

 k-point   106 :      -0.4500    0.4500    0.3500
  band No.  band energies     occupation 
      1      -0.1680      2.00000
      2       1.6882      2.00000
      3       2.9923      2.00000
      4       3.2254      2.00000
      5       5.8524      2.00000
      6       9.2154     -0.00000
      7      13.1373     -0.00000
      8      23.0351      0.00000
      9      23.7869      0.00000
     10      27.1516      0.00000
     11      34.8310      0.00000
     12      37.1614      0.00000

 k-point   107 :      -0.3500    0.4500    0.3500
  band No.  band energies     occupation 
      1       0.5471      2.00000
      2       1.2255      2.00000
      3       2.4255      2.00000
      4       3.8557      2.00000
      5       5.7928      2.00000
      6      11.4243     -0.00000
      7      12.9976     -0.00000
      8      19.6967      0.00000
      9      22.6521      0.00000
     10      28.1525      0.00000
     11      34.4749      0.00000
     12      38.5634      0.00000

 k-point   108 :      -0.4500   -0.4500    0.3500
  band No.  band energies     occupation 
      1      -0.0419      2.00000
      2       1.5644      2.00000
      3       3.0106      2.00000
      4       3.2831      2.00000
      5       5.9942      2.00000
      6      10.4724     -0.00000
      7      12.1623     -0.00000
      8      21.8444      0.00000
      9      25.0583      0.00000
     10      25.5917      0.00000
     11      36.3247      0.00000
     12      36.5273      0.00000

 k-point   109 :       0.4500    0.4500    0.4500
  band No.  band energies     occupation 
      1      -1.0439      2.00000
      2       2.3045      2.00000
      3       2.3045      2.00000
      4       5.7373      2.00000
      5       5.9935      2.00000
      6       5.9935      2.00000
      7      12.9934     -0.00000
      8      22.7720      0.00000
      9      27.5059      0.00000
     10      27.5059      0.00000
     11      35.6596      0.00000
     12      35.6596      0.00000

 k-point   110 :      -0.4500    0.4500    0.4500
  band No.  band energies     occupation 
      1      -0.7319      2.00000
      2       2.0567      2.00000
      3       2.5339      2.00000
      4       4.3828      2.00000
      5       5.9603      2.00000
      6       8.2459      1.25261
      7      12.3324     -0.00000
      8      23.0564      0.00000
      9      25.7912      0.00000
     10      26.9673      0.00000
     11      35.7575      0.00000
     12      36.0710      0.00000


--------------------------------------------------------------------------------------------------------


 soft charge-density along one line, spin component           1
         0         1         2         3         4         5         6         7         8         9
 total charge-density along one line
 
 pseudopotential strength for first ion, spin component:           1
 -8.964   0.000   0.000   0.000   0.000   0.000   0.000   0.000   0.000   0.000  -0.217   0.000  -0.000   0.000  -0.000   0.000
  0.000   0.000  -8.964   0.000  -0.000   0.000   0.000   0.000   0.000   0.000  -0.000   0.000  -0.217   0.000   0.000   0.000
  0.000   0.000  -0.000   0.000  -8.942   0.000  -0.000   0.000  -0.000   0.000  -0.000   0.000   0.000   0.000  -0.219   0.000
  0.000   0.000   0.000   0.000  -0.000   0.000  -8.964   0.000  -0.000   0.000  -0.000   0.000  -0.000   0.000   0.000   0.000
  0.000   0.000   0.000   0.000  -0.000   0.000  -0.000   0.000  -8.942   0.000  -0.000   0.000  -0.000   0.000   0.000   0.000
 -0.217   0.000  -0.000   0.000  -0.000   0.000  -0.000   0.000  -0.000   0.000   0.301   0.000   0.000   0.000   0.000   0.000
 -0.000   0.000  -0.217   0.000   0.000   0.000  -0.000   0.000  -0.000   0.000   0.000   0.000   0.301   0.000  -0.000   0.000
 -0.000   0.000   0.000   0.000  -0.219   0.000   0.000   0.000   0.000   0.000   0.000   0.000  -0.000   0.000   0.301   0.000
 -0.000   0.000  -0.000   0.000   0.000   0.000  -0.217   0.000   0.000   0.000   0.000   0.000   0.000   0.000  -0.000   0.000
 -0.000   0.000  -0.000   0.000   0.000   0.000   0.000   0.000  -0.219   0.000   0.000   0.000   0.000   0.000  -0.000   0.000
  0.000   0.000   0.000   0.000   0.000   0.000   0.000   0.000  -0.000   0.000   0.000   0.000   0.000   0.000  -0.000   0.000
 -0.000   0.000  -0.000   0.000  -0.000   0.000  -0.000   0.000   0.000   0.000   0.000   0.000   0.000   0.000   0.000   0.000
 -0.000   0.000  -0.000   0.000   0.000   0.000   0.000   0.000   0.000   0.000   0.000   0.000   0.000   0.000  -0.000   0.000
  0.000   0.000  -0.000   0.000  -0.000   0.000  -0.000   0.000  -0.000   0.000  -0.000   0.000   0.000   0.000   0.000   0.000
 -0.000   0.000   0.000   0.000   0.000   0.000  -0.000   0.000  -0.000   0.000   0.000   0.000  -0.000   0.000  -0.000   0.000
  0.000   0.000   0.000   0.000  -0.000   0.000  -0.000   0.000  -0.000   0.000  -0.000   0.000  -0.000   0.000   0.000   0.000
 -0.000   0.000   0.000   0.000   0.000   0.000   0.000   0.000   0.000   0.000   0.000   0.000  -0.000   0.000  -0.000   0.000
  0.000   0.000  -0.000   0.000  -0.000   0.000   0.000   0.000   0.000   0.000  -0.000   0.000   0.000   0.000   0.000   0.000
 total augmentation occupancy for first ion, spin component:           1
  1.911   0.000   0.000   0.000   0.000   0.031  -0.000  -0.000   0.000  -0.000   0.000  -0.000   0.000   0.000   0.000   0.000
  0.000   1.911  -0.000   0.000   0.000  -0.000   0.031  -0.000   0.000   0.000  -0.000   0.000   0.000   0.000   0.000   0.000
  0.000   0.000   1.961   0.000   0.000  -0.000  -0.000  -0.028  -0.000   0.000  -0.000   0.000   0.000   0.000   0.000   0.000
  0.000   0.000  -0.000   1.911   0.000  -0.000   0.000   0.000   0.031   0.000  -0.000  -0.000   0.000   0.000   0.000   0.000
  0.000   0.000   0.000   0.000   1.961  -0.000   0.000  -0.000   0.000  -0.028   0.000   0.000   0.000   0.000   0.000   0.000
  0.031  -0.000  -0.000  -0.000   0.000   0.383  -0.000   0.000  -0.000  -0.000   0.000  -0.000   0.000   0.000   0.000   0.000
 -0.000   0.031  -0.000   0.000   0.000  -0.000   0.383   0.000  -0.000  -0.000   0.000   0.000   0.000   0.000   0.000   0.000
 -0.000  -0.000  -0.028  -0.000   0.000   0.000   0.000   0.303  -0.000   0.000   0.000  -0.000   0.000   0.000   0.000   0.000
 -0.000   0.000   0.000   0.031   0.000  -0.000  -0.000  -0.000   0.383  -0.000   0.000   0.000   0.000   0.000   0.000   0.000
  0.000  -0.000   0.000   0.000  -0.028  -0.000   0.000   0.000  -0.000   0.303  -0.000  -0.000   0.000   0.000   0.000   0.000
  0.000  -0.000   0.000   0.000  -0.000   0.000   0.000   0.000   0.000   0.000   1.190  -0.532   0.000   0.000   0.000   0.000
 -0.000   0.000  -0.000   0.000   0.000  -0.000   0.000  -0.000   0.000  -0.000  -0.532   0.418   0.000   0.000   0.000   0.000
  0.000   0.000   0.000   0.000   0.000   0.000   0.000   0.000   0.000   0.000   0.000   0.000   0.245   0.000  -0.000  -0.018
  0.000   0.000   0.000   0.000   0.000   0.000   0.000   0.000   0.000   0.000   0.000   0.000   0.000   0.245  -0.000   0.000
  0.000   0.000   0.000   0.000   0.000   0.000   0.000   0.000   0.000   0.000   0.000   0.000   0.000   0.000   0.245  -0.000
  0.000   0.000   0.000   0.000   0.000   0.000   0.000   0.000   0.000   0.000   0.000   0.000  -0.018   0.000  -0.000   0.002
  0.000   0.000   0.000   0.000   0.000   0.000   0.000   0.000   0.000   0.000   0.000   0.000  -0.000  -0.018  -0.000  -0.000
  0.000   0.000   0.000   0.000   0.000   0.000   0.000   0.000   0.000   0.000   0.000   0.000   0.000  -0.000  -0.018   0.000


------------------------ aborting loop because EDIFF is reached ----------------------------------------


    CHARGE:  cpu time    0.0028: real time    0.0028
    FORLOC:  cpu time    0.0001: real time    0.0001
    FORNL :  cpu time    0.0071: real time    0.0071
    STRESS:  cpu time    0.0442: real time    0.0443
    FORCOR:  cpu time    0.0007: real time    0.0006
    FORHAR:  cpu time    0.0004: real time    0.0004
    MIXING:  cpu time    0.0003: real time    0.0002
    OFIELD:  cpu time    0.0000: real time    0.0000

  FORCE on cell =-STRESS in cart. coord.  units (eV):
  Direction    XX          YY          ZZ          XY          YZ          ZX
  --------------------------------------------------------------------------------------
  Alpha Z   128.82341   128.82341   128.82341
  Ewald    -345.82450  -345.82450  -345.82450    -0.00000    -0.00000     0.00000
  Hartree    30.09469    30.09469    30.09469     0.00001     0.00001     0.00001
  E(xc)     -49.98652   -49.98652   -49.98652     0.00001     0.00001     0.00001
  Local      87.76095    87.76095    87.76095     0.00011     0.00011     0.00011
  n-local   -45.16520   -41.76762   -45.76627     0.67356    -0.62896     0.03318
  augment    42.03395    42.03395    42.03395    -0.00031    -0.00031    -0.00031
  Kinetic   155.24230   154.34973   156.43124    -0.13996     0.05429     0.03722
  Fock        0.00000     0.00000     0.00000     0.00000     0.00000     0.00000
  -------------------------------------------------------------------------------------
  Total       4.01005     4.01005     4.01005     0.00000     0.00000     0.00000
  in kB     450.33740   450.33740   450.33740     0.00000     0.00000     0.00000
  external pressure =      450.34 kB  Pullay stress =        0.00 kB


 VOLUME and BASIS-vectors are now :
 -----------------------------------------------------------------------------
  energy-cutoff  :      229.87
  volume of cell :       14.27
      direct lattice vectors                 reciprocal lattice vectors
     0.000000000  1.925000000  1.925000000    -0.259740260  0.259740260  0.259740260
     1.925000000  0.000000000  1.925000000     0.259740260 -0.259740260  0.259740260
     1.925000000  1.925000000  0.000000000     0.259740260  0.259740260 -0.259740260

  length of vectors
     2.722361108  2.722361108  2.722361108     0.449883327  0.449883327  0.449883327


 FORCES acting on ions
    electron-ion (+dipol)            ewald-force                    non-local-force                 convergence-correction
 -----------------------------------------------------------------------------------------------
   0.138E-13 0.940E-14 0.838E-14   0.282E-14 -.303E-14 0.634E-15   -.724E-24 0.920E-23 0.331E-23   0.211E-13 -.473E-14 -.308E-14
 -----------------------------------------------------------------------------------------------
   0.138E-13 0.940E-14 0.838E-14   0.282E-14 -.303E-14 0.634E-15   -.724E-24 0.920E-23 0.331E-23   0.211E-13 -.473E-14 -.308E-14
 
 
 POSITION                                       TOTAL-FORCE (eV/Angst)
 -----------------------------------------------------------------------------------
      0.00000      0.00000      0.00000         0.000000      0.000000      0.000000
 -----------------------------------------------------------------------------------
    total drift:                                0.000000      0.000000      0.000000


--------------------------------------------------------------------------------------------------------



  FREE ENERGIE OF THE ION-ELECTRON SYSTEM (eV)
  ---------------------------------------------------
  free  energy   TOTEN  =        -4.07717977 eV

  energy  without entropy=       -4.07676063  energy(sigma->0) =       -4.07704005
 


--------------------------------------------------------------------------------------------------------


    POTLOK:  cpu time    0.0026: real time    0.0027


--------------------------------------------------------------------------------------------------------


 writing wavefunctions
     LOOP+:  cpu time    2.2494: real time    2.3274
    4ORBIT:  cpu time    0.0000: real time    0.0000

volume of typ            1:    99.7 %
 
total charge     
 
# of ion       s       p       d       tot
------------------------------------------
    1        0.668   0.661   8.939  10.267
 
orbital moment (x)
 
# of ion     s             p             d             tot
-----------------------------------------------------------------
    1     0.000000E+00 -0.512521E-08 -0.600843E-09 -0.572606E-08
 
orbital moment (y)
 
# of ion     s             p             d             tot
-----------------------------------------------------------------
    1     0.000000E+00  0.144665E-08  0.705713E-08  0.850378E-08
 
orbital moment (z)
 
# of ion     s             p             d             tot
-----------------------------------------------------------------
    1     0.000000E+00  0.208711E-08  0.206002E-08  0.414713E-08
 

 total amount of memory used by VASP MPI-rank0    32990. kBytes
=======================================================================

   base      :      30000. kBytes
   nonl-proj :       1902. kBytes
   fftplans  :        142. kBytes
   grid      :        192. kBytes
   one-center:         15. kBytes
   wavefun   :        739. kBytes
 
  
  
 General timing and accounting informations for this job:
 ========================================================
  
                  Total CPU time used (sec):        2.922
                            User time (sec):        2.317
                          System time (sec):        0.605
                         Elapsed time (sec):        3.717
  
                   Maximum memory used (kb):       54484.
                   Average memory used (kb):           0.
  
                          Minor page faults:        21100
                          Major page faults:           67
                 Voluntary context switches:         2325
