PROCAR new format
# of k-points:  110         # of bands:   12         # of ions:    1

 k-point     1 :    0.05000000 0.05000000 0.05000000     weight = 0.00200000

band     1 # energy   -3.72584467 # occ.  2.00000000
 
ion      s      p      d    tot
    1  0.806  0.007  0.000  0.813
 
band     2 # energy    2.29648365 # occ.  2.00000000
 
ion      s      p      d    tot
    1  0.000  0.002  0.968  0.970
 
band     3 # energy    2.37844489 # occ.  2.00000000
 
ion      s      p      d    tot
    1  0.000  0.000  0.970  0.971
 
band     4 # energy    2.37844489 # occ.  2.00000000
 
ion      s      p      d    tot
    1  0.000  0.000  0.970  0.971
 
band     5 # energy    4.41369140 # occ.  2.00000000
 
ion      s      p      d    tot
    1  0.000  0.000  0.976  0.976
 
band     6 # energy    4.41369140 # occ.  2.00000000
 
ion      s      p      d    tot
    1  0.000  0.000  0.976  0.976
 
band     7 # energy   23.50736880 # occ.  0.00000000
 
ion      s      p      d    tot
    1  0.000  0.000  0.011  0.011
 
band     8 # energy   27.59976240 # occ.  0.00000000
 
ion      s      p      d    tot
    1  0.012  0.161  0.011  0.183
 
band     9 # energy   28.44533763 # occ.  0.00000000
 
ion      s      p      d    tot
    1  0.000  0.176  0.009  0.184
 
band    10 # energy   28.44533763 # occ.  0.00000000
 
ion      s      p      d    tot
    1  0.000  0.176  0.009  0.184
 
band    11 # energy   33.67881848 # occ.  0.00000000
 
ion      s      p      d    tot
    1  0.040  0.041  0.007  0.088
 
band    12 # energy   38.41730513 # occ.  0.00000000
 
ion      s      p      d    tot
    1  0.007  0.191  0.491  0.690
 

 k-point     2 :    0.15000000 0.05000000 0.05000000     weight = 0.00600000

band     1 # energy   -3.19110788 # occ.  2.00000000
 
ion      s      p      d    tot
    1  0.770  0.040  0.005  0.815
 
band     2 # energy    2.08081106 # occ.  2.00000000
 
ion      s      p      d    tot
    1  0.001  0.009  0.952  0.962
 
band     3 # energy    2.56085968 # occ.  2.00000000
 
ion      s      p      d    tot
    1  0.000  0.000  0.968  0.968
 
band     4 # energy    2.60232590 # occ.  2.00000000
 
ion      s      p      d    tot
    1  0.001  0.007  0.960  0.967
 
band     5 # energy    4.20026746 # occ.  2.00000000
 
ion      s      p      d    tot
    1  0.000  0.000  0.969  0.969
 
band     6 # energy    4.47568331 # occ.  2.00000000
 
ion      s      p      d    tot
    1  0.001  0.000  0.972  0.973
 
band     7 # energy   24.17102859 # occ.  0.00000000
 
ion      s      p      d    tot
    1  0.000  0.009  0.077  0.087
 
band     8 # energy   25.54513195 # occ.  0.00000000
 
ion      s      p      d    tot
    1  0.039  0.152  0.043  0.234
 
band     9 # energy   28.33815301 # occ.  0.00000000
 
ion      s      p      d    tot
    1  0.000  0.236  0.058  0.293
 
band    10 # energy   29.57080366 # occ.  0.00000000
 
ion      s      p      d    tot
    1  0.000  0.162  0.050  0.212
 
band    11 # energy   34.01200379 # occ.  0.00000000
 
ion      s      p      d    tot
    1  0.001  0.316  0.186  0.503
 
band    12 # energy   36.90958045 # occ.  0.00000000
 
ion      s      p      d    tot
    1  0.003  0.204  0.314  0.521
 

 k-point     3 :    0.25000000 0.05000000 0.05000000     weight = 0.00600000

band     1 # energy   -2.06069646 # occ.  2.00000000
 
ion      s      p      d    tot
    1  0.664  0.091  0.074  0.828
 
band     2 # energy    1.90958857 # occ.  2.00000000
 
ion      s      p      d    tot
    1  0.021  0.056  0.862  0.940
 
band     3 # energy    2.75469961 # occ.  2.00000000
 
ion      s      p      d    tot
    1  0.002  0.012  0.948  0.961
 
band     4 # energy    2.78853242 # occ.  2.00000000
 
ion      s      p      d    tot
    1  0.000  0.001  0.963  0.964
 
band     5 # energy    4.20419635 # occ.  2.00000000
 
ion      s      p      d    tot
    1  0.000  0.002  0.958  0.961
 
band     6 # energy    4.75767422 # occ.  2.00000000
 
ion      s      p      d    tot
    1  0.004  0.005  0.957  0.966
 
band     7 # energy   22.02098197 # occ.  0.00000000
 
ion      s      p      d    tot
    1  0.097  0.244  0.166  0.507
 
band     8 # energy   24.96849852 # occ.  0.00000000
 
ion      s      p      d    tot
    1  0.000  0.023  0.136  0.159
 
band     9 # energy   29.06016484 # occ.  0.00000000
 
ion      s      p      d    tot
    1  0.002  0.345  0.145  0.492
 
band    10 # energy   31.29205740 # occ.  0.00000000
 
ion      s      p      d    tot
    1  0.027  0.252  0.060  0.339
 
band    11 # energy   31.48844532 # occ.  0.00000000
 
ion      s      p      d    tot
    1  0.000  0.198  0.156  0.354
 
band    12 # energy   34.61249996 # occ.  0.00000000
 
ion      s      p      d    tot
    1  0.000  0.312  0.265  0.576
 

 k-point     4 :    0.35000000 0.05000000 0.05000000     weight = 0.00600000

band     1 # energy   -1.13143887 # occ.  2.00000000
 
ion      s      p      d    tot
    1  0.432  0.063  0.383  0.878
 
band     2 # energy    2.50629342 # occ.  2.00000000
 
ion      s      p      d    tot
    1  0.024  0.041  0.884  0.949
 
band     3 # energy    2.62722179 # occ.  2.00000000
 
ion      s      p      d    tot
    1  0.000  0.000  0.960  0.960
 
band     4 # energy    2.72982864 # occ.  2.00000000
 
ion      s      p      d    tot
    1  0.094  0.199  0.595  0.888
 
band     5 # energy    4.86393216 # occ.  2.00000000
 
ion      s      p      d    tot
    1  0.000  0.004  0.957  0.961
 
band     6 # energy    5.51684539 # occ.  2.00000000
 
ion      s      p      d    tot
    1  0.015  0.021  0.927  0.963
 
band     7 # energy   17.99842992 # occ.  0.00000000
 
ion      s      p      d    tot
    1  0.204  0.287  0.242  0.733
 
band     8 # energy   24.10994905 # occ.  0.00000000
 
ion      s      p      d    tot
    1  0.001  0.044  0.085  0.130
 
band     9 # energy   28.25717992 # occ.  0.00000000
 
ion      s      p      d    tot
    1  0.010  0.482  0.138  0.630
 
band    10 # energy   30.77176475 # occ.  0.00000000
 
ion      s      p      d    tot
    1  0.000  0.491  0.121  0.612
 
band    11 # energy   32.46365397 # occ.  0.00000000
 
ion      s      p      d    tot
    1  0.021  0.082  0.138  0.240
 
band    12 # energy   34.02615705 # occ.  0.00000000
 
ion      s      p      d    tot
    1  0.000  0.014  0.392  0.406
 

 k-point     5 :    0.45000000 0.05000000 0.05000000     weight = 0.00600000

band     1 # energy   -0.95611168 # occ.  2.00000000
 
ion      s      p      d    tot
    1  0.269  0.014  0.635  0.918
 
band     2 # energy    2.30619922 # occ.  2.00000000
 
ion      s      p      d    tot
    1  0.000  0.003  0.954  0.956
 
band     3 # energy    2.40342385 # occ.  2.00000000
 
ion      s      p      d    tot
    1  0.000  0.000  0.958  0.958
 
band     4 # energy    4.53882832 # occ.  2.00000000
 
ion      s      p      d    tot
    1  0.075  0.390  0.380  0.845
 
band     5 # energy    5.69145815 # occ.  2.00000000
 
ion      s      p      d    tot
    1  0.000  0.002  0.967  0.969
 
band     6 # energy    6.49098880 # occ.  2.00000000
 
ion      s      p      d    tot
    1  0.043  0.146  0.742  0.931
 
band     7 # energy   14.02546030 # occ.  0.00000000
 
ion      s      p      d    tot
    1  0.369  0.173  0.323  0.865
 
band     8 # energy   23.07551394 # occ.  0.00000000
 
ion      s      p      d    tot
    1  0.000  0.032  0.028  0.060
 
band     9 # energy   27.00620644 # occ.  0.00000000
 
ion      s      p      d    tot
    1  0.007  0.493  0.056  0.556
 
band    10 # energy   28.20731801 # occ.  0.00000000
 
ion      s      p      d    tot
    1  0.000  0.485  0.042  0.526
 
band    11 # energy   34.96546232 # occ.  0.00000000
 
ion      s      p      d    tot
    1  0.011  0.016  0.432  0.459
 
band    12 # energy   35.62213122 # occ.  0.00000000
 
ion      s      p      d    tot
    1  0.000  0.007  0.606  0.614
 

 k-point     6 :   -0.45000000 0.05000000 0.05000000     weight = 0.00600000

band     1 # energy   -0.96770229 # occ.  2.00000000
 
ion      s      p      d    tot
    1  0.239  0.005  0.682  0.926
 
band     2 # energy    2.21660956 # occ.  2.00000000
 
ion      s      p      d    tot
    1  0.000  0.002  0.954  0.955
 
band     3 # energy    2.34903141 # occ.  2.00000000
 
ion      s      p      d    tot
    1  0.000  0.001  0.957  0.958
 
band     4 # energy    5.18193143 # occ.  2.00000000
 
ion      s      p      d    tot
    1  0.003  0.304  0.573  0.880
 
band     5 # energy    6.08953599 # occ.  2.00000000
 
ion      s      p      d    tot
    1  0.000  0.000  0.977  0.977
 
band     6 # energy    7.14442046 # occ.  2.00000000
 
ion      s      p      d    tot
    1  0.006  0.428  0.416  0.849
 
band     7 # energy   12.36447716 # occ. -0.00000000
 
ion      s      p      d    tot
    1  0.504  0.014  0.406  0.923
 
band     8 # energy   22.79575769 # occ.  0.00000000
 
ion      s      p      d    tot
    1  0.000  0.028  0.015  0.043
 
band     9 # energy   26.99325392 # occ.  0.00000000
 
ion      s      p      d    tot
    1  0.007  0.485  0.033  0.525
 
band    10 # energy   27.08575891 # occ.  0.00000000
 
ion      s      p      d    tot
    1  0.000  0.497  0.016  0.513
 
band    11 # energy   35.83134908 # occ.  0.00000000
 
ion      s      p      d    tot
    1  0.000  0.000  0.615  0.615
 
band    12 # energy   35.96213966 # occ.  0.00000000
 
ion      s      p      d    tot
    1  0.001  0.001  0.632  0.633
 

 k-point     7 :   -0.35000000 0.05000000 0.05000000     weight = 0.00600000

band     1 # energy   -0.96872835 # occ.  2.00000000
 
ion      s      p      d    tot
    1  0.304  0.025  0.580  0.909
 
band     2 # energy    2.34688408 # occ.  2.00000000
 
ion      s      p      d    tot
    1  0.000  0.001  0.955  0.956
 
band     3 # energy    2.49717580 # occ.  2.00000000
 
ion      s      p      d    tot
    1  0.000  0.003  0.957  0.959
 
band     4 # energy    3.84823622 # occ.  2.00000000
 
ion      s      p      d    tot
    1  0.111  0.343  0.398  0.851
 
band     5 # energy    5.80707154 # occ.  2.00000000
 
ion      s      p      d    tot
    1  0.000  0.002  0.971  0.973
 
band     6 # energy    5.84296030 # occ.  2.00000000
 
ion      s      p      d    tot
    1  0.039  0.095  0.805  0.939
 
band     7 # energy   15.25601127 # occ.  0.00000000
 
ion      s      p      d    tot
    1  0.306  0.233  0.289  0.828
 
band     8 # energy   23.36036169 # occ.  0.00000000
 
ion      s      p      d    tot
    1  0.001  0.034  0.037  0.072
 
band     9 # energy   27.59741007 # occ.  0.00000000
 
ion      s      p      d    tot
    1  0.000  0.504  0.074  0.578
 
band    10 # energy   28.54064376 # occ.  0.00000000
 
ion      s      p      d    tot
    1  0.010  0.461  0.087  0.559
 
band    11 # energy   34.91756320 # occ.  0.00000000
 
ion      s      p      d    tot
    1  0.000  0.000  0.414  0.414
 
band    12 # energy   34.94448276 # occ.  0.00000000
 
ion      s      p      d    tot
    1  0.010  0.063  0.381  0.454
 

 k-point     8 :   -0.25000000 0.05000000 0.05000000     weight = 0.00600000

band     1 # energy   -1.35200076 # occ.  2.00000000
 
ion      s      p      d    tot
    1  0.518  0.083  0.257  0.858
 
band     2 # energy    2.21935391 # occ.  2.00000000
 
ion      s      p      d    tot
    1  0.079  0.146  0.684  0.908
 
band     3 # energy    2.63984418 # occ.  2.00000000
 
ion      s      p      d    tot
    1  0.003  0.014  0.937  0.953
 
band     4 # energy    2.73156952 # occ.  2.00000000
 
ion      s      p      d    tot
    1  0.000  0.005  0.957  0.962
 
band     5 # energy    4.73226028 # occ.  2.00000000
 
ion      s      p      d    tot
    1  0.012  0.018  0.926  0.956
 
band     6 # energy    5.11365438 # occ.  2.00000000
 
ion      s      p      d    tot
    1  0.000  0.004  0.963  0.966
 
band     7 # energy   19.38786245 # occ.  0.00000000
 
ion      s      p      d    tot
    1  0.162  0.287  0.219  0.669
 
band     8 # energy   24.55048631 # occ.  0.00000000
 
ion      s      p      d    tot
    1  0.001  0.039  0.107  0.147
 
band     9 # energy   28.88734220 # occ.  0.00000000
 
ion      s      p      d    tot
    1  0.000  0.470  0.181  0.651
 
band    10 # energy   30.79317711 # occ.  0.00000000
 
ion      s      p      d    tot
    1  0.030  0.331  0.132  0.492
 
band    11 # energy   32.34609361 # occ.  0.00000000
 
ion      s      p      d    tot
    1  0.001  0.257  0.146  0.404
 
band    12 # energy   34.01035858 # occ.  0.00000000
 
ion      s      p      d    tot
    1  0.000  0.026  0.194  0.220
 

 k-point     9 :   -0.15000000 0.05000000 0.05000000     weight = 0.00600000

band     1 # energy   -2.47035564 # occ.  2.00000000
 
ion      s      p      d    tot
    1  0.710  0.077  0.034  0.821
 
band     2 # energy    1.90010156 # occ.  2.00000000
 
ion      s      p      d    tot
    1  0.008  0.030  0.911  0.950
 
band     3 # energy    2.74709849 # occ.  2.00000000
 
ion      s      p      d    tot
    1  0.001  0.006  0.956  0.964
 
band     4 # energy    2.76600200 # occ.  2.00000000
 
ion      s      p      d    tot
    1  0.000  0.006  0.959  0.966
 
band     5 # energy    4.14576072 # occ.  2.00000000
 
ion      s      p      d    tot
    1  0.003  0.003  0.956  0.962
 
band     6 # energy    4.59227642 # occ.  2.00000000
 
ion      s      p      d    tot
    1  0.000  0.001  0.968  0.969
 
band     7 # energy   23.25456344 # occ.  0.00000000
 
ion      s      p      d    tot
    1  0.070  0.216  0.146  0.432
 
band     8 # energy   24.91521838 # occ.  0.00000000
 
ion      s      p      d    tot
    1  0.002  0.003  0.094  0.098
 
band     9 # energy   28.97018968 # occ.  0.00000000
 
ion      s      p      d    tot
    1  0.000  0.304  0.136  0.440
 
band    10 # energy   30.22594593 # occ.  0.00000000
 
ion      s      p      d    tot
    1  0.000  0.176  0.106  0.283
 
band    11 # energy   32.53779137 # occ.  0.00000000
 
ion      s      p      d    tot
    1  0.026  0.335  0.088  0.450
 
band    12 # energy   35.08861755 # occ.  0.00000000
 
ion      s      p      d    tot
    1  0.000  0.167  0.229  0.396
 

 k-point    10 :   -0.05000000 0.05000000 0.05000000     weight = 0.00600000

band     1 # energy   -3.45313323 # occ.  2.00000000
 
ion      s      p      d    tot
    1  0.789  0.024  0.001  0.814
 
band     2 # energy    2.14752442 # occ.  2.00000000
 
ion      s      p      d    tot
    1  0.000  0.002  0.963  0.966
 
band     3 # energy    2.50374892 # occ.  2.00000000
 
ion      s      p      d    tot
    1  0.000  0.003  0.966  0.969
 
band     4 # energy    2.51199602 # occ.  2.00000000
 
ion      s      p      d    tot
    1  0.000  0.003  0.966  0.969
 
band     5 # energy    4.23665860 # occ.  2.00000000
 
ion      s      p      d    tot
    1  0.000  0.000  0.970  0.971
 
band     6 # energy    4.49122924 # occ.  2.00000000
 
ion      s      p      d    tot
    1  0.000  0.000  0.975  0.975
 
band     7 # energy   23.87733232 # occ.  0.00000000
 
ion      s      p      d    tot
    1  0.000  0.001  0.040  0.041
 
band     8 # energy   26.64922619 # occ.  0.00000000
 
ion      s      p      d    tot
    1  0.027  0.143  0.031  0.201
 
band     9 # energy   28.35443252 # occ.  0.00000000
 
ion      s      p      d    tot
    1  0.000  0.211  0.038  0.248
 
band    10 # energy   28.67071718 # occ.  0.00000000
 
ion      s      p      d    tot
    1  0.001  0.181  0.034  0.216
 
band    11 # energy   34.83431093 # occ.  0.00000000
 
ion      s      p      d    tot
    1  0.010  0.170  0.068  0.248
 
band    12 # energy   37.32171519 # occ.  0.00000000
 
ion      s      p      d    tot
    1  0.030  0.148  0.292  0.470
 

 k-point    11 :    0.15000000 0.15000000 0.05000000     weight = 0.00600000

band     1 # energy   -2.92634707 # occ.  2.00000000
 
ion      s      p      d    tot
    1  0.752  0.057  0.007  0.816
 
band     2 # energy    1.85186926 # occ.  2.00000000
 
ion      s      p      d    tot
    1  0.000  0.003  0.958  0.960
 
band     3 # energy    2.76626403 # occ.  2.00000000
 
ion      s      p      d    tot
    1  0.000  0.009  0.957  0.966
 
band     4 # energy    2.77281212 # occ.  2.00000000
 
ion      s      p      d    tot
    1  0.000  0.009  0.958  0.966
 
band     5 # energy    3.92715320 # occ.  2.00000000
 
ion      s      p      d    tot
    1  0.004  0.002  0.956  0.961
 
band     6 # energy    4.63938037 # occ.  2.00000000
 
ion      s      p      d    tot
    1  0.000  0.000  0.975  0.975
 
band     7 # energy   24.55790845 # occ.  0.00000000
 
ion      s      p      d    tot
    1  0.000  0.007  0.100  0.107
 
band     8 # energy   25.75469504 # occ.  0.00000000
 
ion      s      p      d    tot
    1  0.041  0.126  0.064  0.232
 
band     9 # energy   27.97512832 # occ.  0.00000000
 
ion      s      p      d    tot
    1  0.000  0.286  0.098  0.383
 
band    10 # energy   28.44700724 # occ.  0.00000000
 
ion      s      p      d    tot
    1  0.002  0.221  0.091  0.314
 
band    11 # energy   34.78992747 # occ.  0.00000000
 
ion      s      p      d    tot
    1  0.026  0.379  0.134  0.539
 
band    12 # energy   36.05576603 # occ.  0.00000000
 
ion      s      p      d    tot
    1  0.000  0.171  0.273  0.443
 

 k-point    12 :    0.25000000 0.15000000 0.05000000     weight = 0.01200000

band     1 # energy   -1.98051455 # occ.  2.00000000
 
ion      s      p      d    tot
    1  0.671  0.108  0.042  0.822
 
band     2 # energy    1.51585446 # occ.  2.00000000
 
ion      s      p      d    tot
    1  0.001  0.014  0.937  0.952
 
band     3 # energy    2.88484998 # occ.  2.00000000
 
ion      s      p      d    tot
    1  0.000  0.012  0.944  0.956
 
band     4 # energy    3.14004083 # occ.  2.00000000
 
ion      s      p      d    tot
    1  0.000  0.011  0.951  0.962
 
band     5 # energy    3.84808572 # occ.  2.00000000
 
ion      s      p      d    tot
    1  0.016  0.016  0.922  0.954
 
band     6 # energy    4.93372479 # occ.  2.00000000
 
ion      s      p      d    tot
    1  0.003  0.004  0.964  0.971
 
band     7 # energy   23.54681001 # occ.  0.00000000
 
ion      s      p      d    tot
    1  0.074  0.213  0.143  0.430
 
band     8 # energy   25.23608164 # occ.  0.00000000
 
ion      s      p      d    tot
    1  0.002  0.092  0.226  0.320
 
band     9 # energy   27.40313065 # occ.  0.00000000
 
ion      s      p      d    tot
    1  0.000  0.304  0.104  0.408
 
band    10 # energy   28.76414282 # occ.  0.00000000
 
ion      s      p      d    tot
    1  0.005  0.208  0.165  0.379
 
band    11 # energy   32.68349489 # occ.  0.00000000
 
ion      s      p      d    tot
    1  0.078  0.395  0.020  0.493
 
band    12 # energy   35.22442878 # occ.  0.00000000
 
ion      s      p      d    tot
    1  0.017  0.259  0.200  0.476
 

 k-point    13 :    0.35000000 0.15000000 0.05000000     weight = 0.01200000

band     1 # energy   -0.87276300 # occ.  2.00000000
 
ion      s      p      d    tot
    1  0.481  0.115  0.260  0.855
 
band     2 # energy    1.62224304 # occ.  2.00000000
 
ion      s      p      d    tot
    1  0.049  0.093  0.781  0.923
 
band     3 # energy    2.46968634 # occ.  2.00000000
 
ion      s      p      d    tot
    1  0.002  0.009  0.934  0.945
 
band     4 # energy    3.14738849 # occ.  2.00000000
 
ion      s      p      d    tot
    1  0.002  0.012  0.945  0.958
 
band     5 # energy    4.71989273 # occ.  2.00000000
 
ion      s      p      d    tot
    1  0.028  0.041  0.880  0.950
 
band     6 # energy    5.69530350 # occ.  2.00000000
 
ion      s      p      d    tot
    1  0.026  0.028  0.911  0.965
 
band     7 # energy   19.64576277 # occ.  0.00000000
 
ion      s      p      d    tot
    1  0.161  0.314  0.209  0.684
 
band     8 # energy   24.71807888 # occ.  0.00000000
 
ion      s      p      d    tot
    1  0.000  0.129  0.211  0.340
 
band     9 # energy   26.44904211 # occ.  0.00000000
 
ion      s      p      d    tot
    1  0.017  0.397  0.131  0.546
 
band    10 # energy   29.03167858 # occ.  0.00000000
 
ion      s      p      d    tot
    1  0.030  0.203  0.197  0.431
 
band    11 # energy   33.13032864 # occ.  0.00000000
 
ion      s      p      d    tot
    1  0.026  0.454  0.028  0.508
 
band    12 # energy   34.52148784 # occ.  0.00000000
 
ion      s      p      d    tot
    1  0.011  0.020  0.245  0.276
 

 k-point    14 :    0.45000000 0.15000000 0.05000000     weight = 0.01200000

band     1 # energy   -0.51638436 # occ.  2.00000000
 
ion      s      p      d    tot
    1  0.262  0.048  0.599  0.909
 
band     2 # energy    2.05870135 # occ.  2.00000000
 
ion      s      p      d    tot
    1  0.000  0.016  0.920  0.936
 
band     3 # energy    2.74690130 # occ.  2.00000000
 
ion      s      p      d    tot
    1  0.052  0.150  0.708  0.911
 
band     4 # energy    2.96915809 # occ.  2.00000000
 
ion      s      p      d    tot
    1  0.028  0.075  0.831  0.934
 
band     5 # energy    5.76056432 # occ.  2.00000000
 
ion      s      p      d    tot
    1  0.006  0.024  0.935  0.965
 
band     6 # energy    7.05898533 # occ.  2.00000000
 
ion      s      p      d    tot
    1  0.094  0.162  0.670  0.926
 
band     7 # energy   15.40096617 # occ.  0.00000000
 
ion      s      p      d    tot
    1  0.293  0.266  0.255  0.814
 
band     8 # energy   23.74849736 # occ.  0.00000000
 
ion      s      p      d    tot
    1  0.000  0.070  0.133  0.203
 
band     9 # energy   25.35819574 # occ.  0.00000000
 
ion      s      p      d    tot
    1  0.023  0.479  0.124  0.626
 
band    10 # energy   27.76995713 # occ.  0.00000000
 
ion      s      p      d    tot
    1  0.022  0.410  0.156  0.588
 
band    11 # energy   34.61567219 # occ.  0.00000000
 
ion      s      p      d    tot
    1  0.001  0.071  0.229  0.301
 
band    12 # energy   36.24848821 # occ.  0.00000000
 
ion      s      p      d    tot
    1  0.008  0.050  0.433  0.491
 

 k-point    15 :   -0.45000000 0.15000000 0.05000000     weight = 0.01200000

band     1 # energy   -0.51760097 # occ.  2.00000000
 
ion      s      p      d    tot
    1  0.204  0.028  0.693  0.925
 
band     2 # energy    1.88893211 # occ.  2.00000000
 
ion      s      p      d    tot
    1  0.000  0.014  0.923  0.937
 
band     3 # energy    2.74247404 # occ.  2.00000000
 
ion      s      p      d    tot
    1  0.000  0.007  0.947  0.954
 
band     4 # energy    3.84295021 # occ.  2.00000000
 
ion      s      p      d    tot
    1  0.004  0.260  0.628  0.892
 
band     5 # energy    6.02047989 # occ.  2.00000000
 
ion      s      p      d    tot
    1  0.001  0.001  0.973  0.974
 
band     6 # energy    8.94000272 # occ. -0.00002807
 
ion      s      p      d    tot
    1  0.010  0.449  0.391  0.850
 
band     7 # energy   12.27206559 # occ. -0.00000000
 
ion      s      p      d    tot
    1  0.509  0.027  0.369  0.905
 
band     8 # energy   23.20759811 # occ.  0.00000000
 
ion      s      p      d    tot
    1  0.002  0.076  0.121  0.198
 
band     9 # energy   25.03837267 # occ.  0.00000000
 
ion      s      p      d    tot
    1  0.034  0.469  0.130  0.633
 
band    10 # energy   26.61176376 # occ.  0.00000000
 
ion      s      p      d    tot
    1  0.002  0.468  0.048  0.518
 
band    11 # energy   35.61791250 # occ.  0.00000000
 
ion      s      p      d    tot
    1  0.005  0.006  0.503  0.515
 
band    12 # energy   36.57833823 # occ.  0.00000000
 
ion      s      p      d    tot
    1  0.001  0.004  0.440  0.445
 

 k-point    16 :   -0.35000000 0.15000000 0.05000000     weight = 0.01200000

band     1 # energy   -0.48165517 # occ.  2.00000000
 
ion      s      p      d    tot
    1  0.234  0.040  0.645  0.918
 
band     2 # energy    1.99934262 # occ.  2.00000000
 
ion      s      p      d    tot
    1  0.000  0.011  0.929  0.941
 
band     3 # energy    2.77462036 # occ.  2.00000000
 
ion      s      p      d    tot
    1  0.000  0.009  0.944  0.953
 
band     4 # energy    3.41179331 # occ.  2.00000000
 
ion      s      p      d    tot
    1  0.047  0.265  0.569  0.881
 
band     5 # energy    5.56874557 # occ.  2.00000000
 
ion      s      p      d    tot
    1  0.001  0.012  0.952  0.965
 
band     6 # energy    7.87570218 # occ.  2.01587091
 
ion      s      p      d    tot
    1  0.108  0.210  0.595  0.912
 
band     7 # energy   14.19854032 # occ.  0.00000000
 
ion      s      p      d    tot
    1  0.344  0.214  0.290  0.847
 
band     8 # energy   23.27652423 # occ.  0.00000000
 
ion      s      p      d    tot
    1  0.004  0.143  0.165  0.313
 
band     9 # energy   24.99033457 # occ.  0.00000000
 
ion      s      p      d    tot
    1  0.030  0.392  0.072  0.494
 
band    10 # energy   27.89080232 # occ.  0.00000000
 
ion      s      p      d    tot
    1  0.003  0.466  0.104  0.572
 
band    11 # energy   34.31854145 # occ.  0.00000000
 
ion      s      p      d    tot
    1  0.007  0.036  0.299  0.341
 
band    12 # energy   36.36924954 # occ.  0.00000000
 
ion      s      p      d    tot
    1  0.000  0.013  0.515  0.528
 

 k-point    17 :   -0.25000000 0.15000000 0.05000000     weight = 0.01200000

band     1 # energy   -0.61964881 # occ.  2.00000000
 
ion      s      p      d    tot
    1  0.401  0.096  0.379  0.876
 
band     2 # energy    1.99155599 # occ.  2.00000000
 
ion      s      p      d    tot
    1  0.066  0.122  0.732  0.920
 
band     3 # energy    2.38331422 # occ.  2.00000000
 
ion      s      p      d    tot
    1  0.008  0.047  0.872  0.928
 
band     4 # energy    3.02880109 # occ.  2.00000000
 
ion      s      p      d    tot
    1  0.004  0.010  0.941  0.954
 
band     5 # energy    4.61553453 # occ.  2.00000000
 
ion      s      p      d    tot
    1  0.007  0.017  0.930  0.954
 
band     6 # energy    6.38388509 # occ.  2.00000000
 
ion      s      p      d    tot
    1  0.060  0.057  0.841  0.958
 
band     7 # energy   18.24783208 # occ.  0.00000000
 
ion      s      p      d    tot
    1  0.204  0.307  0.222  0.733
 
band     8 # energy   23.87898105 # occ.  0.00000000
 
ion      s      p      d    tot
    1  0.005  0.213  0.246  0.463
 
band     9 # energy   26.03155873 # occ.  0.00000000
 
ion      s      p      d    tot
    1  0.028  0.320  0.055  0.403
 
band    10 # energy   30.04823633 # occ.  0.00000000
 
ion      s      p      d    tot
    1  0.011  0.265  0.178  0.454
 
band    11 # energy   32.19158290 # occ.  0.00000000
 
ion      s      p      d    tot
    1  0.000  0.245  0.119  0.364
 
band    12 # energy   35.33094298 # occ.  0.00000000
 
ion      s      p      d    tot
    1  0.007  0.106  0.360  0.472
 

 k-point    18 :   -0.15000000 0.15000000 0.05000000     weight = 0.01200000

band     1 # energy   -1.57512103 # occ.  2.00000000
 
ion      s      p      d    tot
    1  0.631  0.122  0.074  0.828
 
band     2 # energy    1.57168209 # occ.  2.00000000
 
ion      s      p      d    tot
    1  0.004  0.033  0.910  0.947
 
band     3 # energy    2.73717118 # occ.  2.00000000
 
ion      s      p      d    tot
    1  0.002  0.020  0.930  0.951
 
band     4 # energy    3.16982277 # occ.  2.00000000
 
ion      s      p      d    tot
    1  0.000  0.004  0.957  0.961
 
band     5 # energy    3.84148041 # occ.  2.00000000
 
ion      s      p      d    tot
    1  0.007  0.009  0.939  0.955
 
band     6 # energy    5.27953068 # occ.  2.00000000
 
ion      s      p      d    tot
    1  0.018  0.016  0.933  0.967
 
band     7 # energy   22.16271410 # occ.  0.00000000
 
ion      s      p      d    tot
    1  0.111  0.239  0.152  0.501
 
band     8 # energy   24.64540237 # occ.  0.00000000
 
ion      s      p      d    tot
    1  0.002  0.208  0.303  0.513
 
band     9 # energy   27.81431626 # occ.  0.00000000
 
ion      s      p      d    tot
    1  0.007  0.249  0.049  0.305
 
band    10 # energy   28.93872541 # occ.  0.00000000
 
ion      s      p      d    tot
    1  0.023  0.197  0.085  0.305
 
band    11 # energy   33.03114724 # occ.  0.00000000
 
ion      s      p      d    tot
    1  0.010  0.074  0.188  0.272
 
band    12 # energy   34.82556451 # occ.  0.00000000
 
ion      s      p      d    tot
    1  0.017  0.592  0.151  0.760
 

 k-point    19 :   -0.05000000 0.15000000 0.05000000     weight = 0.01200000

band     1 # energy   -2.68506152 # occ.  2.00000000
 
ion      s      p      d    tot
    1  0.733  0.069  0.015  0.818
 
band     2 # energy    1.85428460 # occ.  2.00000000
 
ion      s      p      d    tot
    1  0.001  0.012  0.943  0.957
 
band     3 # energy    2.76793042 # occ.  2.00000000
 
ion      s      p      d    tot
    1  0.001  0.011  0.951  0.964
 
band     4 # energy    2.78402831 # occ.  2.00000000
 
ion      s      p      d    tot
    1  0.000  0.005  0.961  0.966
 
band     5 # energy    3.98250602 # occ.  2.00000000
 
ion      s      p      d    tot
    1  0.003  0.002  0.957  0.962
 
band     6 # energy    4.64702265 # occ.  2.00000000
 
ion      s      p      d    tot
    1  0.001  0.002  0.969  0.971
 
band     7 # energy   24.37686031 # occ.  0.00000000
 
ion      s      p      d    tot
    1  0.044  0.155  0.137  0.335
 
band     8 # energy   24.82099789 # occ.  0.00000000
 
ion      s      p      d    tot
    1  0.014  0.034  0.084  0.131
 
band     9 # energy   28.01115410 # occ.  0.00000000
 
ion      s      p      d    tot
    1  0.000  0.290  0.089  0.379
 
band    10 # energy   29.86610437 # occ.  0.00000000
 
ion      s      p      d    tot
    1  0.000  0.183  0.115  0.298
 
band    11 # energy   32.94287153 # occ.  0.00000000
 
ion      s      p      d    tot
    1  0.024  0.318  0.123  0.464
 
band    12 # energy   36.16054439 # occ.  0.00000000
 
ion      s      p      d    tot
    1  0.001  0.187  0.222  0.410
 

 k-point    20 :    0.25000000 0.25000000 0.05000000     weight = 0.00600000

band     1 # energy   -1.36782808 # occ.  2.00000000
 
ion      s      p      d    tot
    1  0.589  0.137  0.099  0.825
 
band     2 # energy    1.04228561 # occ.  2.00000000
 
ion      s      p      d    tot
    1  0.000  0.003  0.949  0.952
 