<?xml version="1.0" encoding="ISO-8859-1"?>
<modeling>
 <generator>
  <i name="program" type="string">vasp </i>
  <i name="version" type="string">5.4.4.18Apr17-6-g9f103f2a35  </i>
  <i name="subversion" type="string">(build May 18 2018 14:42:58) complex            parallel </i>
  <i name="platform" type="string">LinuxIFC </i>
  <i name="date" type="string">2020 06 30 </i>
  <i name="time" type="string">13:40:34 </i>
 </generator>
 <incar>
  <i type="string" name="SYSTEM"> fcc Au</i>
  <i type="string" name="PREC">normal</i>
  <v name="RWIGS">      1.50300000</v>
  <v type="int" name="KPOINT_BSE">    -1     0     0     0</v>
 </incar>
 <structure name="primitive_cell" >
  <crystal>
   <varray name="basis" >
    <v>       0.00000000       1.92500000       1.92500000 </v>
    <v>       1.92500000       0.00000000       1.92500000 </v>
    <v>       1.92500000       1.92500000       0.00000000 </v>
   </varray>
   <i name="volume">     14.26665625 </i>
   <varray name="rec_basis" >
    <v>      -0.25974026       0.25974026       0.25974026 </v>
    <v>       0.25974026      -0.25974026       0.25974026 </v>
    <v>       0.25974026       0.25974026      -0.25974026 </v>
   </varray>
  </crystal>
  <varray name="positions" >
   <v>       0.00000000       0.00000000       0.00000000 </v>
  </varray>
 </structure>
 <varray name="primitive_index" >
  <v type="int" >        1 </v>
 </varray>
 <kpoints>
  <generation param="Monkhorst-Pack">
   <v type="int" name="divisions">      10       10       10 </v>
   <v name="usershift">      0.00000000       0.00000000       0.00000000 </v>
   <v name="genvec1">      0.10000000       0.00000000       0.00000000 </v>
   <v name="genvec2">      0.00000000       0.10000000       0.00000000 </v>
   <v name="genvec3">      0.00000000       0.00000000       0.10000000 </v>
   <v name="shift">      0.50000000       0.50000000       0.50000000 </v>
  </generation>
  <varray name="kpointlist" >
   <v>       0.05000000       0.05000000       0.05000000 </v>
   <v>       0.15000000       0.05000000       0.05000000 </v>
   <v>       0.25000000       0.05000000       0.05000000 </v>
   <v>       0.35000000       0.05000000       0.05000000 </v>
   <v>       0.45000000       0.05000000       0.05000000 </v>
   <v>      -0.45000000       0.05000000       0.05000000 </v>
   <v>      -0.35000000       0.05000000       0.05000000 </v>
   <v>      -0.25000000       0.05000000       0.05000000 </v>
   <v>      -0.15000000       0.05000000       0.05000000 </v>
   <v>      -0.05000000       0.05000000       0.05000000 </v>
   <v>       0.15000000       0.15000000       0.05000000 </v>
   <v>       0.25000000       0.15000000       0.05000000 </v>
   <v>       0.35000000       0.15000000       0.05000000 </v>
   <v>       0.45000000       0.15000000       0.05000000 </v>
   <v>      -0.45000000       0.15000000       0.05000000 </v>
   <v>      -0.35000000       0.15000000       0.05000000 </v>
   <v>      -0.25000000       0.15000000       0.05000000 </v>
   <v>      -0.15000000       0.15000000       0.05000000 </v>
   <v>      -0.05000000       0.15000000       0.05000000 </v>
   <v>       0.25000000       0.25000000       0.05000000 </v>
   <v>       0.35000000       0.25000000       0.05000000 </v>
   <v>       0.45000000       0.25000000       0.05000000 </v>
   <v>      -0.45000000       0.25000000       0.05000000 </v>
   <v>      -0.35000000       0.25000000       0.05000000 </v>
   <v>      -0.25000000       0.25000000       0.05000000 </v>
   <v>      -0.15000000       0.25000000       0.05000000 </v>
   <v>      -0.05000000       0.25000000       0.05000000 </v>
   <v>       0.35000000       0.35000000       0.05000000 </v>
   <v>       0.45000000       0.35000000       0.05000000 </v>
   <v>      -0.45000000       0.35000000       0.05000000 </v>
   <v>      -0.35000000       0.35000000       0.05000000 </v>
   <v>      -0.25000000       0.35000000       0.05000000 </v>
   <v>      -0.15000000       0.35000000       0.05000000 </v>
   <v>      -0.05000000       0.35000000       0.05000000 </v>
   <v>       0.45000000       0.45000000       0.05000000 </v>
   <v>      -0.45000000       0.45000000       0.05000000 </v>
   <v>      -0.35000000       0.45000000       0.05000000 </v>
   <v>      -0.25000000       0.45000000       0.05000000 </v>
   <v>      -0.15000000       0.45000000       0.05000000 </v>
   <v>      -0.05000000       0.45000000       0.05000000 </v>
   <v>      -0.45000000      -0.45000000       0.05000000 </v>
   <v>      -0.35000000      -0.45000000       0.05000000 </v>
   <v>      -0.25000000      -0.45000000       0.05000000 </v>
   <v>      -0.15000000      -0.45000000       0.05000000 </v>
   <v>      -0.35000000      -0.35000000       0.05000000 </v>
   <v>      -0.25000000      -0.35000000       0.05000000 </v>
   <v>      -0.15000000      -0.35000000       0.05000000 </v>
   <v>      -0.25000000      -0.25000000       0.05000000 </v>
   <v>      -0.15000000      -0.25000000       0.05000000 </v>
   <v>      -0.15000000      -0.15000000       0.05000000 </v>
   <v>       0.15000000       0.15000000       0.15000000 </v>
   <v>       0.25000000       0.15000000       0.15000000 </v>
   <v>       0.35000000       0.15000000       0.15000000 </v>
   <v>       0.45000000       0.15000000       0.15000000 </v>
   <v>      -0.45000000       0.15000000       0.15000000 </v>
   <v>      -0.35000000       0.15000000       0.15000000 </v>
   <v>      -0.25000000       0.15000000       0.15000000 </v>
   <v>      -0.15000000       0.15000000       0.15000000 </v>
   <v>       0.25000000       0.25000000       0.15000000 </v>
   <v>       0.35000000       0.25000000       0.15000000 </v>
   <v>       0.45000000       0.25000000       0.15000000 </v>
   <v>      -0.45000000       0.25000000       0.15000000 </v>
   <v>      -0.35000000       0.25000000       0.15000000 </v>
   <v>      -0.25000000       0.25000000       0.15000000 </v>
   <v>      -0.15000000       0.25000000       0.15000000 </v>
   <v>       0.35000000       0.35000000       0.15000000 </v>
   <v>       0.45000000       0.35000000       0.15000000 </v>
   <v>      -0.45000000       0.35000000       0.15000000 </v>
   <v>      -0.35000000       0.35000000       0.15000000 </v>
   <v>      -0.25000000       0.35000000       0.15000000 </v>
   <v>      -0.15000000       0.35000000       0.15000000 </v>
   <v>       0.45000000       0.45000000       0.15000000 </v>
   <v>      -0.45000000       0.45000000       0.15000000 </v>
   <v>      -0.35000000       0.45000000       0.15000000 </v>
   <v>      -0.25000000       0.45000000       0.15000000 </v>
   <v>      -0.15000000       0.45000000       0.15000000 </v>
   <v>      -0.45000000      -0.45000000       0.15000000 </v>
   <v>      -0.35000000      -0.45000000       0.15000000 </v>
   <v>      -0.25000000      -0.45000000       0.15000000 </v>
   <v>      -0.35000000      -0.35000000       0.15000000 </v>
   <v>      -0.25000000      -0.35000000       0.15000000 </v>
   <v>      -0.25000000      -0.25000000       0.15000000 </v>
   <v>       0.25000000       0.25000000       0.25000000 </v>
   <v>       0.35000000       0.25000000       0.25000000 </v>
   <v>       0.45000000       0.25000000       0.25000000 </v>
   <v>      -0.45000000       0.25000000       0.25000000 </v>
   <v>      -0.35000000       0.25000000       0.25000000 </v>
   <v>      -0.25000000       0.25000000       0.25000000 </v>
   <v>       0.35000000       0.35000000       0.25000000 </v>
   <v>       0.45000000       0.35000000       0.25000000 </v>
   <v>      -0.45000000       0.35000000       0.25000000 </v>
   <v>      -0.35000000       0.35000000       0.25000000 </v>
   <v>      -0.25000000       0.35000000       0.25000000 </v>
   <v>       0.45000000       0.45000000       0.25000000 </v>
   <v>      -0.45000000       0.45000000       0.25000000 </v>
   <v>      -0.35000000       0.45000000       0.25000000 </v>
   <v>      -0.25000000       0.45000000       0.25000000 </v>
   <v>      -0.45000000      -0.45000000       0.25000000 </v>
   <v>      -0.35000000      -0.45000000       0.25000000 </v>
   <v>      -0.35000000      -0.35000000       0.25000000 </v>
   <v>       0.35000000       0.35000000       0.35000000 </v>
   <v>       0.45000000       0.35000000       0.35000000 </v>
   <v>      -0.45000000       0.35000000       0.35000000 </v>
   <v>      -0.35000000       0.35000000       0.35000000 </v>
   <v>       0.45000000       0.45000000       0.35000000 </v>
   <v>      -0.45000000       0.45000000       0.35000000 </v>
   <v>      -0.35000000       0.45000000       0.35000000 </v>
   <v>      -0.45000000      -0.45000000       0.35000000 </v>
   <v>       0.45000000       0.45000000       0.45000000 </v>
   <v>      -0.45000000       0.45000000       0.45000000 </v>
  </varray>
  <varray name="weights" >
   <v>       0.00200000 </v>
   <v>       0.00600000 </v>
   <v>       0.00600000 </v>
   <v>       0.00600000 </v>
   <v>       0.00600000 </v>
   <v>       0.00600000 </v>
   <v>       0.00600000 </v>
   <v>       0.00600000 </v>
   <v>       0.00600000 </v>
   <v>       0.00600000 </v>
   <v>       0.00600000 </v>
   <v>       0.01200000 </v>
   <v>       0.01200000 </v>
   <v>       0.01200000 </v>
   <v>       0.01200000 </v>
   <v>       0.01200000 </v>
   <v>       0.01200000 </v>
   <v>       0.01200000 </v>
   <v>       0.01200000 </v>
   <v>       0.00600000 </v>
   <v>       0.01200000 </v>
   <v>       0.01200000 </v>
   <v>       0.01200000 </v>
   <v>       0.01200000 </v>
   <v>       0.01200000 </v>
   <v>       0.01200000 </v>
   <v>       0.01200000 </v>
   <v>       0.00600000 </v>
   <v>       0.01200000 </v>
   <v>       0.01200000 </v>
   <v>       0.01200000 </v>
   <v>       0.01200000 </v>
   <v>       0.01200000 </v>
   <v>       0.01200000 </v>
   <v>       0.00600000 </v>
   <v>       0.01200000 </v>
   <v>       0.01200000 </v>
   <v>       0.01200000 </v>
   <v>       0.01200000 </v>
   <v>       0.01200000 </v>
   <v>       0.00600000 </v>
   <v>       0.01200000 </v>
   <v>       0.01200000 </v>
   <v>       0.01200000 </v>
   <v>       0.00600000 </v>
   <v>       0.01200000 </v>
   <v>       0.01200000 </v>
   <v>       0.00600000 </v>
   <v>       0.01200000 </v>
   <v>       0.00600000 </v>
   <v>       0.00200000 </v>
   <v>       0.00600000 </v>
   <v>       0.00600000 </v>
   <v>       0.00600000 </v>
   <v>       0.00600000 </v>
   <v>       0.00600000 </v>
   <v>       0.00600000 </v>
   <v>       0.00600000 </v>
   <v>       0.00600000 </v>
   <v>       0.01200000 </v>
   <v>       0.01200000 </v>
   <v>       0.01200000 </v>
   <v>       0.01200000 </v>
   <v>       0.01200000 </v>
   <v>       0.01200000 </v>
   <v>       0.00600000 </v>
   <v>       0.01200000 </v>
   <v>       0.01200000 </v>
   <v>       0.01200000 </v>
   <v>       0.01200000 </v>
   <v>       0.01200000 </v>
   <v>       0.00600000 </v>
   <v>       0.01200000 </v>
   <v>       0.01200000 </v>
   <v>       0.01200000 </v>
   <v>       0.01200000 </v>
   <v>       0.00600000 </v>
   <v>       0.01200000 </v>
   <v>       0.01200000 </v>
   <v>       0.00600000 </v>
   <v>       0.01200000 </v>
   <v>       0.00600000 </v>
   <v>       0.00200000 </v>
   <v>       0.00600000 </v>
   <v>       0.00600000 </v>
   <v>       0.00600000 </v>
   <v>       0.00600000 </v>
   <v>       0.00600000 </v>
   <v>       0.00600000 </v>
   <v>       0.01200000 </v>
   <v>       0.01200000 </v>
   <v>       0.01200000 </v>
   <v>       0.01200000 </v>
   <v>       0.00600000 </v>
   <v>       0.01200000 </v>
   <v>       0.01200000 </v>
   <v>       0.01200000 </v>
   <v>       0.00600000 </v>
   <v>       0.01200000 </v>
   <v>       0.00600000 </v>
   <v>       0.00200000 </v>
   <v>       0.00600000 </v>
   <v>       0.00600000 </v>
   <v>       0.00600000 </v>
   <v>       0.00600000 </v>
   <v>       0.01200000 </v>
   <v>       0.01200000 </v>
   <v>       0.00600000 </v>
   <v>       0.00200000 </v>
   <v>       0.00600000 </v>
  </varray>
 </kpoints>
 <parameters>
  <separator name="general" >
   <i type="string" name="SYSTEM">fcc Au</i>
   <i type="logical" name="LCOMPAT"> F  </i>
  </separator>
  <separator name="electronic" >
   <i type="string" name="PREC">normal</i>
   <i name="ENMAX">    229.86900000</i>
   <i name="ENAUG">    356.67000000</i>
   <i name="EDIFF">      0.00010000</i>
   <i type="int" name="IALGO">    38</i>
   <i type="int" name="IWAVPR">    10</i>
   <i type="int" name="NBANDS">    12</i>
   <i name="NELECT">     11.00000000</i>
   <i type="int" name="TURBO">     0</i>
   <i type="int" name="IRESTART">     0</i>
   <i type="int" name="NREBOOT">     0</i>
   <i type="int" name="NMIN">     0</i>
   <i name="EREF">      0.00000000</i>
   <separator name="electronic smearing" >
    <i type="int" name="ISMEAR">     1</i>
    <i name="SIGMA">      0.20000000</i>
    <i name="KSPACING">      0.50000000</i>
    <i type="logical" name="KGAMMA"> T  </i>
   </separator>
   <separator name="electronic projectors" >
    <i type="logical" name="LREAL"> F  </i>
    <v name="ROPT">      0.00000000</v>
    <i type="int" name="LMAXPAW">  -100</i>
    <i type="int" name="LMAXMIX">     2</i>
    <i type="logical" name="NLSPLINE"> F  </i>
   </separator>
   <separator name="electronic startup" >
    <i type="int" name="ISTART">     0</i>
    <i type="int" name="ICHARG">     2</i>
    <i type="int" name="INIWAV">     1</i>
   </separator>
   <separator name="electronic spin" >
    <i type="int" name="ISPIN">     1</i>
    <i type="logical" name="LNONCOLLINEAR"> F  </i>
    <v name="MAGMOM">      1.00000000</v>
    <i name="NUPDOWN">     -1.00000000</i>
    <i type="logical" name="LSORBIT"> F  </i>
    <v name="SAXIS">      0.00000000      0.00000000      1.00000000</v>
    <i type="logical" name="LSPIRAL"> F  </i>
    <v name="QSPIRAL">      0.00000000      0.00000000      0.00000000</v>
    <i type="logical" name="LZEROZ"> F  </i>
   </separator>
   <separator name="electronic exchange-correlation" >
    <i type="logical" name="LASPH"> F  </i>
    <i type="logical" name="LMETAGGA"> F  </i>
   </separator>
   <separator name="electronic convergence" >
    <i type="int" name="NELM">    60</i>
    <i type="int" name="NELMDL">    -5</i>
    <i type="int" name="NELMIN">     2</i>
    <i name="ENINI">    229.86900000</i>
    <separator name="electronic convergence detail" >
     <i type="logical" name="LDIAG"> T  </i>
     <i type="logical" name="LSUBROT"> F  </i>
     <i name="WEIMIN">      0.00000000</i>
     <i name="EBREAK">      0.00000208</i>
     <i name="DEPER">      0.30000000</i>
     <i type="int" name="NRMM">     4</i>
     <i name="TIME">      0.40000000</i>
    </separator>
   </separator>
   <separator name="electronic mixer" >
    <i name="AMIX">      0.40000000</i>
    <i name="BMIX">      1.00000000</i>
    <i name="AMIN">      0.10000000</i>
    <i name="AMIX_MAG">      1.60000000</i>
    <i name="BMIX_MAG">      1.00000000</i>
    <separator name="electronic mixer details" >
     <i type="int" name="IMIX">     4</i>
     <i type="logical" name="MIXFIRST"> F  </i>
     <i type="int" name="MAXMIX">   -45</i>
     <i name="WC">    100.00000000</i>
     <i type="int" name="INIMIX">     1</i>
     <i type="int" name="MIXPRE">     1</i>
     <i type="int" name="MREMOVE">     5</i>
    </separator>
   </separator>
   <separator name="electronic dipolcorrection" >
    <i type="logical" name="LDIPOL"> F  </i>
    <i type="logical" name="LMONO"> F  </i>
    <i type="int" name="IDIPOL">     0</i>
    <i name="EPSILON">      1.00000000</i>
    <v name="DIPOL">   -100.00000000   -100.00000000   -100.00000000</v>
    <i name="EFIELD">      0.00000000</i>
   </separator>
  </separator>
  <separator name="grids" >
   <i type="int" name="NGX">    10</i>
   <i type="int" name="NGY">    10</i>
   <i type="int" name="NGZ">    10</i>
   <i type="int" name="NGXF">    20</i>
   <i type="int" name="NGYF">    20</i>
   <i type="int" name="NGZF">    20</i>
   <i type="logical" name="ADDGRID"> F  </i>
  </separator>
  <separator name="ionic" >
   <i type="int" name="NSW">     0</i>
   <i type="int" name="IBRION">    -1</i>
   <i type="int" name="MDALGO">     0</i>
   <i type="int" name="ISIF">     2</i>
   <i name="PSTRESS">      0.00000000</i>
   <i name="EDIFFG">      0.00100000</i>
   <i type="int" name="NFREE">     0</i>
   <i name="POTIM">      0.50000000</i>
   <i name="SMASS">     -3.00000000</i>
   <i name="SCALEE">      1.00000000</i>
  </separator>
  <separator name="ionic md" >
   <i name="TEBEG">      0.00010000</i>
   <i name="TEEND">      0.00010000</i>
   <i type="int" name="NBLOCK">     1</i>
   <i type="int" name="KBLOCK">     1</i>
   <i type="int" name="NPACO">   256</i>
   <i name="APACO">     16.00000000</i>
  </separator>
  <separator name="symmetry" >
   <i type="int" name="ISYM">     2</i>
   <i name="SYMPREC">      0.00001000</i>
  </separator>
  <separator name="dos" >
   <i type="int" name="LORBIT">     0</i>
   <v name="RWIGS">      1.50300000</v>
   <i type="int" name="NEDOS">   301</i>
   <i name="EMIN">     10.00000000</i>
   <i name="EMAX">    -10.00000000</i>
   <i name="EFERMI">      0.00000000</i>
  </separator>
  <separator name="writing" >
   <i type="int" name="NWRITE">     2</i>
   <i type="logical" name="LWAVE"> T  </i>
   <i type="logical" name="LDOWNSAMPLE"> F  </i>
   <i type="logical" name="LCHARG"> T  </i>
   <i type="logical" name="LPARD"> F  </i>
   <i type="logical" name="LVTOT"> F  </i>
   <i type="logical" name="LVHAR"> F  </i>
   <i type="logical" name="LELF"> F  </i>
   <i type="logical" name="LOPTICS"> F  </i>
   <v name="STM">      0.00000000      0.00000000      0.00000000      0.00000000      0.00000000      0.00000000      0.00000000</v>
  </separator>
  <separator name="performance" >
   <i type="int" name="NPAR">     4</i>
   <i type="int" name="NSIM">     4</i>
   <i type="int" name="NBLK">    -1</i>
   <i type="logical" name="LPLANE"> T  </i>
   <i type="logical" name="LSCALAPACK"> T  </i>
   <i type="logical" name="LSCAAWARE"> F  </i>
   <i type="logical" name="LSCALU"> F  </i>
   <i type="logical" name="LASYNC"> F  </i>
   <i type="logical" name="LORBITALREAL"> F  </i>
  </separator>
  <separator name="miscellaneous" >
   <i type="int" name="IDIOT">     3</i>
   <i type="int" name="ISPECIAL">     0</i>
   <i type="logical" name="LMUSIC"> F  </i>
   <v name="POMASS">    196.96600000</v>
   <v name="DARWINR">      0.00000000</v>
   <v name="DARWINV">      1.00000000</v>
   <i type="logical" name="LCORR"> T  </i>
  </separator>
  <i type="logical" name="GGA_COMPAT"> T  </i>
  <i type="logical" name="LBERRY"> F  </i>
  <i type="int" name="ICORELEVEL">     0</i>
  <i type="logical" name="LDAU"> F  </i>
  <i type="int" name="I_CONSTRAINED_M">     0</i>
  <separator name="electronic exchange-correlation" >
   <i type="string" name="GGA">--</i>
   <i type="int" name="VOSKOWN">     0</i>
   <i type="logical" name="LHFCALC"> F  </i>
   <i type="string" name="PRECFOCK"></i>
   <i type="logical" name="LSYMGRAD"> F  </i>
   <i type="logical" name="LHFONE"> F  </i>
   <i type="logical" name="LRHFCALC"> F  </i>
   <i type="logical" name="LTHOMAS"> F  </i>
   <i type="logical" name="LMODELHF"> F  </i>
   <i name="ENCUT4O">     -1.00000000</i>
   <i type="int" name="EXXOEP">     0</i>
   <i type="int" name="FOURORBIT">     0</i>
   <i name="AEXX">      0.00000000</i>
   <i name="HFALPHA">      0.00000000</i>
   <i name="MCALPHA">      0.00000000</i>
   <i name="ALDAX">      1.00000000</i>
   <i name="AGGAX">      1.00000000</i>
   <i name="ALDAC">      1.00000000</i>
   <i name="AGGAC">      1.00000000</i>
   <i type="int" name="NKREDX">     1</i>
   <i type="int" name="NKREDY">     1</i>
   <i type="int" name="NKREDZ">     1</i>
   <i type="logical" name="SHIFTRED"> F  </i>
   <i type="logical" name="ODDONLY"> F  </i>
   <i type="logical" name="EVENONLY"> F  </i>
   <i type="int" name="LMAXFOCK">     0</i>
   <i type="int" name="NMAXFOCKAE">     0</i>
   <i type="logical" name="LFOCKAEDFT"> F  </i>
   <i name="HFSCREEN">      0.00000000</i>
   <i name="HFSCREENC">      0.00000000</i>
   <i type="int" name="NBANDSGWLOW">     0</i>
  </separator>
  <separator name="vdW DFT" >
   <i type="logical" name="LUSE_VDW"> F  </i>
   <i name="Zab_VDW">     -0.84910000</i>
   <i name="PARAM1">      0.12340000</i>
   <i name="PARAM2">      1.00000000</i>
   <i name="PARAM3">      0.00000000</i>
  </separator>
  <separator name="model GW" >
   <i type="int" name="MODEL_GW">     0</i>
   <i name="MODEL_EPS0">      8.55999375</i>
   <i name="MODEL_ALPHA">      1.00000000</i>
  </separator>
  <separator name="linear response parameters" >
   <i type="logical" name="LEPSILON"> F  </i>
   <i type="logical" name="LRPA"> F  </i>
   <i type="logical" name="LNABLA"> F  </i>
   <i type="logical" name="LVEL"> F  </i>
   <i type="int" name="KINTER">     0</i>
   <i name="CSHIFT">      0.10000000</i>
   <i name="OMEGAMAX">     -1.00000000</i>
   <i name="DEG_THRESHOLD">      0.00200000</i>
   <i name="RTIME">     -0.10000000</i>
   <i name="WPLASMAI">      0.00000000</i>
   <v name="DFIELD">      0.00000000      0.00000000      0.00000000</v>
   <v name="WPLASMA">      0.00000000      0.00000000      0.00000000      0.00000000      0.00000000      0.00000000      0.00000000      0.00000000      0.00000000</v>
  </separator>
  <separator name="orbital magnetization" >
   <i type="logical" name="NUCIND"> F  </i>
   <v name="MAGPOS">      0.00000000      0.00000000      0.00000000</v>
   <i type="logical" name="LNICSALL"> T  </i>
   <i type="logical" name="ORBITALMAG"> F  </i>
   <i type="logical" name="LMAGBLOCH"> F  </i>
   <i type="logical" name="LCHIMAG"> F  </i>
   <i type="logical" name="LGAUGE"> T  </i>
   <i type="int" name="MAGATOM">     0</i>
   <v name="MAGDIPOL">      0.00000000      0.00000000      0.00000000</v>
   <v name="AVECCONST">      0.00000000      0.00000000      0.00000000</v>
  </separator>
  <separator name="response functions" >
   <i type="logical" name="LADDER"> F  </i>
   <i type="logical" name="LRPAFORCE"> F  </i>
   <i type="logical" name="LFXC"> F  </i>
   <i type="logical" name="LHARTREE"> T  </i>
   <i type="int" name="IBSE">     0</i>
   <v type="int" name="KPOINT">    -1     0     0     0</v>
   <i type="logical" name="LTCTE"> F  </i>
   <i type="logical" name="LTETE"> F  </i>
   <i type="logical" name="LTRIPLET"> F  </i>
   <i type="logical" name="LFXCEPS"> F  </i>
   <i type="logical" name="LFXHEG"> F  </i>
   <i type="int" name="NATURALO">     2</i>
   <i type="logical" name="L2ORDER"> F  </i>
   <i type="logical" name="LMP2LT"> F  </i>
   <i type="logical" name="LUSEW"> F  </i>
   <i name="ENCUTGW">     -2.00000000</i>
   <i name="ENCUTGWSOFT">     -2.00000000</i>
   <i name="ENCUTLF">     -1.00000000</i>
   <i type="int" name="LMAXMP2">    -1</i>
   <i name="SCISSOR">      0.00000000</i>
   <i type="int" name="NOMEGA">     0</i>
   <i type="int" name="NOMEGAR">     0</i>
   <i type="int" name="NBANDSGW">    -1</i>
   <i type="int" name="NBANDSO">    -1</i>
   <i type="int" name="NBANDSV">    -1</i>
   <i type="int" name="NELM">     1</i>
   <i type="int" name="NELMHF">     1</i>
   <i type="int" name="DIM">     3</i>
   <i type="int" name="ANTIRES">     0</i>
   <i name="OMEGAMAX">    -30.00000000</i>
   <i name="OMEGAMIN">    -30.00000000</i>
   <i name="OMEGATL">   -200.00000000</i>
   <i type="int" name="OMEGAGRID">   140</i>
   <i name="CSHIFT">     -0.10000000</i>
   <i type="logical" name="SELFENERGY"> F  </i>
   <i type="logical" name="LSPECTRAL"> F  </i>
   <i type="logical" name="LSPECTRALGW"> F  </i>
   <i type="logical" name="LSINGLES"> F  </i>
   <i type="logical" name="LFERMIGW"> F  </i>
   <i type="logical" name="ODDONLYGW"> F  </i>
   <i type="logical" name="EVENONLYGW"> F  </i>
   <i type="int" name="NKREDLFX">     1</i>
   <i type="int" name="NKREDLFY">     1</i>
   <i type="int" name="NKREDLFZ">     1</i>
   <i type="int" name="MAXMEM">  2800</i>
   <i type="int" name="TELESCOPE">     0</i>
   <i type="int" name="TAUPAR">     1</i>
   <i type="int" name="OMEGAPAR">    -1</i>
   <i name="LAMBDA">      1.00000000</i>
  </separator>
  <separator name="External order field" >
   <i name="OFIELD_KAPPA">      0.00000000</i>
   <v name="OFIELD_K">      0.00000000      0.00000000      0.00000000</v>
   <i name="OFIELD_Q6_NEAR">      0.00000000</i>
   <i name="OFIELD_Q6_FAR">      0.00000000</i>
   <i name="OFIELD_A">      0.00000000</i>
  </separator>
 </parameters>
 <atominfo>
  <atoms>       1 </atoms>
  <types>       1 </types>
  <array name="atoms" >
   <dimension dim="1">ion</dimension>
   <field type="string">element</field>
   <field type="int">atomtype</field>
   <set>
    <rc><c>Au</c><c>   1</c></rc>
   </set>
  </array>
  <array name="atomtypes" >
   <dimension dim="1">type</dimension>
   <field type="int">atomspertype</field>
   <field type="string">element</field>
   <field>mass</field>
   <field>valence</field>
   <field type="string">pseudopotential</field>
   <set>
    <rc><c>   1</c><c>Au</c><c>    196.96600000</c><c>     11.00000000</c><c> PAW Au 04Feb1998                       </c></rc>
   </set>
  </array>
 </atominfo>
 <structure name="initialpos" >
  <crystal>
   <varray name="basis" >
    <v>       0.00000000       1.92500000       1.92500000 </v>
    <v>       1.92500000       0.00000000       1.92500000 </v>
    <v>       1.92500000       1.92500000       0.00000000 </v>
   </varray>
   <i name="volume">     14.26665625 </i>
   <varray name="rec_basis" >
    <v>      -0.25974026       0.25974026       0.25974026 </v>
    <v>       0.25974026      -0.25974026       0.25974026 </v>
    <v>       0.25974026       0.25974026      -0.25974026 </v>
   </varray>
  </crystal>
  <varray name="positions" >
   <v>       0.00000000       0.00000000       0.00000000 </v>
  </varray>
 </structure>
 <calculation>
  <scstep>
   <time name="dav">    0.26    0.27</time>
   <time name="total">    0.26    0.28</time>
   <energy>
    <i name="alphaZ">    128.82341228 </i>
    <i name="ewald">  -1037.47345503 </i>
    <i name="hartreedc">   -100.98065536 </i>
    <i name="XCdc">     16.92145349 </i>
    <i name="pawpsdc">    746.10209728 </i>
    <i name="pawaedc">   -725.46159323 </i>
    <i name="eentropy">     -0.00121433 </i>
    <i name="bandstr">     72.93274928 </i>
    <i name="atom">    929.39614979 </i>
    <i name="e_fr_energy">     30.25894419 </i>
    <i name="e_wo_entrp">     30.26015851 </i>
    <i name="e_0_energy">     30.25934896 </i>
   </energy>
  </scstep>
  <scstep>
   <time name="dav">    0.22    0.23</time>
   <time name="total">    0.23    0.23</time>
   <energy>
    <i name="e_fr_energy">     -4.09617507 </i>
    <i name="e_wo_entrp">     -4.09531299 </i>
    <i name="e_0_energy">     -4.09588771 </i>
   </energy>
  </scstep>
  <scstep>
   <time name="dav">    0.24    0.24</time>
   <time name="total">    0.24    0.24</time>
   <energy>
    <i name="e_fr_energy">     -4.37708507 </i>
    <i name="e_wo_entrp">     -4.37636658 </i>
    <i name="e_0_energy">     -4.37684557 </i>
   </energy>
  </scstep>
  <scstep>
   <time name="dav">    0.25    0.26</time>
   <time name="total">    0.25    0.26</time>
   <energy>
    <i name="e_fr_energy">     -4.37779034 </i>
    <i name="e_wo_entrp">     -4.37707221 </i>
    <i name="e_0_energy">     -4.37755096 </i>
   </energy>
  </scstep>
  <scstep>
   <time name="dav">    0.25    0.25</time>
   <time name="total">    0.25    0.26</time>
   <energy>
    <i name="e_fr_energy">     -4.37779461 </i>
    <i name="e_wo_entrp">     -4.37707648 </i>
    <i name="e_0_energy">     -4.37755523 </i>
   </energy>
  </scstep>
  <scstep>
   <time name="dav">    0.25    0.26</time>
   <time name="total">    0.26    0.27</time>
   <energy>
    <i name="e_fr_energy">     -4.12313136 </i>
    <i name="e_wo_entrp">     -4.12262959 </i>
    <i name="e_0_energy">     -4.12296410 </i>
   </energy>
  </scstep>
  <scstep>
   <time name="dav">    0.23    0.24</time>
   <time name="total">    0.24    0.25</time>
   <energy>
    <i name="e_fr_energy">     -4.08349633 </i>
    <i name="e_wo_entrp">     -4.08306597 </i>
    <i name="e_0_energy">     -4.08335288 </i>
   </energy>
  </scstep>
  <scstep>
   <time name="dav">    0.22    0.22</time>
   <time name="total">    0.23    0.23</time>
   <energy>
    <i name="e_fr_energy">     -4.07719955 </i>
    <i name="e_wo_entrp">     -4.07677872 </i>
    <i name="e_0_energy">     -4.07705928 </i>
   </energy>
  </scstep>
  <scstep>
   <time name="dav">    0.16    0.17</time>
   <time name="total">    0.16    0.17</time>
   <energy>
    <i name="alphaZ">    128.82341228 </i>
    <i name="ewald">  -1037.47345503 </i>
    <i name="hartreedc">    -90.27780963 </i>
    <i name="XCdc">     16.36974582 </i>
    <i name="pawpsdc">    789.03014378 </i>
    <i name="pawaedc">   -772.32362328 </i>
    <i name="eentropy">     -0.00041914 </i>
    <i name="bandstr">     32.37867564 </i>
    <i name="atom">    929.39614979 </i>
    <i name="e_fr_energy">     -4.07717977 </i>
    <i name="e_wo_entrp">     -4.07676063 </i>
    <i name="e_0_energy">     -4.07704005 </i>
   </energy>
  </scstep>
  <structure>
   <crystal>
    <varray name="basis" >
     <v>       0.00000000       1.92500000       1.92500000 </v>
     <v>       1.92500000       0.00000000       1.92500000 </v>
     <v>       1.92500000       1.92500000       0.00000000 </v>
    </varray>
    <i name="volume">     14.26665625 </i>
    <varray name="rec_basis" >
     <v>      -0.25974026       0.25974026       0.25974026 </v>
     <v>       0.25974026      -0.25974026       0.25974026 </v>
     <v>       0.25974026       0.25974026      -0.25974026 </v>
    </varray>
   </crystal>
   <varray name="positions" >
    <v>       0.00000000       0.00000000       0.00000000 </v>
   </varray>
  </structure>
  <varray name="forces" >
   <v>       0.00000000       0.00000000       0.00000000 </v>
  </varray>
  <varray name="stress" >
   <v>     450.33739629       0.00000000       0.00000000 </v>
   <v>       0.00000000     450.33739629       0.00000000 </v>
   <v>       0.00000000       0.00000000     450.33739629 </v>
  </varray>
  <energy>
   <i name="e_fr_energy">     -4.07717977 </i>
   <i name="e_wo_entrp">     -4.07704005 </i>
   <i name="e_0_energy">     -0.00041914 </i>
  </energy>
  <time name="totalsc">    2.25    2.33</time>
  <eigenvalues>
   <array>
    <dimension dim="1">band</dimension>
    <dimension dim="2">kpoint</dimension>
    <dimension dim="3">spin</dimension>
    <field>eigene</field>
    <field>occ</field>
    <set>
     <set comment="spin 1">
      <set comment="kpoint 1">
       <r>   -3.7258    1.0000 </r>
       <r>    2.2965    1.0000 </r>
       <r>    2.3784    1.0000 </r>
       <r>    2.3784    1.0000 </r>
       <r>    4.4137    1.0000 </r>
       <r>    4.4137    1.0000 </r>
       <r>   23.5074    0.0000 </r>
       <r>   27.5998    0.0000 </r>
       <r>   28.4453    0.0000 </r>
       <r>   28.4453    0.0000 </r>
       <r>   33.6788    0.0000 </r>
       <r>   38.4173    0.0000 </r>
      </set>
      <set comment="kpoint 2">
       <r>   -3.1911    1.0000 </r>
       <r>    2.0808    1.0000 </r>
       <r>    2.5609    1.0000 </r>
       <r>    2.6023    1.0000 </r>
       <r>    4.2003    1.0000 </r>
       <r>    4.4757    1.0000 </r>
       <r>   24.1710    0.0000 </r>
       <r>   25.5451    0.0000 </r>
       <r>   28.3382    0.0000 </r>
       <r>   29.5708    0.0000 </r>
       <r>   34.0120    0.0000 </r>
       <r>   36.9096    0.0000 </r>
      </set>
      <set comment="kpoint 3">
       <r>   -2.0607    1.0000 </r>
       <r>    1.9096    1.0000 </r>
       <r>    2.7547    1.0000 </r>
       <r>    2.7885    1.0000 </r>
       <r>    4.2042    1.0000 </r>
       <r>    4.7577    1.0000 </r>
       <r>   22.0210    0.0000 </r>
       <r>   24.9685    0.0000 </r>
       <r>   29.0602    0.0000 </r>
       <r>   31.2921    0.0000 </r>
       <r>   31.4884    0.0000 </r>
       <r>   34.6125    0.0000 </r>
      </set>
      <set comment="kpoint 4">
       <r>   -1.1314    1.0000 </r>
       <r>    2.5063    1.0000 </r>
       <r>    2.6272    1.0000 </r>
       <r>    2.7298    1.0000 </r>
       <r>    4.8639    1.0000 </r>
       <r>    5.5168    1.0000 </r>
       <r>   17.9984    0.0000 </r>
       <r>   24.1099    0.0000 </r>
       <r>   28.2572    0.0000 </r>
       <r>   30.7718    0.0000 </r>
       <r>   32.4637    0.0000 </r>
       <r>   34.0262    0.0000 </r>
      </set>
      <set comment="kpoint 5">
       <r>   -0.9561    1.0000 </r>
       <r>    2.3062    1.0000 </r>
       <r>    2.4034    1.0000 </r>
       <r>    4.5388    1.0000 </r>
       <r>    5.6915    1.0000 </r>
       <r>    6.4910    1.0000 </r>
       <r>   14.0255    0.0000 </r>
       <r>   23.0755    0.0000 </r>
       <r>   27.0062    0.0000 </r>
       <r>   28.2073    0.0000 </r>
       <r>   34.9655    0.0000 </r>
       <r>   35.6221    0.0000 </r>
      </set>
      <set comment="kpoint 6">
       <r>   -0.9677    1.0000 </r>
       <r>    2.2166    1.0000 </r>
       <r>    2.3490    1.0000 </r>
       <r>    5.1819    1.0000 </r>
       <r>    6.0895    1.0000 </r>
       <r>    7.1444    1.0000 </r>
       <r>   12.3645   -0.0000 </r>
       <r>   22.7958    0.0000 </r>
       <r>   26.9933    0.0000 </r>
       <r>   27.0858    0.0000 </r>
       <r>   35.8313    0.0000 </r>
       <r>   35.9621    0.0000 </r>
      </set>
      <set comment="kpoint 7">
       <r>   -0.9687    1.0000 </r>
       <r>    2.3469    1.0000 </r>
       <r>    2.4972    1.0000 </r>
       <r>    3.8482    1.0000 </r>
       <r>    5.8071    1.0000 </r>
       <r>    5.8430    1.0000 </r>
       <r>   15.2560    0.0000 </r>
       <r>   23.3604    0.0000 </r>
       <r>   27.5974    0.0000 </r>
       <r>   28.5406    0.0000 </r>
       <r>   34.9176    0.0000 </r>
       <r>   34.9445    0.0000 </r>
      </set>
      <set comment="kpoint 8">
       <r>   -1.3520    1.0000 </r>
       <r>    2.2194    1.0000 </r>
       <r>    2.6398    1.0000 </r>
       <r>    2.7316    1.0000 </r>
       <r>    4.7323    1.0000 </r>
       <r>    5.1137    1.0000 </r>
       <r>   19.3879    0.0000 </r>
       <r>   24.5505    0.0000 </r>
       <r>   28.8873    0.0000 </r>
       <r>   30.7932    0.0000 </r>
       <r>   32.3461    0.0000 </r>
       <r>   34.0104    0.0000 </r>
      </set>
      <set comment="kpoint 9">
       <r>   -2.4704    1.0000 </r>
       <r>    1.9001    1.0000 </r>
       <r>    2.7471    1.0000 </r>
       <r>    2.7660    1.0000 </r>
       <r>    4.1458    1.0000 </r>
       <r>    4.5923    1.0000 </r>
       <r>   23.2546    0.0000 </r>
       <r>   24.9152    0.0000 </r>
       <r>   28.9702    0.0000 </r>
       <r>   30.2259    0.0000 </r>
       <r>   32.5378    0.0000 </r>
       <r>   35.0886    0.0000 </r>
      </set>
      <set comment="kpoint 10">
       <r>   -3.4531    1.0000 </r>
       <r>    2.1475    1.0000 </r>
       <r>    2.5037    1.0000 </r>
       <r>    2.5120    1.0000 </r>
       <r>    4.2367    1.0000 </r>
       <r>    4.4912    1.0000 </r>
       <r>   23.8773    0.0000 </r>
       <r>   26.6492    0.0000 </r>
       <r>   28.3544    0.0000 </r>
       <r>   28.6707    0.0000 </r>
       <r>   34.8343    0.0000 </r>
       <r>   37.3217    0.0000 </r>
      </set>
      <set comment="kpoint 11">
       <r>   -2.9263    1.0000 </r>
       <r>    1.8519    1.0000 </r>
       <r>    2.7663    1.0000 </r>
       <r>    2.7728    1.0000 </r>
       <r>    3.9272    1.0000 </r>
       <r>    4.6394    1.0000 </r>
       <r>   24.5579    0.0000 </r>
       <r>   25.7547    0.0000 </r>
       <r>   27.9751    0.0000 </r>
       <r>   28.4470    0.0000 </r>
       <r>   34.7899    0.0000 </r>
       <r>   36.0558    0.0000 </r>
      </set>
      <set comment="kpoint 12">
       <r>   -1.9805    1.0000 </r>
       <r>    1.5159    1.0000 </r>
       <r>    2.8848    1.0000 </r>
       <r>    3.1400    1.0000 </r>
       <r>    3.8481    1.0000 </r>
       <r>    4.9337    1.0000 </r>
       <r>   23.5468    0.0000 </r>
       <r>   25.2361    0.0000 </r>
       <r>   27.4031    0.0000 </r>
       <r>   28.7641    0.0000 </r>
       <r>   32.6835    0.0000 </r>
       <r>   35.2244    0.0000 </r>
      </set>
      <set comment="kpoint 13">
       <r>   -0.8728    1.0000 </r>
       <r>    1.6222    1.0000 </r>
       <r>    2.4697    1.0000 </r>
       <r>    3.1474    1.0000 </r>
       <r>    4.7199    1.0000 </r>
       <r>    5.6953    1.0000 </r>
       <r>   19.6458    0.0000 </r>
       <r>   24.7181    0.0000 </r>
       <r>   26.4490    0.0000 </r>
       <r>   29.0317    0.0000 </r>
       <r>   33.1303    0.0000 </r>
       <r>   34.5215    0.0000 </r>
      </set>
      <set comment="kpoint 14">
       <r>   -0.5164    1.0000 </r>
       <r>    2.0587    1.0000 </r>
       <r>    2.7469    1.0000 </r>
       <r>    2.9692    1.0000 </r>
       <r>    5.7606    1.0000 </r>
       <r>    7.0590    1.0000 </r>
       <r>   15.4010    0.0000 </r>
       <r>   23.7485    0.0000 </r>
       <r>   25.3582    0.0000 </r>
       <r>   27.7700    0.0000 </r>
       <r>   34.6157    0.0000 </r>
       <r>   36.2485    0.0000 </r>
      </set>
      <set comment="kpoint 15">
       <r>   -0.5176    1.0000 </r>
       <r>    1.8889    1.0000 </r>
       <r>    2.7425    1.0000 </r>
       <r>    3.8430    1.0000 </r>
       <r>    6.0205    1.0000 </r>
       <r>    8.9400   -0.0000 </r>
       <r>   12.2721   -0.0000 </r>
       <r>   23.2076    0.0000 </r>
       <r>   25.0384    0.0000 </r>
       <r>   26.6118    0.0000 </r>
       <r>   35.6179    0.0000 </r>
       <r>   36.5783    0.0000 </r>
      </set>
      <set comment="kpoint 16">
       <r>   -0.4817    1.0000 </r>
       <r>    1.9993    1.0000 </r>
       <r>    2.7746    1.0000 </r>
       <r>    3.4118    1.0000 </r>
       <r>    5.5687    1.0000 </r>
       <r>    7.8757    1.0079 </r>
       <r>   14.1985    0.0000 </r>
       <r>   23.2765    0.0000 </r>
       <r>   24.9903    0.0000 </r>
       <r>   27.8908    0.0000 </r>
       <r>   34.3185    0.0000 </r>
       <r>   36.3692    0.0000 </r>
      </set>
      <set comment="kpoint 17">
       <r>   -0.6196    1.0000 </r>
       <r>    1.9916    1.0000 </r>
       <r>    2.3833    1.0000 </r>
       <r>    3.0288    1.0000 </r>
       <r>    4.6155    1.0000 </r>
       <r>    6.3839    1.0000 </r>
       <r>   18.2478    0.0000 </r>
       <r>   23.8790    0.0000 </r>
       <r>   26.0316    0.0000 </r>
       <r>   30.0482    0.0000 </r>
       <r>   32.1916    0.0000 </r>
       <r>   35.3309    0.0000 </r>
      </set>
      <set comment="kpoint 18">
       <r>   -1.5751    1.0000 </r>
       <r>    1.5717    1.0000 </r>
       <r>    2.7372    1.0000 </r>
       <r>    3.1698    1.0000 </r>
       <r>    3.8415    1.0000 </r>
       <r>    5.2795    1.0000 </r>
       <r>   22.1627    0.0000 </r>
       <r>   24.6454    0.0000 </r>
       <r>   27.8143    0.0000 </r>
       <r>   28.9387    0.0000 </r>
       <r>   33.0311    0.0000 </r>
       <r>   34.8256    0.0000 </r>
      </set>
      <set comment="kpoint 19">
       <r>   -2.6851    1.0000 </r>
       <r>    1.8543    1.0000 </r>
       <r>    2.7679    1.0000 </r>
       <r>    2.7840    1.0000 </r>
       <r>    3.9825    1.0000 </r>
       <r>    4.6470    1.0000 </r>
       <r>   24.3769    0.0000 </r>
       <r>   24.8210    0.0000 </r>
       <r>   28.0112    0.0000 </r>
       <r>   29.8661    0.0000 </r>
       <r>   32.9429    0.0000 </r>
       <r>   36.1605    0.0000 </r>
      </set>
      <set comment="kpoint 20">
       <r>   -1.3678    1.0000 </r>
       <r>    1.0423    1.0000 </r>
       <r>    3.0755    1.0000 </r>
       <r>    3.6466    1.0000 </r>
       <r>    3.8953    1.0000 </r>
       <r>    5.1015    1.0000 </r>
       <r>   24.2124    0.0000 </r>
       <r>   25.6072    0.0000 </r>
       <r>   26.0878    0.0000 </r>
       <r>   27.0387    0.0000 </r>
       <r>   30.1023    0.0000 </r>
       <r>   36.0453    0.0000 </r>
      </set>
      <set comment="kpoint 21">
       <r>   -0.5042    1.0000 </r>
       <r>    0.7477    1.0000 </r>
       <r>    2.7233    1.0000 </r>
       <r>    4.1087    1.0000 </r>
       <r>    4.7587    1.0000 </r>
       <r>    5.7291    1.0000 </r>
       <r>   21.4653    0.0000 </r>
       <r>   23.5721    0.0000 </r>
       <r>   25.0763    0.0000 </r>
       <r>   28.0504    0.0000 </r>
       <r>   29.8058    0.0000 </r>
       <r>   36.2346    0.0000 </r>
      </set>
      <set comment="kpoint 22">
       <r>   -0.0408    1.0000 </r>
       <r>    1.0725    1.0000 </r>
       <r>    2.4017    1.0000 </r>
       <r>    3.9254    1.0000 </r>
       <r>    5.8888    1.0000 </r>
       <r>    7.4021    1.0000 </r>
       <r>   17.0446    0.0000 </r>
       <r>   22.8757    0.0000 </r>
       <r>   23.2641    0.0000 </r>
       <r>   27.5795    0.0000 </r>
       <r>   33.0645    0.0000 </r>
       <r>   36.5280    0.0000 </r>
      </set>
      <set comment="kpoint 23">
       <r>    0.0910    1.0000 </r>
       <r>    1.3931    1.0000 </r>
       <r>    2.6417    1.0000 </r>
       <r>    3.6526    1.0000 </r>
       <r>    6.0676    1.0000 </r>
       <r>   10.2101   -0.0000 </r>
       <r>   13.1161   -0.0000 </r>
       <r>   21.5200    0.0000 </r>
       <r>   23.3794    0.0000 </r>
       <r>   26.8116    0.0000 </r>
       <r>   35.6209    0.0000 </r>
       <r>   37.7350    0.0000 </r>
      </set>
      <set comment="kpoint 24">
       <r>    0.3248    1.0000 </r>
       <r>    1.4833    1.0000 </r>
       <r>    2.6449    1.0000 </r>
       <r>    3.5109    1.0000 </r>
       <r>    5.5092    1.0000 </r>
       <r>   10.0403   -0.0000 </r>
       <r>   13.8176    0.0000 </r>
       <r>   20.3359    0.0000 </r>
       <r>   24.5903    0.0000 </r>
       <r>   27.0340    0.0000 </r>
       <r>   34.4751    0.0000 </r>
       <r>   37.1413    0.0000 </r>
      </set>
      <set comment="kpoint 25">
       <r>    0.4772    1.0000 </r>
       <r>    1.6201    1.0000 </r>
       <r>    1.9106    1.0000 </r>
       <r>    3.6159    1.0000 </r>
       <r>    4.5661    1.0000 </r>
       <r>    8.1089    0.9988 </r>
       <r>   17.4583    0.0000 </r>
       <r>   20.3555    0.0000 </r>
       <r>   25.4966    0.0000 </r>
       <r>   29.1847    0.0000 </r>
       <r>   31.7245    0.0000 </r>
       <r>   37.1493    0.0000 </r>
      </set>
      <set comment="kpoint 26">
       <r>   -0.3930    1.0000 </r>
       <r>    1.4674    1.0000 </r>
       <r>    2.3505    1.0000 </r>
       <r>    3.4648    1.0000 </r>
       <r>    4.0251    1.0000 </r>
       <r>    6.5104    1.0000 </r>
       <r>   19.7150    0.0000 </r>
       <r>   22.7685    0.0000 </r>
       <r>   26.4009    0.0000 </r>
       <r>   29.6432    0.0000 </r>
       <r>   31.9439    0.0000 </r>
       <r>   36.0325    0.0000 </r>
      </set>
      <set comment="kpoint 27">
       <r>   -1.5005    1.0000 </r>
       <r>    1.8063    1.0000 </r>
       <r>    2.7045    1.0000 </r>
       <r>    2.9137    1.0000 </r>
       <r>    4.2811    1.0000 </r>
       <r>    5.1801    1.0000 </r>
       <r>   20.8442    0.0000 </r>
       <r>   24.9345    0.0000 </r>
       <r>   28.0451    0.0000 </r>
       <r>   30.1359    0.0000 </r>
       <r>   32.8386    0.0000 </r>
       <r>   33.8247    0.0000 </r>
      </set>
      <set comment="kpoint 28">
       <r>   -0.4334    1.0000 </r>
       <r>    0.2513    1.0000 </r>
       <r>    3.8228    1.0000 </r>
       <r>    4.8306    1.0000 </r>
       <r>    5.3320    1.0000 </r>
       <r>    5.6681    1.0000 </r>
       <r>   21.4162    0.0000 </r>
       <r>   22.2733    0.0000 </r>
       <r>   22.9607    0.0000 </r>
       <r>   26.9918    0.0000 </r>
       <r>   28.9404    0.0000 </r>
       <r>   38.6793    0.0000 </r>
      </set>
      <set comment="kpoint 29">
       <r>   -0.3167    1.0000 </r>
       <r>    0.1125    1.0000 </r>
       <r>    3.9060    1.0000 </r>
       <r>    5.2255    1.0000 </r>
       <r>    5.9063    1.0000 </r>
       <r>    7.3928    1.0000 </r>
       <r>   18.3908    0.0000 </r>
       <r>   20.5372    0.0000 </r>
       <r>   21.2159    0.0000 </r>
       <r>   28.1168    0.0000 </r>
       <r>   30.1656    0.0000 </r>
       <r>   38.4048    0.0000 </r>
      </set>
      <set comment="kpoint 30">
       <r>   -0.1241    1.0000 </r>
       <r>    0.5106    1.0000 </r>
       <r>    3.4439    1.0000 </r>
       <r>    4.8137    1.0000 </r>
       <r>    6.2044    1.0000 </r>
       <r>   10.4690   -0.0000 </r>
       <r>   14.6900    0.0000 </r>
       <r>   18.9635    0.0000 </r>
       <r>   21.1975    0.0000 </r>
       <r>   28.2496    0.0000 </r>
       <r>   33.1675    0.0000 </r>
       <r>   37.3936    0.0000 </r>
      </set>
      <set comment="kpoint 31">
       <r>    0.2574    1.0000 </r>
       <r>    1.1578    1.0000 </r>
       <r>    2.7356    1.0000 </r>
       <r>    4.3617    1.0000 </r>
       <r>    5.7516    1.0000 </r>
       <r>   11.8232   -0.0000 </r>
       <r>   14.1761    0.0000 </r>
       <r>   17.1404    0.0000 </r>
       <r>   22.8243    0.0000 </r>
       <r>   27.7371    0.0000 </r>
       <r>   35.8287    0.0000 </r>
       <r>   37.0125    0.0000 </r>
      </set>
      <set comment="kpoint 32">
       <r>    0.6633    1.0000 </r>
       <r>    1.5326    1.0000 </r>
       <r>    2.0860    1.0000 </r>
       <r>    3.8730    1.0000 </r>
       <r>    5.1812    1.0000 </r>
       <r>    9.8975   -0.0000 </r>
       <r>   15.8369    0.0000 </r>
       <r>   18.1398    0.0000 </r>
       <r>   24.7321    0.0000 </r>
       <r>   27.4996    0.0000 </r>
       <r>   33.8341    0.0000 </r>
       <r>   37.3108    0.0000 </r>
      </set>
      <set comment="kpoint 33">
       <r>   -0.0251    1.0000 </r>
       <r>    1.8610    1.0000 </r>
       <r>    2.4700    1.0000 </r>
       <r>    3.2096    1.0000 </r>
       <r>    5.0568    1.0000 </r>
       <r>    8.0435    1.0348 </r>
       <r>   15.7907    0.0000 </r>
       <r>   22.0722    0.0000 </r>
       <r>   25.0491    0.0000 </r>
       <r>   28.5627    0.0000 </r>
       <r>   32.8870    0.0000 </r>
       <r>   36.7384    0.0000 </r>
      </set>
      <set comment="kpoint 34">
       <r>   -0.8464    1.0000 </r>
       <r>    2.3488    1.0000 </r>
       <r>    2.6807    1.0000 </r>
       <r>    2.9071    1.0000 </r>
       <r>    5.2269    1.0000 </r>
       <r>    6.1396    1.0000 </r>
       <r>   16.6779    0.0000 </r>
       <r>   23.8553    0.0000 </r>
       <r>   26.8012    0.0000 </r>
       <r>   29.4039    0.0000 </r>
       <r>   33.4870    0.0000 </r>
       <r>   35.0682    0.0000 </r>
      </set>
      <set comment="kpoint 35">
       <r>   -0.6738    1.0000 </r>
       <r>   -0.2635    1.0000 </r>
       <r>    5.6717    1.0000 </r>
       <r>    5.7820    1.0000 </r>
       <r>    6.2452    1.0000 </r>
       <r>    7.6783    1.0001 </r>
       <r>   17.3061    0.0000 </r>
       <r>   19.4511    0.0000 </r>
       <r>   19.7231    0.0000 </r>
       <r>   27.4507    0.0000 </r>
       <r>   30.2786    0.0000 </r>
       <r>   39.6621    0.0000 </r>
      </set>
      <set comment="kpoint 36">
       <r>   -0.5945    1.0000 </r>
       <r>   -0.1952    1.0000 </r>
       <r>    5.1400    1.0000 </r>
       <r>    5.7046    1.0000 </r>
       <r>    6.4516    1.0000 </r>
       <r>    9.9695   -0.0000 </r>
       <r>   15.2434    0.0000 </r>
       <r>   18.3808    0.0000 </r>
       <r>   19.3369    0.0000 </r>
       <r>   28.5373    0.0000 </r>
       <r>   30.8336    0.0000 </r>
       <r>   38.7150    0.0000 </r>
      </set>
      <set comment="kpoint 37">
       <r>   -0.2045    1.0000 </r>
       <r>    0.3963    1.0000 </r>
       <r>    3.8185    1.0000 </r>
       <r>    5.0491    1.0000 </r>
       <r>    6.1975    1.0000 </r>
       <r>   11.9731   -0.0000 </r>
       <r>   13.8539    0.0000 </r>
       <r>   17.4434    0.0000 </r>
       <r>   20.7910    0.0000 </r>
       <r>   28.5636    0.0000 </r>
       <r>   33.2303    0.0000 </r>
       <r>   37.4304    0.0000 </r>
      </set>
      <set comment="kpoint 38">
       <r>    0.2311    1.0000 </r>
       <r>    1.2131    1.0000 </r>
       <r>    2.6797    1.0000 </r>
       <r>    4.0624    1.0000 </r>
       <r>    5.9245    1.0000 </r>
       <r>   12.1639   -0.0000 </r>
       <r>   12.3023   -0.0000 </r>
       <r>   19.2947    0.0000 </r>
       <r>   23.0067    0.0000 </r>
       <r>   27.3190    0.0000 </r>
       <r>   35.7277    0.0000 </r>
       <r>   37.4193    0.0000 </r>
      </set>
      <set comment="kpoint 39">
       <r>   -0.1227    1.0000 </r>
       <r>    1.6454    1.0000 </r>
       <r>    3.0931    1.0000 </r>
       <r>    3.2570    1.0000 </r>
       <r>    5.8421    1.0000 </r>
       <r>    9.9784   -0.0000 </r>
       <r>   12.3591   -0.0000 </r>
       <r>   22.3379    0.0000 </r>
       <r>   24.4259    0.0000 </r>
       <r>   26.5960    0.0000 </r>
       <r>   35.2401    0.0000 </r>
       <r>   36.8863    0.0000 </r>
      </set>
      <set comment="kpoint 40">
       <r>   -0.8031    1.0000 </r>
       <r>    2.1292    1.0000 </r>
       <r>    2.5032    1.0000 </r>
       <r>    4.3564    1.0000 </r>
       <r>    5.9545    1.0000 </r>
       <r>    7.5464    1.0000 </r>
       <r>   12.9986   -0.0000 </r>
       <r>   23.0891    0.0000 </r>
       <r>   26.1407    0.0000 </r>
       <r>   27.3409    0.0000 </r>
       <r>   35.4367    0.0000 </r>
       <r>   36.1396    0.0000 </r>
      </set>
      <set comment="kpoint 41">
       <r>   -0.7814    1.0000 </r>
       <r>   -0.3723    1.0000 </r>
       <r>    5.9483    1.0000 </r>
       <r>    6.1051    1.0000 </r>
       <r>    6.4684    1.0000 </r>
       <r>    8.8633   -0.0001 </r>
       <r>   15.6629    0.0000 </r>
       <r>   18.7812    0.0000 </r>
       <r>   19.1265    0.0000 </r>
       <r>   27.6619    0.0000 </r>
       <r>   30.5633    0.0000 </r>
       <r>   39.3920    0.0000 </r>
      </set>
      <set comment="kpoint 42">
       <r>   -0.4842    1.0000 </r>
       <r>   -0.0907    1.0000 </r>
       <r>    4.6497    1.0000 </r>
       <r>    5.6012    1.0000 </r>
       <r>    6.2332    1.0000 </r>
       <r>    8.7527   -0.0019 </r>
       <r>   16.6750    0.0000 </r>
       <r>   19.1687    0.0000 </r>
       <r>   19.9430    0.0000 </r>
       <r>   28.3489    0.0000 </r>
       <r>   30.5999    0.0000 </r>
       <r>   38.7269    0.0000 </r>
      </set>
      <set comment="kpoint 43">
       <r>   -0.0272    1.0000 </r>
       <r>    0.7447    1.0000 </r>
       <r>    2.8908    1.0000 </r>
       <r>    4.3981    1.0000 </r>
       <r>    6.1347    1.0000 </r>
       <r>    8.8334   -0.0003 </r>
       <r>   15.7748    0.0000 </r>
       <r>   21.0121    0.0000 </r>
       <r>   21.9955    0.0000 </r>
       <r>   27.8103    0.0000 </r>
       <r>   33.0941    0.0000 </r>
       <r>   37.1323    0.0000 </r>
      </set>
      <set comment="kpoint 44">
       <r>   -0.1814    1.0000 </r>
       <r>    1.7038    1.0000 </r>
       <r>    2.6733    1.0000 </r>
       <r>    3.2604    1.0000 </r>
       <r>    6.0433    1.0000 </r>
       <r>    8.4606   -0.0150 </r>
       <r>   14.1900    0.0000 </r>
       <r>   23.3008    0.0000 </r>
       <r>   24.0137    0.0000 </r>
       <r>   26.7769    0.0000 </r>
       <r>   35.3242    0.0000 </r>
       <r>   37.2952    0.0000 </r>
      </set>
      <set comment="kpoint 45">
       <r>   -0.5109    1.0000 </r>
       <r>   -0.0514    1.0000 </r>
       <r>    4.8352    1.0000 </r>
       <r>    5.3944    1.0000 </r>
       <r>    5.9526    1.0000 </r>
       <r>    6.3550    1.0000 </r>
       <r>   19.4962    0.0000 </r>
       <r>   20.8044    0.0000 </r>
       <r>   20.8194    0.0000 </r>
       <r>   27.1410    0.0000 </r>
       <r>   29.7321    0.0000 </r>
       <r>   39.8190    0.0000 </r>
      </set>
      <set comment="kpoint 46">
       <r>   -0.2364    1.0000 </r>
       <r>    0.3999    1.0000 </r>
       <r>    3.1432    1.0000 </r>
       <r>    4.6817    1.0000 </r>
       <r>    5.4276    1.0000 </r>
       <r>    6.3553    1.0000 </r>
       <r>   20.0123    0.0000 </r>
       <r>   22.0379    0.0000 </r>
       <r>   23.1354    0.0000 </r>
       <r>   28.0769    0.0000 </r>
       <r>   29.6639    0.0000 </r>
       <r>   37.4679    0.0000 </r>
      </set>
      <set comment="kpoint 47">
       <r>   -0.3248    1.0000 </r>
       <r>    1.3909    1.0000 </r>
       <r>    2.2533    1.0000 </r>
       <r>    3.4913    1.0000 </r>
       <r>    5.3809    1.0000 </r>
       <r>    6.3586    1.0000 </r>
       <r>   18.3713    0.0000 </r>
       <r>   24.0894    0.0000 </r>
       <r>   24.8670    0.0000 </r>
       <r>   27.9787    0.0000 </r>
       <r>   33.0853    0.0000 </r>
       <r>   35.6251    0.0000 </r>
      </set>
      <set comment="kpoint 48">
       <r>   -0.6913    1.0000 </r>
       <r>    0.6253    1.0000 </r>
       <r>    3.1620    1.0000 </r>
       <r>    4.2196    1.0000 </r>
       <r>    4.5327    1.0000 </r>
       <r>    5.3853    1.0000 </r>
       <r>   23.0141    0.0000 </r>
       <r>   23.9296    0.0000 </r>
       <r>   25.0823    0.0000 </r>
       <r>   27.5056    0.0000 </r>
       <r>   28.1554    0.0000 </r>
       <r>   37.1702    0.0000 </r>
      </set>
      <set comment="kpoint 49">
       <r>   -1.1794    1.0000 </r>
       <r>    1.1310    1.0000 </r>
       <r>    2.7633    1.0000 </r>
       <r>    3.5869    1.0000 </r>
       <r>    4.1447    1.0000 </r>
       <r>    5.2945    1.0000 </r>
       <r>   22.6339    0.0000 </r>
       <r>   24.8793    0.0000 </r>
       <r>   26.6456    0.0000 </r>
       <r>   27.7534    0.0000 </r>
       <r>   31.3516    0.0000 </r>
       <r>   35.1804    0.0000 </r>
      </set>
      <set comment="kpoint 50">
       <r>   -2.1937    1.0000 </r>
       <r>    1.4666    1.0000 </r>
       <r>    3.0813    1.0000 </r>
       <r>    3.1568    1.0000 </r>
       <r>    3.6453    1.0000 </r>
       <r>    4.8483    1.0000 </r>
       <r>   24.9459    0.0000 </r>
       <r>   25.5389    0.0000 </r>
       <r>   27.0541    0.0000 </r>
       <r>   27.6925    0.0000 </r>
       <r>   32.9003    0.0000 </r>
       <r>   35.5917    0.0000 </r>
      </set>
      <set comment="kpoint 51">
       <r>   -2.9446    1.0000 </r>
       <r>    2.0552    1.0000 </r>
       <r>    2.6272    1.0000 </r>
       <r>    2.6272    1.0000 </r>
       <r>    4.3387    1.0000 </r>
       <r>    4.3387    1.0000 </r>
       <r>   24.1732    0.0000 </r>
       <r>   24.7145    0.0000 </r>
       <r>   29.4586    0.0000 </r>
       <r>   29.4586    0.0000 </r>
       <r>   33.3877    0.0000 </r>
       <r>   36.3796    0.0000 </r>
      </set>
      <set comment="kpoint 52">
       <r>   -2.2206    1.0000 </r>
       <r>    1.7760    1.0000 </r>
       <r>    2.7865    1.0000 </r>
       <r>    2.8996    1.0000 </r>
       <r>    3.9051    1.0000 </r>
       <r>    4.8587    1.0000 </r>
       <r>   23.2398    0.0000 </r>
       <r>   24.8614    0.0000 </r>
       <r>   27.9320    0.0000 </r>
       <r>   30.6948    0.0000 </r>
       <r>   31.6181    0.0000 </r>
       <r>   36.3691    0.0000 </r>
      </set>
      <set comment="kpoint 53">
       <r>   -1.0221    1.0000 </r>
       <r>    1.5653    1.0000 </r>
       <r>    2.6196    1.0000 </r>
       <r>    3.2731    1.0000 </r>
       <r>    3.7780    1.0000 </r>
       <r>    5.8403    1.0000 </r>
       <r>   20.9030    0.0000 </r>
       <r>   23.8230    0.0000 </r>
       <r>   27.4334    0.0000 </r>
       <r>   29.0671    0.0000 </r>
       <r>   32.9485    0.0000 </r>
       <r>   35.1489    0.0000 </r>
      </set>
      <set comment="kpoint 54">
       <r>   -0.3342    1.0000 </r>
       <r>    2.0749    1.0000 </r>
       <r>    2.4903    1.0000 </r>
       <r>    2.9910    1.0000 </r>
       <r>    4.6897    1.0000 </r>
       <r>    7.1559    1.0000 </r>
       <r>   16.9662    0.0000 </r>
       <r>   22.9980    0.0000 </r>
       <r>   25.5519    0.0000 </r>
       <r>   29.8662    0.0000 </r>
       <r>   31.9189    0.0000 </r>
       <r>   36.1542    0.0000 </r>
      </set>
      <set comment="kpoint 55">
       <r>   -0.3512    1.0000 </r>
       <r>    1.8677    1.0000 </r>
       <r>    2.8432    1.0000 </r>
       <r>    3.5474    1.0000 </r>
       <r>    5.6435    1.0000 </r>
       <r>    8.8188   -0.0004 </r>
       <r>   13.1770   -0.0000 </r>
       <r>   22.7729    0.0000 </r>
       <r>   24.9640    0.0000 </r>
       <r>   27.0823    0.0000 </r>
       <r>   34.8824    0.0000 </r>
       <r>   36.3687    0.0000 </r>
      </set>
      <set comment="kpoint 56">
       <r>   -0.4051    1.0000 </r>
       <r>    1.8252    1.0000 </r>
       <r>    2.9088    1.0000 </r>
       <r>    3.3496    1.0000 </r>
       <r>    6.1326    1.0000 </r>
       <r>    8.7149   -0.0041 </r>
       <r>   12.9624   -0.0000 </r>
       <r>   23.2093    0.0000 </r>
       <r>   25.5820    0.0000 </r>
       <r>   25.7242    0.0000 </r>
       <r>   36.0519    0.0000 </r>
       <r>   36.5849    0.0000 </r>
      </set>
      <set comment="kpoint 57">
       <r>   -0.4596    1.0000 </r>
       <r>    1.9358    1.0000 </r>
       <r>    2.2861    1.0000 </r>
       <r>    3.1299    1.0000 </r>
       <r>    5.9292    1.0000 </r>
       <r>    6.3727    1.0000 </r>
       <r>   16.8013    0.0000 </r>
       <r>   24.1890    0.0000 </r>
       <r>   25.4978    0.0000 </r>
       <r>   27.3474    0.0000 </r>
       <r>   35.0018    0.0000 </r>
       <r>   35.5531    0.0000 </r>
      </set>
      <set comment="kpoint 58">
       <r>   -1.0698    1.0000 </r>
       <r>    1.3022    1.0000 </r>
       <r>    2.6363    1.0000 </r>
       <r>    3.3146    1.0000 </r>
       <r>    4.6075    1.0000 </r>
       <r>    5.3047    1.0000 </r>
       <r>   21.1641    0.0000 </r>
       <r>   25.4908    0.0000 </r>
       <r>   26.2355    0.0000 </r>
       <r>   28.3107    0.0000 </r>
       <r>   32.1103    0.0000 </r>
       <r>   35.3016    0.0000 </r>
      </set>
      <set comment="kpoint 59">
       <r>   -1.8134    1.0000 </r>
       <r>    1.6265    1.0000 </r>
       <r>    2.8061    1.0000 </r>
       <r>    2.9945    1.0000 </r>
       <r>    4.1457    1.0000 </r>
       <r>    4.9293    1.0000 </r>
       <r>   22.2325    0.0000 </r>
       <r>   25.3183    0.0000 </r>
       <r>   27.8314    0.0000 </r>
       <r>   29.5309    0.0000 </r>
       <r>   32.4924    0.0000 </r>
       <r>   34.7884    0.0000 </r>
      </set>
      <set comment="kpoint 60">
       <r>   -0.8334    1.0000 </r>
       <r>    1.2888    1.0000 </r>
       <r>    2.4982    1.0000 </r>
       <r>    3.5449    1.0000 </r>
       <r>    4.1136    1.0000 </r>
       <r>    5.8110    1.0000 </r>
       <r>   21.0948    0.0000 </r>
       <r>   23.8707    0.0000 </r>
       <r>   26.6772    0.0000 </r>
       <r>   28.6115    0.0000 </r>
       <r>   32.9544    0.0000 </r>
       <r>   34.3435    0.0000 </r>
      </set>
      <set comment="kpoint 61">
       <r>    0.2023    1.0000 </r>
       <r>    1.3205    1.0000 </r>
       <r>    1.9595    1.0000 </r>
       <r>    3.8341    1.0000 </r>
       <r>    4.5355    1.0000 </r>
       <r>    7.2842    1.0000 </r>
       <r>   18.5584    0.0000 </r>
       <r>   21.5520    0.0000 </r>
       <r>   25.1746    0.0000 </r>
       <r>   29.8689    0.0000 </r>
       <r>   31.3981    0.0000 </r>
       <r>   36.7419    0.0000 </r>
      </set>
      <set comment="kpoint 62">
       <r>    0.3024    1.0000 </r>
       <r>    1.5155    1.0000 </r>
       <r>    2.3498    1.0000 </r>
       <r>    3.5651    1.0000 </r>
       <r>    5.4904    1.0000 </r>
       <r>    9.1703   -0.0000 </r>
       <r>   14.7223    0.0000 </r>
       <r>   21.1765    0.0000 </r>
       <r>   23.8899    0.0000 </r>
       <r>   28.1285    0.0000 </r>
       <r>   33.5942    0.0000 </r>
       <r>   37.6196    0.0000 </r>
      </set>
      <set comment="kpoint 63">
       <r>    0.2026    1.0000 </r>
       <r>    1.3928    1.0000 </r>
       <r>    2.7779    1.0000 </r>
       <r>    3.4791    1.0000 </r>
       <r>    5.9031    1.0000 </r>
       <r>   10.8752   -0.0000 </r>
       <r>   12.2709   -0.0000 </r>
       <r>   21.8981    0.0000 </r>
       <r>   22.8154    0.0000 </r>
       <r>   27.4075    0.0000 </r>
       <r>   34.8124    0.0000 </r>
       <r>   37.9967    0.0000 </r>
      </set>
      <set comment="kpoint 64">
       <r>    0.1480    1.0000 </r>
       <r>    1.5083    1.0000 </r>
       <r>    2.0783    1.0000 </r>
       <r>    3.7402    1.0000 </r>
       <r>    5.6577    1.0000 </r>
       <r>    8.3045    0.3814 </r>
       <r>   15.7764    0.0000 </r>
       <r>   22.1138    0.0000 </r>
       <r>   23.4541    0.0000 </r>
       <r>   28.1784    0.0000 </r>
       <r>   33.6044    0.0000 </r>
       <r>   37.1976    0.0000 </r>
      </set>
      <set comment="kpoint 65">
       <r>   -0.1726    1.0000 </r>
       <r>    0.9866    1.0000 </r>
       <r>    2.2659    1.0000 </r>
       <r>    4.0104    1.0000 </r>
       <r>    4.6593    1.0000 </r>
       <r>    6.4597    1.0000 </r>
       <r>   19.9061    0.0000 </r>
       <r>   22.6642    0.0000 </r>
       <r>   25.0679    0.0000 </r>
       <r>   28.9516    0.0000 </r>
       <r>   31.4846    0.0000 </r>
       <r>   35.4947    0.0000 </r>
      </set>
      <set comment="kpoint 66">
       <r>   -0.4403    1.0000 </r>
       <r>    0.9708    1.0000 </r>
       <r>    2.5325    1.0000 </r>
       <r>    3.7196    1.0000 </r>
       <r>    5.4435    1.0000 </r>
       <r>    5.6744    1.0000 </r>
       <r>   19.9131    0.0000 </r>
       <r>   24.5380    0.0000 </r>
       <r>   24.8607    0.0000 </r>
       <r>   27.4597    0.0000 </r>
       <r>   31.4812    0.0000 </r>
       <r>   36.2632    0.0000 </r>
      </set>
      <set comment="kpoint 67">
       <r>    0.1207    1.0000 </r>
       <r>    0.6979    1.0000 </r>
       <r>    2.4109    1.0000 </r>
       <r>    4.5388    1.0000 </r>
       <r>    5.2592    1.0000 </r>
       <r>    7.3127    1.0000 </r>
       <r>   18.6068    0.0000 </r>
       <r>   21.2945    0.0000 </r>
       <r>   23.2925    0.0000 </r>
       <r>   29.1389    0.0000 </r>
       <r>   30.9981    0.0000 </r>
       <r>   36.4369    0.0000 </r>
      </set>
      <set comment="kpoint 68">
       <r>    0.5124    1.0000 </r>
       <r>    0.8902    1.0000 </r>
       <r>    2.1264    1.0000 </r>
       <r>    4.6366    1.0000 </r>
       <r>    5.6762    1.0000 </r>
       <r>    9.4896   -0.0000 </r>
       <r>   16.4021    0.0000 </r>
       <r>   19.0900    0.0000 </r>
       <r>   21.7229    0.0000 </r>
       <r>   30.1562    0.0000 </r>
       <r>   32.1063    0.0000 </r>
       <r>   36.9023    0.0000 </r>
      </set>
      <set comment="kpoint 69">
       <r>    0.7211    1.0000 </r>
       <r>    1.1042    1.0000 </r>
       <r>    2.1426    1.0000 </r>
       <r>    4.1471    1.0000 </r>
       <r>    6.0010    1.0000 </r>
       <r>   12.2279   -0.0000 </r>
       <r>   13.2169   -0.0000 </r>
       <r>   18.8398    0.0000 </r>
       <r>   20.9673    0.0000 </r>
       <r>   29.6401    0.0000 </r>
       <r>   33.9816    0.0000 </r>
       <r>   38.1381    0.0000 </r>
      </set>
      <set comment="kpoint 70">
       <r>    0.9948    1.0000 </r>
       <r>    1.1725    1.0000 </r>
       <r>    1.6755    1.0000 </r>
       <r>    4.2521    1.0000 </r>
       <r>    5.6429    1.0000 </r>
       <r>   10.3440   -0.0000 </r>
       <r>   15.7620    0.0000 </r>
       <r>   18.1372    0.0000 </r>
       <r>   22.1083    0.0000 </r>
       <r>   29.9662    0.0000 </r>
       <r>   32.7660    0.0000 </r>
       <r>   38.6211    0.0000 </r>
      </set>
      <set comment="kpoint 71">
       <r>    0.5531    1.0000 </r>
       <r>    1.1378    1.0000 </r>
       <r>    1.7888    1.0000 </r>
       <r>    4.2880    1.0000 </r>
       <r>    5.1230    1.0000 </r>
       <r>    8.2434    0.6365 </r>
       <r>   17.4383    0.0000 </r>
       <r>   20.2880    0.0000 </r>
       <r>   23.5641    0.0000 </r>
       <r>   29.8114    0.0000 </r>
       <r>   31.6745    0.0000 </r>
       <r>   37.0364    0.0000 </r>
      </set>
      <set comment="kpoint 72">
       <r>   -0.2296    1.0000 </r>
       <r>    0.3482    1.0000 </r>
       <r>    3.5401    1.0000 </r>
       <r>    4.6801    1.0000 </r>
       <r>    6.2118    1.0000 </r>
       <r>    7.9412    1.0197 </r>
       <r>   17.0780    0.0000 </r>
       <r>   21.0007    0.0000 </r>
       <r>   21.6689    0.0000 </r>
       <r>   27.6851    0.0000 </r>
       <r>   31.4619    0.0000 </r>
       <r>   38.1402    0.0000 </r>
      </set>
      <set comment="kpoint 73">
       <r>   -0.1322    1.0000 </r>
       <r>    0.2487    1.0000 </r>
       <r>    3.5834    1.0000 </r>
       <r>    5.2386    1.0000 </r>
       <r>    6.1801    1.0000 </r>
       <r>    9.9427   -0.0000 </r>
       <r>   15.9534    0.0000 </r>
       <r>   18.6933    0.0000 </r>
       <r>   20.0445    0.0000 </r>
       <r>   29.6507    0.0000 </r>
       <r>   31.4367    0.0000 </r>
       <r>   37.2854    0.0000 </r>
      </set>
      <set comment="kpoint 74">
       <r>    0.1882    1.0000 </r>
       <r>    0.6499    1.0000 </r>
       <r>    2.9872    1.0000 </r>
       <r>    4.6689    1.0000 </r>
       <r>    6.4435    1.0000 </r>
       <r>   12.6169   -0.0000 </r>
       <r>   14.4039    0.0000 </r>
       <r>   17.0779    0.0000 </r>
       <r>   19.2976    0.0000 </r>
       <r>   31.0956    0.0000 </r>
       <r>   33.1562    0.0000 </r>
       <r>   35.7213    0.0000 </r>
      </set>
      <set comment="kpoint 75">
       <r>    0.6279    1.0000 </r>
       <r>    1.2411    1.0000 </r>
       <r>    2.0908    1.0000 </r>
       <r>    4.2289    1.0000 </r>
       <r>    6.1330    1.0000 </r>
       <r>   12.4587   -0.0000 </r>
       <r>   14.4878    0.0000 </r>
       <r>   16.8756    0.0000 </r>
       <r>   20.5655    0.0000 </r>
       <r>   30.4216    0.0000 </r>
       <r>   34.0255    0.0000 </r>
       <r>   37.2405    0.0000 </r>
      </set>
      <set comment="kpoint 76">
       <r>    0.6145    1.0000 </r>
       <r>    1.1839    1.0000 </r>
       <r>    2.2337    1.0000 </r>
       <r>    3.9156    1.0000 </r>
       <r>    5.7974    1.0000 </r>
       <r>   10.6215   -0.0000 </r>
       <r>   13.7977    0.0000 </r>
       <r>   20.2691    0.0000 </r>
       <r>   22.1803    0.0000 </r>
       <r>   28.6890    0.0000 </r>
       <r>   33.8889    0.0000 </r>
       <r>   38.8887    0.0000 </r>
      </set>
      <set comment="kpoint 77">
       <r>   -0.4688    1.0000 </r>
       <r>    0.0189    1.0000 </r>
       <r>    4.6566    1.0000 </r>
       <r>    5.4415    1.0000 </r>
       <r>    6.2991    1.0000 </r>
       <r>   10.7976   -0.0000 </r>
       <r>   14.6247    0.0000 </r>
       <r>   17.8490    0.0000 </r>
       <r>   20.2435    0.0000 </r>
       <r>   28.3508    0.0000 </r>
       <r>   31.7700    0.0000 </r>
       <r>   38.4995    0.0000 </r>
      </set>
      <set comment="kpoint 78">
       <r>   -0.2483    1.0000 </r>
       <r>    0.1525    1.0000 </r>
       <r>    4.0335    1.0000 </r>
       <r>    5.2377    1.0000 </r>
       <r>    6.4459    1.0000 </r>
       <r>   11.3268   -0.0000 </r>
       <r>   14.7242    0.0000 </r>
       <r>   17.8428    0.0000 </r>
       <r>   19.3652    0.0000 </r>
       <r>   29.9027    0.0000 </r>
       <r>   31.5979    0.0000 </r>
       <r>   37.2995    0.0000 </r>
      </set>
      <set comment="kpoint 79">
       <r>    0.3201    1.0000 </r>
       <r>    0.7251    1.0000 </r>
       <r>    2.6214    1.0000 </r>
       <r>    4.7371    1.0000 </r>
       <r>    6.1490    1.0000 </r>
       <r>   11.0159   -0.0000 </r>
       <r>   15.4408    0.0000 </r>
       <r>   17.9661    0.0000 </r>
       <r>   20.1304    0.0000 </r>
       <r>   30.7187    0.0000 </r>
       <r>   32.5984    0.0000 </r>
       <r>   36.3757    0.0000 </r>
      </set>
      <set comment="kpoint 80">
       <r>   -0.3707    1.0000 </r>
       <r>    0.1299    1.0000 </r>
       <r>    4.2303    1.0000 </r>
       <r>    5.1351    1.0000 </r>
       <r>    6.3082    1.0000 </r>
       <r>    9.4693   -0.0000 </r>
       <r>   15.7311    0.0000 </r>
       <r>   19.0514    0.0000 </r>
       <r>   20.7341    0.0000 </r>
       <r>   28.0868    0.0000 </r>
       <r>   31.6537    0.0000 </r>
       <r>   38.4612    0.0000 </r>
      </set>
      <set comment="kpoint 81">
       <r>    0.0427    1.0000 </r>
       <r>    0.4379    1.0000 </r>
       <r>    2.9567    1.0000 </r>
       <r>    5.0063    1.0000 </r>
       <r>    5.7677    1.0000 </r>
       <r>    8.4883   -0.0303 </r>
       <r>   17.2784    0.0000 </r>
       <r>   19.9483    0.0000 </r>
       <r>   21.4563    0.0000 </r>
       <r>   29.3283    0.0000 </r>
       <r>   31.1677    0.0000 </r>
       <r>   37.0473    0.0000 </r>
      </set>
      <set comment="kpoint 82">
       <r>   -0.1770    1.0000 </r>
       <r>    0.6458    1.0000 </r>
       <r>    2.8575    1.0000 </r>
       <r>    4.1869    1.0000 </r>
       <r>    5.9924    1.0000 </r>
       <r>    6.5680    1.0000 </r>
       <r>   18.5094    0.0000 </r>
       <r>   22.9721    0.0000 </r>
       <r>   23.1323    0.0000 </r>
       <r>   27.3710    0.0000 </r>
       <r>   31.3196    0.0000 </r>
       <r>   37.3347    0.0000 </r>
      </set>
      <set comment="kpoint 83">
       <r>   -1.7592    1.0000 </r>
       <r>    2.1092    1.0000 </r>
       <r>    2.7103    1.0000 </r>
       <r>    2.7103    1.0000 </r>
       <r>    4.6388    1.0000 </r>
       <r>    4.6388    1.0000 </r>
       <r>   20.6883    0.0000 </r>
       <r>   24.7916    0.0000 </r>
       <r>   30.5861    0.0000 </r>
       <r>   30.5861    0.0000 </r>
       <r>   32.0581    0.0000 </r>
       <r>   33.7574    0.0000 </r>
      </set>
      <set comment="kpoint 84">
       <r>   -1.0837    1.0000 </r>
       <r>    1.9531    1.0000 </r>
       <r>    2.6228    1.0000 </r>
       <r>    2.8954    1.0000 </r>
       <r>    4.3107    1.0000 </r>
       <r>    5.7214    1.0000 </r>
       <r>   19.5237    0.0000 </r>
       <r>   24.4395    0.0000 </r>
       <r>   27.2394    0.0000 </r>
       <r>   30.6406    0.0000 </r>
       <r>   32.3622    0.0000 </r>
       <r>   34.0651    0.0000 </r>
      </set>
      <set comment="kpoint 85">
       <r>    0.0613    1.0000 </r>
       <r>    1.5939    1.0000 </r>
       <r>    2.2191    1.0000 </r>
       <r>    3.4015    1.0000 </r>
       <r>    4.1732    1.0000 </r>
       <r>    7.2748    1.0000 </r>
       <r>   18.5071    0.0000 </r>
       <r>   21.5867    0.0000 </r>
       <r>   26.0936    0.0000 </r>
       <r>   30.3497    0.0000 </r>
       <r>   30.7450    0.0000 </r>
       <r>   36.9281    0.0000 </r>
      </set>
      <set comment="kpoint 86">
       <r>    0.6031    1.0000 </r>
       <r>    1.6848    1.0000 </r>
       <r>    2.0335    1.0000 </r>
       <r>    3.6137    1.0000 </r>
       <r>    4.7879    1.0000 </r>
       <r>    8.9448   -0.0000 </r>
       <r>   16.5810    0.0000 </r>
       <r>   19.1677    0.0000 </r>
       <r>   25.9474    0.0000 </r>
       <r>   27.4543    0.0000 </r>
       <r>   32.9268    0.0000 </r>
       <r>   36.8531    0.0000 </r>
      </set>
      <set comment="kpoint 87">
       <r>    0.2670    1.0000 </r>
       <r>    1.4293    1.0000 </r>
       <r>    2.6868    1.0000 </r>
       <r>    3.7102    1.0000 </r>
       <r>    5.7043    1.0000 </r>
       <r>   11.0388   -0.0000 </r>
       <r>   12.9779   -0.0000 </r>
       <r>   19.7093    0.0000 </r>
       <r>   24.7819    0.0000 </r>
       <r>   26.1556    0.0000 </r>
       <r>   35.8155    0.0000 </r>
       <r>   36.8437    0.0000 </r>
      </set>
      <set comment="kpoint 88">
       <r>   -0.0087    1.0000 </r>
       <r>    1.1304    1.0000 </r>
       <r>    2.7393    1.0000 </r>
       <r>    3.9278    1.0000 </r>
       <r>    6.2112    1.0000 </r>
       <r>    9.4648   -0.0000 </r>
       <r>   14.3125    0.0000 </r>
       <r>   21.2786    0.0000 </r>
       <r>   23.1739    0.0000 </r>
       <r>   26.7654    0.0000 </r>
       <r>   35.1422    0.0000 </r>
       <r>   37.0424    0.0000 </r>
      </set>
      <set comment="kpoint 89">
       <r>   -0.8931    1.0000 </r>
       <r>    2.2002    1.0000 </r>
       <r>    2.4182    1.0000 </r>
       <r>    2.8734    1.0000 </r>
       <r>    5.3142    1.0000 </r>
       <r>    5.5652    1.0000 </r>
       <r>   18.1088    0.0000 </r>
       <r>   24.3892    0.0000 </r>
       <r>   27.1077    0.0000 </r>
       <r>   29.0394    0.0000 </r>
       <r>   33.8265    0.0000 </r>
       <r>   34.7052    0.0000 </r>
      </set>
      <set comment="kpoint 90">
       <r>   -0.1793    1.0000 </r>
       <r>    1.9324    1.0000 </r>
       <r>    2.0231    1.0000 </r>
       <r>    3.3331    1.0000 </r>
       <r>    5.1622    1.0000 </r>
       <r>    7.1971    1.0000 </r>
       <r>   16.9906    0.0000 </r>
       <r>   23.1107    0.0000 </r>
       <r>   24.8626    0.0000 </r>
       <r>   28.7625    0.0000 </r>
       <r>   32.9691    0.0000 </r>
       <r>   36.4440    0.0000 </r>
      </set>
      <set comment="kpoint 91">
       <r>    0.8470    1.0000 </r>
       <r>    1.4191    1.0000 </r>
       <r>    1.6615    1.0000 </r>
       <r>    3.9867    1.0000 </r>
       <r>    5.0919    1.0000 </r>
       <r>    9.0949   -0.0000 </r>
       <r>   16.5481    0.0000 </r>
       <r>   19.1767    0.0000 </r>
       <r>   24.0480    0.0000 </r>
       <r>   29.1280    0.0000 </r>
       <r>   32.4068    0.0000 </r>
       <r>   37.9648    0.0000 </r>
      </set>
      <set comment="kpoint 92">
       <r>    0.6897    1.0000 </r>
       <r>    1.3128    1.0000 </r>
       <r>    2.1065    1.0000 </r>
       <r>    4.1235    1.0000 </r>
       <r>    5.6630    1.0000 </r>
       <r>   11.0781   -0.0000 </r>
       <r>   15.1109    0.0000 </r>
       <r>   17.4030    0.0000 </r>
       <r>   22.5846    0.0000 </r>
       <r>   28.7958    0.0000 </r>
       <r>   34.0950    0.0000 </r>
       <r>   38.8167    0.0000 </r>
      </set>
      <set comment="kpoint 93">
       <r>    0.2557    1.0000 </r>
       <r>    0.9349    1.0000 </r>
       <r>    2.6514    1.0000 </r>
       <r>    4.4621    1.0000 </r>
       <r>    6.0756    1.0000 </r>
       <r>   11.4543   -0.0000 </r>
       <r>   13.8429    0.0000 </r>
       <r>   18.8828    0.0000 </r>
       <r>   21.1587    0.0000 </r>
       <r>   28.9276    0.0000 </r>
       <r>   34.4133    0.0000 </r>
       <r>   36.6151    0.0000 </r>
      </set>
      <set comment="kpoint 94">
       <r>   -0.1461    1.0000 </r>
       <r>    1.5010    1.0000 </r>
       <r>    2.4277    1.0000 </r>
       <r>    3.4919    1.0000 </r>
       <r>    6.1544    1.0000 </r>
       <r>    7.7876    1.0015 </r>
       <r>   15.5026    0.0000 </r>
       <r>   23.2161    0.0000 </r>
       <r>   24.1712    0.0000 </r>
       <r>   26.5306    0.0000 </r>
       <r>   35.3009    0.0000 </r>
       <r>   36.3844    0.0000 </r>
      </set>
      <set comment="kpoint 95">
       <r>    0.2843    1.0000 </r>
       <r>    1.1488    1.0000 </r>
       <r>    2.3144    1.0000 </r>
       <r>    4.1588    1.0000 </r>
       <r>    5.9400    1.0000 </r>
       <r>    9.7635   -0.0000 </r>
       <r>   14.6853    0.0000 </r>
       <r>   20.8024    0.0000 </r>
       <r>   21.9663    0.0000 </r>
       <r>   28.3896    0.0000 </r>
       <r>   34.0195    0.0000 </r>
       <r>   37.1248    0.0000 </r>
      </set>
      <set comment="kpoint 96">
       <r>    0.7061    1.0000 </r>
       <r>    1.2685    1.0000 </r>
       <r>    1.8640    1.0000 </r>
       <r>    4.3016    1.0000 </r>
       <r>    6.1345    1.0000 </r>
       <r>   11.8502   -0.0000 </r>
       <r>   15.1035    0.0000 </r>
       <r>   17.1974    0.0000 </r>
       <r>   20.2951    0.0000 </r>
       <r>   31.2030    0.0000 </r>
       <r>   33.0193    0.0000 </r>
       <r>   37.2897    0.0000 </r>
      </set>
      <set comment="kpoint 97">
       <r>    0.5452    1.0000 </r>
       <r>    1.2756    1.0000 </r>
       <r>    2.0647    1.0000 </r>
       <r>    4.2401    1.0000 </r>
       <r>    6.4433    1.0000 </r>
       <r>   13.3639   -0.0000 </r>
       <r>   14.6518    0.0000 </r>
       <r>   16.1832    0.0000 </r>
       <r>   19.2442    0.0000 </r>
       <r>   32.1474    0.0000 </r>
       <r>   33.6633    0.0000 </r>
       <r>   35.6666    0.0000 </r>
      </set>
      <set comment="kpoint 98">
       <r>   -0.0073    1.0000 </r>
       <r>    0.8863    1.0000 </r>
       <r>    3.1091    1.0000 </r>
       <r>    4.3798    1.0000 </r>
       <r>    6.1028    1.0000 </r>
       <r>   11.2848   -0.0000 </r>
       <r>   13.3803   -0.0000 </r>
       <r>   19.0874    0.0000 </r>
       <r>   22.5177    0.0000 </r>
       <r>   27.2847    0.0000 </r>
       <r>   35.0285    0.0000 </r>
       <r>   37.4165    0.0000 </r>
      </set>
      <set comment="kpoint 99">
       <r>    0.1912    1.0000 </r>
       <r>    0.8480    1.0000 </r>
       <r>    2.9125    1.0000 </r>
       <r>    4.5727    1.0000 </r>
       <r>    6.1492    1.0000 </r>
       <r>   12.8593   -0.0000 </r>
       <r>   13.5536   -0.0000 </r>
       <r>   17.0788    0.0000 </r>
       <r>   20.8195    0.0000 </r>
       <r>   29.3418    0.0000 </r>
       <r>   34.9275    0.0000 </r>
       <r>   35.9049    0.0000 </r>
      </set>
      <set comment="kpoint 100">
       <r>   -0.0431    1.0000 </r>
       <r>    0.7731    1.0000 </r>
       <r>    3.3609    1.0000 </r>
       <r>    4.7290    1.0000 </r>
       <r>    5.9303    1.0000 </r>
       <r>   12.6248   -0.0000 </r>
       <r>   13.1652   -0.0000 </r>
       <r>   17.2128    0.0000 </r>
       <r>   22.1977    0.0000 </r>
       <r>   27.6512    0.0000 </r>
       <r>   35.0055    0.0000 </r>
       <r>   37.5612    0.0000 </r>
      </set>
      <set comment="kpoint 101">
       <r>   -1.1021    1.0000 </r>
       <r>    2.4933    1.0000 </r>
       <r>    2.4933    1.0000 </r>
       <r>    3.4592    1.0000 </r>
       <r>    5.3858    1.0000 </r>
       <r>    5.3858    1.0000 </r>
       <r>   16.5708    0.0000 </r>
       <r>   23.6172    0.0000 </r>
       <r>   29.0797    0.0000 </r>
       <r>   29.0797    0.0000 </r>
       <r>   34.1975    0.0000 </r>
       <r>   34.4001    0.0000 </r>
      </set>
      <set comment="kpoint 102">
       <r>   -0.7108    1.0000 </r>
       <r>    2.2390    1.0000 </r>
       <r>    2.6374    1.0000 </r>
       <r>    3.3916    1.0000 </r>
       <r>    5.2324    1.0000 </r>
       <r>    6.9007    1.0000 </r>
       <r>   15.3803    0.0000 </r>
       <r>   23.5006    0.0000 </r>
       <r>   25.8991    0.0000 </r>
       <r>   29.0679    0.0000 </r>
       <r>   33.5159    0.0000 </r>
       <r>   35.7174    0.0000 </r>
      </set>
      <set comment="kpoint 103">
       <r>    0.1371    1.0000 </r>
       <r>    1.7125    1.0000 </r>
       <r>    2.7316    1.0000 </r>
       <r>    3.2400    1.0000 </r>
       <r>    5.2023    1.0000 </r>
       <r>    8.9487   -0.0000 </r>
       <r>   14.7499    0.0000 </r>
       <r>   21.1244    0.0000 </r>
       <r>   25.3974    0.0000 </r>
       <r>   27.2977    0.0000 </r>
       <r>   33.7515    0.0000 </r>
       <r>   36.6598    0.0000 </r>
      </set>
      <set comment="kpoint 104">
       <r>    0.4159    1.0000 </r>
[...]
      <set comment="kpoint 93">
       <set comment="band 1">
        <r>  0.0533  0.0283  0.8327 </r>
       </set>
       <set comment="band 2">
        <r>  0.0001  0.0987  0.8150 </r>
       </set>
       <set comment="band 3">
        <r>  0.0390  0.1384  0.7483 </r>
       </set>
       <set comment="band 4">
        <r>  0.0021  0.0333  0.9124 </r>
       </set>
       <set comment="band 5">
        <r>  0.0045  0.0028  0.9645 </r>
       </set>
       <set comment="band 6">
        <r>  0.2367  0.2902  0.3613 </r>
       </set>
       <set comment="band 7">
        <r>  0.2935  0.3444  0.1444 </r>
       </set>
       <set comment="band 8">
        <r>  0.1193  0.4115  0.2724 </r>
       </set>
       <set comment="band 9">
        <r>  0.0016  0.4246  0.2547 </r>
       </set>
       <set comment="band 10">
        <r>  0.0217  0.1554  0.2337 </r>
       </set>
       <set comment="band 11">
        <r>  0.0263  0.1043  0.2196 </r>
       </set>
       <set comment="band 12">
        <r>  0.0598  0.0447  0.2544 </r>
       </set>
      </set>
      <set comment="kpoint 94">
       <set comment="band 1">
        <r>  0.1830  0.0502  0.6792 </r>
       </set>
       <set comment="band 2">
        <r>  0.0090  0.0936  0.7997 </r>
       </set>
       <set comment="band 3">
        <r>  0.0910  0.1092  0.7233 </r>
       </set>
       <set comment="band 4">
        <r>  0.0000  0.0144  0.9394 </r>
       </set>
       <set comment="band 5">
        <r>  0.0000  0.0008  0.9781 </r>
       </set>
       <set comment="band 6">
        <r>  0.1300  0.2272  0.5531 </r>
       </set>
       <set comment="band 7">
        <r>  0.2834  0.3098  0.1954 </r>
       </set>
       <set comment="band 8">
        <r>  0.0364  0.2130  0.2514 </r>
       </set>
       <set comment="band 9">
        <r>  0.0000  0.5321  0.1185 </r>
       </set>
       <set comment="band 10">
        <r>  0.0522  0.2187  0.2256 </r>
       </set>
       <set comment="band 11">
        <r>  0.0486  0.2380  0.1303 </r>
       </set>
       <set comment="band 12">
        <r>  0.0000  0.0049  0.2071 </r>
       </set>
      </set>
      <set comment="kpoint 95">
       <set comment="band 1">
        <r>  0.0934  0.0478  0.7765 </r>
       </set>
       <set comment="band 2">
        <r>  0.0005  0.0893  0.8159 </r>
       </set>
       <set comment="band 3">
        <r>  0.0715  0.1161  0.7367 </r>
       </set>
       <set comment="band 4">
        <r>  0.0012  0.0393  0.9076 </r>
       </set>
       <set comment="band 5">
        <r>  0.0013  0.0093  0.9596 </r>
       </set>
       <set comment="band 6">
        <r>  0.1967  0.2512  0.4546 </r>
       </set>
       <set comment="band 7">
        <r>  0.2958  0.3231  0.1674 </r>
       </set>
       <set comment="band 8">
        <r>  0.0902  0.4769  0.2033 </r>
       </set>
       <set comment="band 9">
        <r>  0.0050  0.3151  0.3058 </r>
       </set>
       <set comment="band 10">
        <r>  0.0196  0.2063  0.1535 </r>
       </set>
       <set comment="band 11">
        <r>  0.0123  0.1124  0.2190 </r>
       </set>
       <set comment="band 12">
        <r>  0.0777  0.0581  0.2991 </r>
       </set>
      </set>
      <set comment="kpoint 96">
       <set comment="band 1">
        <r>  0.0067  0.0683  0.8145 </r>
       </set>
       <set comment="band 2">
        <r>  0.0119  0.0921  0.8323 </r>
       </set>
       <set comment="band 3">
        <r>  0.0392  0.1179  0.7712 </r>
       </set>
       <set comment="band 4">
        <r>  0.0203  0.0230  0.8968 </r>
       </set>
       <set comment="band 5">
        <r>  0.0014  0.0070  0.9643 </r>
       </set>
       <set comment="band 6">
        <r>  0.3544  0.2248  0.2814 </r>
       </set>
       <set comment="band 7">
        <r>  0.2006  0.4026  0.2053 </r>
       </set>
       <set comment="band 8">
        <r>  0.1132  0.4910  0.2074 </r>
       </set>
       <set comment="band 9">
        <r>  0.0099  0.3322  0.3762 </r>
       </set>
       <set comment="band 10">
        <r>  0.0029  0.1885  0.1310 </r>
       </set>
       <set comment="band 11">
        <r>  0.0004  0.0405  0.2871 </r>
       </set>
       <set comment="band 12">
        <r>  0.0371  0.1928  0.2376 </r>
       </set>
      </set>
      <set comment="kpoint 97">
       <set comment="band 1">
        <r>  0.0048  0.0661  0.8177 </r>
       </set>
       <set comment="band 2">
        <r>  0.0035  0.0953  0.8385 </r>
       </set>
       <set comment="band 3">
        <r>  0.0058  0.1259  0.8008 </r>
       </set>
       <set comment="band 4">
        <r>  0.0456  0.0059  0.8832 </r>
       </set>
       <set comment="band 5">
        <r>  0.0002  0.0020  0.9767 </r>
       </set>
       <set comment="band 6">
        <r>  0.4949  0.1584  0.1836 </r>
       </set>
       <set comment="band 7">
        <r>  0.1056  0.4999  0.2192 </r>
       </set>
       <set comment="band 8">
        <r>  0.0943  0.5113  0.2112 </r>
       </set>
       <set comment="band 9">
        <r>  0.0000  0.3321  0.4051 </r>
       </set>
       <set comment="band 10">
        <r>  0.0023  0.0943  0.2652 </r>
       </set>
       <set comment="band 11">
        <r>  0.0016  0.0614  0.2335 </r>
       </set>
       <set comment="band 12">
        <r>  0.0216  0.2655  0.1473 </r>
       </set>
      </set>
      <set comment="kpoint 98">
       <set comment="band 1">
        <r>  0.0679  0.0100  0.8431 </r>
       </set>
       <set comment="band 2">
        <r>  0.0004  0.1021  0.8061 </r>
       </set>
       <set comment="band 3">
        <r>  0.0377  0.1664  0.7191 </r>
       </set>
       <set comment="band 4">
        <r>  0.0000  0.0177  0.9342 </r>
       </set>
       <set comment="band 5">
        <r>  0.0000  0.0002  0.9747 </r>
       </set>
       <set comment="band 6">
        <r>  0.1756  0.3313  0.3887 </r>
       </set>
       <set comment="band 7">
        <r>  0.3450  0.3093  0.1167 </r>
       </set>
       <set comment="band 8">
        <r>  0.1093  0.3505  0.3338 </r>
       </set>
       <set comment="band 9">
        <r>  0.0000  0.5554  0.1130 </r>
       </set>
       <set comment="band 10">
        <r>  0.0421  0.0870  0.3245 </r>
       </set>
       <set comment="band 11">
        <r>  0.0793  0.1118  0.2434 </r>
       </set>
       <set comment="band 12">
        <r>  0.0000  0.0011  0.1649 </r>
       </set>
      </set>
      <set comment="kpoint 99">
       <set comment="band 1">
        <r>  0.0385  0.0204  0.8509 </r>
       </set>
       <set comment="band 2">
        <r>  0.0006  0.1018  0.8177 </r>
       </set>
       <set comment="band 3">
        <r>  0.0056  0.1586  0.7643 </r>
       </set>
       <set comment="band 4">
        <r>  0.0148  0.0175  0.9136 </r>
       </set>
       <set comment="band 5">
        <r>  0.0011  0.0040  0.9682 </r>
       </set>
       <set comment="band 6">
        <r>  0.4721  0.1703  0.1922 </r>
       </set>
       <set comment="band 7">
        <r>  0.0705  0.5222  0.2343 </r>
       </set>
       <set comment="band 8">
        <r>  0.1388  0.3695  0.3127 </r>
       </set>
       <set comment="band 9">
        <r>  0.0052  0.4559  0.2371 </r>
       </set>
       <set comment="band 10">
        <r>  0.0229  0.1297  0.3037 </r>
       </set>
       <set comment="band 11">
        <r>  0.0559  0.1156  0.2184 </r>
       </set>
       <set comment="band 12">
        <r>  0.0237  0.0348  0.1880 </r>
       </set>
      </set>
      <set comment="kpoint 100">
       <set comment="band 1">
        <r>  0.0526  0.0012  0.8650 </r>
       </set>
       <set comment="band 2">
        <r>  0.0000  0.1054  0.8076 </r>
       </set>
       <set comment="band 3">
        <r>  0.0049  0.1825  0.7391 </r>
       </set>
       <set comment="band 4">
        <r>  0.0000  0.0188  0.9343 </r>
       </set>
       <set comment="band 5">
        <r>  0.0000  0.0001  0.9707 </r>
       </set>
       <set comment="band 6">
        <r>  0.5041  0.1508  0.1606 </r>
       </set>
       <set comment="band 7">
        <r>  0.0260  0.5470  0.2678 </r>
       </set>
       <set comment="band 8">
        <r>  0.1465  0.3218  0.3572 </r>
       </set>
       <set comment="band 9">
        <r>  0.0000  0.5602  0.1157 </r>
       </set>
       <set comment="band 10">
        <r>  0.0428  0.0717  0.3775 </r>
       </set>
       <set comment="band 11">
        <r>  0.0912  0.0915  0.2599 </r>
       </set>
       <set comment="band 12">
        <r>  0.0000  0.0001  0.1409 </r>
       </set>
      </set>
      <set comment="kpoint 101">
       <set comment="band 1">
        <r>  0.3645  0.0362  0.4957 </r>
       </set>
       <set comment="band 2">
        <r>  0.0000  0.0009  0.9592 </r>
       </set>
       <set comment="band 3">
        <r>  0.0000  0.0009  0.9592 </r>
       </set>
       <set comment="band 4">
        <r>  0.1512  0.3461  0.3490 </r>
       </set>
       <set comment="band 5">
        <r>  0.0000  0.0034  0.9630 </r>
       </set>
       <set comment="band 6">
        <r>  0.0000  0.0034  0.9630 </r>
       </set>
       <set comment="band 7">
        <r>  0.2523  0.2656  0.2676 </r>
       </set>
       <set comment="band 8">
        <r>  0.0010  0.0378  0.0433 </r>
       </set>
       <set comment="band 9">
        <r>  0.0000  0.4974  0.0902 </r>
       </set>
       <set comment="band 10">
        <r>  0.0000  0.4974  0.0902 </r>
       </set>
       <set comment="band 11">
        <r>  0.0556  0.0956  0.1109 </r>
       </set>
       <set comment="band 12">
        <r>  0.0000  0.0018  0.4100 </r>
       </set>
      </set>
      <set comment="kpoint 102">
       <set comment="band 1">
        <r>  0.2868  0.0395  0.5827 </r>
       </set>
       <set comment="band 2">
        <r>  0.0005  0.0066  0.9440 </r>
       </set>
       <set comment="band 3">
        <r>  0.0000  0.0012  0.9547 </r>
       </set>
       <set comment="band 4">
        <r>  0.0896  0.3006  0.4738 </r>
       </set>
       <set comment="band 5">
        <r>  0.0000  0.0034  0.9594 </r>
       </set>
       <set comment="band 6">
        <r>  0.0757  0.1171  0.7476 </r>
       </set>
       <set comment="band 7">
        <r>  0.2966  0.2497  0.2758 </r>
       </set>
       <set comment="band 8">
        <r>  0.0003  0.0720  0.1136 </r>
       </set>
       <set comment="band 9">
        <r>  0.0232  0.4547  0.0748 </r>
       </set>
       <set comment="band 10">
        <r>  0.0000  0.4708  0.1080 </r>
       </set>
       <set comment="band 11">
        <r>  0.0109  0.0431  0.2428 </r>
       </set>
       <set comment="band 12">
        <r>  0.0000  0.0217  0.5529 </r>
       </set>
      </set>
      <set comment="kpoint 103">
       <set comment="band 1">
        <r>  0.1878  0.0633  0.6692 </r>
       </set>
       <set comment="band 2">
        <r>  0.0009  0.0367  0.8863 </r>
       </set>
       <set comment="band 3">
        <r>  0.0298  0.2310  0.6328 </r>
       </set>
       <set comment="band 4">
        <r>  0.0000  0.0087  0.9407 </r>
       </set>
       <set comment="band 5">
        <r>  0.0000  0.0026  0.9592 </r>
       </set>
       <set comment="band 6">
        <r>  0.2018  0.1788  0.5242 </r>
       </set>
       <set comment="band 7">
        <r>  0.2847  0.2766  0.2704 </r>
       </set>
       <set comment="band 8">
        <r>  0.0460  0.4095  0.2599 </r>
       </set>
       <set comment="band 9">
        <r>  0.0175  0.1193  0.0899 </r>
       </set>
       <set comment="band 10">
        <r>  0.0000  0.4938  0.1812 </r>
       </set>
       <set comment="band 11">
        <r>  0.0032  0.0423  0.1477 </r>
       </set>
       <set comment="band 12">
        <r>  0.0000  0.0026  0.4043 </r>
       </set>
      </set>
      <set comment="kpoint 104">
       <set comment="band 1">
        <r>  0.0746  0.0094  0.8465 </r>
       </set>
       <set comment="band 2">
        <r>  0.0154  0.1605  0.7139 </r>
       </set>
       <set comment="band 3">
        <r>  0.0001  0.1550  0.7744 </r>
       </set>
       <set comment="band 4">
        <r>  0.0000  0.0179  0.9294 </r>
       </set>
       <set comment="band 5">
        <r>  0.0000  0.0005  0.9637 </r>
       </set>
       <set comment="band 6">
        <r>  0.3931  0.1680  0.2776 </r>
       </set>
       <set comment="band 7">
        <r>  0.1215  0.4160  0.3198 </r>
       </set>
       <set comment="band 8">
        <r>  0.1378  0.3808  0.2905 </r>
       </set>
       <set comment="band 9">
        <r>  0.0000  0.5297  0.1738 </r>
       </set>
       <set comment="band 10">
        <r>  0.0225  0.0772  0.2602 </r>
       </set>
       <set comment="band 11">
        <r>  0.0001  0.0432  0.0546 </r>
       </set>
       <set comment="band 12">
        <r>  0.0000  0.0001  0.2291 </r>
       </set>
      </set>
      <set comment="kpoint 105">
       <set comment="band 1">
        <r>  0.2491  0.0259  0.6429 </r>
       </set>
       <set comment="band 2">
        <r>  0.0003  0.0075  0.9373 </r>
       </set>
       <set comment="band 3">
        <r>  0.0000  0.0053  0.9518 </r>
       </set>
       <set comment="band 4">
        <r>  0.0554  0.2668  0.5571 </r>
       </set>
       <set comment="band 5">
        <r>  0.0000  0.0006  0.9763 </r>
       </set>
       <set comment="band 6">
        <r>  0.0760  0.2504  0.5722 </r>
       </set>
       <set comment="band 7">
        <r>  0.3624  0.1904  0.3015 </r>
       </set>
       <set comment="band 8">
        <r>  0.0010  0.0376  0.0664 </r>
       </set>
       <set comment="band 9">
        <r>  0.0000  0.5120  0.0741 </r>
       </set>
       <set comment="band 10">
        <r>  0.0275  0.4371  0.1350 </r>
       </set>
       <set comment="band 11">
        <r>  0.0000  0.0003  0.4056 </r>
       </set>
       <set comment="band 12">
        <r>  0.0022  0.0163  0.5357 </r>
       </set>
      </set>
      <set comment="kpoint 106">
       <set comment="band 1">
        <r>  0.1846  0.0475  0.6912 </r>
       </set>
       <set comment="band 2">
        <r>  0.0001  0.0224  0.9036 </r>
       </set>
       <set comment="band 3">
        <r>  0.0065  0.0924  0.8328 </r>
       </set>
       <set comment="band 4">
        <r>  0.0132  0.1476  0.7578 </r>
       </set>
       <set comment="band 5">
        <r>  0.0009  0.0065  0.9623 </r>
       </set>
       <set comment="band 6">
        <r>  0.1115  0.3174  0.4528 </r>
       </set>
       <set comment="band 7">
        <r>  0.3937  0.1698  0.2969 </r>
       </set>
       <set comment="band 8">
        <r>  0.0136  0.2741  0.2086 </r>
       </set>
       <set comment="band 9">
        <r>  0.0406  0.3431  0.1610 </r>
       </set>
       <set comment="band 10">
        <r>  0.0028  0.3972  0.0502 </r>
       </set>
       <set comment="band 11">
        <r>  0.0035  0.0238  0.3864 </r>
       </set>
       <set comment="band 12">
        <r>  0.0009  0.0092  0.3600 </r>
       </set>
      </set>
      <set comment="kpoint 107">
       <set comment="band 1">
        <r>  0.0932  0.0492  0.7864 </r>
       </set>
       <set comment="band 2">
        <r>  0.0102  0.0826  0.8078 </r>
       </set>
       <set comment="band 3">
        <r>  0.0002  0.1674  0.7540 </r>
       </set>
       <set comment="band 4">
        <r>  0.0022  0.0227  0.9215 </r>
       </set>
       <set comment="band 5">
        <r>  0.0064  0.0017  0.9591 </r>
       </set>
       <set comment="band 6">
        <r>  0.3038  0.2504  0.2912 </r>
       </set>
       <set comment="band 7">
        <r>  0.2348  0.3124  0.3138 </r>
       </set>
       <set comment="band 8">
        <r>  0.0943  0.4300  0.2518 </r>
       </set>
       <set comment="band 9">
        <r>  0.0143  0.3601  0.2649 </r>
       </set>
       <set comment="band 10">
        <r>  0.0030  0.2321  0.1035 </r>
       </set>
       <set comment="band 11">
        <r>  0.0006  0.0210  0.2930 </r>
       </set>
       <set comment="band 12">
        <r>  0.0007  0.0117  0.1601 </r>
       </set>
      </set>
      <set comment="kpoint 108">
       <set comment="band 1">
        <r>  0.1498  0.0402  0.7375 </r>
       </set>
       <set comment="band 2">
        <r>  0.0025  0.0554  0.8547 </r>
       </set>
       <set comment="band 3">
        <r>  0.0111  0.2003  0.6992 </r>
       </set>
       <set comment="band 4">
        <r>  0.0000  0.0115  0.9394 </r>
       </set>
       <set comment="band 5">
        <r>  0.0000  0.0005  0.9731 </r>
       </set>
       <set comment="band 6">
        <r>  0.0063  0.4835  0.3575 </r>
       </set>
       <set comment="band 7">
        <r>  0.5223  0.0424  0.3148 </r>
       </set>
       <set comment="band 8">
        <r>  0.0482  0.3322  0.2515 </r>
       </set>
       <set comment="band 9">
        <r>  0.0000  0.5250  0.1203 </r>
       </set>
       <set comment="band 10">
        <r>  0.0271  0.1604  0.1405 </r>
       </set>
       <set comment="band 11">
        <r>  0.0031  0.0258  0.3304 </r>
       </set>
       <set comment="band 12">
        <r>  0.0000  0.0010  0.3310 </r>
       </set>
      </set>
      <set comment="kpoint 109">
       <set comment="band 1">
        <r>  0.2542  0.0032  0.6660 </r>
       </set>
       <set comment="band 2">
        <r>  0.0000  0.0001  0.9588 </r>
       </set>
       <set comment="band 3">
        <r>  0.0000  0.0001  0.9588 </r>
       </set>
       <set comment="band 4">
        <r>  0.0586  0.6495  0.0642 </r>
       </set>
       <set comment="band 5">
        <r>  0.0000  0.0006  0.9743 </r>
       </set>
       <set comment="band 6">
        <r>  0.0000  0.0006  0.9743 </r>
       </set>
       <set comment="band 7">
        <r>  0.4444  0.0847  0.3729 </r>
       </set>
       <set comment="band 8">
        <r>  0.0001  0.0285  0.0041 </r>
       </set>
       <set comment="band 9">
        <r>  0.0000  0.4932  0.0107 </r>
       </set>
       <set comment="band 10">
        <r>  0.0000  0.4932  0.0107 </r>
       </set>
       <set comment="band 11">
        <r>  0.0000  0.0014  0.6268 </r>
       </set>
       <set comment="band 12">
        <r>  0.0000  0.0014  0.6268 </r>
       </set>
      </set>
      <set comment="kpoint 110">
       <set comment="band 1">
        <r>  0.2216  0.0176  0.6862 </r>
       </set>
       <set comment="band 2">
        <r>  0.0001  0.0080  0.9379 </r>
       </set>
       <set comment="band 3">
        <r>  0.0000  0.0030  0.9530 </r>
       </set>
       <set comment="band 4">
        <r>  0.0014  0.2921  0.5900 </r>
       </set>
       <set comment="band 5">
        <r>  0.0000  0.0007  0.9731 </r>
       </set>
       <set comment="band 6">
        <r>  0.0138  0.4243  0.4155 </r>
       </set>
       <set comment="band 7">
        <r>  0.5028  0.0233  0.3886 </r>
       </set>
       <set comment="band 8">
        <r>  0.0006  0.0463  0.0701 </r>
       </set>
       <set comment="band 9">
        <r>  0.0224  0.4665  0.0745 </r>
       </set>
       <set comment="band 10">
        <r>  0.0000  0.4980  0.0541 </r>
       </set>
       <set comment="band 11">
        <r>  0.0075  0.0081  0.4894 </r>
       </set>
       <set comment="band 12">
        <r>  0.0000  0.0010  0.5718 </r>
       </set>
      </set>
     </set>
    </set>
   </array>
  </projected>
 </calculation>
 <structure name="finalpos" >
  <crystal>
   <varray name="basis" >
    <v>       0.00000000       1.92500000       1.92500000 </v>
    <v>       1.92500000       0.00000000       1.92500000 </v>
    <v>       1.92500000       1.92500000       0.00000000 </v>
   </varray>
   <i name="volume">     14.26665625 </i>
   <varray name="rec_basis" >
    <v>      -0.25974026       0.25974026       0.25974026 </v>
    <v>       0.25974026      -0.25974026       0.25974026 </v>
    <v>       0.25974026       0.25974026      -0.25974026 </v>
   </varray>
  </crystal>
  <varray name="positions" >
   <v>       0.00000000       0.00000000       0.00000000 </v>
  </varray>
 </structure>
</modeling>
