FCC Au                                  
   4.30000000000000     
     0.000000    0.500000    0.500000
     0.500000    0.000000    0.500000
     0.500000    0.500000    0.000000
   Au
     1
Direct
  0.000000  0.000000  0.000000
 
   24   24   24
  96.743      92.696      82.364      69.466      56.555      44.062      31.908      21.060      13.031      8.3061    
  5.8304      4.5379      4.1351      4.5379      5.8304      8.3061      13.031      21.060      31.908      44.062    
  56.555      69.466      82.364      92.696      92.696      85.553      74.128      61.579      49.226      37.068    
  25.587      16.219      10.074      6.7689      4.9895      4.1867      4.1861      4.9886      6.7689      10.075    
  16.220      25.592      37.077      49.232      61.569      74.098      85.518      92.680      82.364      74.128    
  63.398      51.993      40.412      29.036      19.067      11.876      7.7106      5.4798      4.3191      3.9600    
  4.3188      5.4798      7.7104      11.876      19.069      29.044      40.423      51.996      63.381      74.095    
  82.337      85.518      69.466      61.579      51.993      41.568      30.886      21.026      13.371      8.5657    
  5.9384      4.4848      3.8414      3.8417      4.4855      5.9387      8.5645      13.369      21.025      30.889    
  41.574      51.997      61.576      69.459      74.095      74.098      56.555      49.226      40.412      30.886    
  21.722      14.221      9.1803      6.2941      4.6355      3.7907      3.5329      3.7907      4.6361      6.2952    
  9.1803      14.218      21.717      30.881      40.412      49.233      56.565      61.576      63.381      61.569    
  44.062      37.068      29.036      21.026      14.221      9.4057      6.4884      4.7357      3.7698      3.3491    
  3.3486      3.7691      4.7364      6.4914      9.4094      14.222      21.021      29.027      37.060      44.058    
  49.233      51.997      51.996      49.232      31.908      25.587      19.067      13.371      9.1803      6.4884    
  4.7699      3.7596      3.2504      3.0961      3.2500      3.7588      4.7699      6.4918      9.1879      13.379    
  19.069      25.579      31.891      37.060      40.412      41.574      40.423      37.077      21.060      16.219    
  11.876      8.5657      6.2941      4.7357      3.7596      3.2184      2.9816      2.9820      3.2183      3.7572    
  4.7320      6.2936      8.5726      11.890      16.230      21.060      25.579      29.027      30.881      30.889    
  29.044      25.592      13.031      10.074      7.7106      5.9384      4.6355      3.7698      3.2504      2.9816    
  2.8996      2.9824      3.2504      3.7664      4.6281      5.9311      7.7107      10.085      13.046      16.230    
  19.069      21.021      21.717      21.025      19.069      16.220      8.3061      6.7689      5.4798      4.4848    
  3.7907      3.3491      3.0961      2.9820      2.9824      3.0981      3.3522      3.7911      4.4782      5.4675    
  6.7586      8.3057      10.085      11.890      13.379      14.222      14.218      13.369      11.876      10.075    
  5.8304      4.9895      4.3191      3.8414      3.5329      3.3486      3.2500      3.2183      3.2504      3.3522    
  3.5405      3.8486      4.3188      4.9792      5.8154      6.7586      7.7107      8.5726      9.1879      9.4094    
  9.1803      8.5645      7.7104      6.7689      4.5379      4.1867      3.9600      3.8417      3.7907      3.7691    
  3.7588      3.7572      3.7664      3.7911      3.8486      3.9717      4.1963      4.5383      4.9792      5.4675    
  5.9311      6.2936      6.4918      6.4914      6.2952      5.9387      5.4798      4.9886      4.1351      4.1861    
  4.3188      4.4855      4.6361      4.7364      4.7699      4.7320      4.6281      4.4782      4.3188      4.1963    
  4.1503      4.1963      4.3188      4.4782      4.6281      4.7320      4.7699      4.7364      4.6361      4.4855    
  4.3188      4.1861      4.5379      4.9886      5.4798      5.9387      6.2952      6.4914      6.4918      6.2936    
  5.9311      5.4675      4.9792      4.5383      4.1963      3.9717      3.8486      3.7911      3.7664      3.7572    
  3.7588      3.7691      3.7907      3.8417      3.9600      4.1867      5.8304      6.7689      7.7104      8.5645    
  9.1803      9.4094      9.1879      8.5726      7.7107      6.7586      5.8154      4.9792      4.3188      3.8486    
  3.5405      3.3522      3.2504      3.2183      3.2500      3.3486      3.5329      3.8414      4.3191      4.9895    
  8.3061      10.075      11.876      13.369      14.218      14.222      13.379      11.890      10.085      8.3057    
  6.7586      5.4675      4.4782      3.7911      3.3522      3.0981      2.9824      2.9820      3.0961      3.3491    
  3.7907      4.4848      5.4798      6.7689      13.031      16.220      19.069      21.025      21.717      21.021    
  19.069      16.230      13.046      10.085      7.7107      5.9311      4.6281      3.7664      3.2504      2.9824    
  2.8996      2.9816      3.2504      3.7698      4.6355      5.9384      7.7106      10.074      21.060      25.592    
  29.044      30.889      30.881      29.027      25.579      21.060      16.230      11.890      8.5726      6.2936    
  4.7320      3.7572      3.2183      2.9820      2.9816      3.2184      3.7596      4.7357      6.2941      8.5657    
  11.876      16.219      31.908      37.077      40.423      41.574      40.412      37.060      31.891      25.579    
  19.069      13.379      9.1879      6.4918      4.7699      3.7588      3.2500      3.0961      3.2504      3.7596    
  4.7699      6.4884      9.1803      13.371      19.067      25.587      44.062      49.232      51.996      51.997    
  49.233      44.058      37.060      29.027      21.021      14.222      9.4094      6.4914      4.7364      3.7691    
  3.3486      3.3491      3.7698      4.7357      6.4884      9.4057      14.221      21.026      29.036      37.068    
  56.555      61.569      63.381      61.576      56.565      49.233      40.412      30.881      21.717      14.218    
  9.1803      6.2952      4.6361      3.7907      3.5329      3.7907      4.6355      6.2941      9.1803      14.221    
  21.722      30.886      40.412      49.226      69.466      74.098      74.095      69.459      61.576      51.997    
  41.574      30.889      21.025      13.369      8.5645      5.9387      4.4855      3.8417      3.8414      4.4848    
  5.9384      8.5657      13.371      21.026      30.886      41.568      51.993      61.579      82.364      85.518    
  82.337      74.095      63.381      51.996      40.423      29.044      19.069      11.876      7.7104      5.4798    
  4.3188      3.9600      4.3191      5.4798      7.7106      11.876      19.067      29.036      40.412      51.993    
  63.398      74.128      92.696      92.680      85.518      74.098      61.569      49.232      37.077      25.592    
  16.220      10.075      6.7689      4.9886      4.1861      4.1867      4.9895      6.7689      10.074      16.219    
  25.587      37.068      49.226      61.579      74.128      85.553      92.696      85.553      74.128      61.579    
  49.226      37.068      25.587      16.219      10.074      6.7689      4.9895      4.1867      4.1861      4.9886    
  6.7689      10.075      16.220      25.592      37.077      49.232      61.569      74.098      85.518      92.680    
  85.553      76.649      65.226      53.351      41.503      29.909      19.684      12.240      7.9028      5.5966    
  4.3946      4.0220      4.3944      5.5964      7.9021      12.239      19.688      29.921      41.519      53.353    
  65.197      76.597      85.511      88.982      74.128      65.226      54.798      43.830      32.728      22.393    
  14.228      9.0258      6.2031      4.6498      3.9581      3.9584      4.6503      6.2028      9.0236      14.226    
  22.396      32.741      43.843      54.796      65.203      74.097      79.467      79.481      61.579      53.351    
  43.830      33.704      23.869      15.627      9.9599      6.7221      4.8975      3.9606      3.6733      3.9604    
  4.8978      6.7224      9.9580      15.623      23.866      33.707      43.839      53.360      61.584      67.441    
  69.604      67.440      49.226      41.503      32.728      23.869      16.132      10.498      7.0767      5.0878    
  3.9853      3.5035      3.5030      3.9850      5.0890      7.0785      10.497      16.126      23.861      32.724    
  41.508      49.239      55.118      58.347      58.341      55.104      37.068      29.909      22.393      15.627    
  10.498      7.2049      5.1909      4.0045      3.4070      3.2258      3.4068      4.0044      5.1920      7.2082    
  10.502      15.627      22.387      29.900      37.062      42.916      46.746      48.079      46.744      42.917    
  25.587      19.684      14.228      9.9599      7.0767      5.1909      4.0112      3.3617      3.0784      3.0785    
  3.3612      4.0096      5.1905      7.0809      9.9687      14.236      19.685      25.579      30.973      35.038    
  37.210      37.214      35.050      30.987      16.219      12.240      9.0258      6.7221      5.0878      4.0045    
  3.3617      3.0322      2.9319      3.0324      3.3606      4.0010      5.0836      6.7216      9.0327      12.253    
  16.229      20.400      24.037      26.496      27.366      26.504      24.045      20.399      10.074      7.9028    
  6.2031      4.8975      3.9853      3.4070      3.0784      2.9319      2.9325      3.0796      3.4070      3.9812    
  4.8886      6.1946      7.9024      10.084      12.650      15.227      17.320      18.490      18.490      17.316    
  15.217      12.636      6.7689      5.5966      4.6498      3.9606      3.5035      3.2258      3.0785      3.0324    
  3.0796      3.2292      3.5078      3.9608      4.6421      5.5837      6.7587      8.0969      9.5358      10.876    
  11.838      12.185      11.829      10.864      9.5269      8.0974      4.9895      4.3946      3.9581      3.6733    
  3.5030      3.4068      3.3612      3.3606      3.4070      3.5078      3.6825      3.9662      4.3945      4.9793    
  5.6905      6.4554      7.1746      7.7519      8.0780      8.0747      7.7461      7.1744      6.4647      5.7049    
  4.1867      4.0220      3.9584      3.9604      3.9850      4.0044      4.0096      4.0010      3.9812      3.9608    
  3.9662      4.0346      4.1965      4.4567      4.7884      5.1401      5.4502      5.6622      5.7375      5.6640    
  5.4565      5.1505      4.7969      4.4565      4.1861      4.3944      4.6503      4.8978      5.0890      5.1920    
  5.1905      5.0836      4.8886      4.6421      4.3945      4.1965      4.0828      4.0597      4.1046      4.1784    
  4.2454      4.2839      4.2861      4.2512      4.1843      4.1046      4.0507      4.0684      4.9886      5.5964    
  6.2028      6.7224      7.0785      7.2082      7.0809      6.7216      6.1946      5.5837      4.9793      4.4567    
  4.0597      3.7933      3.6313      3.5383      3.4891      3.4742      3.4907      3.5380      3.6259      3.7834    
  4.0514      4.4565      6.7689      7.9021      9.0236      9.9580      10.497      10.502      9.9687      9.0327    
  7.9024      6.7587      5.6905      4.7884      4.1046      3.6313      3.3270      3.1477      3.0646      3.0643    
  3.1456      3.3215      3.6255      4.1047      4.7979      5.7049      10.075      12.239      14.226      15.623    
  16.126      15.627      14.236      12.253      10.084      8.0969      6.4554      5.1401      4.1784      3.5383    
  3.1477      2.9408      2.8762      2.9398      3.1459      3.5381      4.1835      5.1503      6.4646      8.0974    
  16.220      19.688      22.396      23.866      23.861      22.387      19.685      16.229      12.650      9.5358    
  7.1746      5.4502      4.2454      3.4891      3.0646      2.8762      2.8758      3.0643      3.4914      4.2511    
  5.4561      7.1744      9.5262      12.636      25.592      29.921      32.741      33.707      32.724      29.900    
  25.579      20.400      15.227      10.876      7.7519      5.6622      4.2839      3.4742      3.0643      2.9398    
  3.0643      3.4754      4.2862      5.6628      7.7468      10.865      15.217      20.399      37.077      41.519    
  43.843      43.839      41.508      37.062      30.973      24.037      17.320      11.838      8.0780      5.7375    
  4.2861      3.4907      3.1456      3.1459      3.4914      4.2862      5.7350      8.0724      11.832      17.318    
  24.044      30.987      49.232      53.353      54.796      53.360      49.239      42.916      35.038      26.496    
  18.490      12.185      8.0747      5.6640      4.2512      3.5380      3.3215      3.5381      4.2511      5.6628    
  8.0724      12.185      18.494      26.505      35.046      42.917      61.569      65.197      65.203      61.584    
  55.118      46.746      37.210      27.366      18.490      11.829      7.7461      5.4565      4.1843      3.6259    
  3.6255      4.1835      5.4561      7.7468      11.832      18.494      27.371      37.211      46.739      55.104    
  74.098      76.597      74.097      67.441      58.347      48.079      37.214      26.504      17.316      10.864    
  7.1744      5.1505      4.1046      3.7834      4.1047      5.1503      7.1744      10.865      17.318      26.505    
  37.211      48.073      58.342      67.440      85.518      85.511      79.467      69.604      58.341      46.744    
  35.050      24.045      15.217      9.5269      6.4647      4.7969      4.0507      4.0514      4.7979      6.4646    
  9.5262      15.217      24.044      35.046      46.739      58.342      69.615      79.481      92.680      88.982    
  79.481      67.440      55.104      42.917      30.987      20.399      12.636      8.0974      5.7049      4.4565    
  4.0684      4.4565      5.7049      8.0974      12.636      20.399      30.987      42.917      55.104      67.440    
  79.481      88.982      82.364      74.128      63.398      51.993      40.412      29.036      19.067      11.876    
  7.7106      5.4798      4.3191      3.9600      4.3188      5.4798      7.7104      11.876      19.069      29.044    
  40.423      51.996      63.381      74.095      82.337      85.518      74.128      65.226      54.798      43.830    
  32.728      22.393      14.228      9.0258      6.2031      4.6498      3.9581      3.9584      4.6503      6.2028    
  9.0236      14.226      22.396      32.741      43.843      54.796      65.203      74.097      79.467      79.481    
  63.398      54.798      45.002      34.668      24.616      16.126      10.241      6.8743      4.9908      4.0206    
  3.7226      4.0203      4.9908      6.8738      10.238      16.122      24.616      34.677      45.014      54.806    
  63.398      69.611      71.928      69.615      51.993      43.830      34.668      25.393      17.185      11.113    
  7.4035      5.2827      4.1042      3.5874      3.5868      4.1035      5.2835      7.4041      11.110      17.177    
  25.386      34.670      43.846      52.019      58.365      61.916      61.907      58.342      40.412      32.728    
  24.616      17.185      11.432      7.7038      5.4797      4.1719      3.5125      3.3124      3.5125      4.1724    
  5.4811      7.7051      11.430      17.177      24.605      32.725      40.423      46.761      50.965      52.439    
  50.947      46.739      29.036      22.393      16.126      11.113      7.7038      5.5500      4.2089      3.4726    
  3.1520      3.1523      3.4727      4.2085      5.5510      7.7076      11.117      16.126      22.385      29.027    
  35.043      39.565      41.983      41.981      39.562      35.046      19.067      14.228      10.241      7.4035    
  5.4797      4.2089      3.4600      3.0783      2.9620      3.0780      3.4585      4.2067      5.4797      7.4084    
  10.250      14.234      19.067      24.036      28.302      31.159      32.164      31.167      28.313      24.044    
  11.876      9.0258      6.8743      5.2827      4.1719      3.4726      3.0783      2.9033      2.9035      3.0782    
  3.4709      4.1677      5.2779      6.8733      9.0322      11.888      15.226      18.522      21.156      22.615    
  22.618      21.160      18.521      15.217      7.7106      6.2031      4.9908      4.1042      3.5125      3.1520    
  2.9620      2.9035      2.9634      3.1541      3.5125      4.0990      4.9810      6.1947      7.7104      9.5349    
  11.546      13.413      14.742      15.223      14.738      13.404      11.534      9.5262      5.4798      4.6498    
  4.0206      3.5874      3.3124      3.1523      3.0780      3.0782      3.1541      3.3168      3.5921      4.0206    
  4.6421      5.4679      6.4556      7.5150      8.5594      9.4293      9.9278      9.9239      9.4205      8.5523    
  7.5156      6.4646      4.3191      3.9581      3.7226      3.5868      3.5125      3.4727      3.4585      3.4709    
  3.5125      3.5921      3.7323      3.9662      4.3190      4.7887      5.3382      5.9006      6.3917      6.7277    
  6.8464      6.7249      6.3917      5.9078      5.3503      4.7979      3.9600      3.9584      4.0203      4.1035    
  4.1724      4.2085      4.2067      4.1677      4.0990      4.0206      3.9662      3.9720      4.0600      4.2260    
  4.4401      4.6574      4.8322      4.9290      4.9302      4.8365      4.6649      4.4467      4.2259      4.0514    
  4.3188      4.6503      4.9908      5.2835      5.4811      5.5510      5.4797      5.2779      4.9810      4.6421    
  4.3190      4.0600      3.8909      3.8082      3.7856      3.7906      3.8003      3.8055      3.8037      3.7946    
  3.7856      3.8010      3.8789      4.0507      5.4798      6.2028      6.8738      7.4041      7.7051      7.7076    
  7.4084      6.8733      6.1947      5.4679      4.7887      4.2260      3.8082      3.5251      3.3450      3.2376    
  3.1869      3.1875      3.2376      3.3414      3.5177      3.8015      4.2259      4.7969      7.7104      9.0236    
  10.238      11.110      11.430      11.117      10.250      9.0322      7.7104      6.4556      5.3382      4.4401    
  3.7856      3.3450      3.0695      2.9192      2.8712      2.9180      3.0663      3.3410      3.7856      4.4474    
  5.3503      6.4647      11.876      14.226      16.122      17.177      17.177      16.126      14.234      11.888    
  9.5349      7.5150      5.9006      4.6574      3.7906      3.2376      2.9192      2.7750      2.7745      2.9182    
  3.2376      3.7940      4.6648      5.9077      7.5156      9.5269      19.069      22.396      24.616      25.386    
  24.605      22.385      19.067      15.226      11.546      8.5594      6.3917      4.8322      3.8003      3.1869    
  2.8712      2.7745      2.8712      3.1881      3.8037      4.8360      6.3916      8.5521      11.534      15.217    
  29.044      32.741      34.677      34.670      32.725      29.027      24.036      18.522      13.413      9.4293    
  6.7277      4.9290      3.8055      3.1875      2.9180      2.9182      3.1881      3.8067      4.9291      6.7242    
  9.4218      13.406      18.521      24.045      40.423      43.843      45.014      43.846      40.423      35.043    
  28.302      21.156      14.742      9.9278      6.8464      4.9302      3.8037      3.2376      3.0663      3.2376    
  3.8037      4.9291      6.8430      9.9238      14.742      21.163      28.313      35.050      51.996      54.796    
  54.806      52.019      46.761      39.565      31.159      22.615      15.223      9.9239      6.7249      4.8365    
  3.7946      3.3414      3.3410      3.7940      4.8360      6.7242      9.9238      15.226      22.624      31.168    
  39.562      46.744      63.381      65.203      63.398      58.365      50.965      41.983      32.164      22.618    
  14.738      9.4205      6.3917      4.6649      3.7856      3.5177      3.7856      4.6648      6.3916      9.4218    
  14.742      22.624      32.167      41.978      50.947      58.341      74.095      74.097      69.611      61.916    
  52.439      41.981      31.167      21.160      13.404      8.5523      5.9078      4.4467      3.8010      3.8015    
  4.4474      5.9077      8.5521      13.406      21.163      31.168      41.978      52.430      61.907      69.604    
  82.337      79.467      71.928      61.907      50.947      39.562      28.313      18.521      11.534      7.5156    
  5.3503      4.2259      3.8789      4.2259      5.3503      7.5156      11.534      18.521      28.313      39.562    
  50.947      61.907      71.928      79.467      85.518      79.481      69.615      58.342      46.739      35.046    
  24.044      15.217      9.5262      6.4646      4.7979      4.0514      4.0507      4.7969      6.4647      9.5269    
  15.217      24.045      35.050      46.744      58.341      69.604      79.467      85.511      69.466      61.579    
  51.993      41.568      30.886      21.026      13.371      8.5657      5.9384      4.4848      3.8414      3.8417    
  4.4855      5.9387      8.5645      13.369      21.025      30.889      41.574      51.997      61.576      69.459    
  74.095      74.098      61.579      53.351      43.830      33.704      23.869      15.627      9.9599      6.7221    
  4.8975      3.9606      3.6733      3.9604      4.8978      6.7224      9.9580      15.623      23.866      33.707    
  43.839      53.360      61.584      67.441      69.604      67.440      51.993      43.830      34.668      25.393    
  17.185      11.113      7.4035      5.2827      4.1042      3.5874      3.5868      4.1035      5.2835      7.4041    
  11.110      17.177      25.386      34.670      43.846      52.019      58.365      61.916      61.907      58.342    
  41.568      33.704      25.393      17.740      11.769      7.8835      5.5827      4.2319      3.5502      3.3429    
  3.5499      4.2323      5.5843      7.8843      11.765      17.728      25.380      33.702      41.588      48.107    
  52.457      53.986      52.430      48.073      30.886      23.869      17.185      11.769      8.0583      5.7483    
  4.3181      3.5337      3.1923      3.1926      3.5341      4.3188      5.7504      8.0610      11.768      17.175    
  23.855      30.880      37.222      41.997      44.556      44.547      41.978      37.211      21.026      15.627    
  11.113      7.8835      5.7483      4.3485      3.5267      3.1095      2.9826      3.1095      3.5261      4.3482    
  5.7510      7.8891      11.117      15.624      21.017      26.495      31.162      34.275      35.365      34.276    
  31.168      26.505      13.371      9.9599      7.4035      5.5827      4.3181      3.5267      3.0831      2.8863    
  2.8862      3.0822      3.5246      4.3160      5.5836      7.4090      9.9677      13.376      17.316      21.154    
  24.186      25.854      25.858      24.196      21.163      17.318      8.5657      6.7221      5.2827      4.2319    
  3.5337      3.1095      2.8863      2.8174      2.8869      3.1096      3.5315      4.2272      5.2781      6.7219    
  8.5716      10.874      13.412      15.744      17.386      17.979      17.388      15.743      13.406      10.865    
  5.9384      4.8975      4.1042      3.5502      3.1923      2.9826      2.8862      2.8869      2.9846      3.1947    
  3.5499      4.0988      4.8886      5.9315      7.1743      8.5586      9.9666      11.146      11.822      11.820    
  11.140      9.9580      8.5521      7.1744      4.4848      3.9606      3.5874      3.3429      3.1926      3.1095    
  3.0822      3.1096      3.1947      3.3478      3.5921      3.9605      4.4782      5.1405      5.9007      6.6719    
  7.3521      7.8335      8.0074      7.8293      7.3478      6.6725      5.9077      5.1503      3.8414      3.6733    
  3.5868      3.5499      3.5341      3.5261      3.5246      3.5315      3.5499      3.5921      3.6824      3.8486    
  4.1048      4.4403      4.8187      5.1851      5.4769      5.6384      5.6378      5.4774      5.1902      4.8276    
  4.4474      4.1047      3.8417      3.9604      4.1035      4.2323      4.3188      4.3482      4.3160      4.2272    
  4.0988      3.9605      3.8486      3.7935      3.8083      3.8829      3.9897      4.0948      4.1694      4.1968    
  4.1718      4.0993      3.9941      3.8828      3.8015      3.7834      4.4855      4.8978      5.2835      5.5843    
  5.7504      5.7510      5.5836      5.2781      4.8886      4.4782      4.1048      3.8083      3.6029      3.4774    
  3.4065      3.3678      3.3503      3.3516      3.3701      3.4065      3.4722      3.5940      3.8010      4.1046    
  5.9387      6.7224      7.4041      7.8843      8.0610      7.8891      7.4090      6.7219      5.9315      5.1405    
  4.4403      3.8829      3.4774      3.2015      3.0243      2.9240      2.8915      2.9241      3.0225      3.1969    
  3.4727      3.8828      4.4467      5.1505      8.5645      9.9580      11.110      11.765      11.768      11.117    
  9.9677      8.5716      7.1743      5.9007      4.8187      3.9897      3.4065      3.0243      2.7958      2.6889    
  2.6884      2.7941      3.0221      3.4065      3.9948      4.8276      5.9078      7.1744      13.369      15.623    
  17.177      17.728      17.175      15.624      13.376      10.874      8.5586      6.6719      5.1851      4.0948    
  3.3678      2.9240      2.6889      2.6155      2.6885      2.9240      3.3696      4.0992      5.1900      6.6725    
  8.5523      10.864      21.025      23.866      25.386      25.380      23.855      21.017      17.316      13.412    
  9.9666      7.3521      5.4769      4.1694      3.3503      2.8915      2.6884      2.6885      2.8922      3.3521    
  4.1714      5.4767      7.3472      9.9580      13.404      17.316      30.889      33.707      34.670      33.702    
  30.880      26.495      21.154      15.744      11.146      7.8335      5.6384      4.1968      3.3516      2.9241    
  2.7941      2.9240      3.3521      4.1972      5.6366      7.8286      11.141      15.743      21.160      26.504    
  41.574      43.839      43.846      41.588      37.222      31.162      24.186      17.386      11.822      8.0074    
  5.6378      4.1718      3.3701      3.0225      3.0221      3.3696      4.1714      5.6366      8.0051      11.822    
  17.392      24.196      31.167      37.214      51.997      53.360      52.019      48.107      41.997      34.275    
  25.854      17.979      11.820      7.8293      5.4774      4.0993      3.4065      3.1969      3.4065      4.0992    
  5.4767      7.8286      11.822      17.986      25.863      34.276      41.981      48.079      61.576      61.584    
  58.365      52.457      44.556      35.365      25.858      17.388      11.140      7.3478      5.1902      3.9941    
  3.4722      3.4727      3.9948      5.1900      7.3472      11.141      17.392      25.863      35.366      44.547    
  52.439      58.347      69.459      67.441      61.916      53.986      44.547      34.276      24.196      15.743    
  9.9580      6.6725      4.8276      3.8828      3.5940      3.8828      4.8276      6.6725      9.9580      15.743    
  24.196      34.276      44.547      53.986      61.916      67.441      74.095      69.604      61.907      52.430    
  41.978      31.168      21.163      13.406      8.5521      5.9077      4.4474      3.8015      3.8010      4.4467    
  5.9078      8.5523      13.404      21.160      31.167      41.981      52.439      61.916      69.611      74.097    
  74.098      67.440      58.342      48.073      37.211      26.505      17.318      10.865      7.1744      5.1503    
  4.1047      3.7834      4.1046      5.1505      7.1744      10.864      17.316      26.504      37.214      48.079    
  58.347      67.441      74.097      76.597      56.555      49.226      40.412      30.886      21.722      14.221    
  9.1803      6.2941      4.6355      3.7907      3.5329      3.7907      4.6361      6.2952      9.1803      14.218    
  21.717      30.881      40.412      49.233      56.565      61.576      63.381      61.569      49.226      41.503    
  32.728      23.869      16.132      10.498      7.0767      5.0878      3.9853      3.5035      3.5030      3.9850    
  5.0890      7.0785      10.497      16.126      23.861      32.724      41.508      49.239      55.118      58.347    
  58.341      55.104      40.412      32.728      24.616      17.185      11.432      7.7038      5.4797      4.1719    
  3.5125      3.3124      3.5125      4.1724      5.4811      7.7051      11.430      17.177      24.605      32.725    
  40.423      46.761      50.965      52.439      50.947      46.739      30.886      23.869      17.185      11.769    
  8.0583      5.7483      4.3181      3.5337      3.1923      3.1926      3.5341      4.3188      5.7504      8.0610    
  11.768      17.175      23.855      30.880      37.222      41.997      44.556      44.547      41.978      37.211    
  21.722      16.132      11.432      8.0583      5.8437      4.3976      3.5502      3.1207      2.9900      3.1208    
  3.5501      4.3987      5.8477      8.0634      11.432      16.122      21.708      27.361      32.167      35.370    
  36.489      35.366      32.167      27.371      14.221      10.498      7.7038      5.7483      4.3976      3.5556    
  3.0857      2.8778      2.8779      3.0854      3.5548      4.3981      5.7523      7.7105      10.502      14.218    
  18.484      22.610      25.853      27.630      27.634      25.863      22.624      18.494      9.1803      7.0767    