FCC Au                                  
   4.30000000000000     
     0.000000    0.500000    0.500000
     0.500000    0.000000    0.500000
     0.500000    0.500000    0.000000
   Au
     1
Direct
  0.000000  0.000000  0.000000
 
   24   24   24
 0.96743079706E+02 0.92695756808E+02 0.82363948054E+02 0.69465501764E+02 0.56555327055E+02
 0.44062092353E+02 0.31908107987E+02 0.21060346324E+02 0.13031321622E+02 0.83061330977E+01
 0.58304417150E+01 0.45379100822E+01 0.41351347222E+01 0.45379100822E+01 0.58304417150E+01
 0.83061330977E+01 0.13031321622E+02 0.21060346324E+02 0.31908107987E+02 0.44062092353E+02
 0.56555327055E+02 0.69465501764E+02 0.82363948054E+02 0.92695756808E+02 0.92695756808E+02
 0.85552760702E+02 0.74128127301E+02 0.61579270664E+02 0.49226309384E+02 0.37068425413E+02
 0.25587112535E+02 0.16218614176E+02 0.10074147760E+02 0.67688864382E+01 0.49895412439E+01
 0.41867332937E+01 0.41860566863E+01 0.49885513630E+01 0.67688788026E+01 0.10074777603E+02
 0.16219957029E+02 0.25591750275E+02 0.37077316867E+02 0.49232221443E+02 0.61569456576E+02
 0.74098408884E+02 0.85517806327E+02 0.92680067064E+02 0.82363948054E+02 0.74128127301E+02
 0.63398159795E+02 0.51993345306E+02 0.40412206356E+02 0.29036072968E+02 0.19067439182E+02
 0.11876429776E+02 0.77106115748E+01 0.54798365546E+01 0.43191052647E+01 0.39600065571E+01
 0.43187912253E+01 0.54797650921E+01 0.77104119934E+01 0.11875822817E+02 0.19069076776E+02
 0.29043761145E+02 0.40423399022E+02 0.51995981467E+02 0.63380715639E+02 0.74094944238E+02
 0.82336834366E+02 0.85517806327E+02 0.69465501764E+02 0.61579270664E+02 0.51993345306E+02
 0.41567872236E+02 0.30885568451E+02 0.21026208501E+02 0.13371177658E+02 0.85656625128E+01
 0.59383705826E+01 0.44847707172E+01 0.38413595702E+01 0.38416562780E+01 0.44854894411E+01
 0.59387061515E+01 0.85644554437E+01 0.13368693238E+02 0.21025160732E+02 0.30888664657E+02
 0.41573815815E+02 0.51996804882E+02 0.61576367547E+02 0.69458837827E+02 0.74094944238E+02
 0.74098408884E+02 0.56555327055E+02 0.49226309384E+02 0.40412206356E+02 0.30885568451E+02
 0.21722365329E+02 0.14220870913E+02 0.91803444509E+01 0.62941414875E+01 0.46355406464E+01
 0.37907043913E+01 0.35328522608E+01 0.37906655602E+01 0.46360801800E+01 0.62951636248E+01
 0.91802943923E+01 0.14217997586E+02 0.21717003417E+02 0.30880913885E+02 0.40412266884E+02
 0.49232500084E+02 0.56564708217E+02 0.61576367547E+02 0.63380715639E+02 0.61569456576E+02
 0.44062092353E+02 0.37068425413E+02 0.29036072968E+02 0.21026208501E+02 0.14220870913E+02
 0.94056533346E+01 0.64883907074E+01 0.47356776361E+01 0.37698069068E+01 0.33490907737E+01
 0.33486016344E+01 0.37690849357E+01 0.47363684606E+01 0.64913921690E+01 0.94094213075E+01
 0.14221703002E+02 0.21021289833E+02 0.29026714930E+02 0.37059613418E+02 0.44058033032E+02
 0.49232500084E+02 0.51996804882E+02 0.51995981467E+02 0.49232221443E+02 0.31908107987E+02
 0.25587112535E+02 0.19067439182E+02 0.13371177658E+02 0.91803444509E+01 0.64883907074E+01
 0.47699367496E+01 0.37596425982E+01 0.32504189432E+01 0.30961086779E+01 0.32500283915E+01
 0.37587503274E+01 0.47698800122E+01 0.64917863210E+01 0.91879297098E+01 0.13379132575E+02
 0.19069183596E+02 0.25578597712E+02 0.31891468817E+02 0.37059613418E+02 0.40412266884E+02
 0.41573815815E+02 0.40423399022E+02 0.37077316867E+02 0.21060346324E+02 0.16218614176E+02
 0.11876429776E+02 0.85656625128E+01 0.62941414875E+01 0.47356776361E+01 0.37596425982E+01
 0.32184276540E+01 0.29816424197E+01 0.29819911217E+01 0.32182918858E+01 0.37572448603E+01
 0.47319701985E+01 0.62936117190E+01 0.85726021498E+01 0.11889525034E+02 0.16229684151E+02
 0.21060139156E+02 0.25578597712E+02 0.29026714930E+02 0.30880913885E+02 0.30888664657E+02
 0.29043761145E+02 0.25591750275E+02 0.13031321622E+02 0.10074147760E+02 0.77106115748E+01
 0.59383705826E+01 0.46355406464E+01 0.37698069068E+01 0.32504189432E+01 0.29816424197E+01
 0.28996475763E+01 0.29824345942E+01 0.32503851249E+01 0.37664100427E+01 0.46281138066E+01
 0.59310833967E+01 0.77106571090E+01 0.10084647634E+02 0.13046485553E+02 0.16229684151E+02
 0.19069183596E+02 0.21021289833E+02 0.21717003417E+02 0.21025160732E+02 0.19069076776E+02
 0.16219957029E+02 0.83061330977E+01 0.67688864382E+01 0.54798365546E+01 0.44847707172E+01
 0.37907043913E+01 0.33490907737E+01 0.30961086779E+01 0.29819911217E+01 0.29824345942E+01
 0.30980586159E+01 0.33521956546E+01 0.37911310909E+01 0.44781715971E+01 0.54674732787E+01
 0.67586310998E+01 0.83057153655E+01 0.10084647634E+02 0.11889525034E+02 0.13379132575E+02
 0.14221703002E+02 0.14217997586E+02 0.13368693238E+02 0.11875822817E+02 0.10074777603E+02
 0.58304417150E+01 0.49895412439E+01 0.43191052647E+01 0.38413595702E+01 0.35328522608E+01
 0.33486016344E+01 0.32500283915E+01 0.32182918858E+01 0.32503851249E+01 0.33521956546E+01
 0.35405446687E+01 0.38485636419E+01 0.43187990333E+01 0.49791722164E+01 0.58154096073E+01
 0.67586310998E+01 0.77106571090E+01 0.85726021498E+01 0.91879297098E+01 0.94094213075E+01
 0.91802943923E+01 0.85644554437E+01 0.77104119934E+01 0.67688788026E+01 0.45379100822E+01
 0.41867332937E+01 0.39600065571E+01 0.38416562780E+01 0.37906655602E+01 0.37690849357E+01
 0.37587503274E+01 0.37572448603E+01 0.37664100427E+01 0.37911310909E+01 0.38485636419E+01
 0.39717262071E+01 0.41963132376E+01 0.45382787535E+01 0.49791722164E+01 0.54674732787E+01
 0.59310833967E+01 0.62936117190E+01 0.64917863210E+01 0.64913921690E+01 0.62951636248E+01
 0.59387061515E+01 0.54797650921E+01 0.49885513630E+01 0.41351347222E+01 0.41860566863E+01
 0.43187912253E+01 0.44854894411E+01 0.46360801800E+01 0.47363684606E+01 0.47698800122E+01
 0.47319701985E+01 0.46281138066E+01 0.44781715971E+01 0.43187990333E+01 0.41963132376E+01
 0.41502760054E+01 0.41963132376E+01 0.43187990333E+01 0.44781715971E+01 0.46281138066E+01
 0.47319701985E+01 0.47698800122E+01 0.47363684606E+01 0.46360801800E+01 0.44854894411E+01
 0.43187912253E+01 0.41860566863E+01 0.45379100822E+01 0.49885513630E+01 0.54797650921E+01
 0.59387061515E+01 0.62951636248E+01 0.64913921690E+01 0.64917863210E+01 0.62936117190E+01
 0.59310833967E+01 0.54674732787E+01 0.49791722164E+01 0.45382787535E+01 0.41963132376E+01
 0.39717262071E+01 0.38485636419E+01 0.37911310909E+01 0.37664100427E+01 0.37572448603E+01
 0.37587503274E+01 0.37690849357E+01 0.37906655602E+01 0.38416562780E+01 0.39600065571E+01
 0.41867332937E+01 0.58304417150E+01 0.67688788026E+01 0.77104119934E+01 0.85644554437E+01
 0.91802943923E+01 0.94094213075E+01 0.91879297098E+01 0.85726021498E+01 0.77106571090E+01
 0.67586310998E+01 0.58154096073E+01 0.49791722164E+01 0.43187990333E+01 0.38485636419E+01
 0.35405446687E+01 0.33521956546E+01 0.32503851249E+01 0.32182918858E+01 0.32500283915E+01
 0.33486016344E+01 0.35328522608E+01 0.38413595702E+01 0.43191052647E+01 0.49895412439E+01
 0.83061330977E+01 0.10074777603E+02 0.11875822817E+02 0.13368693238E+02 0.14217997586E+02
 0.14221703002E+02 0.13379132575E+02 0.11889525034E+02 0.10084647634E+02 0.83057153655E+01
 0.67586310998E+01 0.54674732787E+01 0.44781715971E+01 0.37911310909E+01 0.33521956546E+01
 0.30980586159E+01 0.29824345942E+01 0.29819911217E+01 0.30961086779E+01 0.33490907737E+01
 0.37907043913E+01 0.44847707172E+01 0.54798365546E+01 0.67688864382E+01 0.13031321622E+02
 0.16219957029E+02 0.19069076776E+02 0.21025160732E+02 0.21717003417E+02 0.21021289833E+02
 0.19069183596E+02 0.16229684151E+02 0.13046485553E+02 0.10084647634E+02 0.77106571090E+01
 0.59310833967E+01 0.46281138066E+01 0.37664100427E+01 0.32503851249E+01 0.29824345942E+01
 0.28996475763E+01 0.29816424197E+01 0.32504189432E+01 0.37698069068E+01 0.46355406464E+01
 0.59383705826E+01 0.77106115748E+01 0.10074147760E+02 0.21060346324E+02 0.25591750275E+02
 0.29043761145E+02 0.30888664657E+02 0.30880913885E+02 0.29026714930E+02 0.25578597712E+02
 0.21060139156E+02 0.16229684151E+02 0.11889525034E+02 0.85726021498E+01 0.62936117190E+01
 0.47319701985E+01 0.37572448603E+01 0.32182918858E+01 0.29819911217E+01 0.29816424197E+01
 0.32184276540E+01 0.37596425982E+01 0.47356776361E+01 0.62941414875E+01 0.85656625128E+01
 0.11876429776E+02 0.16218614176E+02 0.31908107987E+02 0.37077316867E+02 0.40423399022E+02
 0.41573815815E+02 0.40412266884E+02 0.37059613418E+02 0.31891468817E+02 0.25578597712E+02
 0.19069183596E+02 0.13379132575E+02 0.91879297098E+01 0.64917863210E+01 0.47698800122E+01
 0.37587503274E+01 0.32500283915E+01 0.30961086779E+01 0.32504189432E+01 0.37596425982E+01
 0.47699367496E+01 0.64883907074E+01 0.91803444509E+01 0.13371177658E+02 0.19067439182E+02
 0.25587112535E+02 0.44062092353E+02 0.49232221443E+02 0.51995981467E+02 0.51996804882E+02
 0.49232500084E+02 0.44058033032E+02 0.37059613418E+02 0.29026714930E+02 0.21021289833E+02
 0.14221703002E+02 0.94094213075E+01 0.64913921690E+01 0.47363684606E+01 0.37690849357E+01
 0.33486016344E+01 0.33490907737E+01 0.37698069068E+01 0.47356776361E+01 0.64883907074E+01
 0.94056533346E+01 0.14220870913E+02 0.21026208501E+02 0.29036072968E+02 0.37068425413E+02
 0.56555327055E+02 0.61569456576E+02 0.63380715639E+02 0.61576367547E+02 0.56564708217E+02
 0.49232500084E+02 0.40412266884E+02 0.30880913885E+02 0.21717003417E+02 0.14217997586E+02
 0.91802943923E+01 0.62951636248E+01 0.46360801800E+01 0.37906655602E+01 0.35328522608E+01
 0.37907043913E+01 0.46355406464E+01 0.62941414875E+01 0.91803444509E+01 0.14220870913E+02
 0.21722365329E+02 0.30885568451E+02 0.40412206356E+02 0.49226309384E+02 0.69465501764E+02
 0.74098408884E+02 0.74094944238E+02 0.69458837827E+02 0.61576367547E+02 0.51996804882E+02
 0.41573815815E+02 0.30888664657E+02 0.21025160732E+02 0.13368693238E+02 0.85644554437E+01
 0.59387061515E+01 0.44854894411E+01 0.38416562780E+01 0.38413595702E+01 0.44847707172E+01
 0.59383705826E+01 0.85656625128E+01 0.13371177658E+02 0.21026208501E+02 0.30885568451E+02
 0.41567872236E+02 0.51993345306E+02 0.61579270664E+02 0.82363948054E+02 0.85517806327E+02
 0.82336834366E+02 0.74094944238E+02 0.63380715639E+02 0.51995981467E+02 0.40423399022E+02
 0.29043761145E+02 0.19069076776E+02 0.11875822817E+02 0.77104119934E+01 0.54797650921E+01
 0.43187912253E+01 0.39600065571E+01 0.43191052647E+01 0.54798365546E+01 0.77106115748E+01
 0.11876429776E+02 0.19067439182E+02 0.29036072968E+02 0.40412206356E+02 0.51993345306E+02
 0.63398159795E+02 0.74128127301E+02 0.92695756808E+02 0.92680067064E+02 0.85517806327E+02
 0.74098408884E+02 0.61569456576E+02 0.49232221443E+02 0.37077316867E+02 0.25591750275E+02
 0.16219957029E+02 0.10074777603E+02 0.67688788026E+01 0.49885513630E+01 0.41860566863E+01
 0.41867332937E+01 0.49895412439E+01 0.67688864382E+01 0.10074147760E+02 0.16218614176E+02
 0.25587112535E+02 0.37068425413E+02 0.49226309384E+02 0.61579270664E+02 0.74128127301E+02
 0.85552760702E+02 0.92695756808E+02 0.85552760702E+02 0.74128127301E+02 0.61579270664E+02
 0.49226309384E+02 0.37068425413E+02 0.25587112535E+02 0.16218614176E+02 0.10074147760E+02
 0.67688864382E+01 0.49895412439E+01 0.41867332937E+01 0.41860566863E+01 0.49885513630E+01
 0.67688788026E+01 0.10074777603E+02 0.16219957029E+02 0.25591750275E+02 0.37077316867E+02
 0.49232221443E+02 0.61569456576E+02 0.74098408884E+02 0.85517806327E+02 0.92680067064E+02
 0.85552760702E+02 0.76648706406E+02 0.65226323650E+02 0.53351203423E+02 0.41502999512E+02
 0.29908657492E+02 0.19684186672E+02 0.12240094519E+02 0.79027984816E+01 0.55966068445E+01
 0.43946406505E+01 0.40219715465E+01 0.43944199588E+01 0.55964499103E+01 0.79020917444E+01
 0.12239189876E+02 0.19687530476E+02 0.29921082539E+02 0.41519181900E+02 0.53352650934E+02
 0.65196967451E+02 0.76596574994E+02 0.85511051964E+02 0.88982317222E+02 0.74128127301E+02
 0.65226323650E+02 0.54797539065E+02 0.43830412583E+02 0.32728225669E+02 0.22392654705E+02
 0.14227698175E+02 0.90258394762E+01 0.62031027591E+01 0.46497555899E+01 0.39581281968E+01
 0.39584097698E+01 0.46503331977E+01 0.62028202742E+01 0.90235626288E+01 0.14225522047E+02
 0.22396365864E+02 0.32740540662E+02 0.43843250215E+02 0.54795678288E+02 0.65203255711E+02
 0.74097315622E+02 0.79466843245E+02 0.79481159363E+02 0.61579270664E+02 0.53351203423E+02
 0.43830412583E+02 0.33703577814E+02 0.23868842976E+02 0.15626864403E+02 0.99599208982E+01
 0.67221000085E+01 0.48974602762E+01 0.39605978170E+01 0.36733442304E+01 0.39604004927E+01
 0.48978395512E+01 0.67223857999E+01 0.99579939990E+01 0.15622614470E+02 0.23866161655E+02
 0.33706853284E+02 0.43839213238E+02 0.53360237654E+02 0.61584075127E+02 0.67440794282E+02
 0.69604371339E+02 0.67439768569E+02 0.49226309384E+02 0.41502999512E+02 0.32728225669E+02
 0.23868842976E+02 0.16131555522E+02 0.10497608430E+02 0.70766808604E+01 0.50878282165E+01
 0.39853468947E+01 0.35034768350E+01 0.35030227734E+01 0.39849950293E+01 0.50890067068E+01
 0.70785278408E+01 0.10496918439E+02 0.16126175103E+02 0.23861083506E+02 0.32724243713E+02
 0.41507939135E+02 0.49239344175E+02 0.55118130843E+02 0.58347195890E+02 0.58341265344E+02
 0.55104247356E+02 0.37068425413E+02 0.29908657492E+02 0.22392654705E+02 0.15626864403E+02
 0.10497608430E+02 0.72049177754E+01 0.51909130656E+01 0.40044825529E+01 0.34069651097E+01
 0.32257654844E+01 0.34067529766E+01 0.40043571420E+01 0.51920290270E+01 0.72082337803E+01
 0.10501522785E+02 0.15627265718E+02 0.22386990687E+02 0.29899644695E+02 0.37062027062E+02
 0.42915937347E+02 0.46745952910E+02 0.48079156817E+02 0.46744100983E+02 0.42916749126E+02
 0.25587112535E+02 0.19684186672E+02 0.14227698175E+02 0.99599208982E+01 0.70766808604E+01
 0.51909130656E+01 0.40111873428E+01 0.33616729475E+01 0.30783667790E+01 0.30784578089E+01
 0.33611840360E+01 0.40096435525E+01 0.51905425624E+01 0.70808818595E+01 0.99686970118E+01
 0.14235818495E+02 0.19685073562E+02 0.25578612724E+02 0.30972884013E+02 0.35037562393E+02
 0.37209534118E+02 0.37214258286E+02 0.35049684223E+02 0.30986716516E+02 0.16218614176E+02
 0.12240094519E+02 0.90258394762E+01 0.67221000085E+01 0.50878282165E+01 0.40044825529E+01
 0.33616729475E+01 0.30322367609E+01 0.29319328686E+01 0.30324262132E+01 0.33605804352E+01
 0.40010156256E+01 0.50835924247E+01 0.67215600469E+01 0.90327349785E+01 0.12252649649E+02
 0.16229107068E+02 0.20400043763E+02 0.24036571358E+02 0.26495986999E+02 0.27365958739E+02
 0.26504429583E+02 0.24044662315E+02 0.20399047635E+02 0.10074147760E+02 0.79027984816E+01
 0.62031027591E+01 0.48974602762E+01 0.39853468947E+01 0.34069651097E+01 0.30783667790E+01
 0.29319328686E+01 0.29324776311E+01 0.30796032236E+01 0.34070203475E+01 0.39811950768E+01
 0.48885639283E+01 0.61945938682E+01 0.79023610188E+01 0.10084238016E+02 0.12650238439E+02
 0.15227323212E+02 0.17319512067E+02 0.18490266799E+02 0.18490024202E+02 0.17316036204E+02
 0.15216957127E+02 0.12635705817E+02 0.67688864382E+01 0.55966068445E+01 0.46497555899E+01
 0.39605978170E+01 0.35034768350E+01 0.32257654844E+01 0.30784578089E+01 0.30324262132E+01
 0.30796032236E+01 0.32291610415E+01 0.35077516823E+01 0.39608460514E+01 0.46421451851E+01
 0.55836904517E+01 0.67587334933E+01 0.80968554703E+01 0.95358481049E+01 0.10876305043E+02
 0.11837880036E+02 0.12185430793E+02 0.11829497844E+02 0.10863954500E+02 0.95268790213E+01
 0.80974315663E+01 0.49895412439E+01 0.43946406505E+01 0.39581281968E+01 0.36733442304E+01
 0.35030227734E+01 0.34067529766E+01 0.33611840360E+01 0.33605804352E+01 0.34070203475E+01
 0.35077516823E+01 0.36825201086E+01 0.39662016785E+01 0.43945460222E+01 0.49793459770E+01
 0.56905393605E+01 0.64553759863E+01 0.71746065988E+01 0.77519479560E+01 0.80780202135E+01
 0.80746888457E+01 0.77460674394E+01 0.71743651827E+01 0.64647232082E+01 0.57049239475E+01
 0.41867332937E+01 0.40219715465E+01 0.39584097698E+01 0.39604004927E+01 0.39849950293E+01
 0.40043571420E+01 0.40096435525E+01 0.40010156256E+01 0.39811950768E+01 0.39608460514E+01
 0.39662016785E+01 0.40346039859E+01 0.41964893214E+01 0.44567367528E+01 0.47883748945E+01
 0.51400544424E+01 0.54502383451E+01 0.56622323662E+01 0.57375085892E+01 0.56640390306E+01
 0.54564722263E+01 0.51504517941E+01 0.47969295288E+01 0.44564820758E+01 0.41860566863E+01
 0.43944199588E+01 0.46503331977E+01 0.48978395512E+01 0.50890067068E+01 0.51920290270E+01
 0.51905425624E+01 0.50835924247E+01 0.48885639283E+01 0.46421451851E+01 0.43945460222E+01
 0.41964893214E+01 0.40827679830E+01 0.40597197025E+01 0.41045500446E+01 0.41784415304E+01
 0.42453601447E+01 0.42838634039E+01 0.42861473816E+01 0.42512378516E+01 0.41842914723E+01
 0.41046257573E+01 0.40506838261E+01 0.40684462421E+01 0.49885513630E+01 0.55964499103E+01
 0.62028202742E+01 0.67223857999E+01 0.70785278408E+01 0.72082337803E+01 0.70808818595E+01
 0.67215600469E+01 0.61945938682E+01 0.55836904517E+01 0.49793459770E+01 0.44567367528E+01
 0.40597197025E+01 0.37932685169E+01 0.36313179011E+01 0.35382521925E+01 0.34891251228E+01
 0.34742074275E+01 0.34906617268E+01 0.35379603620E+01 0.36258616327E+01 0.37834464720E+01
 0.40513517913E+01 0.44564820758E+01 0.67688788026E+01 0.79020917444E+01 0.90235626288E+01
 0.99579939990E+01 0.10496918439E+02 0.10501522785E+02 0.99686970118E+01 0.90327349785E+01
 0.79023610188E+01 0.67587334933E+01 0.56905393605E+01 0.47883748945E+01 0.41045500446E+01
 0.36313179011E+01 0.33270339401E+01 0.31477294758E+01 0.30645789857E+01 0.30643475490E+01
 0.31455846456E+01 0.33215342292E+01 0.36254628118E+01 0.41047366292E+01 0.47978739377E+01
 0.57049239475E+01 0.10074777603E+02 0.12239189876E+02 0.14225522047E+02 0.15622614470E+02
 0.16126175103E+02 0.15627265718E+02 0.14235818495E+02 0.12252649649E+02 0.10084238016E+02
 0.80968554703E+01 0.64553759863E+01 0.51400544424E+01 0.41784415304E+01 0.35382521925E+01
 0.31477294758E+01 0.29408475414E+01 0.28762059947E+01 0.29398356440E+01 0.31459353864E+01
 0.35380784041E+01 0.41834907587E+01 0.51502771718E+01 0.64645662038E+01 0.80974315663E+01
 0.16219957029E+02 0.19687530476E+02 0.22396365864E+02 0.23866161655E+02 0.23861083506E+02
 0.22386990687E+02 0.19685073562E+02 0.16229107068E+02 0.12650238439E+02 0.95358481049E+01
 0.71746065988E+01 0.54502383451E+01 0.42453601447E+01 0.34891251228E+01 0.30645789857E+01
 0.28762059947E+01 0.28757549854E+01 0.30643382189E+01 0.34914358822E+01 0.42510628987E+01
 0.54560876737E+01 0.71743866632E+01 0.95261583801E+01 0.12635705817E+02 0.25591750275E+02
 0.29921082539E+02 0.32740540662E+02 0.33706853284E+02 0.32724243713E+02 0.29899644695E+02
 0.25578612724E+02 0.20400043763E+02 0.15227323212E+02 0.10876305043E+02 0.77519479560E+01
 0.56622323662E+01 0.42838634039E+01 0.34742074275E+01 0.30643475490E+01 0.29398356440E+01
 0.30643382189E+01 0.34753841107E+01 0.42861960134E+01 0.56627826931E+01 0.77468262817E+01
 0.10865330256E+02 0.15216700200E+02 0.20399047635E+02 0.37077316867E+02 0.41519181900E+02
 0.43843250215E+02 0.43839213238E+02 0.41507939135E+02 0.37062027062E+02 0.30972884013E+02
 0.24036571358E+02 0.17319512067E+02 0.11837880036E+02 0.80780202135E+01 0.57375085892E+01
 0.42861473816E+01 0.34906617268E+01 0.31455846456E+01 0.31459353864E+01 0.34914358822E+01
 0.42861960134E+01 0.57350135932E+01 0.80724420516E+01 0.11831981885E+02 0.17318386479E+02
 0.24043634458E+02 0.30986716516E+02 0.49232221443E+02 0.53352650934E+02 0.54795678288E+02
 0.53360237654E+02 0.49239344175E+02 0.42915937347E+02 0.35037562393E+02 0.26495986999E+02
 0.18490266799E+02 0.12185430793E+02 0.80746888457E+01 0.56640390306E+01 0.42512378516E+01
 0.35379603620E+01 0.33215342292E+01 0.35380784041E+01 0.42510628987E+01 0.56627826931E+01
 0.80724420516E+01 0.12184647469E+02 0.18494367299E+02 0.26504976554E+02 0.35045845462E+02
 0.42916749126E+02 0.61569456576E+02 0.65196967451E+02 0.65203255711E+02 0.61584075127E+02
 0.55118130843E+02 0.46745952910E+02 0.37209534118E+02 0.27365958739E+02 0.18490024202E+02
 0.11829497844E+02 0.77460674394E+01 0.54564722263E+01 0.41842914723E+01 0.36258616327E+01
 0.36254628118E+01 0.41834907587E+01 0.54560876737E+01 0.77468262817E+01 0.11831981885E+02
 0.18494367299E+02 0.27370620740E+02 0.37210617007E+02 0.46739421162E+02 0.55104247356E+02
 0.74098408884E+02 0.76596574994E+02 0.74097315622E+02 0.67440794282E+02 0.58347195890E+02
 0.48079156817E+02 0.37214258286E+02 0.26504429583E+02 0.17316036204E+02 0.10863954500E+02
 0.71743651827E+01 0.51504517941E+01 0.41046257573E+01 0.37834464720E+01 0.41047366292E+01
 0.51502771718E+01 0.71743866632E+01 0.10865330256E+02 0.17318386479E+02 0.26504976554E+02
 0.37210617007E+02 0.48072707537E+02 0.58342208207E+02 0.67439768569E+02 0.85517806327E+02
 0.85511051964E+02 0.79466843245E+02 0.69604371339E+02 0.58341265344E+02 0.46744100983E+02
 0.35049684223E+02 0.24044662315E+02 0.15216957127E+02 0.95268790213E+01 0.64647232082E+01
 0.47969295288E+01 0.40506838261E+01 0.40513517913E+01 0.47978739377E+01 0.64645662038E+01
 0.95261583801E+01 0.15216700200E+02 0.24043634458E+02 0.35045845462E+02 0.46739421162E+02
 0.58342208207E+02 0.69614775140E+02 0.79481159363E+02 0.92680067064E+02 0.88982317222E+02
 0.79481159363E+02 0.67439768569E+02 0.55104247356E+02 0.42916749126E+02 0.30986716516E+02
 0.20399047635E+02 0.12635705817E+02 0.80974315663E+01 0.57049239475E+01 0.44564820758E+01
 0.40684462421E+01 0.44564820758E+01 0.57049239475E+01 0.80974315663E+01 0.12635705817E+02
 0.20399047635E+02 0.30986716516E+02 0.42916749126E+02 0.55104247356E+02 0.67439768569E+02
 0.79481159363E+02 0.88982317222E+02 0.82363948054E+02 0.74128127301E+02 0.63398159795E+02
 0.51993345306E+02 0.40412206356E+02 0.29036072968E+02 0.19067439182E+02 0.11876429776E+02
 0.77106115748E+01 0.54798365546E+01 0.43191052647E+01 0.39600065571E+01 0.43187912253E+01
 0.54797650921E+01 0.77104119934E+01 0.11875822817E+02 0.19069076776E+02 0.29043761145E+02
 0.40423399022E+02 0.51995981467E+02 0.63380715639E+02 0.74094944238E+02 0.82336834366E+02
 0.85517806327E+02 0.74128127301E+02 0.65226323650E+02 0.54797539065E+02 0.43830412583E+02
 0.32728225669E+02 0.22392654705E+02 0.14227698175E+02 0.90258394762E+01 0.62031027591E+01
 0.46497555899E+01 0.39581281968E+01 0.39584097698E+01 0.46503331977E+01 0.62028202742E+01
 0.90235626288E+01 0.14225522047E+02 0.22396365864E+02 0.32740540662E+02 0.43843250215E+02
 0.54795678288E+02 0.65203255711E+02 0.74097315622E+02 0.79466843245E+02 0.79481159363E+02
 0.63398159795E+02 0.54797539065E+02 0.45001624371E+02 0.34668358583E+02 0.24615523961E+02
 0.16126488771E+02 0.10241331588E+02 0.68742868729E+01 0.49908186269E+01 0.40206345632E+01
 0.37226066672E+01 0.40203111375E+01 0.49908458658E+01 0.68737734524E+01 0.10238374896E+02
 0.16122276029E+02 0.24615522379E+02 0.34676600263E+02 0.45014468891E+02 0.54806169248E+02
 0.63398223008E+02 0.69611140897E+02 0.71927630208E+02 0.69614775140E+02 0.51993345306E+02
 0.43830412583E+02 0.34668358583E+02 0.25393268729E+02 0.17185173318E+02 0.11113193147E+02
 0.74035243372E+01 0.52827166557E+01 0.41041518815E+01 0.35874026196E+01 0.35867829547E+01
 0.41035129173E+01 0.52835189407E+01 0.74041399787E+01 0.11109803484E+02 0.17176895358E+02
 0.25385578856E+02 0.34670028163E+02 0.43846108127E+02 0.52018660065E+02 0.58365493631E+02
 0.61916302337E+02 0.61906901343E+02 0.58342208207E+02 0.40412206356E+02 0.32728225669E+02
 0.24615523961E+02 0.17185173318E+02 0.11431898576E+02 0.77037603548E+01 0.54796653094E+01
 0.41718811188E+01 0.35125397034E+01 0.33123738014E+01 0.35125272598E+01 0.41723801127E+01
 0.54811450611E+01 0.77051390378E+01 0.11429909816E+02 0.17177321701E+02 0.24605081232E+02
 0.32724646243E+02 0.40423236974E+02 0.46761420850E+02 0.50965431719E+02 0.52438786009E+02
 0.50947439328E+02 0.46739421162E+02 0.29036072968E+02 0.22392654705E+02 0.16126488771E+02
 0.11113193147E+02 0.77037603548E+01 0.55500461508E+01 0.42088733882E+01 0.34725883579E+01
 0.31520388081E+01 0.31523020601E+01 0.34726996095E+01 0.42085163573E+01 0.55510456746E+01
 0.77076352900E+01 0.11117337568E+02 0.16125615175E+02 0.22385259902E+02 0.29027450229E+02
 0.35042531659E+02 0.39564661201E+02 0.41983290638E+02 0.41981379912E+02 0.39562488705E+02
 0.35045845462E+02 0.19067439182E+02 0.14227698175E+02 0.10241331588E+02 0.74035243372E+01
 0.54796653094E+01 0.42088733882E+01 0.34600170980E+01 0.30783122304E+01 0.29620006520E+01
 0.30780150733E+01 0.34585097438E+01 0.42066832082E+01 0.54796964688E+01 0.74083756929E+01
 0.10249716699E+02 0.14234388824E+02 0.19067338685E+02 0.24036059544E+02 0.28302018753E+02
 0.31159068652E+02 0.32163774155E+02 0.31166589834E+02 0.28312721082E+02 0.24043634458E+02
 0.11876429776E+02 0.90258394762E+01 0.68742868729E+01 0.52827166557E+01 0.41718811188E+01
 0.34725883579E+01 0.30783122304E+01 0.29032815822E+01 0.29034523050E+01 0.30782491251E+01
 0.34708830065E+01 0.41676940813E+01 0.52778715675E+01 0.68733215548E+01 0.90321582269E+01
 0.11887772130E+02 0.15225840556E+02 0.18522076761E+02 0.21155792257E+02 0.22614825958E+02
 0.22617515283E+02 0.21159956154E+02 0.18520598836E+02 0.15216700200E+02 0.77106115748E+01
 0.62031027591E+01 0.49908186269E+01 0.41041518815E+01 0.35125397034E+01 0.31520388081E+01
 0.29620006520E+01 0.29034523050E+01 0.29634298056E+01 0.31540996113E+01 0.35125496976E+01
 0.40989679466E+01 0.49810428875E+01 0.61947250962E+01 0.77103629153E+01 0.95349470872E+01
 0.11545700026E+02 0.13413321598E+02 0.14742260358E+02 0.15222813166E+02 0.14738212783E+02
 0.13404196811E+02 0.11533544530E+02 0.95261583801E+01 0.54798365546E+01 0.46497555899E+01
 0.40206345632E+01 0.35874026196E+01 0.33123738014E+01 0.31523020601E+01 0.30780150733E+01
 0.30782491251E+01 0.31540996113E+01 0.33168160230E+01 0.35921474076E+01 0.40206081730E+01
 0.46421454108E+01 0.54678786731E+01 0.64555814483E+01 0.75149922847E+01 0.85593706720E+01
 0.94292523572E+01 0.99277887682E+01 0.99239254357E+01 0.94204592052E+01 0.85522805520E+01
 0.75155765814E+01 0.64645662038E+01 0.43191052647E+01 0.39581281968E+01 0.37226066672E+01
 0.35867829547E+01 0.35125272598E+01 0.34726996095E+01 0.34585097438E+01 0.34708830065E+01
 0.35125496976E+01 0.35921474076E+01 0.37323407137E+01 0.39662070821E+01 0.43190312394E+01
 0.47887295000E+01 0.53381962671E+01 0.59005837810E+01 0.63916807493E+01 0.67276606690E+01
 0.68463550162E+01 0.67248583182E+01 0.63916528769E+01 0.59078236972E+01 0.53502990628E+01
 0.47978739377E+01 0.39600065571E+01 0.39584097698E+01 0.40203111375E+01 0.41035129173E+01
 0.41723801127E+01 0.42085163573E+01 0.42066832082E+01 0.41676940813E+01 0.40989679466E+01
 0.40206081730E+01 0.39662070821E+01 0.39720492732E+01 0.40600450841E+01 0.42259816174E+01
 0.44400516696E+01 0.46574386966E+01 0.48321899917E+01 0.49290144248E+01 0.49301587887E+01
 0.48364723138E+01 0.46649293812E+01 0.44467385564E+01 0.42258570126E+01 0.40513517913E+01
 0.43187912253E+01 0.46503331977E+01 0.49908458658E+01 0.52835189407E+01 0.54811450611E+01
 0.55510456746E+01 0.54796964688E+01 0.52778715675E+01 0.49810428875E+01 0.46421454108E+01
 0.43190312394E+01 0.40600450841E+01 0.38908787521E+01 0.38081727340E+01 0.37855914997E+01
 0.37905824408E+01 0.38002936968E+01 0.38054699983E+01 0.38036922852E+01 0.37945830754E+01
 0.37855680163E+01 0.38009873286E+01 0.38788622804E+01 0.40506838261E+01 0.54797650921E+01
 0.62028202742E+01 0.68737734524E+01 0.74041399787E+01 0.77051390378E+01 0.77076352900E+01
 0.74083756929E+01 0.68733215548E+01 0.61947250962E+01 0.54678786731E+01 0.47887295000E+01
 0.42259816174E+01 0.38081727340E+01 0.35250815198E+01 0.33449811488E+01 0.32376297486E+01
 0.31868730819E+01 0.31874580565E+01 0.32376372678E+01 0.33413516463E+01 0.35176894371E+01
 0.38014906655E+01 0.42258570126E+01 0.47969295288E+01 0.77104119934E+01 0.90235626288E+01
 0.10238374896E+02 0.11109803484E+02 0.11429909816E+02 0.11117337568E+02 0.10249716699E+02
 0.90321582269E+01 0.77103629153E+01 0.64555814483E+01 0.53381962671E+01 0.44400516696E+01
 0.37855914997E+01 0.33449811488E+01 0.30695318255E+01 0.29191835340E+01 0.28712463726E+01
 0.29180485821E+01 0.30662869479E+01 0.33410240077E+01 0.37855776951E+01 0.44474327538E+01
 0.53502990628E+01 0.64647232082E+01 0.11875822817E+02 0.14225522047E+02 0.16122276029E+02
 0.17176895358E+02 0.17177321701E+02 0.16125615175E+02 0.14234388824E+02 0.11887772130E+02
 0.95349470872E+01 0.75149922847E+01 0.59005837810E+01 0.46574386966E+01 0.37905824408E+01
 0.32376297486E+01 0.29191835340E+01 0.27749673368E+01 0.27745069427E+01 0.29181529602E+01
 0.32375987925E+01 0.37940302504E+01 0.46648018045E+01 0.59076953270E+01 0.75155765814E+01
 0.95268790213E+01 0.19069076776E+02 0.22396365864E+02 0.24615522379E+02 0.25385578856E+02
 0.24605081232E+02 0.22385259902E+02 0.19067338685E+02 0.15225840556E+02 0.11545700026E+02
 0.85593706720E+01 0.63916807493E+01 0.48321899917E+01 0.38002936968E+01 0.31868730819E+01
 0.28712463726E+01 0.27745069427E+01 0.28712087541E+01 0.31881017942E+01 0.38036751570E+01
 0.48360302129E+01 0.63916473878E+01 0.85521100483E+01 0.11533544530E+02 0.15216957127E+02
 0.29043761145E+02 0.32740540662E+02 0.34676600263E+02 0.34670028163E+02 0.32724646243E+02
 0.29027450229E+02 0.24036059544E+02 0.18522076761E+02 0.13413321598E+02 0.94292523572E+01
 0.67276606690E+01 0.49290144248E+01 0.38054699983E+01 0.31874580565E+01 0.29180485821E+01
 0.29181529602E+01 0.31881017942E+01 0.38066726106E+01 0.49291189905E+01 0.67241522601E+01
 0.94217604429E+01 0.13405687307E+02 0.18520598836E+02 0.24044662315E+02 0.40423399022E+02
 0.43843250215E+02 0.45014468891E+02 0.43846108127E+02 0.40423236974E+02 0.35042531659E+02
 0.28302018753E+02 0.21155792257E+02 0.14742260358E+02 0.99277887682E+01 0.68463550162E+01
 0.49301587887E+01 0.38036922852E+01 0.32376372678E+01 0.30662869479E+01 0.32375987925E+01
 0.38036751570E+01 0.49291189905E+01 0.68430469338E+01 0.99237779750E+01 0.14742245354E+02
 0.21162793263E+02 0.28312721082E+02 0.35049684223E+02 0.51995981467E+02 0.54795678288E+02
 0.54806169248E+02 0.52018660065E+02 0.46761420850E+02 0.39564661201E+02 0.31159068652E+02
 0.22614825958E+02 0.15222813166E+02 0.99239254357E+01 0.67248583182E+01 0.48364723138E+01
 0.37945830754E+01 0.33413516463E+01 0.33410240077E+01 0.37940302504E+01 0.48360302129E+01
 0.67241522601E+01 0.99237779750E+01 0.15226368458E+02 0.22623629257E+02 0.31167618074E+02