   1   1   0   0
  0.1987675E+02  0.3040559E-09  0.3040559E-09  0.3040559E-09  0.5000000E-15
  1.000000000000000E-004
  CAR 
 FCC Au                                  
     33.70700844     -6.65065601  301      3.61983247      1.00000000
     -6.651  0.0000E+00  0.0000E+00
     -6.516  0.0000E+00  0.0000E+00
     -6.382 -0.2139E-33 -0.2878E-34
     -6.247 -0.1429E-28 -0.1922E-29
     -6.113 -0.3835E-24 -0.5159E-25
     -5.978 -0.4129E-20 -0.5555E-21
     -5.844 -0.1780E-16 -0.2395E-17
     -5.709 -0.2956E-13 -0.3979E-14
     -5.574 -0.2003E-10 -0.2698E-11
     -5.440 -0.5332E-08 -0.7200E-09
     -5.305 -0.5498E-06 -0.7469E-07
     -5.171 -0.2129E-04 -0.2939E-05
     -5.036 -0.2876E-03 -0.4163E-04
     -4.902 -0.1023E-02 -0.1792E-03
     -4.767  0.1759E-02  0.5750E-04
     -4.633  0.1440E-01  0.1994E-02
     -4.498  0.3742E-01  0.7028E-02
     -4.364  0.5822E-01  0.1486E-01
     -4.229  0.6262E-01  0.2329E-01
     -4.095  0.7101E-01  0.3284E-01
     -3.960  0.9692E-01  0.4588E-01
     -3.826  0.1178E+00  0.6173E-01
     -3.691  0.9387E-01  0.7436E-01
     -3.557  0.9185E-01  0.8672E-01
     -3.422  0.1580E+00  0.1080E+00
     -3.288  0.1835E+00  0.1327E+00
     -3.153  0.1362E+00  0.1510E+00
     -3.018  0.1569E+00  0.1721E+00
     -2.884  0.2113E+00  0.2005E+00
     -2.749  0.2138E+00  0.2293E+00
     -2.615  0.2630E+00  0.2647E+00
     -2.480  0.3723E+00  0.3147E+00
     -2.346  0.5295E+00  0.3860E+00
     -2.211  0.6611E+00  0.4749E+00
     -2.077  0.8757E+00  0.5927E+00
     -1.942  0.1210E+01  0.7554E+00
     -1.808  0.1621E+01  0.9735E+00
     -1.673  0.2065E+01  0.1251E+01
     -1.539  0.2236E+01  0.1552E+01
     -1.404  0.2131E+01  0.1839E+01
     -1.270  0.1937E+01  0.2099E+01
     -1.135  0.1784E+01  0.2339E+01
     -1.001  0.1539E+01  0.2546E+01
     -0.866  0.1781E+01  0.2786E+01
     -0.732  0.2304E+01  0.3096E+01
     -0.597  0.2507E+01  0.3433E+01
     -0.462  0.2526E+01  0.3773E+01
     -0.328  0.2746E+01  0.4142E+01
     -0.193  0.3028E+01  0.4550E+01
     -0.059  0.3535E+01  0.5025E+01
      0.076  0.3812E+01  0.5538E+01
      0.210  0.3028E+01  0.5945E+01
      0.345  0.2119E+01  0.6230E+01
      0.479  0.1940E+01  0.6491E+01
      0.614  0.2280E+01  0.6798E+01
      0.748  0.2745E+01  0.7167E+01
      0.883  0.2805E+01  0.7545E+01
      1.017  0.2454E+01  0.7875E+01
      1.152  0.2370E+01  0.8194E+01
      1.286  0.2136E+01  0.8481E+01
      1.421  0.2118E+01  0.8766E+01
      1.555  0.2372E+01  0.9085E+01
      1.690  0.3106E+01  0.9503E+01
      1.824  0.3458E+01  0.9968E+01
      1.959  0.2548E+01  0.1031E+02
      2.094  0.1333E+01  0.1049E+02
      2.228  0.6184E+00  0.1057E+02
      2.363  0.2202E+00  0.1060E+02
      2.497  0.1521E+00  0.1062E+02
      2.632  0.3125E+00  0.1067E+02
      2.766  0.4675E+00  0.1073E+02
      2.901  0.3595E+00  0.1078E+02
      3.035  0.2122E+00  0.1080E+02
      3.170  0.1537E+00  0.1083E+02
      3.304  0.3093E+00  0.1087E+02
      3.439  0.4962E+00  0.1093E+02
      3.573  0.3965E+00  0.1099E+02
      3.708  0.2473E+00  0.1102E+02
      3.842  0.2296E+00  0.1105E+02
      3.977  0.2393E+00  0.1108E+02
      4.111  0.3516E+00  0.1113E+02
      4.246  0.4085E+00  0.1119E+02
      4.380  0.3189E+00  0.1123E+02
      4.515  0.2757E+00  0.1127E+02
      4.649  0.3085E+00  0.1131E+02
      4.784  0.3016E+00  0.1135E+02
      4.919  0.2483E+00  0.1138E+02
      5.053  0.3384E+00  0.1143E+02
      5.188  0.3486E+00  0.1147E+02
      5.322  0.3009E+00  0.1151E+02
      5.457  0.2333E+00  0.1155E+02
      5.591  0.2367E+00  0.1158E+02
      5.726  0.3820E+00  0.1163E+02
      5.860  0.3958E+00  0.1168E+02
      5.995  0.3296E+00  0.1173E+02
      6.129  0.3380E+00  0.1177E+02
      6.264  0.4506E+00  0.1183E+02
      6.398  0.5682E+00  0.1191E+02
      6.533  0.3828E+00  0.1196E+02
      6.667  0.2394E+00  0.1199E+02
      6.802  0.2804E+00  0.1203E+02
      6.936  0.2887E+00  0.1207E+02
      7.071  0.3037E+00  0.1211E+02
      7.205  0.3694E+00  0.1216E+02
      7.340  0.4084E+00  0.1221E+02
      7.475  0.2792E+00  0.1225E+02
      7.609  0.9639E-01  0.1227E+02
      7.744  0.6560E-01  0.1227E+02
      7.878  0.3087E+00  0.1232E+02
      8.013  0.4971E+00  0.1238E+02
      8.147  0.4730E+00  0.1245E+02
      8.282  0.4846E+00  0.1251E+02
      8.416  0.4932E+00  0.1258E+02
      8.551  0.3709E+00  0.1263E+02
      8.685  0.2599E+00  0.1266E+02
      8.820  0.2909E+00  0.1270E+02
      8.954  0.4251E+00  0.1276E+02
      9.089  0.4742E+00  0.1282E+02
      9.223  0.3319E+00  0.1287E+02
      9.358  0.1804E+00  0.1289E+02
      9.492  0.2859E+00  0.1293E+02
      9.627  0.4875E+00  0.1300E+02
      9.761  0.4101E+00  0.1305E+02
      9.896  0.1695E+00  0.1307E+02
     10.031  0.1385E+00  0.1309E+02
     10.165  0.3633E+00  0.1314E+02
     10.300  0.4617E+00  0.1320E+02
     10.434  0.3345E+00  0.1325E+02
     10.569  0.4235E+00  0.1331E+02
     10.703  0.3770E+00  0.1336E+02
     10.838  0.3561E+00  0.1340E+02
     10.972  0.6201E+00  0.1349E+02
     11.107  0.5141E+00  0.1356E+02
     11.241  0.1164E+00  0.1357E+02
     11.376  0.3120E-01  0.1358E+02
     11.510  0.2321E+00  0.1361E+02
     11.645  0.5112E+00  0.1368E+02
     11.779  0.5095E+00  0.1374E+02
     11.914  0.3716E+00  0.1379E+02
     12.048  0.4691E+00  0.1386E+02
     12.183  0.4447E+00  0.1392E+02
     12.317  0.3706E+00  0.1397E+02
     12.452  0.5186E+00  0.1404E+02
     12.586  0.4418E+00  0.1410E+02
     12.721  0.3242E+00  0.1414E+02
     12.856  0.4204E+00  0.1420E+02
     12.990  0.4429E+00  0.1426E+02
     13.125  0.4294E+00  0.1431E+02
     13.259  0.5038E+00  0.1438E+02
     13.394  0.7382E+00  0.1448E+02
     13.528  0.6622E+00  0.1457E+02
     13.663  0.3390E+00  0.1462E+02
     13.797  0.4300E+00  0.1467E+02
     13.932  0.4778E+00  0.1474E+02
     14.066  0.4275E+00  0.1480E+02
     14.201  0.6841E+00  0.1489E+02
     14.335  0.8251E+00  0.1500E+02
     14.470  0.7829E+00  0.1510E+02
     14.604  0.6076E+00  0.1519E+02
     14.739  0.3869E+00  0.1524E+02
     14.873  0.2357E+00  0.1527E+02
     15.008  0.2918E+00  0.1531E+02
     15.142  0.4422E+00  0.1537E+02
     15.277  0.6024E+00  0.1545E+02
     15.412  0.7069E+00  0.1554E+02
     15.546  0.6026E+00  0.1563E+02
     15.681  0.4815E+00  0.1569E+02
     15.815  0.4681E+00  0.1575E+02
     15.950  0.5667E+00  0.1583E+02
     16.084  0.5228E+00  0.1590E+02
     16.219  0.4206E+00  0.1596E+02
     16.353  0.5279E+00  0.1603E+02
     16.488  0.5823E+00  0.1611E+02
     16.622  0.4441E+00  0.1617E+02
     16.757  0.4069E+00  0.1622E+02
     16.891  0.4715E+00  0.1628E+02
     17.026  0.5052E+00  0.1635E+02
     17.160  0.4355E+00  0.1641E+02
     17.295  0.3231E+00  0.1645E+02
     17.429  0.4257E+00  0.1651E+02
     17.564  0.5948E+00  0.1659E+02
     17.698  0.4937E+00  0.1666E+02
     17.833  0.4447E+00  0.1672E+02
     17.968  0.4767E+00  0.1678E+02
     18.102  0.5082E+00  0.1685E+02
     18.237  0.5866E+00  0.1693E+02
     18.371  0.6268E+00  0.1701E+02
     18.506  0.5086E+00  0.1708E+02
     18.640  0.3776E+00  0.1713E+02
     18.775  0.4792E+00  0.1720E+02
     18.909  0.4986E+00  0.1726E+02
     19.044  0.3992E+00  0.1732E+02
     19.178  0.4478E+00  0.1738E+02
     19.313  0.6101E+00  0.1746E+02
     19.447  0.8307E+00  0.1757E+02
     19.582  0.9044E+00  0.1769E+02
     19.716  0.1008E+01  0.1783E+02
     19.851  0.1047E+01  0.1797E+02
     19.985  0.8518E+00  0.1808E+02
     20.120  0.8812E+00  0.1820E+02
     20.254  0.1239E+01  0.1837E+02
     20.389  0.1261E+01  0.1854E+02
     20.524  0.9107E+00  0.1866E+02
     20.658  0.6833E+00  0.1875E+02
     20.793  0.5701E+00  0.1883E+02
     20.927  0.4755E+00  0.1889E+02
     21.062  0.6180E+00  0.1898E+02
     21.196  0.8208E+00  0.1909E+02
     21.331  0.8062E+00  0.1920E+02
     21.465  0.8152E+00  0.1931E+02
     21.600  0.7843E+00  0.1941E+02
     21.734  0.6712E+00  0.1950E+02
     21.869  0.7880E+00  0.1961E+02
     22.003  0.7444E+00  0.1971E+02
     22.138  0.5479E+00  0.1978E+02
     22.272  0.4194E+00  0.1984E+02
     22.407  0.3093E+00  0.1988E+02
     22.541  0.3682E+00  0.1993E+02
     22.676  0.5345E+00  0.2000E+02
     22.810  0.4446E+00  0.2006E+02
     22.945  0.4867E+00  0.2013E+02
     23.079  0.8782E+00  0.2024E+02
     23.214  0.8206E+00  0.2035E+02
     23.349  0.3507E+00  0.2040E+02
     23.483  0.2071E+00  0.2043E+02
     23.618  0.2095E+00  0.2046E+02
     23.752  0.2060E+00  0.2049E+02
     23.887  0.2065E+00  0.2051E+02
     24.021  0.2900E+00  0.2055E+02
     24.156  0.3837E+00  0.2060E+02
     24.290  0.4559E+00  0.2067E+02
     24.425  0.5557E+00  0.2074E+02
     24.559  0.6798E+00  0.2083E+02
     24.694  0.6085E+00  0.2091E+02
     24.828  0.3510E+00  0.2096E+02
     24.963  0.2116E+00  0.2099E+02
     25.097  0.2496E+00  0.2102E+02
     25.232  0.3902E+00  0.2108E+02
     25.366  0.3277E+00  0.2112E+02
     25.501  0.2314E+00  0.2115E+02
     25.635  0.4615E+00  0.2121E+02
     25.770  0.6906E+00  0.2131E+02
     25.905  0.6651E+00  0.2139E+02
     26.039  0.7008E+00  0.2149E+02
     26.174  0.7154E+00  0.2159E+02
     26.308  0.8058E+00  0.2169E+02
     26.443  0.1175E+01  0.2185E+02
     26.577  0.1220E+01  0.2202E+02
     26.712  0.7101E+00  0.2211E+02
     26.846  0.5237E+00  0.2218E+02
     26.981  0.6815E+00  0.2227E+02
     27.115  0.4565E+00  0.2233E+02
     27.250  0.4421E+00  0.2239E+02
     27.384  0.7344E+00  0.2249E+02
     27.519  0.7110E+00  0.2259E+02
     27.653  0.6752E+00  0.2268E+02
     27.788  0.9550E+00  0.2281E+02
     27.922  0.1099E+01  0.2296E+02
     28.057  0.7653E+00  0.2306E+02
     28.191  0.5083E+00  0.2313E+02
     28.326  0.6037E+00  0.2321E+02
     28.461  0.7110E+00  0.2330E+02
     28.595  0.5927E+00  0.2338E+02
     28.730  0.4217E+00  0.2344E+02
     28.864  0.4574E+00  0.2350E+02
     28.999  0.4369E+00  0.2356E+02
     29.133  0.2787E+00  0.2360E+02
     29.268  0.2149E+00  0.2363E+02
     29.402  0.3237E+00  0.2367E+02
     29.537  0.5723E+00  0.2375E+02
     29.671  0.5477E+00  0.2382E+02
     29.806  0.1925E+00  0.2385E+02
     29.940 -0.1524E-01  0.2385E+02
     30.075 -0.4942E-02  0.2384E+02
     30.209  0.7872E-01  0.2386E+02
     30.344  0.1250E+00  0.2387E+02
     30.478  0.7750E-01  0.2388E+02
     30.613  0.8702E-01  0.2389E+02
     30.747  0.1805E+00  0.2392E+02
     30.882  0.2234E+00  0.2395E+02
     31.016  0.1163E+00  0.2396E+02
     31.151  0.6501E-02  0.2397E+02
     31.286 -0.1126E-01  0.2396E+02
     31.420  0.2832E-02  0.2396E+02
     31.555  0.5398E-01  0.2397E+02
     31.689  0.1153E+00  0.2399E+02
     31.824  0.8928E-01  0.2400E+02
     31.958  0.1569E-01  0.2400E+02
     32.093 -0.5133E-02  0.2400E+02
     32.227 -0.1468E-02  0.2400E+02
     32.362 -0.1029E-03  0.2400E+02
     32.496 -0.2520E-05  0.2400E+02
     32.631 -0.2329E-07  0.2400E+02
     32.765 -0.8383E-10  0.2400E+02
     32.900 -0.1191E-12  0.2400E+02
     33.034 -0.7923E-16  0.2400E+02
     33.169  0.0000E+00  0.2400E+02
     33.303  0.0000E+00  0.2400E+02
     33.438  0.0000E+00  0.2400E+02
     33.572  0.0000E+00  0.2400E+02
     33.707  0.0000E+00  0.2400E+02
