    1    1    1    1
  0.1987675E+02  0.3040559E-09  0.3040559E-09  0.3040559E-09  0.5000000E-15
  1.000000000000000E-004
  CAR 
 FCC Au                                  
     11    110     12
 
  0.5000000E-01  0.5000000E-01  0.5000000E-01  0.2000000E-02
    1       -4.650656   1.000000
    2       -0.297338   1.000000
    3       -0.252285   1.000000
    4       -0.252285   1.000000
    5        0.886731   1.000000
    6        0.886731   1.000000
    7       18.960638   0.000000
    8       21.133408   0.000000
    9       21.849774   0.000000
   10       21.849774   0.000000
   11       26.342389   0.000000
   12       28.365830   0.000000
 
  0.1500000E+00  0.5000000E-01  0.5000000E-01  0.6000000E-02
    1       -4.254307   1.000000
    2       -0.406767   1.000000
    3       -0.144279   1.000000
    4       -0.117566   1.000000
    5        0.783482   1.000000
    6        0.929008   1.000000
    7       18.724654   0.000000
    8       19.479804   0.000000
    9       21.301846   0.000000
   10       22.607991   0.000000
   11       25.339557   0.000000
   12       27.840713   0.000000
 
  0.2500000E+00  0.5000000E-01  0.5000000E-01  0.6000000E-02
    1       -3.384036   1.000000
    2       -0.478275   1.000000
    3       -0.020904   1.000000
    4       -0.007487   1.000000
    5        0.797511   1.000000
    6        1.100881   1.000000
    7       15.195078   0.000000
    8       19.400761   0.000000
    9       21.193392   0.000000
   10       23.220430   0.000000
   11       23.928220   0.000000
   12       25.808535   0.000000
 
  0.3500000E+00  0.5000000E-01  0.5000000E-01  0.6000000E-02
    1       -2.571746   1.000000
    2       -0.153020   1.000000
    3       -0.092544   1.000000
    4        0.112419   1.000000
    5        1.169494   1.000000
    6        1.547363   1.000000
    7       11.344648   0.000000
    8       18.881828   0.000000
    9       20.201110   0.000000
   10       21.984032   0.000000
   11       24.925456   0.000000
   12       25.735941   0.000000
 
  0.4500000E+00  0.5000000E-01  0.5000000E-01  0.6000000E-02
    1       -2.346296   1.000000
    2       -0.271643   1.000000
    3       -0.219494   1.000000
    4        1.338632   1.000000
    5        1.614243   1.000000
    6        2.451671   1.000000
    7        7.791878  -0.000000
    8       18.348806   0.000000
    9       19.409541   0.000000
   10       20.385075   0.000000
   11       26.190706   0.000000
   12       26.282145   0.000000
 
 -0.4500000E+00  0.5000000E-01  0.5000000E-01  0.6000000E-02
    1       -2.335030   1.000000
    2       -0.321675   1.000000
    3       -0.249528   1.000000
    4        1.557088   1.000000
    5        1.825944   1.000000
    6        3.561523   0.735486
    7        6.085651  -0.000000
    8       18.221936   0.000000
    9       19.458961   0.000000
   10       19.598490   0.000000
   11       26.491035   0.000000
   12       26.535903   0.000000
 
 -0.3500000E+00  0.5000000E-01  0.5000000E-01  0.6000000E-02
    1       -2.376799   1.000000
    2       -0.248605   1.000000
    3       -0.165861   1.000000
    4        0.902228   1.000000
    5        1.674516   1.000000
    6        1.904760   1.000000
    7        8.906957  -0.000000
    8       18.596794   0.000000
    9       19.754528   0.000000
   10       20.465233   0.000000
   11       26.130737   0.000000
   12       26.430709   0.000000
 
 -0.2500000E+00  0.5000000E-01  0.5000000E-01  0.6000000E-02
    1       -2.782263   1.000000
    2       -0.257134   1.000000
    3       -0.069483   1.000000
    4       -0.035325   1.000000
    5        1.110470   1.000000
    6        1.298269   1.000000
    7       12.617148   0.000000
    8       19.316657   0.000000
    9       20.483737   0.000000
   10       22.103748   0.000000
   11       24.601612   0.000000
   12       26.407530   0.000000
 
 -0.1500000E+00  0.5000000E-01  0.5000000E-01  0.6000000E-02
    1       -3.706454   1.000000
    2       -0.495293   1.000000
    3       -0.029299   1.000000
    4       -0.020801   1.000000
    5        0.763487   1.000000
    6        1.003701   1.000000
    7       16.473515   0.000000
    8       19.684992   0.000000
    9       21.115591   0.000000
   10       22.902824   0.000000
   11       24.137196   0.000000
   12       26.892113   0.000000
 
 -0.5000000E-01  0.5000000E-01  0.5000000E-01  0.6000000E-02
    1       -4.449445   1.000000
    2       -0.376301   1.000000
    3       -0.177338   1.000000
    4       -0.173514   1.000000
    5        0.799857   1.000000
    6        0.930692   1.000000
    7       19.069498   0.000000
    8       20.249488   0.000000
    9       21.430378   0.000000
   10       21.899540   0.000000
   11       26.427605   0.000000
   12       27.820408   0.000000
 
  0.1500000E+00  0.1500000E+00  0.5000000E-01  0.6000000E-02
    1       -4.057089   1.000000
    2       -0.536942   1.000000
    3       -0.021172   1.000000
    4       -0.017868   1.000000
    5        0.640016   1.000000
    6        1.015162   1.000000
    7       18.958673   0.000000
    8       19.623243   0.000000
    9       20.570997   0.000000
   10       21.419465   0.000000
   11       25.102207   0.000000
   12       27.534990   0.000000
 
  0.2500000E+00  0.1500000E+00  0.5000000E-01  0.1200000E-01
    1       -3.336369   1.000000
    2       -0.719466   1.000000
    3        0.061367   1.000000
    4        0.197147   1.000000
    5        0.609857   1.000000
    6        1.188898   1.000000
    7       16.683166   0.000000
    8       18.482054   0.000000
    9       20.664798   0.000000
   10       21.795132   0.000000
   11       23.072158   0.000000
   12       26.831783   0.000000
 
  0.3500000E+00  0.1500000E+00  0.5000000E-01  0.1200000E-01
    1       -2.429780   1.000000
    2       -0.632235   1.000000
    3       -0.160013   1.000000
    4        0.208076   1.000000
    5        1.126924   1.000000
    6        1.654643   1.000000
    7       12.835213   0.000000
    8       17.871961   0.000000
    9       19.698133   0.000000
   10       21.006998   0.000000
   11       24.607516   0.000000
   12       26.570087   0.000000
 
  0.4500000E+00  0.1500000E+00  0.5000000E-01  0.1200000E-01
    1       -2.060726   1.000000
    2       -0.387545   1.000000
    3        0.039264   1.000000
    4        0.191657   1.000000
    5        1.674195   1.000000
    6        2.723242   1.000000
    7        9.136141   0.000000
    8       17.551520   0.000000
    9       18.319178   0.000000
   10       20.011201   0.000000
   11       26.430319   0.000000
   12       27.312696   0.000000
 
 -0.4500000E+00  0.1500000E+00  0.5000000E-01  0.1200000E-01
    1       -2.031851   1.000000
    2       -0.485188   1.000000
    3       -0.017796   1.000000
    4        0.796048   1.000000
    5        1.789605   1.000000
    6        4.652014  -0.000000
    7        6.137616  -0.000000
    8       17.203067   0.000000
    9       17.842061   0.000000
   10       19.585834   0.000000
   11       26.550383   0.000000
   12       27.739411   0.000000
 
 -0.3500000E+00  0.1500000E+00  0.5000000E-01  0.1200000E-01
    1       -2.024263   1.000000
    2       -0.426598   1.000000
    3        0.002107   1.000000
    4        0.557043   1.000000
    5        1.561420   1.000000
    6        3.354752   1.034101
    7        8.061859  -0.000000
    8       16.715930   0.000000
    9       18.623202   0.000000
   10       20.194709   0.000000
   11       26.018588   0.000000
   12       27.323900   0.000000
 
 -0.2500000E+00  0.1500000E+00  0.5000000E-01  0.1200000E-01
    1       -2.209869   1.000000
    2       -0.413297   1.000000
    3       -0.173737   1.000000
    4        0.146268   1.000000
    5        1.047501   1.000000
    6        2.098169   1.000000
    7       11.588384   0.000000
    8       16.858140   0.000000
    9       19.762031   0.000000
   10       21.783645   0.000000
   11       24.605453   0.000000
   12       26.501737   0.000000
 
 -0.1500000E+00  0.1500000E+00  0.5000000E-01  0.1200000E-01
    1       -3.022198   1.000000
    2       -0.681119   1.000000
    3       -0.014508   1.000000
    4        0.213818   1.000000
    5        0.604649   1.000000
    6        1.396559   1.000000
    7       15.326048   0.000000
    8       17.451315   0.000000
    9       21.297932   0.000000
   10       22.200422   0.000000
   11       24.218739   0.000000
   12       25.627139   0.000000
 
 -0.5000000E-01  0.1500000E+00  0.5000000E-01  0.1200000E-01
    1       -3.874388   1.000000
    2       -0.530020   1.000000
    3       -0.017204   1.000000
    4       -0.012107   1.000000
    5        0.671054   1.000000
    6        1.027792   1.000000
    7       17.757901   0.000000
    8       19.127474   0.000000
    9       20.948914   0.000000
   10       22.644997   0.000000
   11       24.393868   0.000000
   12       27.007270   0.000000
 
  0.2500000E+00  0.2500000E+00  0.5000000E-01  0.6000000E-02
    1       -2.846595   1.000000
    2       -0.993508   1.000000
    3        0.191103   1.000000
    4        0.491728   1.000000
    5        0.647112   1.000000
    6        1.278395   1.000000
    7       17.021231   0.000000
    8       18.046293   0.000000
    9       19.660199   0.000000
   10       20.020557   0.000000
   11       20.639775   0.000000
   12       28.555735   0.000000
 
  0.3500000E+00  0.2500000E+00  0.5000000E-01  0.1200000E-01
    1       -2.124245   1.000000
    2       -1.163554   1.000000
    3        0.003353   1.000000
    4        0.761884   1.000000
    5        1.165038   1.000000
    6        1.668384   1.000000
    7       14.428170   0.000000
    8       16.295086   0.000000
    9       17.862370   0.000000
   10       20.373245   0.000000
   11       21.794646   0.000000
   12       28.472178   0.000000
 
  0.4500000E+00  0.2500000E+00  0.5000000E-01  0.1200000E-01
    1       -1.700119   1.000000
    2       -0.938252   1.000000
    3       -0.180679   1.000000
    4        0.663826   1.000000
    5        1.736438   1.000000
    6        2.935284   1.000007
    7       10.723914   0.000000
    8       15.588138   0.000000
    9       16.313488   0.000000
   10       20.202696   0.000000
   11       24.675138   0.000000
   12       28.158051   0.000000
 
 -0.4500000E+00  0.2500000E+00  0.5000000E-01  0.1200000E-01
    1       -1.602572   1.000000
    2       -0.726196   1.000000
    3        0.000033   1.000000
    4        0.514556   1.000000
    5        1.817112   1.000000
    6        5.093752  -0.000000
    7        7.482663  -0.000000
    8       14.378288   0.000000
    9       16.379033   0.000000
   10       20.017457   0.000000
   11       27.259322   0.000000
   12       28.307081   0.000000
 
 -0.3500000E+00  0.2500000E+00  0.5000000E-01  0.1200000E-01
    1       -1.471898   1.000000
    2       -0.683031   1.000000
    3        0.037013   1.000000
    4        0.434183   1.000000
    5        1.523532   1.000000
    6        4.948154  -0.000000
    7        7.889392  -0.000000
    8       13.414205   0.000000
    9       17.467648   0.000000
   10       20.220899   0.000000
   11       26.620012   0.000000
   12       28.802681   0.000000
 
 -0.2500000E+00  0.2500000E+00  0.5000000E-01  0.1200000E-01
    1       -1.419155   1.000000
    2       -0.640731   1.000000
    3       -0.410472   1.000000
    4        0.499086   1.000000
    5        1.010021   1.000000
    6        3.282377   1.019105
    7       10.989080   0.000000
    8       13.311519   0.000000
    9       18.869414   0.000000
   10       21.208783   0.000000
   11       24.910939   0.000000
   12       28.449767   0.000000
 
 -0.1500000E+00  0.2500000E+00  0.5000000E-01  0.1200000E-01
    1       -2.094453   1.000000
    2       -0.732336   1.000000
    3       -0.206047   1.000000
    4        0.397158   1.000000
    5        0.711775   1.000000
    6        2.159262   1.000000
    7       12.963206   0.000000
    8       15.370176   0.000000
    9       20.103608   0.000000
   10       22.565001   0.000000
   11       23.559513   0.000000
   12       26.895405   0.000000
 
 -0.5000000E-01  0.2500000E+00  0.5000000E-01  0.1200000E-01
    1       -2.938384   1.000000
    2       -0.531448   1.000000
    3       -0.036286   1.000000
    4        0.068635   1.000000
    5        0.852564   1.000000
    6        1.341954   1.000000
    7       13.982404   0.000000
    8       18.770536   0.000000
    9       20.539494   0.000000
   10       22.627034   0.000000
   11       24.043853   0.000000
   12       25.866294   0.000000
 
  0.3500000E+00  0.3500000E+00  0.5000000E-01  0.6000000E-02
    1       -1.960919   1.000000
    2       -1.458654   1.000000
    3        0.742175   1.000000
    4        1.161550   1.000000
    5        1.562596   1.000000
    6        1.592089   1.000000
    7       14.253545   0.000000
    8       15.518949   0.000000
    9       15.530832   0.000000
   10       19.357341   0.000000
   11       21.130310   0.000000
   12       30.846748   0.000000
 
  0.4500000E+00  0.3500000E+00  0.5000000E-01  0.1200000E-01
    1       -1.815342   1.000000
    2       -1.541315   1.000000
    3        0.756783   1.000000
    4        1.393626   1.000000
    5        1.745532   1.000000
    6        3.053506   1.000232
    7       11.691007   0.000000
    8       13.877196   0.000000
    9       14.539946   0.000000
   10       20.190986   0.000000
   11       21.979582   0.000000
   12       30.292130   0.000000
 
 -0.4500000E+00  0.3500000E+00  0.5000000E-01  0.1200000E-01
    1       -1.679197   1.000000
    2       -1.279551   1.000000
    3        0.478221   1.000000
    4        1.164032   1.000000
    5        1.892224   1.000000
    6        5.321729  -0.000000
    7        8.937853  -0.000000
    8       12.104096   0.000000
    9       14.674560   0.000000
   10       20.459062   0.000000
   11       24.501408   0.000000
   12       29.316392   0.000000
 
 -0.3500000E+00  0.3500000E+00  0.5000000E-01  0.1200000E-01
    1       -1.454929   1.000000
    2       -0.863118   1.000000
    3        0.053111   1.000000
    4        0.914912   1.000000
    5        1.652360   1.000000
    6        6.346500  -0.000000
    7        8.450675  -0.000000
    8       10.550880   0.000000
    9       15.785652   0.000000
   10       20.425636   0.000000
   11       27.652185   0.000000
   12       28.201042   0.000000
 
 -0.2500000E+00  0.3500000E+00  0.5000000E-01  0.1200000E-01
    1       -1.248629   1.000000
    2       -0.632946   1.000000
    3       -0.326768   1.000000
    4        0.644791   1.000000
    5        1.344773   1.000000
    6        4.755471  -0.000000
    7        9.583635   0.000000
    8       11.523460   0.000000
    9       17.397977   0.000000
   10       20.486010   0.000000
   11       26.564713   0.000000
   12       29.131063   0.000000
 
 -0.1500000E+00  0.3500000E+00  0.5000000E-01  0.1200000E-01
    1       -1.733425   1.000000
    2       -0.499203   1.000000
    3       -0.055952   1.000000
    4        0.267434   1.000000
    5        1.284425   1.000000
    6        3.303698   1.023960
    7        9.504746   0.000000
    8       14.964666   0.000000
    9       18.772056   0.000000
   10       20.752747   0.000000
   11       25.422943   0.000000
   12       27.826999   0.000000
 
 -0.5000000E-01  0.3500000E+00  0.5000000E-01  0.1200000E-01
    1       -2.324733   1.000000
    2       -0.244364   1.000000
    3       -0.055333   1.000000
    4        0.242809   1.000000
    5        1.394117   1.000000
    6        1.978731   1.000000
    7       10.183293   0.000000
    8       18.302222   0.000000
    9       19.403240   0.000000
   10       21.030499   0.000000
   11       25.644305   0.000000
   12       26.257705   0.000000
 
  0.4500000E+00  0.4500000E+00  0.5000000E-01  0.6000000E-02
    1       -2.014820   1.000000
    2       -1.769622   1.000000
    3        1.661828   1.000000
    4        1.713462   1.000000
    5        1.915680   1.000000
    6        3.718862   0.132579
    7       10.176454   0.000000
    8       13.459553   0.000000
    9       13.807780   0.000000
   10       19.470790   0.000000
   11       21.544882   0.000000
   12       31.686617   0.000000
 
 -0.4500000E+00  0.4500000E+00  0.5000000E-01  0.1200000E-01
    1       -1.949859   1.000000
    2       -1.728988   1.000000
    3        1.440699   1.000000
    4        1.634929   1.000000
    5        2.026539   1.000000
    6        5.560490  -0.000000
    7        8.421946  -0.000000
    8       12.466307   0.000000
    9       13.408307   0.000000
   10       20.298173   0.000000
   11       22.127825   0.000000
   12       30.870261   0.000000
 
 -0.3500000E+00  0.4500000E+00  0.5000000E-01  0.1200000E-01
    1       -1.716929   1.000000
    2       -1.352876   1.000000
    3        0.703429   1.000000
    4        1.287881   1.000000
    5        1.889771   1.000000
    6        6.697248  -0.000000
    7        7.994683  -0.000000
    8       10.994226   0.000000
    9       14.375672   0.000000
   10       20.559816   0.000000
   11       24.472625   0.000000
   12       29.585030   0.000000
 
 -0.2500000E+00  0.4500000E+00  0.5000000E-01  0.1200000E-01
    1       -1.488417   1.000000
    2       -0.828078   1.000000
    3        0.018704   1.000000
    4        0.745796   1.000000
    5        1.743444   1.000000
    6        6.271787  -0.000000
    7        7.242640  -0.000000
    8       12.390115   0.000000
    9       15.980799   0.000000
   10       20.260612   0.000000
   11       27.512972   0.000000
   12       28.209927   0.000000
 
 -0.1500000E+00  0.4500000E+00  0.5000000E-01  0.1200000E-01
    1       -1.766957   1.000000
    2       -0.607389   1.000000
    3        0.188166   1.000000
    4        0.425967   1.000000
    5        1.698196   1.000000
    6        5.255169  -0.000000
    7        6.387759  -0.000000
    8       15.346646   0.000000
    9       17.613892   0.000000
   10       19.847105   0.000000
   11       26.632732   0.000000
   12       28.324660   0.000000
 
 -0.5000000E-01  0.4500000E+00  0.5000000E-01  0.1200000E-01
    1       -2.229927   1.000000
    2       -0.363330   1.000000
    3       -0.159387   1.000000
    4        1.131564   1.000000
    5        1.759755   1.000000
    6        3.446508   1.005183
    7        6.852941  -0.000000
    8       18.102527   0.000000
    9       18.675222   0.000000
   10       19.756543   0.000000
   11       26.396663   0.000000
   12       26.939006   0.000000
 
 -0.4500000E+00 -0.4500000E+00  0.5000000E-01  0.6000000E-02
    1       -2.069241   1.000000
    2       -1.836180   1.000000
    3        1.746451   1.000000
    4        1.910507   1.000000
    5        2.036515   1.000000
    6        4.985074  -0.000000
    7        8.542339  -0.000000
    8       13.058602   0.000000
    9       13.425421   0.000000
   10       19.544269   0.000000
   11       21.634625   0.000000
   12       31.547231   0.000000
 
 -0.3500000E+00 -0.4500000E+00  0.5000000E-01  0.1200000E-01
    1       -1.892789   1.000000
    2       -1.664870   1.000000
    3        1.171786   1.000000
    4        1.594223   1.000000
    5        1.909941   1.000000
    6        4.279489  -0.000016
    7        9.980117   0.000000
    8       12.930189   0.000000
    9       13.783468   0.000000
   10       20.241644   0.000000
   11       22.075140   0.000000
   12       30.741260   0.000000
 
 -0.2500000E+00 -0.4500000E+00  0.5000000E-01  0.1200000E-01
    1       -1.644043   1.000000
    2       -1.133733   1.000000
    3        0.135264   1.000000
    4        0.933576   1.000000
    5        1.855182   1.000000
    6        4.025818  -0.007249
    7        9.793321   0.000000
    8       13.820780   0.000000
    9       15.273638   0.000000
   10       20.307479   0.000000
   11       24.568467   0.000000
   12       28.818030   0.000000
 
 -0.1500000E+00 -0.4500000E+00  0.5000000E-01  0.1200000E-01
    1       -1.806691   1.000000
    2       -0.562707   1.000000
    3        0.030423   1.000000
    4        0.292788   1.000000
    5        1.807705   1.000000
    6        3.802261  -0.013444
    7        8.218583  -0.000000
    8       16.326201   0.000000
    9       17.015630   0.000000
   10       19.842199   0.000000
   11       26.903111   0.000000
   12       28.294375   0.000000
 
 -0.3500000E+00 -0.3500000E+00  0.5000000E-01  0.6000000E-02
    1       -1.942433   1.000000
    2       -1.641002   1.000000
    3        1.324654   1.000000
    4        1.463905   1.000000
    5        1.749134   1.000000
    6        2.442629   1.000000
    7       12.229257   0.000000
    8       14.245143   0.000000
    9       14.530936   0.000000
   10       19.388456   0.000000
   11       21.370214   0.000000
   12       31.707008   0.000000
 
 -0.2500000E+00 -0.3500000E+00  0.5000000E-01  0.1200000E-01
    1       -1.828128   1.000000
    2       -1.369427   1.000000
    3        0.284954   1.000000
    4        1.088140   1.000000
    5        1.520357   1.000000
    6        2.161530   1.000000
    7       13.171395   0.000000
    8       15.110899   0.000000
    9       15.880687   0.000000
   10       20.213391   0.000000
   11       21.862902   0.000000
   12       29.465704   0.000000
 
 -0.1500000E+00 -0.3500000E+00  0.5000000E-01  0.1200000E-01
    1       -1.968261   1.000000
    2       -0.758375   1.000000
    3       -0.281229   1.000000
    4        0.411404   1.000000
    5        1.493543   1.000000
    6        2.133238   1.000000
    7       11.744697   0.000000
    8       16.812955   0.000000
    9       18.107293   0.000000
   10       20.287225   0.000000
   11       24.755411   0.000000
   12       27.390424   0.000000
 
 -0.2500000E+00 -0.2500000E+00  0.5000000E-01  0.6000000E-02
    1       -2.257145   1.000000
    2       -1.236774   1.000000
    3        0.283177   1.000000
    4        0.821120   1.000000
    5        1.029197   1.000000
    6        1.433537   1.000000
    7       15.788449   0.000000
    8       16.730515   0.000000
    9       17.570048   0.000000
   10       19.440436   0.000000
   11       20.844804   0.000000
   12       29.615243   0.000000
 
 -0.1500000E+00 -0.2500000E+00  0.5000000E-01  0.1200000E-01
    1       -2.703148   1.000000
    2       -0.939648   1.000000
    3        0.007294   1.000000
    4        0.458156   1.000000
    5        0.798241   1.000000
    6        1.395871   1.000000
    7       15.583191   0.000000
    8       17.460214   0.000000
    9       19.914038   0.000000
   10       20.718643   0.000000
   11       22.001251   0.000000
   12       27.521549   0.000000
 
 -0.1500000E+00 -0.1500000E+00  0.5000000E-01  0.6000000E-02
    1       -3.500545   1.000000
    2       -0.751506   1.000000
    3        0.168948   1.000000
    4        0.206817   1.000000
    5        0.496490   1.000000
    6        1.135186   1.000000
    7       18.098696   0.000000
    8       19.378210   0.000000
    9       19.729124   0.000000
   10       20.777895   0.000000
   11       22.668932   0.000000
   12       27.823653   0.000000
 
  0.1500000E+00  0.1500000E+00  0.1500000E+00  0.2000000E-02
    1       -4.067958   1.000000
    2       -0.414023   1.000000
    3       -0.105175   1.000000
    4       -0.105175   1.000000
    5        0.860990   1.000000
    6        0.860990   1.000000
    7       17.639038   0.000000
    8       19.658738   0.000000
    9       22.107485   0.000000
   10       22.107485   0.000000
   11       25.138102   0.000000
   12       27.105201   0.000000
 
  0.2500000E+00  0.1500000E+00  0.1500000E+00  0.6000000E-02
    1       -3.520324   1.000000
    2       -0.567609   1.000000
    3        0.000964   1.000000
    4        0.054704   1.000000
    5        0.631466   1.000000
    6        1.153802   1.000000
    7       16.511219   0.000000
    8       18.360360   0.000000
    9       21.342923   0.000000
   10       23.152877   0.000000
   11       24.019846   0.000000
   12       26.086354   0.000000
 
  0.3500000E+00  0.1500000E+00  0.1500000E+00  0.6000000E-02
    1       -2.589845   1.000000
    2       -0.678963   1.000000
    3       -0.066296   1.000000
    4        0.275597   1.000000
    5        0.567146   1.000000
    6        1.734779   1.000000
    7       14.086443   0.000000
    8       16.412523   0.000000
    9       21.079059   0.000000
   10       22.821054   0.000000
   11       23.706700   0.000000
   12       26.046282   0.000000
 
  0.4500000E+00  0.1500000E+00  0.1500000E+00  0.6000000E-02
    1       -1.973392   1.000000
    2       -0.391249   1.000000
    3       -0.031100   1.000000
    4        0.125147   1.000000
    5        1.077573   1.000000
    6        2.627431   1.000000
    7       10.477446   0.000000
    8       15.871952   0.000000
    9       19.728689   0.000000
   10       21.207736   0.000000
   11       24.837169   0.000000
   12       27.048437   0.000000
 
 -0.4500000E+00  0.1500000E+00  0.1500000E+00  0.6000000E-02
    1       -1.926866   1.000000
    2       -0.494075   1.000000
    3        0.040941   1.000000
    4        0.633118   1.000000
    5        1.588736   1.000000
    6        4.185360  -0.000237
    7        7.147641  -0.000000
    8       15.972675   0.000000
    9       19.079404   0.000000
   10       19.251415   0.000000
   11       26.568830   0.000000
   12       27.332656   0.000000
 
 -0.3500000E+00  0.1500000E+00  0.1500000E+00  0.6000000E-02
    1       -1.956130   1.000000
    2       -0.510247   1.000000
    3        0.078230   1.000000
    4        0.482648   1.000000
    5        1.847705   1.000000
    6        4.199440  -0.000163
    7        7.010697  -0.000000
    8       16.789315   0.000000
    9       18.149727   0.000000
   10       19.042925   0.000000
   11       27.464214   0.000000
   12       27.503927   0.000000
 
 -0.2500000E+00  0.1500000E+00  0.1500000E+00  0.6000000E-02
    1       -2.038793   1.000000
    2       -0.405099   1.000000
    3       -0.255697   1.000000
    4        0.201596   1.000000
    5        1.737341   1.000000
    6        2.265710   1.000000
    7       10.372261   0.000000
    8       17.962002   0.000000
    9       18.164391   0.000000
   10       19.461725   0.000000
   11       26.411745   0.000000
   12       27.683096   0.000000
 
 -0.1500000E+00  0.1500000E+00  0.1500000E+00  0.6000000E-02
    1       -2.605144   1.000000
    2       -0.834485   1.000000
    3       -0.067520   1.000000
    4        0.300081   1.000000
    5        1.079357   1.000000
    6        1.393748   1.000000
    7       14.198209   0.000000
    8       18.469068   0.000000
    9       19.532876   0.000000
   10       20.316918   0.000000
   11       23.374038   0.000000
   12       27.841435   0.000000
 
  0.2500000E+00  0.2500000E+00  0.1500000E+00  0.6000000E-02
    1       -3.198012   1.000000
    2       -0.648756   1.000000
    3        0.017600   1.000000
    4        0.112877   1.000000
    5        0.781293   1.000000
    6        1.187467   1.000000
    7       15.325801   0.000000
    8       19.653545   0.000000
    9       19.826306   0.000000
   10       22.329316   0.000000
   11       23.381498   0.000000
   12       27.196105   0.000000
 
  0.3500000E+00  0.2500000E+00  0.1500000E+00  0.1200000E-01
    1       -2.437323   1.000000
    2       -0.843231   1.000000
    3       -0.140631   1.000000
    4        0.436806   1.000000
    5        0.774053   1.000000
    6        1.718652   1.000000
    7       14.197631   0.000000
    8       16.436850   0.000000
    9       19.985165   0.000000
   10       21.871790   0.000000
   11       23.418528   0.000000
   12       26.418825   0.000000
 
  0.4500000E+00  0.2500000E+00  0.1500000E+00  0.1200000E-01
    1       -1.620717   1.000000
    2       -0.816310   1.000000
    3       -0.428937   1.000000
    4        0.623042   1.000000
    5        1.006709   1.000000
    6        2.695920   1.000000
    7       11.951379   0.000000
    8       14.345869   0.000000
    9       18.407716   0.000000
   10       22.254826   0.000000
   11       23.930198   0.000000
   12       27.324042   0.000000
 
 -0.4500000E+00  0.2500000E+00  0.1500000E+00  0.1200000E-01
    1       -1.493900   1.000000
    2       -0.674311   1.000000
    3       -0.152946   1.000000
    4        0.474376   1.000000
    5        1.521820   1.000000
    6        4.210516  -0.000121
    7        8.679944  -0.000000
    8       14.144955   0.000000
    9       16.991966   0.000000
   10       21.149543   0.000000
   11       25.683803   0.000000
   12       28.956343   0.000000
 
 -0.3500000E+00  0.2500000E+00  0.1500000E+00  0.1200000E-01
    1       -1.546785   1.000000
    2       -0.740858   1.000000
    3        0.109450   1.000000
    4        0.418242   1.000000
    5        1.731213   1.000000
    6        5.769943  -0.000000
    7        6.562120  -0.000000
    8       14.647867   0.000000
    9       16.058993   0.000000
   10       20.754421   0.000000
   11       26.324307   0.000000
   12       29.595191   0.000000
 
 -0.2500000E+00  0.2500000E+00  0.1500000E+00  0.1200000E-01
    1       -1.586346   1.000000
    2       -0.656973   1.000000
    3       -0.369703   1.000000
    4        0.569320   1.000000
    5        1.618758   1.000000
    6        3.549931   0.776703
    7        9.620599   0.000000
    8       14.938182   0.000000
    9       16.576767   0.000000
   10       21.026522   0.000000
   11       25.626214   0.000000
   12       27.704943   0.000000
 
 -0.1500000E+00  0.2500000E+00  0.1500000E+00  0.1200000E-01
    1       -1.888358   1.000000
    2       -1.018701   1.000000
    3       -0.267141   1.000000
    4        0.713371   1.000000
    5        1.092647   1.000000
    6        2.150906   1.000000
    7       13.105965   0.000000
    8       15.378723   0.000000
    9       18.094202   0.000000
   10       21.600749   0.000000
   11       23.107021   0.000000