 running on    4 total cores
 distrk:  each k-point on    4 cores,    1 groups
 distr:  one band on    1 cores,    4 groups
 using from now: INCAR     
 vasp.5.4.4.18Apr17-6-g9f103f2a35 (build Jul 01 2019 03:25:34) complex          
  
 POSCAR found type information on POSCAR  Au
 POSCAR found :  1 types and       1 ions
 scaLAPACK will be used
 LDA part: xc-table for Ceperly-Alder, standard interpolation
 found WAVECAR, reading the header
 WAVECAR: different cutoff or change in lattice found
 POSCAR, INCAR and KPOINTS ok, starting setup
 FFT: planning ...
 reading WAVECAR
 the WAVECAR file was read successfully
 initial charge from wavefunction
 entering main loop
       N       E                     dE             d eps       ncg     rms          rms(c)
DAV:   1    -0.123255181386E+02   -0.12326E+02   -0.11361E+02  2904   0.124E+02    0.158E+01
DAV:   2    -0.450176920024E+01    0.78237E+01   -0.21203E+01  2964   0.492E+01    0.338E+00
DAV:   3    -0.416060530979E+01    0.34116E+00   -0.20976E+00  3076   0.138E+01    0.444E-01
DAV:   4    -0.415709057699E+01    0.35147E-02   -0.39577E-02  2904   0.209E+00    0.726E-02
DAV:   5    -0.415740241229E+01   -0.31184E-03   -0.50354E-04  3112   0.120E-01    0.213E-02
DAV:   6    -0.415745120849E+01   -0.48796E-04   -0.64222E-05  1728   0.575E-02
   1 F= -.41574512E+01 E0= -.41577284E+01  d E =0.831621E-03
 writing wavefunctions
