 vasp.5.4.4.18Apr17-6-g9f103f2a35 (build Jul 01 2019 03:25:34) complex          
  
 executed on             LinuxIFC date 2020.07.08  00:56:12
 running on    4 total cores
 distrk:  each k-point on    4 cores,    1 groups
 distr:  one band on NCORES_PER_BAND=   1 cores,    4 groups


--------------------------------------------------------------------------------------------------------


 INCAR:
 POTCAR:   PAW Au 04Feb1998                       
 POTCAR:   PAW Au 04Feb1998                       
   VRHFIN =Au: s1d10                                                            
   LEXCH  = CA                                                                  
   EATOM  =   929.4667 eV,   68.3139 Ry                                         
                                                                                
   TITEL  = PAW Au 04Feb1998                                                    
   LULTRA =        F    use ultrasoft PP ?                                      
   IUNSCR =        1    unscreen: 0-lin 1-nonlin 2-no                           
   RPACOR =    2.330    partial core radius                                     
   POMASS =  196.966; ZVAL   =   11.000    mass and valenz                      
   RCORE  =    2.500    outmost cutoff radius                                   
   RWIGS  =    2.840; RWIGS  =    1.503    wigner-seitz radius (au A)           
   ENMAX  =  229.869; ENMIN  =  172.402 eV                                      
   RCLOC  =    1.964    cutoff for local pot                                    
   LCOR   =        T    correct aug charges                                     
   LPAW   =        T    paw PP                                                  
   EAUG   =  356.670                                                            
   DEXC   =    -.020                                                            
   RMAX   =    3.041    core radius for proj-oper                               
   RDEP   =    2.598    core radius for depl-charge                             
   QCUT   =   -4.110; QGAM   =    8.221    optimization parameters              
                                                                                
   Description                                                                  
     l     E      TYP  RCUT    TYP  RCUT                                        
     2   .000     23  2.500                                                     
     2   .000     23  2.500                                                     
     0   .000     23  2.500                                                     
     0   .000     23  2.500                                                     
     1  -.200     23  2.500                                                     
     1   .000     23  2.500                                                     
     3   .000      7   .000                                                     
  local pseudopotential read in
  partial core-charges read in
  atomic valenz-charges read in
  non local Contribution for L=           2  read in
    real space projection operators read in
  non local Contribution for L=           2  read in
    real space projection operators read in
  non local Contribution for L=           0  read in
    real space projection operators read in
  non local Contribution for L=           0  read in
    real space projection operators read in
  non local Contribution for L=           1  read in
    real space projection operators read in
  non local Contribution for L=           1  read in
    real space projection operators read in
    PAW grid and wavefunctions read in
 
   number of l-projection  operators is LMAX  =           6
   number of lm-projection operators is LMMAX =          18
 
 PAW Au 04Feb1998                       :
 energy of atom  1       EATOM= -929.4667
 kinetic energy error for atom=    0.0704 (will be added to EATOM!!)
 
 
 POSCAR: FCC Au Bulk                             
  positions in direct lattice
  No initial velocities read in
 exchange correlation table for  LEXCH =        2
   RHO(1)=    0.500       N(1)  =     2000
   RHO(2)=  100.500       N(2)  =     4000
 


--------------------------------------------------------------------------------------------------------


 ion  position               nearest neighbor table
   1  0.000  0.000  0.000-
 
  LATTYP: Found a face centered cubic cell.
 ALAT       =     4.3000000000
  
  Lattice vectors:
  
 A1 = (   0.0000000000,   2.1500000000,   2.1500000000)
 A2 = (   2.1500000000,   0.0000000000,   2.1500000000)
 A3 = (   2.1500000000,   2.1500000000,   0.0000000000)


Analysis of symmetry for initial positions (statically):
=====================================================================
 Subroutine PRICEL returns:
 Original cell was already a primitive cell.
 

 Routine SETGRP: Setting up the symmetry group for a 
 face centered cubic supercell.


 Subroutine GETGRP returns: Found 48 space group operations
 (whereof 48 operations were pure point group operations)
 out of a pool of 48 trial point group operations.


The static configuration has the point symmetry O_h .


Analysis of symmetry for dynamics (positions and initial velocities):
=====================================================================
 Subroutine PRICEL returns:
 Original cell was already a primitive cell.
 

 Routine SETGRP: Setting up the symmetry group for a 
 face centered cubic supercell.


 Subroutine GETGRP returns: Found 48 space group operations
 (whereof 48 operations were pure point group operations)
 out of a pool of 48 trial point group operations.


The dynamic configuration has the point symmetry O_h .


 Subroutine INISYM returns: Found 48 space group operations
 (whereof 48 operations are pure point group operations),
 and found     1 'primitive' translations

 
 
 KPOINTS: 10x10x10                                

Automatic generation of k-mesh.
Space group operators:
 irot       det(A)        alpha          n_x          n_y          n_z        tau_x        tau_y        tau_z
    1     1.000000     0.000000     1.000000     0.000000     0.000000     0.000000     0.000000     0.000000
    2    -1.000000     0.000000     1.000000     0.000000     0.000000     0.000000     0.000000     0.000000
    3     1.000000   120.000000    -0.577350    -0.577350    -0.577350     0.000000     0.000000     0.000000
    4    -1.000000   120.000000    -0.577350    -0.577350    -0.577350     0.000000     0.000000     0.000000
    5     1.000000   120.000000     0.577350     0.577350     0.577350     0.000000     0.000000     0.000000
    6    -1.000000   120.000000     0.577350     0.577350     0.577350     0.000000     0.000000     0.000000
    7     1.000000    90.000000     0.000000     0.000000    -1.000000     0.000000     0.000000     0.000000
    8    -1.000000    90.000000     0.000000     0.000000    -1.000000     0.000000     0.000000     0.000000
    9     1.000000   180.000000     0.000000     0.707107     0.707107     0.000000     0.000000     0.000000
   10    -1.000000   180.000000     0.000000     0.707107     0.707107     0.000000     0.000000     0.000000
   11     1.000000    90.000000     0.000000     1.000000     0.000000     0.000000     0.000000     0.000000
   12    -1.000000    90.000000     0.000000     1.000000     0.000000     0.000000     0.000000     0.000000
   13     1.000000   180.000000     0.000000     0.000000     1.000000     0.000000     0.000000     0.000000
   14    -1.000000   180.000000     0.000000     0.000000     1.000000     0.000000     0.000000     0.000000
   15     1.000000   120.000000    -0.577350     0.577350     0.577350     0.000000     0.000000     0.000000
   16    -1.000000   120.000000    -0.577350     0.577350     0.577350     0.000000     0.000000     0.000000
   17     1.000000   120.000000    -0.577350     0.577350    -0.577350     0.000000     0.000000     0.000000
   18    -1.000000   120.000000    -0.577350     0.577350    -0.577350     0.000000     0.000000     0.000000
   19     1.000000    90.000000     0.000000     0.000000     1.000000     0.000000     0.000000     0.000000
   20    -1.000000    90.000000     0.000000     0.000000     1.000000     0.000000     0.000000     0.000000
   21     1.000000    90.000000    -1.000000     0.000000     0.000000     0.000000     0.000000     0.000000
   22    -1.000000    90.000000    -1.000000     0.000000     0.000000     0.000000     0.000000     0.000000
   23     1.000000   180.000000     0.707107     0.000000     0.707107     0.000000     0.000000     0.000000
   24    -1.000000   180.000000     0.707107     0.000000     0.707107     0.000000     0.000000     0.000000
   25     1.000000   120.000000     0.577350    -0.577350     0.577350     0.000000     0.000000     0.000000
   26    -1.000000   120.000000     0.577350    -0.577350     0.577350     0.000000     0.000000     0.000000
   27     1.000000   120.000000    -0.577350    -0.577350     0.577350     0.000000     0.000000     0.000000
   28    -1.000000   120.000000    -0.577350    -0.577350     0.577350     0.000000     0.000000     0.000000
   29     1.000000   180.000000     1.000000     0.000000     0.000000     0.000000     0.000000     0.000000
   30    -1.000000   180.000000     1.000000     0.000000     0.000000     0.000000     0.000000     0.000000
   31     1.000000    90.000000     0.000000    -1.000000     0.000000     0.000000     0.000000     0.000000
   32    -1.000000    90.000000     0.000000    -1.000000     0.000000     0.000000     0.000000     0.000000
   33     1.000000   180.000000     0.707107     0.707107     0.000000     0.000000     0.000000     0.000000
   34    -1.000000   180.000000     0.707107     0.707107     0.000000     0.000000     0.000000     0.000000
   35     1.000000    90.000000     1.000000     0.000000     0.000000     0.000000     0.000000     0.000000
   36    -1.000000    90.000000     1.000000     0.000000     0.000000     0.000000     0.000000     0.000000
   37     1.000000   120.000000     0.577350    -0.577350    -0.577350     0.000000     0.000000     0.000000
   38    -1.000000   120.000000     0.577350    -0.577350    -0.577350     0.000000     0.000000     0.000000
   39     1.000000   180.000000     0.000000     1.000000     0.000000     0.000000     0.000000     0.000000
   40    -1.000000   180.000000     0.000000     1.000000     0.000000     0.000000     0.000000     0.000000
   41     1.000000   120.000000     0.577350     0.577350    -0.577350     0.000000     0.000000     0.000000
   42    -1.000000   120.000000     0.577350     0.577350    -0.577350     0.000000     0.000000     0.000000
   43     1.000000   180.000000     0.000000    -0.707107     0.707107     0.000000     0.000000     0.000000
   44    -1.000000   180.000000     0.000000    -0.707107     0.707107     0.000000     0.000000     0.000000
   45     1.000000   180.000000     0.707107    -0.707107     0.000000     0.000000     0.000000     0.000000
   46    -1.000000   180.000000     0.707107    -0.707107     0.000000     0.000000     0.000000     0.000000
   47     1.000000   180.000000     0.707107     0.000000    -0.707107     0.000000     0.000000     0.000000
   48    -1.000000   180.000000     0.707107     0.000000    -0.707107     0.000000     0.000000     0.000000
 
 Subroutine IBZKPT returns following result:
 ===========================================
 
 Found    110 irreducible k-points:
 
 Following reciprocal coordinates:
            Coordinates               Weight
  0.050000  0.050000  0.050000     96.000000
  0.150000  0.050000  0.050000    288.000000
  0.250000  0.050000  0.050000    288.000000
  0.350000  0.050000  0.050000    288.000000
  0.450000  0.050000  0.050000    288.000000
 -0.450000  0.050000  0.050000    288.000000
 -0.350000  0.050000  0.050000    288.000000
 -0.250000  0.050000  0.050000    288.000000
 -0.150000  0.050000  0.050000    288.000000
 -0.050000  0.050000  0.050000    288.000000
  0.150000  0.150000  0.050000    288.000000
  0.250000  0.150000  0.050000    576.000000
  0.350000  0.150000  0.050000    576.000000
  0.450000  0.150000  0.050000    576.000000
 -0.450000  0.150000  0.050000    576.000000
 -0.350000  0.150000  0.050000    576.000000
 -0.250000  0.150000  0.050000    576.000000
 -0.150000  0.150000  0.050000    576.000000
 -0.050000  0.150000  0.050000    576.000000
  0.250000  0.250000  0.050000    288.000000
  0.350000  0.250000  0.050000    576.000000
  0.450000  0.250000  0.050000    576.000000
 -0.450000  0.250000  0.050000    576.000000
 -0.350000  0.250000  0.050000    576.000000
 -0.250000  0.250000  0.050000    576.000000
 -0.150000  0.250000  0.050000    576.000000
 -0.050000  0.250000  0.050000    576.000000
  0.350000  0.350000  0.050000    288.000000
  0.450000  0.350000  0.050000    576.000000
 -0.450000  0.350000  0.050000    576.000000
 -0.350000  0.350000  0.050000    576.000000
 -0.250000  0.350000  0.050000    576.000000
 -0.150000  0.350000  0.050000    576.000000
 -0.050000  0.350000  0.050000    576.000000
  0.450000  0.450000  0.050000    288.000000
 -0.450000  0.450000  0.050000    576.000000
 -0.350000  0.450000  0.050000    576.000000
 -0.250000  0.450000  0.050000    576.000000
 -0.150000  0.450000  0.050000    576.000000
 -0.050000  0.450000  0.050000    576.000000
 -0.450000 -0.450000  0.050000    288.000000
 -0.350000 -0.450000  0.050000    576.000000
 -0.250000 -0.450000  0.050000    576.000000
 -0.150000 -0.450000  0.050000    576.000000
 -0.350000 -0.350000  0.050000    288.000000
 -0.250000 -0.350000  0.050000    576.000000
 -0.150000 -0.350000  0.050000    576.000000
 -0.250000 -0.250000  0.050000    288.000000
 -0.150000 -0.250000  0.050000    576.000000
 -0.150000 -0.150000  0.050000    288.000000
  0.150000  0.150000  0.150000     96.000000
  0.250000  0.150000  0.150000    288.000000
  0.350000  0.150000  0.150000    288.000000
  0.450000  0.150000  0.150000    288.000000
 -0.450000  0.150000  0.150000    288.000000
 -0.350000  0.150000  0.150000    288.000000
 -0.250000  0.150000  0.150000    288.000000
 -0.150000  0.150000  0.150000    288.000000
  0.250000  0.250000  0.150000    288.000000
  0.350000  0.250000  0.150000    576.000000
  0.450000  0.250000  0.150000    576.000000
 -0.450000  0.250000  0.150000    576.000000
 -0.350000  0.250000  0.150000    576.000000
 -0.250000  0.250000  0.150000    576.000000
 -0.150000  0.250000  0.150000    576.000000
  0.350000  0.350000  0.150000    288.000000
  0.450000  0.350000  0.150000    576.000000
 -0.450000  0.350000  0.150000    576.000000
 -0.350000  0.350000  0.150000    576.000000
 -0.250000  0.350000  0.150000    576.000000
 -0.150000  0.350000  0.150000    576.000000
  0.450000  0.450000  0.150000    288.000000
 -0.450000  0.450000  0.150000    576.000000
 -0.350000  0.450000  0.150000    576.000000
 -0.250000  0.450000  0.150000    576.000000
 -0.150000  0.450000  0.150000    576.000000
 -0.450000 -0.450000  0.150000    288.000000
 -0.350000 -0.450000  0.150000    576.000000
 -0.250000 -0.450000  0.150000    576.000000
 -0.350000 -0.350000  0.150000    288.000000
 -0.250000 -0.350000  0.150000    576.000000
 -0.250000 -0.250000  0.150000    288.000000
  0.250000  0.250000  0.250000     96.000000
  0.350000  0.250000  0.250000    288.000000
  0.450000  0.250000  0.250000    288.000000
 -0.450000  0.250000  0.250000    288.000000
 -0.350000  0.250000  0.250000    288.000000
 -0.250000  0.250000  0.250000    288.000000
  0.350000  0.350000  0.250000    288.000000
  0.450000  0.350000  0.250000    576.000000
 -0.450000  0.350000  0.250000    576.000000
 -0.350000  0.350000  0.250000    576.000000
 -0.250000  0.350000  0.250000    576.000000
  0.450000  0.450000  0.250000    288.000000
 -0.450000  0.450000  0.250000    576.000000
 -0.350000  0.450000  0.250000    576.000000
 -0.250000  0.450000  0.250000    576.000000
 -0.450000 -0.450000  0.250000    288.000000
 -0.350000 -0.450000  0.250000    576.000000
 -0.350000 -0.350000  0.250000    288.000000
  0.350000  0.350000  0.350000     96.000000
  0.450000  0.350000  0.350000    288.000000
 -0.450000  0.350000  0.350000    288.000000
 -0.350000  0.350000  0.350000    288.000000
  0.450000  0.450000  0.350000    288.000000
 -0.450000  0.450000  0.350000    576.000000
 -0.350000  0.450000  0.350000    576.000000
 -0.450000 -0.450000  0.350000    288.000000
  0.450000  0.450000  0.450000     96.000000
 -0.450000  0.450000  0.450000    288.000000
 
 Following cartesian coordinates:
            Coordinates               Weight
  0.050000  0.050000  0.050000     96.000000
 -0.050000  0.150000  0.150000    288.000000
 -0.150000  0.250000  0.250000    288.000000
 -0.250000  0.350000  0.350000    288.000000
 -0.350000  0.450000  0.450000    288.000000
  0.550000 -0.450000 -0.450000    288.000000
  0.450000 -0.350000 -0.350000    288.000000
  0.350000 -0.250000 -0.250000    288.000000
  0.250000 -0.150000 -0.150000    288.000000
  0.150000 -0.050000 -0.050000    288.000000
  0.050000  0.050000  0.250000    288.000000
 -0.050000  0.150000  0.350000    576.000000
 -0.150000  0.250000  0.450000    576.000000
 -0.250000  0.350000  0.550000    576.000000
  0.650000 -0.550000 -0.350000    576.000000
  0.550000 -0.450000 -0.250000    576.000000
  0.450000 -0.350000 -0.150000    576.000000
  0.350000 -0.250000 -0.050000    576.000000
  0.250000 -0.150000  0.050000    576.000000
  0.050000  0.050000  0.450000    288.000000
 -0.050000  0.150000  0.550000    576.000000
 -0.150000  0.250000  0.650000    576.000000
  0.750000 -0.650000 -0.250000    576.000000
  0.650000 -0.550000 -0.150000    576.000000
  0.550000 -0.450000 -0.050000    576.000000
  0.450000 -0.350000  0.050000    576.000000
  0.350000 -0.250000  0.150000    576.000000
  0.050000  0.050000  0.650000    288.000000
 -0.050000  0.150000  0.750000    576.000000
  0.850000 -0.750000 -0.150000    576.000000
  0.750000 -0.650000 -0.050000    576.000000
  0.650000 -0.550000  0.050000    576.000000
  0.550000 -0.450000  0.150000    576.000000
  0.450000 -0.350000  0.250000    576.000000
  0.050000  0.050000  0.850000    288.000000
  0.950000 -0.850000 -0.050000    576.000000
  0.850000 -0.750000  0.050000    576.000000
  0.750000 -0.650000  0.150000    576.000000
  0.650000 -0.550000  0.250000    576.000000
  0.550000 -0.450000  0.350000    576.000000
  0.050000  0.050000 -0.950000    288.000000
 -0.050000  0.150000 -0.850000    576.000000
 -0.150000  0.250000 -0.750000    576.000000
 -0.250000  0.350000 -0.650000    576.000000
  0.050000  0.050000 -0.750000    288.000000
 -0.050000  0.150000 -0.650000    576.000000
 -0.150000  0.250000 -0.550000    576.000000
  0.050000  0.050000 -0.550000    288.000000
 -0.050000  0.150000 -0.450000    576.000000
  0.050000  0.050000 -0.350000    288.000000
  0.150000  0.150000  0.150000     96.000000
  0.050000  0.250000  0.250000    288.000000
 -0.050000  0.350000  0.350000    288.000000
 -0.150000  0.450000  0.450000    288.000000
  0.750000 -0.450000 -0.450000    288.000000
  0.650000 -0.350000 -0.350000    288.000000
  0.550000 -0.250000 -0.250000    288.000000
  0.450000 -0.150000 -0.150000    288.000000
  0.150000  0.150000  0.350000    288.000000
  0.050000  0.250000  0.450000    576.000000
 -0.050000  0.350000  0.550000    576.000000
  0.850000 -0.550000 -0.350000    576.000000
  0.750000 -0.450000 -0.250000    576.000000
  0.650000 -0.350000 -0.150000    576.000000
  0.550000 -0.250000 -0.050000    576.000000
  0.150000  0.150000  0.550000    288.000000
  0.050000  0.250000  0.650000    576.000000
  0.950000 -0.650000 -0.250000    576.000000
  0.850000 -0.550000 -0.150000    576.000000
  0.750000 -0.450000 -0.050000    576.000000
  0.650000 -0.350000  0.050000    576.000000
  0.150000  0.150000  0.750000    288.000000
  1.050000 -0.750000 -0.150000    576.000000
  0.950000 -0.650000 -0.050000    576.000000
  0.850000 -0.550000  0.050000    576.000000
  0.750000 -0.450000  0.150000    576.000000
  0.150000  0.150000 -1.050000    288.000000
  0.050000  0.250000 -0.950000    576.000000
 -0.050000  0.350000 -0.850000    576.000000
  0.150000  0.150000 -0.850000    288.000000
  0.050000  0.250000 -0.750000    576.000000
  0.150000  0.150000 -0.650000    288.000000
  0.250000  0.250000  0.250000     96.000000
  0.150000  0.350000  0.350000    288.000000
  0.050000  0.450000  0.450000    288.000000
  0.950000 -0.450000 -0.450000    288.000000
  0.850000 -0.350000 -0.350000    288.000000
  0.750000 -0.250000 -0.250000    288.000000
  0.250000  0.250000  0.450000    288.000000
  0.150000  0.350000  0.550000    576.000000
  1.050000 -0.550000 -0.350000    576.000000
  0.950000 -0.450000 -0.250000    576.000000
  0.850000 -0.350000 -0.150000    576.000000
  0.250000  0.250000  0.650000    288.000000
  1.150000 -0.650000 -0.250000    576.000000
  1.050000 -0.550000 -0.150000    576.000000
  0.950000 -0.450000 -0.050000    576.000000
  0.250000  0.250000 -1.150000    288.000000
  0.150000  0.350000 -1.050000    576.000000
  0.250000  0.250000 -0.950000    288.000000
  0.350000  0.350000  0.350000     96.000000
  0.250000  0.450000  0.450000    288.000000
  1.150000 -0.450000 -0.450000    288.000000
  1.050000 -0.350000 -0.350000    288.000000
  0.350000  0.350000  0.550000    288.000000
  1.250000 -0.550000 -0.350000    576.000000
  1.150000 -0.450000 -0.250000    576.000000
  0.350000  0.350000 -1.250000    288.000000
  0.450000  0.450000  0.450000     96.000000
  1.350000 -0.450000 -0.450000    288.000000
 


--------------------------------------------------------------------------------------------------------




 Dimension of arrays:
   k-points           NKPTS =    110   k-points in BZ     NKDIM =    110   number of bands    NBANDS=     12
   number of dos      NEDOS =    301   number of ions     NIONS =      1
   non local maximal  LDIM  =      6   non local SUM 2l+1 LMDIM =     18
   total plane-waves  NPLWV =   1728
   max r-space proj   IRMAX =      1   max aug-charges    IRDMAX=   5515
   dimension x,y,z NGX =    12 NGY =   12 NGZ =   12
   dimension x,y,z NGXF=    24 NGYF=   24 NGZF=   24
   support grid    NGXF=    24 NGYF=   24 NGZF=   24
   ions per type =               1
   NGX,Y,Z   is equivalent  to a cutoff of   6.56,  6.56,  6.56 a.u.
   NGXF,Y,Z  is equivalent  to a cutoff of  13.12, 13.12, 13.12 a.u.

 SYSTEM =  FCC Au                                  
 POSCAR =  FCC Au Bulk                             

 Startparameter for this run:
   NWRITE =      2    write-flag & timer
   PREC   = normal    normal or accurate (medium, high low for compatibility)
   ISTART =      1    job   : 0-new  1-cont  2-samecut
   ICHARG =      0    charge: 1-file 2-atom 10-const
   ISPIN  =      1    spin polarized calculation?
   LNONCOLLINEAR =      F non collinear calculations
   LSORBIT =      F    spin-orbit coupling
   INIWAV =      1    electr: 0-lowe 1-rand  2-diag
   LASPH  =      F    aspherical Exc in radial PAW
   METAGGA=      F    non-selfconsistent MetaGGA calc.

 Electronic Relaxation 1
   ENCUT  =  230.0 eV  16.90 Ry    4.11 a.u.   3.76  3.76  3.76*2*pi/ulx,y,z
   ENINI  =  230.0     initial cutoff
   ENAUG  =  356.7 eV  augmentation charge cutoff
   NELM   =     60;   NELMIN=  2; NELMDL=  0     # of ELM steps 
   EDIFF  = 0.1E-03   stopping-criterion for ELM
   LREAL  =      F    real-space projection
   NLSPLINE    = F    spline interpolate recip. space projectors
   LCOMPAT=      F    compatible to vasp.4.4
   GGA_COMPAT  = T    GGA compatible to vasp.4.4-vasp.4.6
   LMAXPAW     = -100 max onsite density
   LMAXMIX     =    2 max onsite mixed and CHGCAR
   VOSKOWN=      0    Vosko Wilk Nusair interpolation
   ROPT   =    0.00000
 Ionic relaxation
   EDIFFG = 0.1E-02   stopping-criterion for IOM
   NSW    =      0    number of steps for IOM
   NBLOCK =      1;   KBLOCK =      1    inner block; outer block 
   IBRION =     -1    ionic relax: 0-MD 1-quasi-New 2-CG
   NFREE  =      0    steps in history (QN), initial steepest desc. (CG)
   ISIF   =      2    stress and relaxation
   IWAVPR =     10    prediction:  0-non 1-charg 2-wave 3-comb
   ISYM   =      2    0-nonsym 1-usesym 2-fastsym
   LCORR  =      T    Harris-Foulkes like correction to forces

   POTIM  = 0.5000    time-step for ionic-motion
   TEIN   =    0.0    initial temperature
   TEBEG  =    0.0;   TEEND  =   0.0 temperature during run
   SMASS  =  -3.00    Nose mass-parameter (am)
   estimated Nose-frequenzy (Omega)   =  0.10E-29 period in steps =****** mass=  -0.211E-27a.u.
   SCALEE = 1.0000    scale energy and forces
   NPACO  =    256;   APACO  = 16.0  distance and # of slots for P.C.
   PSTRESS=    0.0 pullay stress

  Mass of Ions in am
   POMASS = 196.97
  Ionic Valenz
   ZVAL   =  11.00
  Atomic Wigner-Seitz radii
   RWIGS  =  -1.00
  virtual crystal weights 
   VCA    =   1.00
   NELECT =      11.0000    total number of electrons
   NUPDOWN=      -1.0000    fix difference up-down

 DOS related values:
   EMIN   =  10.00;   EMAX   =-10.00  energy-range for DOS
   EFERMI =   0.00
   ISMEAR =     1;   SIGMA  =   0.20  broadening in eV -4-tet -1-fermi 0-gaus

 Electronic relaxation 2 (details)
   IALGO  =     38    algorithm
   LDIAG  =      T    sub-space diagonalisation (order eigenvalues)
   LSUBROT=      F    optimize rotation matrix (better conditioning)
   TURBO    =      0    0=normal 1=particle mesh
   IRESTART =      0    0=no restart 2=restart with 2 vectors
   NREBOOT  =      0    no. of reboots
   NMIN     =      0    reboot dimension
   EREF     =   0.00    reference energy to select bands
   IMIX   =      4    mixing-type and parameters
     AMIX     =   0.40;   BMIX     =  1.00
     AMIX_MAG =   1.60;   BMIX_MAG =  1.00
     AMIN     =   0.10
     WC   =   100.;   INIMIX=   1;  MIXPRE=   1;  MAXMIX= -45

 Intra band minimization:
   WEIMIN = 0.0000     energy-eigenvalue tresh-hold
   EBREAK =  0.21E-05  absolut break condition
   DEPER  =   0.30     relativ break condition  

   TIME   =   0.40     timestep for ELM

  volume/ion in A,a.u.               =      19.88       134.13
  Fermi-wavevector in a.u.,A,eV,Ry     =   1.344076  2.539936 24.579485  1.806541
  Thomas-Fermi vector in A             =   2.472099
 
 Write flags
   LWAVE        =      T    write WAVECAR
   LDOWNSAMPLE  =      F    k-point downsampling of WAVECAR
   LCHARG       =      T    write CHGCAR
   LVTOT        =      F    write LOCPOT, total local potential
   LVHAR        =      F    write LOCPOT, Hartree potential only
   LELF         =      F    write electronic localiz. function (ELF)
   LORBIT       =      0    0 simple, 1 ext, 2 COOP (PROOUT), +10 PAW based schemes


 Dipole corrections
   LMONO  =      F    monopole corrections only (constant potential shift)
   LDIPOL =      F    correct potential (dipole corrections)
   IDIPOL =      0    1-x, 2-y, 3-z, 4-all directions 
   EPSILON=  1.0000000 bulk dielectric constant

 Exchange correlation treatment:
   GGA     =    --    GGA type
   LEXCH   =     2    internal setting for exchange type
   VOSKOWN=      0    Vosko Wilk Nusair interpolation
   LHFCALC =     F    Hartree Fock is set to
   LHFONE  =     F    Hartree Fock one center treatment
   AEXX    =    0.0000 exact exchange contribution

 Linear response parameters
   LEPSILON=     F    determine dielectric tensor
   LRPA    =     F    only Hartree local field effects (RPA)
   LNABLA  =     F    use nabla operator in PAW spheres
   LVEL    =     F    velocity operator in full k-point grid
   LINTERFAST=   F  fast interpolation
   KINTER  =     0    interpolate to denser k-point grid
   CSHIFT  =0.1000    complex shift for real part using Kramers Kronig
   OMEGAMAX=  -1.0    maximum frequency
   DEG_THRESHOLD= 0.2000000E-02 threshold for treating states as degnerate
   RTIME   =   -0.100 relaxation time in fs
  (WPLASMAI=    0.000 imaginary part of plasma frequency in eV, 0.658/RTIME)
   DFIELD  = 0.0000000 0.0000000 0.0000000 field for delta impulse in time
 
 Orbital magnetization related:
   ORBITALMAG=     F  switch on orbital magnetization
   LCHIMAG   =     F  perturbation theory with respect to B field
   DQ        =  0.001000  dq finite difference perturbation B field
   LLRAUG    =     F  two centre corrections for induced B field



--------------------------------------------------------------------------------------------------------


 Static calculation
 charge density and potential will be updated during run
 non-spin polarized calculation
 Variant of blocked Davidson
 Davidson routine will perform the subspace rotation
 perform sub-space diagonalisation
    after iterative eigenvector-optimisation
 modified Broyden-mixing scheme, WC =      100.0
 initial mixing is a Kerker type mixing with AMIX =  0.4000 and BMIX =      1.0000
 Hartree-type preconditioning will be used
 using additional bands            6
 reciprocal scheme for non local part
 use partial core corrections
 calculate Harris-corrections to forces 
   (improved forces if not selfconsistent)
 use of overlap-Matrix (Vanderbilt PP)
 Methfessel and Paxton  Order N= 1 SIGMA  =   0.20


--------------------------------------------------------------------------------------------------------


  energy-cutoff  :      230.00
  volume of cell :       19.88
      direct lattice vectors                 reciprocal lattice vectors
     0.000000000  2.150000000  2.150000000    -0.232558140  0.232558140  0.232558140
     2.150000000  0.000000000  2.150000000     0.232558140 -0.232558140  0.232558140
     2.150000000  2.150000000  0.000000000     0.232558140  0.232558140 -0.232558140

  length of vectors
     3.040559159  3.040559159  3.040559159     0.402802513  0.402802513  0.402802513


 
 old parameters found on file WAVECAR:
  energy-cutoff  :      287.34
  volume of cell :       19.88
      direct lattice vectors                 reciprocal lattice vectors
     0.000000000  2.150000000  2.150000000    -0.232558140  0.232558140  0.232558140
     2.150000000  0.000000000  2.150000000     0.232558140 -0.232558140  0.232558140
     2.150000000  2.150000000  0.000000000     0.232558140  0.232558140 -0.232558140

  length of vectors

 
 k-points in units of 2pi/SCALE and weight: 10x10x10                                
   0.05000000  0.05000000  0.05000000       0.002
  -0.05000000  0.15000000  0.15000000       0.006
  -0.15000000  0.25000000  0.25000000       0.006
  -0.25000000  0.35000000  0.35000000       0.006
  -0.35000000  0.45000000  0.45000000       0.006
   0.55000000 -0.45000000 -0.45000000       0.006
   0.45000000 -0.35000000 -0.35000000       0.006
   0.35000000 -0.25000000 -0.25000000       0.006
   0.25000000 -0.15000000 -0.15000000       0.006
   0.15000000 -0.05000000 -0.05000000       0.006
   0.05000000  0.05000000  0.25000000       0.006
  -0.05000000  0.15000000  0.35000000       0.012
  -0.15000000  0.25000000  0.45000000       0.012
  -0.25000000  0.35000000  0.55000000       0.012
   0.65000000 -0.55000000 -0.35000000       0.012
   0.55000000 -0.45000000 -0.25000000       0.012
   0.45000000 -0.35000000 -0.15000000       0.012
   0.35000000 -0.25000000 -0.05000000       0.012
   0.25000000 -0.15000000  0.05000000       0.012
   0.05000000  0.05000000  0.45000000       0.006
  -0.05000000  0.15000000  0.55000000       0.012
  -0.15000000  0.25000000  0.65000000       0.012
   0.75000000 -0.65000000 -0.25000000       0.012
   0.65000000 -0.55000000 -0.15000000       0.012
   0.55000000 -0.45000000 -0.05000000       0.012
   0.45000000 -0.35000000  0.05000000       0.012
   0.35000000 -0.25000000  0.15000000       0.012
   0.05000000  0.05000000  0.65000000       0.006
  -0.05000000  0.15000000  0.75000000       0.012
   0.85000000 -0.75000000 -0.15000000       0.012
   0.75000000 -0.65000000 -0.05000000       0.012
   0.65000000 -0.55000000  0.05000000       0.012
   0.55000000 -0.45000000  0.15000000       0.012
   0.45000000 -0.35000000  0.25000000       0.012
   0.05000000  0.05000000  0.85000000       0.006
   0.95000000 -0.85000000 -0.05000000       0.012
   0.85000000 -0.75000000  0.05000000       0.012
   0.75000000 -0.65000000  0.15000000       0.012
   0.65000000 -0.55000000  0.25000000       0.012
   0.55000000 -0.45000000  0.35000000       0.012
   0.05000000  0.05000000 -0.95000000       0.006
  -0.05000000  0.15000000 -0.85000000       0.012
  -0.15000000  0.25000000 -0.75000000       0.012
  -0.25000000  0.35000000 -0.65000000       0.012
   0.05000000  0.05000000 -0.75000000       0.006
  -0.05000000  0.15000000 -0.65000000       0.012
  -0.15000000  0.25000000 -0.55000000       0.012
   0.05000000  0.05000000 -0.55000000       0.006
  -0.05000000  0.15000000 -0.45000000       0.012
   0.05000000  0.05000000 -0.35000000       0.006
   0.15000000  0.15000000  0.15000000       0.002
   0.05000000  0.25000000  0.25000000       0.006
  -0.05000000  0.35000000  0.35000000       0.006
  -0.15000000  0.45000000  0.45000000       0.006
   0.75000000 -0.45000000 -0.45000000       0.006
   0.65000000 -0.35000000 -0.35000000       0.006
   0.55000000 -0.25000000 -0.25000000       0.006
   0.45000000 -0.15000000 -0.15000000       0.006
   0.15000000  0.15000000  0.35000000       0.006
   0.05000000  0.25000000  0.45000000       0.012
  -0.05000000  0.35000000  0.55000000       0.012
   0.85000000 -0.55000000 -0.35000000       0.012
   0.75000000 -0.45000000 -0.25000000       0.012
   0.65000000 -0.35000000 -0.15000000       0.012
   0.55000000 -0.25000000 -0.05000000       0.012
   0.15000000  0.15000000  0.55000000       0.006
   0.05000000  0.25000000  0.65000000       0.012
   0.95000000 -0.65000000 -0.25000000       0.012
   0.85000000 -0.55000000 -0.15000000       0.012
   0.75000000 -0.45000000 -0.05000000       0.012
   0.65000000 -0.35000000  0.05000000       0.012
   0.15000000  0.15000000  0.75000000       0.006
   1.05000000 -0.75000000 -0.15000000       0.012
   0.95000000 -0.65000000 -0.05000000       0.012
   0.85000000 -0.55000000  0.05000000       0.012
   0.75000000 -0.45000000  0.15000000       0.012
   0.15000000  0.15000000 -1.05000000       0.006
   0.05000000  0.25000000 -0.95000000       0.012
  -0.05000000  0.35000000 -0.85000000       0.012
   0.15000000  0.15000000 -0.85000000       0.006
   0.05000000  0.25000000 -0.75000000       0.012
   0.15000000  0.15000000 -0.65000000       0.006
   0.25000000  0.25000000  0.25000000       0.002
   0.15000000  0.35000000  0.35000000       0.006
   0.05000000  0.45000000  0.45000000       0.006
   0.95000000 -0.45000000 -0.45000000       0.006
   0.85000000 -0.35000000 -0.35000000       0.006
   0.75000000 -0.25000000 -0.25000000       0.006
   0.25000000  0.25000000  0.45000000       0.006
   0.15000000  0.35000000  0.55000000       0.012
   1.05000000 -0.55000000 -0.35000000       0.012
   0.95000000 -0.45000000 -0.25000000       0.012
   0.85000000 -0.35000000 -0.15000000       0.012
   0.25000000  0.25000000  0.65000000       0.006
   1.15000000 -0.65000000 -0.25000000       0.012
   1.05000000 -0.55000000 -0.15000000       0.012
   0.95000000 -0.45000000 -0.05000000       0.012
   0.25000000  0.25000000 -1.15000000       0.006
   0.15000000  0.35000000 -1.05000000       0.012
   0.25000000  0.25000000 -0.95000000       0.006
   0.35000000  0.35000000  0.35000000       0.002
   0.25000000  0.45000000  0.45000000       0.006
   1.15000000 -0.45000000 -0.45000000       0.006
   1.05000000 -0.35000000 -0.35000000       0.006
   0.35000000  0.35000000  0.55000000       0.006
   1.25000000 -0.55000000 -0.35000000       0.012
   1.15000000 -0.45000000 -0.25000000       0.012
   0.35000000  0.35000000 -1.25000000       0.006
   0.45000000  0.45000000  0.45000000       0.002
   1.35000000 -0.45000000 -0.45000000       0.006
 
 k-points in reciprocal lattice and weights: 10x10x10                                
   0.05000000  0.05000000  0.05000000       0.002
   0.15000000  0.05000000  0.05000000       0.006
   0.25000000  0.05000000  0.05000000       0.006
   0.35000000  0.05000000  0.05000000       0.006
   0.45000000  0.05000000  0.05000000       0.006
  -0.45000000  0.05000000  0.05000000       0.006
  -0.35000000  0.05000000  0.05000000       0.006
  -0.25000000  0.05000000  0.05000000       0.006
  -0.15000000  0.05000000  0.05000000       0.006
  -0.05000000  0.05000000  0.05000000       0.006
   0.15000000  0.15000000  0.05000000       0.006
   0.25000000  0.15000000  0.05000000       0.012
   0.35000000  0.15000000  0.05000000       0.012
   0.45000000  0.15000000  0.05000000       0.012
  -0.45000000  0.15000000  0.05000000       0.012
  -0.35000000  0.15000000  0.05000000       0.012
  -0.25000000  0.15000000  0.05000000       0.012
  -0.15000000  0.15000000  0.05000000       0.012
  -0.05000000  0.15000000  0.05000000       0.012
   0.25000000  0.25000000  0.05000000       0.006
   0.35000000  0.25000000  0.05000000       0.012
   0.45000000  0.25000000  0.05000000       0.012
  -0.45000000  0.25000000  0.05000000       0.012
  -0.35000000  0.25000000  0.05000000       0.012
  -0.25000000  0.25000000  0.05000000       0.012
  -0.15000000  0.25000000  0.05000000       0.012
  -0.05000000  0.25000000  0.05000000       0.012
   0.35000000  0.35000000  0.05000000       0.006
   0.45000000  0.35000000  0.05000000       0.012
  -0.45000000  0.35000000  0.05000000       0.012
  -0.35000000  0.35000000  0.05000000       0.012
  -0.25000000  0.35000000  0.05000000       0.012
  -0.15000000  0.35000000  0.05000000       0.012
  -0.05000000  0.35000000  0.05000000       0.012
   0.45000000  0.45000000  0.05000000       0.006
  -0.45000000  0.45000000  0.05000000       0.012
  -0.35000000  0.45000000  0.05000000       0.012
  -0.25000000  0.45000000  0.05000000       0.012
  -0.15000000  0.45000000  0.05000000       0.012
  -0.05000000  0.45000000  0.05000000       0.012
  -0.45000000 -0.45000000  0.05000000       0.006
  -0.35000000 -0.45000000  0.05000000       0.012
  -0.25000000 -0.45000000  0.05000000       0.012
  -0.15000000 -0.45000000  0.05000000       0.012
  -0.35000000 -0.35000000  0.05000000       0.006
  -0.25000000 -0.35000000  0.05000000       0.012
  -0.15000000 -0.35000000  0.05000000       0.012
  -0.25000000 -0.25000000  0.05000000       0.006
  -0.15000000 -0.25000000  0.05000000       0.012
  -0.15000000 -0.15000000  0.05000000       0.006
   0.15000000  0.15000000  0.15000000       0.002
   0.25000000  0.15000000  0.15000000       0.006
   0.35000000  0.15000000  0.15000000       0.006
   0.45000000  0.15000000  0.15000000       0.006
  -0.45000000  0.15000000  0.15000000       0.006
  -0.35000000  0.15000000  0.15000000       0.006
  -0.25000000  0.15000000  0.15000000       0.006
  -0.15000000  0.15000000  0.15000000       0.006
   0.25000000  0.25000000  0.15000000       0.006
   0.35000000  0.25000000  0.15000000       0.012
   0.45000000  0.25000000  0.15000000       0.012
  -0.45000000  0.25000000  0.15000000       0.012
  -0.35000000  0.25000000  0.15000000       0.012
  -0.25000000  0.25000000  0.15000000       0.012
  -0.15000000  0.25000000  0.15000000       0.012
   0.35000000  0.35000000  0.15000000       0.006
   0.45000000  0.35000000  0.15000000       0.012
  -0.45000000  0.35000000  0.15000000       0.012
  -0.35000000  0.35000000  0.15000000       0.012
  -0.25000000  0.35000000  0.15000000       0.012
  -0.15000000  0.35000000  0.15000000       0.012
   0.45000000  0.45000000  0.15000000       0.006
  -0.45000000  0.45000000  0.15000000       0.012
  -0.35000000  0.45000000  0.15000000       0.012
  -0.25000000  0.45000000  0.15000000       0.012
  -0.15000000  0.45000000  0.15000000       0.012
  -0.45000000 -0.45000000  0.15000000       0.006
  -0.35000000 -0.45000000  0.15000000       0.012
  -0.25000000 -0.45000000  0.15000000       0.012
  -0.35000000 -0.35000000  0.15000000       0.006
  -0.25000000 -0.35000000  0.15000000       0.012
  -0.25000000 -0.25000000  0.15000000       0.006
   0.25000000  0.25000000  0.25000000       0.002
   0.35000000  0.25000000  0.25000000       0.006
   0.45000000  0.25000000  0.25000000       0.006
  -0.45000000  0.25000000  0.25000000       0.006
  -0.35000000  0.25000000  0.25000000       0.006
  -0.25000000  0.25000000  0.25000000       0.006
   0.35000000  0.35000000  0.25000000       0.006
   0.45000000  0.35000000  0.25000000       0.012
  -0.45000000  0.35000000  0.25000000       0.012
  -0.35000000  0.35000000  0.25000000       0.012
  -0.25000000  0.35000000  0.25000000       0.012
   0.45000000  0.45000000  0.25000000       0.006
  -0.45000000  0.45000000  0.25000000       0.012
  -0.35000000  0.45000000  0.25000000       0.012
  -0.25000000  0.45000000  0.25000000       0.012
  -0.45000000 -0.45000000  0.25000000       0.006
  -0.35000000 -0.45000000  0.25000000       0.012
  -0.35000000 -0.35000000  0.25000000       0.006
   0.35000000  0.35000000  0.35000000       0.002
   0.45000000  0.35000000  0.35000000       0.006
  -0.45000000  0.35000000  0.35000000       0.006
  -0.35000000  0.35000000  0.35000000       0.006
   0.45000000  0.45000000  0.35000000       0.006
  -0.45000000  0.45000000  0.35000000       0.012
  -0.35000000  0.45000000  0.35000000       0.012
  -0.45000000 -0.45000000  0.35000000       0.006
   0.45000000  0.45000000  0.45000000       0.002
  -0.45000000  0.45000000  0.45000000       0.006
 
 position of ions in fractional coordinates (direct lattice) 
   0.00000000  0.00000000  0.00000000
 
 position of ions in cartesian coordinates  (Angst):
   0.00000000  0.00000000  0.00000000
 


--------------------------------------------------------------------------------------------------------


 k-point  1 :   0.0500 0.0500 0.0500  plane waves:     169
 k-point  2 :   0.1500 0.0500 0.0500  plane waves:     161
 k-point  3 :   0.2500 0.0500 0.0500  plane waves:     157
 k-point  4 :   0.3500 0.0500 0.0500  plane waves:     153
 k-point  5 :   0.4500 0.0500 0.0500  plane waves:     156
 k-point  6 :  -0.4500 0.0500 0.0500  plane waves:     158
 k-point  7 :  -0.3500 0.0500 0.0500  plane waves:     155
 k-point  8 :  -0.2500 0.0500 0.0500  plane waves:     154
 k-point  9 :  -0.1500 0.0500 0.0500  plane waves:     156
 k-point 10 :  -0.0500 0.0500 0.0500  plane waves:     164
 k-point 11 :   0.1500 0.1500 0.0500  plane waves:     162
 k-point 12 :   0.2500 0.1500 0.0500  plane waves:     160
 k-point 13 :   0.3500 0.1500 0.0500  plane waves:     153
 k-point 14 :   0.4500 0.1500 0.0500  plane waves:     155
 k-point 15 :  -0.4500 0.1500 0.0500  plane waves:     161
 k-point 16 :  -0.3500 0.1500 0.0500  plane waves:     158
 k-point 17 :  -0.2500 0.1500 0.0500  plane waves:     152
 k-point 18 :  -0.1500 0.1500 0.0500  plane waves:     159
 k-point 19 :  -0.0500 0.1500 0.0500  plane waves:     160
 k-point 20 :   0.2500 0.2500 0.0500  plane waves:     159
 k-point 21 :   0.3500 0.2500 0.0500  plane waves:     156
 k-point 22 :   0.4500 0.2500 0.0500  plane waves:     154
 k-point 23 :  -0.4500 0.2500 0.0500  plane waves:     159
 k-point 24 :  -0.3500 0.2500 0.0500  plane waves:     159
 k-point 25 :  -0.2500 0.2500 0.0500  plane waves:     157
 k-point 26 :  -0.1500 0.2500 0.0500  plane waves:     154
 k-point 27 :  -0.0500 0.2500 0.0500  plane waves:     156
 k-point 28 :   0.3500 0.3500 0.0500  plane waves:     155
 k-point 29 :   0.4500 0.3500 0.0500  plane waves:     158
 k-point 30 :  -0.4500 0.3500 0.0500  plane waves:     158
 k-point 31 :  -0.3500 0.3500 0.0500  plane waves:     158
 k-point 32 :  -0.2500 0.3500 0.0500  plane waves:     160
 k-point 33 :  -0.1500 0.3500 0.0500  plane waves:     159
 k-point 34 :  -0.0500 0.3500 0.0500  plane waves:     152
 k-point 35 :   0.4500 0.4500 0.0500  plane waves:     158
 k-point 36 :  -0.4500 0.4500 0.0500  plane waves:     156
 k-point 37 :  -0.3500 0.4500 0.0500  plane waves:     160
 k-point 38 :  -0.2500 0.4500 0.0500  plane waves:     159
 k-point 39 :  -0.1500 0.4500 0.0500  plane waves:     161
 k-point 40 :  -0.0500 0.4500 0.0500  plane waves:     159
 k-point 41 :  -0.4500-0.4500 0.0500  plane waves:     152
 k-point 42 :  -0.3500-0.4500 0.0500  plane waves:     160
 k-point 43 :  -0.2500-0.4500 0.0500  plane waves:     157
 k-point 44 :  -0.1500-0.4500 0.0500  plane waves:     158
 k-point 45 :  -0.3500-0.3500 0.0500  plane waves:     160
 k-point 46 :  -0.2500-0.3500 0.0500  plane waves:     156
 k-point 47 :  -0.1500-0.3500 0.0500  plane waves:     152
 k-point 48 :  -0.2500-0.2500 0.0500  plane waves:     155
 k-point 49 :  -0.1500-0.2500 0.0500  plane waves:     158
 k-point 50 :  -0.1500-0.1500 0.0500  plane waves:     159
 k-point 51 :   0.1500 0.1500 0.1500  plane waves:     159
 k-point 52 :   0.2500 0.1500 0.1500  plane waves:     159
 k-point 53 :   0.3500 0.1500 0.1500  plane waves:     157
 k-point 54 :   0.4500 0.1500 0.1500  plane waves:     154
 k-point 55 :  -0.4500 0.1500 0.1500  plane waves:     161
 k-point 56 :  -0.3500 0.1500 0.1500  plane waves:     158
 k-point 57 :  -0.2500 0.1500 0.1500  plane waves:     153
 k-point 58 :  -0.1500 0.1500 0.1500  plane waves:     159
 k-point 59 :   0.2500 0.2500 0.1500  plane waves:     160
 k-point 60 :   0.3500 0.2500 0.1500  plane waves:     157
 k-point 61 :   0.4500 0.2500 0.1500  plane waves:     153
 k-point 62 :  -0.4500 0.2500 0.1500  plane waves:     157
 k-point 63 :  -0.3500 0.2500 0.1500  plane waves:     163
 k-point 64 :  -0.2500 0.2500 0.1500  plane waves:     155
 k-point 65 :  -0.1500 0.2500 0.1500  plane waves:     153
 k-point 66 :   0.3500 0.3500 0.1500  plane waves:     154
 k-point 67 :   0.4500 0.3500 0.1500  plane waves:     153
 k-point 68 :  -0.4500 0.3500 0.1500  plane waves:     158
 k-point 69 :  -0.3500 0.3500 0.1500  plane waves:     158
 k-point 70 :  -0.2500 0.3500 0.1500  plane waves:     157
 k-point 71 :  -0.1500 0.3500 0.1500  plane waves:     156
 k-point 72 :   0.4500 0.4500 0.1500  plane waves:     160
 k-point 73 :  -0.4500 0.4500 0.1500  plane waves:     158
 k-point 74 :  -0.3500 0.4500 0.1500  plane waves:     159
 k-point 75 :  -0.2500 0.4500 0.1500  plane waves:     156
 k-point 76 :  -0.1500 0.4500 0.1500  plane waves:     157
 k-point 77 :  -0.4500-0.4500 0.1500  plane waves:     160
 k-point 78 :  -0.3500-0.4500 0.1500  plane waves:     160
 k-point 79 :  -0.2500-0.4500 0.1500  plane waves:     158
 k-point 80 :  -0.3500-0.3500 0.1500  plane waves:     162
 k-point 81 :  -0.2500-0.3500 0.1500  plane waves:     155
 k-point 82 :  -0.2500-0.2500 0.1500  plane waves:     155
 k-point 83 :   0.2500 0.2500 0.2500  plane waves:     156
 k-point 84 :   0.3500 0.2500 0.2500  plane waves:     157
 k-point 85 :   0.4500 0.2500 0.2500  plane waves:     155
 k-point 86 :  -0.4500 0.2500 0.2500  plane waves:     160
 k-point 87 :  -0.3500 0.2500 0.2500  plane waves:     158
 k-point 88 :  -0.2500 0.2500 0.2500  plane waves:     158
 k-point 89 :   0.3500 0.3500 0.2500  plane waves:     153
 k-point 90 :   0.4500 0.3500 0.2500  plane waves:     154
 k-point 91 :  -0.4500 0.3500 0.2500  plane waves:     158
 k-point 92 :  -0.3500 0.3500 0.2500  plane waves:     159
 k-point 93 :  -0.2500 0.3500 0.2500  plane waves:     158
 k-point 94 :   0.4500 0.4500 0.2500  plane waves:     156
 k-point 95 :  -0.4500 0.4500 0.2500  plane waves:     158
 k-point 96 :  -0.3500 0.4500 0.2500  plane waves:     159
 k-point 97 :  -0.2500 0.4500 0.2500  plane waves:     156
 k-point 98 :  -0.4500-0.4500 0.2500  plane waves:     158
 k-point 99 :  -0.3500-0.4500 0.2500  plane waves:     160
 k-point ** :  -0.3500-0.3500 0.2500  plane waves:     160
 k-point ** :   0.3500 0.3500 0.3500  plane waves:     153
 k-point ** :   0.4500 0.3500 0.3500  plane waves:     155
 k-point ** :  -0.4500 0.3500 0.3500  plane waves:     158
 k-point ** :  -0.3500 0.3500 0.3500  plane waves:     160
 k-point ** :   0.4500 0.4500 0.3500  plane waves:     157
 k-point ** :  -0.4500 0.4500 0.3500  plane waves:     159
 k-point ** :  -0.3500 0.4500 0.3500  plane waves:     160
 k-point ** :  -0.4500-0.4500 0.3500  plane waves:     160
 k-point ** :   0.4500 0.4500 0.4500  plane waves:     162
 k-point ** :  -0.4500 0.4500 0.4500  plane waves:     160

 maximum and minimum number of plane-waves per node :       169      152

 maximum number of plane-waves:       169
 maximum index in each direction: 
   IXMAX=    4   IYMAX=    4   IZMAX=    3
   IXMIN=   -4   IYMIN=   -4   IZMIN=   -4


 serial   3D FFT for wavefunctions
 parallel 3D FFT for charge:
    minimum data exchange during FFTs selected (reduces bandwidth)


 total amount of memory used by VASP MPI-rank0    34324. kBytes
=======================================================================

   base      :      30000. kBytes
   nonl-proj :       2727. kBytes
   fftplans  :        238. kBytes
   grid      :        331. kBytes
   one-center:         15. kBytes
   wavefun   :       1013. kBytes
 
     INWAV:  cpu time    0.0326: real time    0.0718
 Broyden mixing: mesh for mixing (old mesh)
   NGX =  7   NGY =  7   NGZ =  7
  (NGX  = 24   NGY  = 24   NGZ  = 24)
  gives a total of    343 points

 charge density for first step will be calculated from the start-wavefunctions


--------------------------------------------------------------------------------------------------------


 Maximum index for augmentation-charges         1261 (set IRDMAX)


--------------------------------------------------------------------------------------------------------


 initial charge from wavefunction
 First call to EWALD:  gamma=   0.654
 Maximum number of real-space cells 3x 3x 3
 Maximum number of reciprocal cells 3x 3x 3

    FEWALD:  cpu time    0.0012: real time    0.0012


--------------------------------------- Iteration      1(   1)  ---------------------------------------


    POTLOK:  cpu time    0.0009: real time    0.0032
    SETDIJ:  cpu time    0.0009: real time    0.0053
     EDDAV:  cpu time    0.2511: real time    0.5024
       DOS:  cpu time    0.0027: real time    0.0072
    CHARGE:  cpu time    0.0037: real time    0.0056
    MIXING:  cpu time    0.0004: real time    0.0004
    --------------------------------------------
      LOOP:  cpu time    0.2596: real time    0.5242

 eigenvalue-minimisations  :  2904
 total energy-change (2. order) :-0.1232552E+02  (-0.1136054E+02)
 number of electron      10.9999948 magnetization 
 augmentation part        4.8891846 magnetization 

 Broyden mixing:
  rms(total) = 0.15798E+01    rms(broyden)= 0.15791E+01
  rms(prec ) = 0.55300E+01
  weight for this iteration     100.00

 Free energy of the ion-electron system (eV)
  ---------------------------------------------------
  alpha Z        PSCENC =        92.46377501
  Ewald energy   TEWEN  =      -928.90065159
  -Hartree energ DENC   =       -90.76209371
  -exchange      EXHF   =         0.00000000
  -V(xc)+E(xc)   XCENC  =        13.42579278
  PAW double counting   =       695.16550710     -676.48268312
  entropy T*S    EENTRO =        -0.00073869
  eigenvalues    EBANDS =       -46.63075800
  atomic energy  EATOM  =       929.39633208
  Solvation  Ediel_sol  =         0.00000000
  ---------------------------------------------------
  free energy    TOTEN  =       -12.32551814 eV

  energy without entropy =      -12.32477945  energy(sigma->0) =      -12.32527191


--------------------------------------------------------------------------------------------------------




--------------------------------------- Iteration      1(   2)  ---------------------------------------


    POTLOK:  cpu time    0.0015: real time    0.0059
    SETDIJ:  cpu time    0.0008: real time    0.0012
     EDDAV:  cpu time    0.2465: real time    0.4973
       DOS:  cpu time    0.0015: real time    0.0014
    CHARGE:  cpu time    0.0037: real time    0.0079
    MIXING:  cpu time    0.0004: real time    0.0005
    --------------------------------------------
      LOOP:  cpu time    0.2544: real time    0.5143

 eigenvalue-minimisations  :  2964
 total energy-change (2. order) : 0.7823749E+01  (-0.2120274E+01)
 number of electron      10.9999955 magnetization 
 augmentation part        4.2345541 magnetization 

 Broyden mixing:
  rms(total) = 0.33795E+00    rms(broyden)= 0.33771E+00
  rms(prec ) = 0.12370E+01
  weight for this iteration     100.00

 eigenvalues of (default mixing * dielectric matrix)
  average eigenvalue GAMMA=   1.2677
  1.2677

 Free energy of the ion-electron system (eV)
  ---------------------------------------------------
  alpha Z        PSCENC =        92.46377501
  Ewald energy   TEWEN  =      -928.90065159
  -Hartree energ DENC   =      -122.98086831
  -exchange      EXHF   =         0.00000000
  -V(xc)+E(xc)   XCENC  =        14.87720285
  PAW double counting   =       747.63666448     -728.95979399
  entropy T*S    EENTRO =         0.00024444
  eigenvalues    EBANDS =        -8.03467417
  atomic energy  EATOM  =       929.39633208
  Solvation  Ediel_sol  =         0.00000000
  ---------------------------------------------------
  free energy    TOTEN  =        -4.50176920 eV

  energy without entropy =       -4.50201365  energy(sigma->0) =       -4.50185068


--------------------------------------------------------------------------------------------------------




--------------------------------------- Iteration      1(   3)  ---------------------------------------


    POTLOK:  cpu time    0.0014: real time    0.0013
    SETDIJ:  cpu time    0.0006: real time    0.0012
     EDDAV:  cpu time    0.2611: real time    0.5275
       DOS:  cpu time    0.0015: real time    0.0014
    CHARGE:  cpu time    0.0035: real time    0.0104
    MIXING:  cpu time    0.0004: real time    0.0004
    --------------------------------------------
      LOOP:  cpu time    0.2686: real time    0.5422

 eigenvalue-minimisations  :  3076
 total energy-change (2. order) : 0.3411639E+00  (-0.2097578E+00)
 number of electron      10.9999958 magnetization 
 augmentation part        4.0058769 magnetization 

 Broyden mixing:
  rms(total) = 0.44390E-01    rms(broyden)= 0.43735E-01
  rms(prec ) = 0.15655E+00
  weight for this iteration     100.00

 eigenvalues of (default mixing * dielectric matrix)
  average eigenvalue GAMMA=   1.1069
  1.1069  1.1069

 Free energy of the ion-electron system (eV)
  ---------------------------------------------------
  alpha Z        PSCENC =        92.46377501
  Ewald energy   TEWEN  =      -928.90065159
  -Hartree energ DENC   =      -133.34422510
  -exchange      EXHF   =         0.00000000
  -V(xc)+E(xc)   XCENC  =        15.36905362
  PAW double counting   =       754.26374690     -735.43313561
  entropy T*S    EENTRO =         0.00087883
  eigenvalues    EBANDS =         2.02362056
  atomic energy  EATOM  =       929.39633208
  Solvation  Ediel_sol  =         0.00000000
  ---------------------------------------------------
  free energy    TOTEN  =        -4.16060531 eV

  energy without entropy =       -4.16148414  energy(sigma->0) =       -4.16089825


--------------------------------------------------------------------------------------------------------




--------------------------------------- Iteration      1(   4)  ---------------------------------------


    POTLOK:  cpu time    0.0014: real time    0.0014
    SETDIJ:  cpu time    0.0008: real time    0.0012
     EDDAV:  cpu time    0.2454: real time    0.4942
       DOS:  cpu time    0.0015: real time    0.0016
    CHARGE:  cpu time    0.0037: real time    0.0178
    MIXING:  cpu time    0.0003: real time    0.0003
    --------------------------------------------
      LOOP:  cpu time    0.2530: real time    0.5164

 eigenvalue-minimisations  :  2904
 total energy-change (2. order) : 0.3514733E-02  (-0.3957727E-02)
 number of electron      10.9999958 magnetization 
 augmentation part        4.0317012 magnetization 

 Broyden mixing:
  rms(total) = 0.72603E-02    rms(broyden)= 0.72204E-02
  rms(prec ) = 0.11667E-01
  weight for this iteration     100.00

 eigenvalues of (default mixing * dielectric matrix)
  average eigenvalue GAMMA=   1.5299
  1.0907  1.0907  2.4083

 Free energy of the ion-electron system (eV)
  ---------------------------------------------------
  alpha Z        PSCENC =        92.46377501
  Ewald energy   TEWEN  =      -928.90065159
  -Hartree energ DENC   =      -132.09637589
  -exchange      EXHF   =         0.00000000
  -V(xc)+E(xc)   XCENC  =        15.30949355
  PAW double counting   =       745.64331032     -726.87467869
  entropy T*S    EENTRO =         0.00084043
  eigenvalues    EBANDS =         0.90086420
  atomic energy  EATOM  =       929.39633208
  Solvation  Ediel_sol  =         0.00000000
  ---------------------------------------------------
  free energy    TOTEN  =        -4.15709058 eV

  energy without entropy =       -4.15793101  energy(sigma->0) =       -4.15737072


--------------------------------------------------------------------------------------------------------




--------------------------------------- Iteration      1(   5)  ---------------------------------------


    POTLOK:  cpu time    0.0013: real time    0.0014
    SETDIJ:  cpu time    0.0008: real time    0.0011
     EDDAV:  cpu time    0.2713: real time    0.5395
       DOS:  cpu time    0.0014: real time    0.0014
    CHARGE:  cpu time    0.0038: real time    0.0090
    MIXING:  cpu time    0.0019: real time    0.0036
    --------------------------------------------
      LOOP:  cpu time    0.2806: real time    0.5560

 eigenvalue-minimisations  :  3112
 total energy-change (2. order) :-0.3118353E-03  (-0.5035360E-04)
 number of electron      10.9999958 magnetization 
 augmentation part        4.0296846 magnetization 

 Broyden mixing:
  rms(total) = 0.21298E-02    rms(broyden)= 0.21233E-02
  rms(prec ) = 0.38241E-02
  weight for this iteration     100.00

 eigenvalues of (default mixing * dielectric matrix)
  average eigenvalue GAMMA=   1.4574
  1.1550  1.1550  0.9168  2.6031

 Free energy of the ion-electron system (eV)
  ---------------------------------------------------
  alpha Z        PSCENC =        92.46377501
  Ewald energy   TEWEN  =      -928.90065159
  -Hartree energ DENC   =      -132.12779410
  -exchange      EXHF   =         0.00000000
  -V(xc)+E(xc)   XCENC  =        15.31127359
  PAW double counting   =       737.25200520     -718.53330349
  entropy T*S    EENTRO =         0.00083462
  eigenvalues    EBANDS =         0.98012627
  atomic energy  EATOM  =       929.39633208
  Solvation  Ediel_sol  =         0.00000000
  ---------------------------------------------------
  free energy    TOTEN  =        -4.15740241 eV

  energy without entropy =       -4.15823703  energy(sigma->0) =       -4.15768062


--------------------------------------------------------------------------------------------------------




--------------------------------------- Iteration      1(   6)  ---------------------------------------


    POTLOK:  cpu time    0.0013: real time    0.0019
    SETDIJ:  cpu time    0.0004: real time    0.0020
     EDDAV:  cpu time    0.1911: real time    0.3855
       DOS:  cpu time    0.0014: real time    0.0014
    --------------------------------------------
      LOOP:  cpu time    0.1943: real time    0.3908

 eigenvalue-minimisations  :  1728
 total energy-change (2. order) :-0.4879620E-04  (-0.6422243E-05)
 number of electron      10.9999958 magnetization 
 augmentation part        4.0296846 magnetization 

 Free energy of the ion-electron system (eV)
  ---------------------------------------------------
  alpha Z        PSCENC =        92.46377501
  Ewald energy   TEWEN  =      -928.90065159
  -Hartree energ DENC   =      -132.10976343
  -exchange      EXHF   =         0.00000000
  -V(xc)+E(xc)   XCENC  =        15.31051574
  PAW double counting   =       733.80855458     -715.11790969
  entropy T*S    EENTRO =         0.00083162
  eigenvalues    EBANDS =         0.99086448
  atomic energy  EATOM  =       929.39633208
  Solvation  Ediel_sol  =         0.00000000
  ---------------------------------------------------
  free energy    TOTEN  =        -4.15745121 eV

  energy without entropy =       -4.15828283  energy(sigma->0) =       -4.15772842


--------------------------------------------------------------------------------------------------------




 average (electrostatic) potential at core
  the test charge radii are     1.2098
  (the norm of the test charge is              1.0000)
       1 -47.1926
 
 
 
 E-fermi :   3.6198     XC(G=0): -12.1099     alpha+bet : -8.8234


 k-point     1 :       0.0500    0.0500    0.0500
  band No.  band energies     occupation 
      1      -4.6507      2.00000
      2      -0.2973      2.00000
      3      -0.2523      2.00000
      4      -0.2523      2.00000
      5       0.8867      2.00000
      6       0.8867      2.00000
      7      18.9606      0.00000
      8      21.1334      0.00000
      9      21.8498      0.00000
     10      21.8498      0.00000
     11      26.3424      0.00000
     12      28.3658      0.00000

 k-point     2 :       0.1500    0.0500    0.0500
  band No.  band energies     occupation 
      1      -4.2543      2.00000
      2      -0.4068      2.00000
      3      -0.1443      2.00000
      4      -0.1176      2.00000
      5       0.7835      2.00000
      6       0.9290      2.00000
      7      18.7247      0.00000
      8      19.4798      0.00000
      9      21.3018      0.00000
     10      22.6080      0.00000
     11      25.3396      0.00000
     12      27.8407      0.00000

 k-point     3 :       0.2500    0.0500    0.0500
  band No.  band energies     occupation 
      1      -3.3840      2.00000
      2      -0.4783      2.00000
      3      -0.0209      2.00000
      4      -0.0075      2.00000
      5       0.7975      2.00000
      6       1.1009      2.00000
      7      15.1951      0.00000
      8      19.4008      0.00000
      9      21.1934      0.00000
     10      23.2204      0.00000
     11      23.9282      0.00000
     12      25.8085      0.00000

 k-point     4 :       0.3500    0.0500    0.0500
  band No.  band energies     occupation 
      1      -2.5717      2.00000
      2      -0.1530      2.00000
      3      -0.0925      2.00000
      4       0.1124      2.00000
      5       1.1695      2.00000
      6       1.5474      2.00000
      7      11.3446      0.00000
      8      18.8818      0.00000
      9      20.2011      0.00000
     10      21.9840      0.00000
     11      24.9255      0.00000
     12      25.7359      0.00000

 k-point     5 :       0.4500    0.0500    0.0500
  band No.  band energies     occupation 
      1      -2.3463      2.00000
      2      -0.2716      2.00000
      3      -0.2195      2.00000
      4       1.3386      2.00000
      5       1.6142      2.00000
      6       2.4517      2.00000
      7       7.7919     -0.00000
      8      18.3488      0.00000
      9      19.4095      0.00000
     10      20.3851      0.00000
     11      26.1907      0.00000
     12      26.2821      0.00000

 k-point     6 :      -0.4500    0.0500    0.0500
  band No.  band energies     occupation 
      1      -2.3350      2.00000
      2      -0.3217      2.00000
      3      -0.2495      2.00000
      4       1.5571      2.00000
      5       1.8259      2.00000
      6       3.5615      1.47097
      7       6.0857     -0.00000
      8      18.2219      0.00000
      9      19.4590      0.00000
     10      19.5985      0.00000
     11      26.4910      0.00000
     12      26.5359      0.00000

 k-point     7 :      -0.3500    0.0500    0.0500
  band No.  band energies     occupation 
      1      -2.3768      2.00000
      2      -0.2486      2.00000
      3      -0.1659      2.00000
      4       0.9022      2.00000
      5       1.6745      2.00000
      6       1.9048      2.00000
      7       8.9070     -0.00000
      8      18.5968      0.00000
      9      19.7545      0.00000
     10      20.4652      0.00000
     11      26.1307      0.00000
     12      26.4307      0.00000

 k-point     8 :      -0.2500    0.0500    0.0500
  band No.  band energies     occupation 
      1      -2.7823      2.00000
      2      -0.2571      2.00000
      3      -0.0695      2.00000
      4      -0.0353      2.00000
      5       1.1105      2.00000
      6       1.2983      2.00000
      7      12.6171      0.00000
      8      19.3167      0.00000
      9      20.4837      0.00000
     10      22.1037      0.00000
     11      24.6016      0.00000
     12      26.4075      0.00000

 k-point     9 :      -0.1500    0.0500    0.0500
  band No.  band energies     occupation 
      1      -3.7065      2.00000
      2      -0.4953      2.00000
      3      -0.0293      2.00000
      4      -0.0208      2.00000
      5       0.7635      2.00000
      6       1.0037      2.00000
      7      16.4735      0.00000
      8      19.6850      0.00000
      9      21.1156      0.00000
     10      22.9028      0.00000
     11      24.1372      0.00000
     12      26.8921      0.00000

 k-point    10 :      -0.0500    0.0500    0.0500
  band No.  band energies     occupation 
      1      -4.4494      2.00000
      2      -0.3763      2.00000
      3      -0.1773      2.00000
      4      -0.1735      2.00000
      5       0.7999      2.00000
      6       0.9307      2.00000
      7      19.0695      0.00000
      8      20.2495      0.00000
      9      21.4304      0.00000
     10      21.8995      0.00000
     11      26.4276      0.00000
     12      27.8204      0.00000

 k-point    11 :       0.1500    0.1500    0.0500
  band No.  band energies     occupation 
      1      -4.0571      2.00000
      2      -0.5369      2.00000
      3      -0.0212      2.00000
      4      -0.0179      2.00000
      5       0.6400      2.00000
      6       1.0152      2.00000
      7      18.9587      0.00000
      8      19.6232      0.00000
      9      20.5710      0.00000
     10      21.4195      0.00000
     11      25.1022      0.00000
     12      27.5350      0.00000

 k-point    12 :       0.2500    0.1500    0.0500
  band No.  band energies     occupation 
      1      -3.3364      2.00000
      2      -0.7195      2.00000
      3       0.0614      2.00000
      4       0.1971      2.00000
      5       0.6099      2.00000
      6       1.1889      2.00000
      7      16.6832      0.00000
      8      18.4821      0.00000
      9      20.6648      0.00000
     10      21.7951      0.00000
     11      23.0722      0.00000
     12      26.8318      0.00000

 k-point    13 :       0.3500    0.1500    0.0500
  band No.  band energies     occupation 
      1      -2.4298      2.00000
      2      -0.6322      2.00000
      3      -0.1600      2.00000
      4       0.2081      2.00000
      5       1.1269      2.00000
      6       1.6546      2.00000
      7      12.8352      0.00000
      8      17.8720      0.00000
      9      19.6981      0.00000
     10      21.0070      0.00000
     11      24.6075      0.00000
     12      26.5701      0.00000

 k-point    14 :       0.4500    0.1500    0.0500
  band No.  band energies     occupation 
      1      -2.0607      2.00000
      2      -0.3875      2.00000
      3       0.0393      2.00000
      4       0.1917      2.00000
      5       1.6742      2.00000
      6       2.7232      2.00000
      7       9.1361      0.00000
      8      17.5515      0.00000
      9      18.3192      0.00000
     10      20.0112      0.00000
     11      26.4303      0.00000
     12      27.3127      0.00000

 k-point    15 :      -0.4500    0.1500    0.0500
  band No.  band energies     occupation 
      1      -2.0319      2.00000
      2      -0.4852      2.00000
      3      -0.0178      2.00000
      4       0.7960      2.00000
      5       1.7896      2.00000
      6       4.6520     -0.00000
      7       6.1376     -0.00000
      8      17.2031      0.00000
      9      17.8421      0.00000
     10      19.5858      0.00000
     11      26.5504      0.00000
     12      27.7394      0.00000

 k-point    16 :      -0.3500    0.1500    0.0500
  band No.  band energies     occupation 
      1      -2.0243      2.00000
      2      -0.4266      2.00000
      3       0.0021      2.00000
      4       0.5570      2.00000
      5       1.5614      2.00000
      6       3.3548      2.06820
      7       8.0619     -0.00000
      8      16.7159      0.00000
      9      18.6232      0.00000
     10      20.1947      0.00000
     11      26.0186      0.00000
     12      27.3239      0.00000

 k-point    17 :      -0.2500    0.1500    0.0500
  band No.  band energies     occupation 
      1      -2.2099      2.00000
      2      -0.4133      2.00000
      3      -0.1737      2.00000
      4       0.1463      2.00000
      5       1.0475      2.00000
      6       2.0982      2.00000
      7      11.5884      0.00000
      8      16.8581      0.00000
      9      19.7620      0.00000
     10      21.7836      0.00000
     11      24.6055      0.00000
     12      26.5017      0.00000

 k-point    18 :      -0.1500    0.1500    0.0500
  band No.  band energies     occupation 
      1      -3.0222      2.00000
      2      -0.6811      2.00000
      3      -0.0145      2.00000
      4       0.2138      2.00000
      5       0.6046      2.00000
      6       1.3966      2.00000
      7      15.3260      0.00000
      8      17.4513      0.00000
      9      21.2979      0.00000
     10      22.2004      0.00000
     11      24.2187      0.00000
     12      25.6271      0.00000

 k-point    19 :      -0.0500    0.1500    0.0500
  band No.  band energies     occupation 
      1      -3.8744      2.00000
      2      -0.5300      2.00000
      3      -0.0172      2.00000
      4      -0.0121      2.00000
      5       0.6711      2.00000
      6       1.0278      2.00000
      7      17.7579      0.00000
      8      19.1275      0.00000
      9      20.9489      0.00000
     10      22.6450      0.00000
     11      24.3939      0.00000
     12      27.0073      0.00000

 k-point    20 :       0.2500    0.2500    0.0500
  band No.  band energies     occupation 
      1      -2.8466      2.00000
      2      -0.9935      2.00000
      3       0.1911      2.00000
      4       0.4917      2.00000
      5       0.6471      2.00000
      6       1.2784      2.00000
      7      17.0212      0.00000
      8      18.0463      0.00000
      9      19.6602      0.00000
     10      20.0206      0.00000
     11      20.6398      0.00000
     12      28.5557      0.00000

 k-point    21 :       0.3500    0.2500    0.0500
  band No.  band energies     occupation 
      1      -2.1242      2.00000
      2      -1.1636      2.00000
      3       0.0034      2.00000
      4       0.7619      2.00000
      5       1.1650      2.00000
      6       1.6684      2.00000
      7      14.4282      0.00000
      8      16.2951      0.00000
      9      17.8624      0.00000
     10      20.3732      0.00000
     11      21.7946      0.00000
     12      28.4722      0.00000

 k-point    22 :       0.4500    0.2500    0.0500
  band No.  band energies     occupation 
      1      -1.7001      2.00000
      2      -0.9383      2.00000
      3      -0.1807      2.00000
      4       0.6638      2.00000
      5       1.7364      2.00000
      6       2.9353      2.00001
      7      10.7239      0.00000
      8      15.5881      0.00000
      9      16.3135      0.00000
     10      20.2027      0.00000
     11      24.6751      0.00000
     12      28.1581      0.00000

 k-point    23 :      -0.4500    0.2500    0.0500
  band No.  band energies     occupation 
      1      -1.6026      2.00000
      2      -0.7262      2.00000
      3       0.0000      2.00000
      4       0.5146      2.00000
      5       1.8171      2.00000
      6       5.0938     -0.00000
      7       7.4827     -0.00000
      8      14.3783      0.00000
      9      16.3790      0.00000
     10      20.0175      0.00000
     11      27.2593      0.00000
     12      28.3071      0.00000

 k-point    24 :      -0.3500    0.2500    0.0500
  band No.  band energies     occupation 
      1      -1.4719      2.00000
      2      -0.6830      2.00000
      3       0.0370      2.00000
      4       0.4342      2.00000
      5       1.5235      2.00000
      6       4.9482     -0.00000
      7       7.8894     -0.00000
      8      13.4142      0.00000
      9      17.4676      0.00000
     10      20.2209      0.00000
     11      26.6200      0.00000
     12      28.8027      0.00000

 k-point    25 :      -0.2500    0.2500    0.0500
  band No.  band energies     occupation 
      1      -1.4192      2.00000
      2      -0.6407      2.00000
      3      -0.4105      2.00000
      4       0.4991      2.00000
      5       1.0100      2.00000
      6       3.2824      2.03821
      7      10.9891      0.00000
      8      13.3115      0.00000
      9      18.8694      0.00000
     10      21.2088      0.00000
     11      24.9109      0.00000
     12      28.4498      0.00000

 k-point    26 :      -0.1500    0.2500    0.0500
  band No.  band energies     occupation 
      1      -2.0945      2.00000
      2      -0.7323      2.00000
      3      -0.2060      2.00000
      4       0.3972      2.00000
      5       0.7118      2.00000
      6       2.1593      2.00000
      7      12.9632      0.00000
      8      15.3702      0.00000
      9      20.1036      0.00000
     10      22.5650      0.00000
     11      23.5595      0.00000
     12      26.8954      0.00000

 k-point    27 :      -0.0500    0.2500    0.0500
  band No.  band energies     occupation 
      1      -2.9384      2.00000
      2      -0.5314      2.00000
      3      -0.0363      2.00000
      4       0.0686      2.00000
      5       0.8526      2.00000
      6       1.3420      2.00000
      7      13.9824      0.00000
      8      18.7705      0.00000
      9      20.5395      0.00000
     10      22.6270      0.00000
     11      24.0439      0.00000
     12      25.8663      0.00000

 k-point    28 :       0.3500    0.3500    0.0500
  band No.  band energies     occupation 
      1      -1.9609      2.00000
      2      -1.4587      2.00000
      3       0.7422      2.00000
      4       1.1616      2.00000
      5       1.5626      2.00000
      6       1.5921      2.00000
      7      14.2535      0.00000
      8      15.5189      0.00000
      9      15.5308      0.00000
     10      19.3573      0.00000
     11      21.1303      0.00000
     12      30.8467      0.00000

 k-point    29 :       0.4500    0.3500    0.0500
  band No.  band energies     occupation 
      1      -1.8153      2.00000
      2      -1.5413      2.00000
      3       0.7568      2.00000
      4       1.3936      2.00000
      5       1.7455      2.00000
      6       3.0535      2.00046
      7      11.6910      0.00000
      8      13.8772      0.00000
      9      14.5399      0.00000
     10      20.1910      0.00000
     11      21.9796      0.00000
     12      30.2921      0.00000

 k-point    30 :      -0.4500    0.3500    0.0500
  band No.  band energies     occupation 
      1      -1.6792      2.00000
      2      -1.2796      2.00000
      3       0.4782      2.00000
      4       1.1640      2.00000
      5       1.8922      2.00000
      6       5.3217     -0.00000
      7       8.9379     -0.00000
      8      12.1041      0.00000
      9      14.6746      0.00000
     10      20.4591      0.00000
     11      24.5014      0.00000
     12      29.3164      0.00000

 k-point    31 :      -0.3500    0.3500    0.0500
  band No.  band energies     occupation 
      1      -1.4549      2.00000
      2      -0.8631      2.00000
      3       0.0531      2.00000
      4       0.9149      2.00000
      5       1.6524      2.00000
      6       6.3465     -0.00000
      7       8.4507     -0.00000
      8      10.5509      0.00000
      9      15.7857      0.00000
     10      20.4256      0.00000
     11      27.6522      0.00000
     12      28.2010      0.00000

 k-point    32 :      -0.2500    0.3500    0.0500
  band No.  band energies     occupation 
      1      -1.2486      2.00000
      2      -0.6329      2.00000
      3      -0.3268      2.00000
      4       0.6448      2.00000
      5       1.3448      2.00000
      6       4.7555     -0.00000
      7       9.5836      0.00000
      8      11.5235      0.00000
      9      17.3980      0.00000
     10      20.4860      0.00000
     11      26.5647      0.00000
     12      29.1311      0.00000

 k-point    33 :      -0.1500    0.3500    0.0500
  band No.  band energies     occupation 
      1      -1.7334      2.00000
      2      -0.4992      2.00000
      3      -0.0560      2.00000
      4       0.2674      2.00000
      5       1.2844      2.00000
      6       3.3037      2.04792
      7       9.5047      0.00000
      8      14.9647      0.00000
      9      18.7721      0.00000
     10      20.7527      0.00000
     11      25.4229      0.00000
     12      27.8270      0.00000

 k-point    34 :      -0.0500    0.3500    0.0500
  band No.  band energies     occupation 
      1      -2.3247      2.00000
      2      -0.2444      2.00000
      3      -0.0553      2.00000
      4       0.2428      2.00000
      5       1.3941      2.00000
      6       1.9787      2.00000
      7      10.1833      0.00000
      8      18.3022      0.00000
      9      19.4032      0.00000
     10      21.0305      0.00000
     11      25.6443      0.00000
     12      26.2577      0.00000

 k-point    35 :       0.4500    0.4500    0.0500
  band No.  band energies     occupation 
      1      -2.0148      2.00000
      2      -1.7696      2.00000
      3       1.6618      2.00000
      4       1.7135      2.00000
      5       1.9157      2.00000
      6       3.7189      0.26516
      7      10.1765      0.00000
      8      13.4596      0.00000
      9      13.8078      0.00000
     10      19.4708      0.00000
     11      21.5449      0.00000
     12      31.6866      0.00000

 k-point    36 :      -0.4500    0.4500    0.0500
  band No.  band energies     occupation 
      1      -1.9499      2.00000
      2      -1.7290      2.00000
      3       1.4407      2.00000
      4       1.6349      2.00000
      5       2.0265      2.00000
      6       5.5605     -0.00000
      7       8.4219     -0.00000
      8      12.4663      0.00000
      9      13.4083      0.00000
     10      20.2982      0.00000
     11      22.1278      0.00000
     12      30.8703      0.00000

 k-point    37 :      -0.3500    0.4500    0.0500
  band No.  band energies     occupation 
      1      -1.7169      2.00000
      2      -1.3529      2.00000
      3       0.7034      2.00000
      4       1.2879      2.00000
      5       1.8898      2.00000
      6       6.6972     -0.00000
      7       7.9947     -0.00000
      8      10.9942      0.00000
      9      14.3757      0.00000
     10      20.5598      0.00000
     11      24.4726      0.00000
     12      29.5850      0.00000

 k-point    38 :      -0.2500    0.4500    0.0500
  band No.  band energies     occupation 
      1      -1.4884      2.00000
      2      -0.8281      2.00000
      3       0.0187      2.00000
      4       0.7458      2.00000
      5       1.7434      2.00000
      6       6.2718     -0.00000
      7       7.2426     -0.00000
      8      12.3901      0.00000
      9      15.9808      0.00000
     10      20.2606      0.00000
     11      27.5130      0.00000
     12      28.2099      0.00000

 k-point    39 :      -0.1500    0.4500    0.0500
  band No.  band energies     occupation 
      1      -1.7670      2.00000
      2      -0.6074      2.00000
      3       0.1882      2.00000
      4       0.4260      2.00000
      5       1.6982      2.00000
      6       5.2552     -0.00000
      7       6.3878     -0.00000
      8      15.3466      0.00000
      9      17.6139      0.00000
     10      19.8471      0.00000
     11      26.6327      0.00000
[...]
      6       4.0765     -0.00577
      7      10.2355      0.00000
      8      12.4034      0.00000
      9      16.9400      0.00000
     10      21.8313      0.00000
     11      25.1345      0.00000
     12      28.8244      0.00000

 k-point    92 :      -0.3500    0.3500    0.2500
  band No.  band energies     occupation 
      1      -1.1957      2.00000
      2      -0.7726      2.00000
      3      -0.3283      2.00000
      4       0.7887      2.00000
      5       1.6089      2.00000
      6       5.7192     -0.00000
      7       9.0827      0.00000
      8      10.9011      0.00000
      9      15.4951      0.00000
     10      21.5863      0.00000
     11      26.5114      0.00000
     12      29.4580      0.00000

 k-point    93 :      -0.2500    0.3500    0.2500
  band No.  band energies     occupation 
      1      -1.4493      2.00000
      2      -1.0106      2.00000
      3      -0.0063      2.00000
      4       0.9788      2.00000
      5       1.8255      2.00000
      6       5.9439     -0.00000
      7       8.3061     -0.00000
      8      12.0467      0.00000
      9      14.4435      0.00000
     10      21.4456      0.00000
     11      25.9850      0.00000
     12      27.9018      0.00000

 k-point    94 :       0.4500    0.4500    0.2500
  band No.  band energies     occupation 
      1      -1.7764      2.00000
      2      -0.6608      2.00000
      3      -0.1562      2.00000
      4       0.4112      2.00000
      5       1.8565      2.00000
      6       3.2804      2.03732
      7       9.3981      0.00000
      8      16.1661      0.00000
      9      16.9743      0.00000
     10      19.4709      0.00000
     11      26.4341      0.00000
     12      28.3655      0.00000

 k-point    95 :      -0.4500    0.4500    0.2500
  band No.  band energies     occupation 
      1      -1.4602      2.00000
      2      -0.8727      2.00000
      3      -0.2194      2.00000
      4       0.8103      2.00000
      5       1.7570      2.00000
      6       4.6728     -0.00000
      7       8.8489     -0.00000
      8      13.7008      0.00000
      9      15.1496      0.00000
     10      21.2117      0.00000
     11      25.8343      0.00000
     12      27.7976      0.00000

 k-point    96 :      -0.3500    0.4500    0.2500
  band No.  band energies     occupation 
      1      -1.1246      2.00000
      2      -0.8451      2.00000
      3      -0.4857      2.00000
      4       0.8960      2.00000
      5       1.8601      2.00000
      6       6.2603     -0.00000
      7       9.1875      0.00000
      8      10.8956      0.00000
      9      13.4763      0.00000
     10      23.6822      0.00000
     11      25.2422      0.00000
     12      27.7982      0.00000

 k-point    97 :      -0.2500    0.4500    0.2500
  band No.  band energies     occupation 
      1      -1.2193      2.00000
      2      -0.8386      2.00000
      3      -0.3585      2.00000
      4       0.8627      2.00000
      5       2.0183      2.00000
      6       7.2868     -0.00000
      7       8.9818     -0.00000
      8      10.1734      0.00000
      9      12.5747      0.00000
     10      24.3295      0.00000
     11      25.7714      0.00000
     12      26.8345      0.00000

 k-point    98 :      -0.4500   -0.4500    0.2500
  band No.  band energies     occupation 
      1      -1.6213      2.00000
      2      -1.0351      2.00000
      3       0.2790      2.00000
      4       0.9177      2.00000
      5       1.8362      2.00000
      6       5.8287     -0.00000
      7       7.9862     -0.00000
      8      12.1488      0.00000
      9      15.7024      0.00000
     10      19.8850      0.00000
     11      26.0879      0.00000
     12      29.4182      0.00000

 k-point    99 :      -0.3500   -0.4500    0.2500
  band No.  band energies     occupation 
      1      -1.4739      2.00000
      2      -1.0711      2.00000
      3       0.1569      2.00000
      4       1.0367      2.00000
      5       1.8663      2.00000
      6       6.9807     -0.00000
      7       8.1738     -0.00000
      8      10.5858      0.00000
      9      14.1492      0.00000
     10      21.5984      0.00000
     11      26.0838      0.00000
     12      27.9874      0.00000

 k-point   100 :      -0.3500   -0.3500    0.2500
  band No.  band energies     occupation 
      1      -1.6295      2.00000
      2      -1.1088      2.00000
      3       0.4337      2.00000
      4       1.1120      2.00000
      5       1.7473      2.00000
      6       6.8518     -0.00000
      7       7.8855     -0.00000
      8      10.5886      0.00000
      9      15.4448      0.00000
     10      20.0214      0.00000
     11      26.0186      0.00000
     12      29.6461      0.00000

 k-point   101 :       0.3500    0.3500    0.3500
  band No.  band energies     occupation 
      1      -2.5040      2.00000
      2      -0.1698      2.00000
      3      -0.1698      2.00000
      4       0.6904      2.00000
      5       1.4502      2.00000
      6       1.4502      2.00000
      7      10.0612      0.00000
      8      18.8138      0.00000
      9      20.8223      0.00000
     10      20.8223      0.00000
     11      25.9340      0.00000
     12      26.0105      0.00000

 k-point   102 :       0.4500    0.3500    0.3500
  band No.  band energies     occupation 
      1      -2.2010      2.00000
      2      -0.3032      2.00000
      3      -0.0814      2.00000
      4       0.5849      2.00000
      5       1.3715      2.00000
      6       2.5431      2.00000
      7       9.0521     -0.00000
      8      17.4813      0.00000
      9      19.2637      0.00000
     10      20.8393      0.00000
     11      25.5854      0.00000
     12      26.5163      0.00000

 k-point   103 :      -0.4500    0.3500    0.3500
  band No.  band energies     occupation 
      1      -1.6103      2.00000
      2      -0.5686      2.00000
      3       0.1168      2.00000
      4       0.2728      2.00000
      5       1.3544      2.00000
      6       4.0388     -0.01163
      7       8.6201     -0.00000
      8      14.1256      0.00000
      9      19.2071      0.00000
     10      19.4696      0.00000
     11      26.2840      0.00000
     12      27.9029      0.00000

 k-point   104 :      -0.3500    0.3500    0.3500
  band No.  band energies     occupation 
      1      -1.3790      2.00000
      2      -0.6683      2.00000
      3      -0.1230      2.00000
      4       0.7519      2.00000
      5       1.4624      2.00000
      6       5.5171     -0.00000
      7       8.9992     -0.00000
      8      10.8727      0.00000
      9      17.1758      0.00000
     10      19.7794      0.00000
     11      28.0497      0.00000
     12      28.8692      0.00000

 k-point   105 :       0.4500    0.4500    0.3500
  band No.  band energies     occupation 
      1      -2.1904      2.00000
      2      -0.3676      2.00000
      3      -0.0804      2.00000
      4       0.7156      2.00000
      5       1.8122      2.00000
      6       2.9362      2.00001
      7       7.8862     -0.00000
      8      18.2850      0.00000
      9      18.8543      0.00000
     10      19.2703      0.00000
     11      26.9424      0.00000
     12      26.9577      0.00000

 k-point   106 :      -0.4500    0.4500    0.3500
  band No.  band energies     occupation 
      1      -1.8004      2.00000
      2      -0.5863      2.00000
      3       0.1587      2.00000
      4       0.3770      2.00000
      5       1.7088      2.00000
      6       4.4570     -0.00000
      7       7.2173     -0.00000
      8      15.9577      0.00000
      9      17.1339      0.00000
     10      20.3120      0.00000
     11      26.2118      0.00000
     12      28.5569      0.00000

 k-point   107 :      -0.3500    0.4500    0.3500
  band No.  band energies     occupation 
      1      -1.3108      2.00000
      2      -0.8266      2.00000
      3      -0.1181      2.00000
      4       0.6331      2.00000
      5       1.6767      2.00000
      6       5.9748     -0.00000
      7       7.3988     -0.00000
      8      12.7966      0.00000
      9      15.6566      0.00000
     10      21.2512      0.00000
     11      26.4271      0.00000
     12      29.6307      0.00000

 k-point   108 :      -0.4500   -0.4500    0.3500
  band No.  band energies     occupation 
      1      -1.7035      2.00000
      2      -0.6401      2.00000
      3       0.2543      2.00000
      4       0.2967      2.00000
      5       1.7773      2.00000
      6       5.6426     -0.00000
      7       6.3013     -0.00000
      8      14.8244      0.00000
      9      17.6458      0.00000
     10      19.2895      0.00000
     11      27.7564      0.00000
     12      28.0694      0.00000

 k-point   109 :       0.4500    0.4500    0.4500
  band No.  band energies     occupation 
      1      -2.3927      2.00000
      2      -0.2769      2.00000
      3      -0.2769      2.00000
      4       1.7716      2.00000
      5       1.7716      2.00000
      6       2.7127      2.00000
      7       6.7648     -0.00000
      8      18.2789      0.00000
      9      19.9466      0.00000
     10      19.9466      0.00000
     11      26.2885      0.00000
     12      26.2885      0.00000

 k-point   110 :      -0.4500    0.4500    0.4500
  band No.  band energies     occupation 
      1      -2.1766      2.00000
      2      -0.4005      2.00000
      3      -0.1405      2.00000
      4       1.1345      2.00000
      5       1.7583      2.00000
      6       4.1841     -0.00049
      7       6.1221     -0.00000
      8      17.6289      0.00000
      9      18.8349      0.00000
     10      19.3704      0.00000
     11      26.7082      0.00000
     12      26.8454      0.00000


--------------------------------------------------------------------------------------------------------


 soft charge-density along one line, spin component           1
         0         1         2         3         4         5         6         7         8         9
 total charge-density along one line
 
 pseudopotential strength for first ion, spin component:           1
-10.410   0.000   0.000   0.000   0.000   0.000   0.000   0.000   0.000   0.000  -0.009   0.000  -0.000   0.000  -0.000   0.000
  0.000   0.000 -10.410   0.000  -0.000   0.000   0.000   0.000   0.000   0.000  -0.000   0.000  -0.009   0.000   0.000   0.000
  0.000   0.000  -0.000   0.000 -10.395   0.000  -0.000   0.000   0.000   0.000  -0.000   0.000   0.000   0.000  -0.010   0.000
  0.000   0.000   0.000   0.000  -0.000   0.000 -10.410   0.000  -0.000   0.000  -0.000   0.000  -0.000   0.000   0.000   0.000
  0.000   0.000   0.000   0.000   0.000   0.000  -0.000   0.000 -10.395   0.000  -0.000   0.000  -0.000   0.000  -0.000   0.000
 -0.009   0.000  -0.000   0.000  -0.000   0.000  -0.000   0.000  -0.000   0.000   0.271   0.000  -0.000   0.000   0.000   0.000
 -0.000   0.000  -0.009   0.000   0.000   0.000  -0.000   0.000  -0.000   0.000  -0.000   0.000   0.271   0.000  -0.000   0.000
 -0.000   0.000   0.000   0.000  -0.010   0.000   0.000   0.000  -0.000   0.000   0.000   0.000  -0.000   0.000   0.272   0.000
 -0.000   0.000  -0.000   0.000   0.000   0.000  -0.009   0.000   0.000   0.000  -0.000   0.000  -0.000   0.000  -0.000   0.000
 -0.000   0.000  -0.000   0.000  -0.000   0.000   0.000   0.000  -0.010   0.000   0.000   0.000   0.000   0.000   0.000   0.000
  0.000   0.000   0.000   0.000   0.000   0.000   0.000   0.000   0.000   0.000   0.000   0.000   0.000   0.000  -0.000   0.000
 -0.000   0.000  -0.000   0.000  -0.000   0.000  -0.000   0.000  -0.000   0.000   0.000   0.000   0.000   0.000   0.000   0.000
  0.000   0.000  -0.000   0.000  -0.000   0.000  -0.000   0.000  -0.000   0.000  -0.000   0.000   0.000   0.000   0.000   0.000
 -0.000   0.000  -0.000   0.000  -0.000   0.000   0.000   0.000  -0.000   0.000   0.000   0.000  -0.000   0.000   0.000   0.000
  0.000   0.000  -0.000   0.000  -0.000   0.000  -0.000   0.000   0.000   0.000  -0.000   0.000   0.000   0.000   0.000   0.000
 -0.000   0.000   0.000   0.000   0.000   0.000   0.000   0.000   0.000   0.000   0.000   0.000  -0.000   0.000  -0.000   0.000
  0.000   0.000   0.000   0.000   0.000   0.000  -0.000   0.000   0.000   0.000  -0.000   0.000  -0.000   0.000  -0.000   0.000
 -0.000   0.000   0.000   0.000   0.000   0.000   0.000   0.000  -0.000   0.000   0.000   0.000  -0.000   0.000  -0.000   0.000
 total augmentation occupancy for first ion, spin component:           1
  1.906   0.000   0.000   0.000   0.000  -0.072  -0.000   0.000   0.000   0.000   0.000   0.000   0.000   0.000   0.000   0.000
  0.000   1.906   0.000   0.000  -0.000  -0.000  -0.072  -0.000   0.000   0.000  -0.000   0.000   0.000   0.000   0.000   0.000
 -0.000  -0.000   1.950  -0.000   0.000   0.000   0.000  -0.108  -0.000  -0.000   0.000   0.000   0.000   0.000   0.000   0.000
  0.000   0.000   0.000   1.906   0.000   0.000   0.000   0.000  -0.072   0.000  -0.000   0.000   0.000   0.000   0.000   0.000
  0.000  -0.000   0.000   0.000   1.950   0.000   0.000   0.000  -0.000  -0.108   0.000   0.000   0.000   0.000   0.000   0.000
 -0.072   0.000   0.000   0.000   0.000   0.128  -0.000   0.000   0.000  -0.000   0.000   0.000   0.000   0.000   0.000   0.000
  0.000  -0.072   0.000   0.000   0.000   0.000   0.128   0.000   0.000  -0.000   0.000   0.000   0.000   0.000   0.000   0.000
  0.000   0.000  -0.108   0.000   0.000   0.000   0.000   0.103   0.000   0.000  -0.000   0.000   0.000   0.000   0.000   0.000
  0.000  -0.000  -0.000  -0.072   0.000  -0.000   0.000  -0.000   0.128   0.000  -0.000   0.000   0.000   0.000   0.000   0.000
  0.000   0.000   0.000  -0.000  -0.108   0.000   0.000   0.000   0.000   0.103   0.000   0.000   0.000   0.000   0.000   0.000
  0.000   0.000   0.000   0.000   0.000   0.000  -0.000  -0.000  -0.000   0.000   1.005  -0.296   0.000   0.000   0.000   0.000
  0.000   0.000   0.000  -0.000   0.000  -0.000  -0.000   0.000  -0.000   0.000  -0.296   0.168   0.000   0.000   0.000   0.000
  0.000   0.000   0.000   0.000   0.000   0.000   0.000   0.000   0.000   0.000   0.000   0.000   0.116   0.000  -0.000  -0.009
  0.000   0.000   0.000   0.000   0.000   0.000   0.000   0.000   0.000   0.000   0.000   0.000   0.000   0.116   0.000  -0.000
  0.000   0.000   0.000   0.000   0.000   0.000   0.000   0.000   0.000   0.000   0.000   0.000   0.000   0.000   0.116   0.000
  0.000   0.000   0.000   0.000   0.000   0.000   0.000   0.000   0.000   0.000   0.000   0.000  -0.009  -0.000   0.000   0.001
  0.000   0.000   0.000   0.000   0.000   0.000   0.000   0.000   0.000   0.000   0.000   0.000  -0.000  -0.009   0.000   0.000
  0.000   0.000   0.000   0.000   0.000   0.000   0.000   0.000   0.000   0.000   0.000   0.000   0.000   0.000  -0.009   0.000


------------------------ aborting loop because EDIFF is reached ----------------------------------------


    CHARGE:  cpu time    0.0039: real time    0.0047
    FORLOC:  cpu time    0.0001: real time    0.0001
    FORNL :  cpu time    0.0089: real time    0.0171
    STRESS:  cpu time    0.0569: real time    0.1154
    FORCOR:  cpu time    0.0017: real time    0.0022
    FORHAR:  cpu time    0.0010: real time    0.0014
    MIXING:  cpu time    0.0007: real time    0.0054
    OFIELD:  cpu time    0.0000: real time    0.0000

  FORCE on cell =-STRESS in cart. coord.  units (eV):
  Direction    XX          YY          ZZ          XY          YZ          ZX
  --------------------------------------------------------------------------------------
  Alpha Z    92.46378    92.46378    92.46378
  Ewald    -309.63356  -309.63356  -309.63356     0.00000    -0.00000     0.00000
  Hartree    44.02726    44.02726    44.02726     0.00000     0.00000     0.00000
  E(xc)     -48.44749   -48.44749   -48.44749     0.00002     0.00002     0.00002
  Local      75.26303    75.26303    75.26303     0.00034     0.00034     0.00034
  n-local   -52.13325   -49.68509   -53.41564     0.55071    -0.75161    -0.02342
  augment    42.65037    42.65037    42.65037    -0.00005    -0.00005    -0.00005
  Kinetic   152.71922   151.52180   153.48321    -0.58403     0.32827     0.00554
  Fock        0.00000     0.00000     0.00000     0.00000     0.00000     0.00000
  -------------------------------------------------------------------------------------
  Total      -2.84653    -2.84653    -2.84653    -0.00000    -0.00000     0.00000
  in kB    -229.44631  -229.44631  -229.44631    -0.00000    -0.00000     0.00000
  external pressure =     -229.45 kB  Pullay stress =        0.00 kB


 VOLUME and BASIS-vectors are now :
 -----------------------------------------------------------------------------
  energy-cutoff  :      230.00
  volume of cell :       19.88
      direct lattice vectors                 reciprocal lattice vectors
     0.000000000  2.150000000  2.150000000    -0.232558140  0.232558140  0.232558140
     2.150000000  0.000000000  2.150000000     0.232558140 -0.232558140  0.232558140
     2.150000000  2.150000000  0.000000000     0.232558140  0.232558140 -0.232558140

  length of vectors
     3.040559159  3.040559159  3.040559159     0.402802513  0.402802513  0.402802513


 FORCES acting on ions
    electron-ion (+dipol)            ewald-force                    non-local-force                 convergence-correction
 -----------------------------------------------------------------------------------------------
   0.158E-15 0.904E-15 0.207E-14   0.229E-15 0.993E-15 0.227E-14   0.000E+00 0.000E+00 0.000E+00   0.595E-14 -.769E-14 -.373E-14
 -----------------------------------------------------------------------------------------------
   0.158E-15 0.904E-15 0.207E-14   0.229E-15 0.993E-15 0.227E-14   0.000E+00 0.000E+00 0.000E+00   0.595E-14 -.769E-14 -.373E-14
 
 
 POSITION                                       TOTAL-FORCE (eV/Angst)
 -----------------------------------------------------------------------------------
      0.00000      0.00000      0.00000         0.000000      0.000000      0.000000
 -----------------------------------------------------------------------------------
    total drift:                                0.000000     -0.000000      0.000000


--------------------------------------------------------------------------------------------------------



  FREE ENERGIE OF THE ION-ELECTRON SYSTEM (eV)
  ---------------------------------------------------
  free  energy   TOTEN  =        -4.15745121 eV

  energy  without entropy=       -4.15828283  energy(sigma->0) =       -4.15772842
 


--------------------------------------------------------------------------------------------------------


    POTLOK:  cpu time    0.0021: real time    0.0031


--------------------------------------------------------------------------------------------------------


 writing wavefunctions
     LOOP+:  cpu time    1.7257: real time    3.5453
    4ORBIT:  cpu time    0.0000: real time    0.0000

 total amount of memory used by VASP MPI-rank0    34324. kBytes
=======================================================================

   base      :      30000. kBytes
   nonl-proj :       2727. kBytes
   fftplans  :        238. kBytes
   grid      :        331. kBytes
   one-center:         15. kBytes
   wavefun   :       1013. kBytes
 
  
  
 General timing and accounting informations for this job:
 ========================================================
  
                  Total CPU time used (sec):        2.166
                            User time (sec):        1.921
                          System time (sec):        0.244
                         Elapsed time (sec):        5.268
  
                   Maximum memory used (kb):       60412.
                   Average memory used (kb):           0.
  
                          Minor page faults:        17029
                          Major page faults:            0
                 Voluntary context switches:         1632
