<?xml version="1.0" encoding="ISO-8859-1"?>
<modeling>
 <generator>
  <i name="program" type="string">vasp </i>
  <i name="version" type="string">5.4.4.18Apr17-6-g9f103f2a35  </i>
  <i name="subversion" type="string">(build Jul 01 2019 03:25:34) complex            parallel </i>
  <i name="platform" type="string">LinuxIFC </i>
  <i name="date" type="string">2020 07 08 </i>
  <i name="time" type="string">00:56:12 </i>
 </generator>
 <incar>
  <i type="string" name="SYSTEM"> FCC Au</i>
  <i type="string" name="PREC">normal</i>
  <i name="EDIFF">      0.00010000</i>
  <i name="ENCUT">    230.00000000</i>
  <v type="int" name="KPOINT_BSE">    -1     0     0     0</v>
 </incar>
 <structure name="primitive_cell" >
  <crystal>
   <varray name="basis" >
    <v>       0.00000000       2.15000000       2.15000000 </v>
    <v>       2.15000000       0.00000000       2.15000000 </v>
    <v>       2.15000000       2.15000000       0.00000000 </v>
   </varray>
   <i name="volume">     19.87675000 </i>
   <varray name="rec_basis" >
    <v>      -0.23255814       0.23255814       0.23255814 </v>
    <v>       0.23255814      -0.23255814       0.23255814 </v>
    <v>       0.23255814       0.23255814      -0.23255814 </v>
   </varray>
  </crystal>
  <varray name="positions" >
   <v>       0.00000000       0.00000000       0.00000000 </v>
  </varray>
 </structure>
 <varray name="primitive_index" >
  <v type="int" >        1 </v>
 </varray>
 <kpoints>
  <generation param="Monkhorst-Pack">
   <v type="int" name="divisions">      10       10       10 </v>
   <v name="usershift">      0.00000000       0.00000000       0.00000000 </v>
   <v name="genvec1">      0.10000000       0.00000000       0.00000000 </v>
   <v name="genvec2">      0.00000000       0.10000000       0.00000000 </v>
   <v name="genvec3">      0.00000000       0.00000000       0.10000000 </v>
   <v name="shift">      0.50000000       0.50000000       0.50000000 </v>
  </generation>
  <varray name="kpointlist" >
   <v>       0.05000000       0.05000000       0.05000000 </v>
   <v>       0.15000000       0.05000000       0.05000000 </v>
   <v>       0.25000000       0.05000000       0.05000000 </v>
   <v>       0.35000000       0.05000000       0.05000000 </v>
   <v>       0.45000000       0.05000000       0.05000000 </v>
   <v>      -0.45000000       0.05000000       0.05000000 </v>
   <v>      -0.35000000       0.05000000       0.05000000 </v>
   <v>      -0.25000000       0.05000000       0.05000000 </v>
   <v>      -0.15000000       0.05000000       0.05000000 </v>
   <v>      -0.05000000       0.05000000       0.05000000 </v>
   <v>       0.15000000       0.15000000       0.05000000 </v>
   <v>       0.25000000       0.15000000       0.05000000 </v>
   <v>       0.35000000       0.15000000       0.05000000 </v>
   <v>       0.45000000       0.15000000       0.05000000 </v>
   <v>      -0.45000000       0.15000000       0.05000000 </v>
   <v>      -0.35000000       0.15000000       0.05000000 </v>
   <v>      -0.25000000       0.15000000       0.05000000 </v>
   <v>      -0.15000000       0.15000000       0.05000000 </v>
   <v>      -0.05000000       0.15000000       0.05000000 </v>
   <v>       0.25000000       0.25000000       0.05000000 </v>
   <v>       0.35000000       0.25000000       0.05000000 </v>
   <v>       0.45000000       0.25000000       0.05000000 </v>
   <v>      -0.45000000       0.25000000       0.05000000 </v>
   <v>      -0.35000000       0.25000000       0.05000000 </v>
   <v>      -0.25000000       0.25000000       0.05000000 </v>
   <v>      -0.15000000       0.25000000       0.05000000 </v>
   <v>      -0.05000000       0.25000000       0.05000000 </v>
   <v>       0.35000000       0.35000000       0.05000000 </v>
   <v>       0.45000000       0.35000000       0.05000000 </v>
   <v>      -0.45000000       0.35000000       0.05000000 </v>
   <v>      -0.35000000       0.35000000       0.05000000 </v>
   <v>      -0.25000000       0.35000000       0.05000000 </v>
   <v>      -0.15000000       0.35000000       0.05000000 </v>
   <v>      -0.05000000       0.35000000       0.05000000 </v>
   <v>       0.45000000       0.45000000       0.05000000 </v>
   <v>      -0.45000000       0.45000000       0.05000000 </v>
   <v>      -0.35000000       0.45000000       0.05000000 </v>
   <v>      -0.25000000       0.45000000       0.05000000 </v>
   <v>      -0.15000000       0.45000000       0.05000000 </v>
   <v>      -0.05000000       0.45000000       0.05000000 </v>
   <v>      -0.45000000      -0.45000000       0.05000000 </v>
   <v>      -0.35000000      -0.45000000       0.05000000 </v>
   <v>      -0.25000000      -0.45000000       0.05000000 </v>
   <v>      -0.15000000      -0.45000000       0.05000000 </v>
   <v>      -0.35000000      -0.35000000       0.05000000 </v>
   <v>      -0.25000000      -0.35000000       0.05000000 </v>
   <v>      -0.15000000      -0.35000000       0.05000000 </v>
   <v>      -0.25000000      -0.25000000       0.05000000 </v>
   <v>      -0.15000000      -0.25000000       0.05000000 </v>
   <v>      -0.15000000      -0.15000000       0.05000000 </v>
   <v>       0.15000000       0.15000000       0.15000000 </v>
   <v>       0.25000000       0.15000000       0.15000000 </v>
   <v>       0.35000000       0.15000000       0.15000000 </v>
   <v>       0.45000000       0.15000000       0.15000000 </v>
   <v>      -0.45000000       0.15000000       0.15000000 </v>
   <v>      -0.35000000       0.15000000       0.15000000 </v>
   <v>      -0.25000000       0.15000000       0.15000000 </v>
   <v>      -0.15000000       0.15000000       0.15000000 </v>
   <v>       0.25000000       0.25000000       0.15000000 </v>
   <v>       0.35000000       0.25000000       0.15000000 </v>
   <v>       0.45000000       0.25000000       0.15000000 </v>
   <v>      -0.45000000       0.25000000       0.15000000 </v>
   <v>      -0.35000000       0.25000000       0.15000000 </v>
   <v>      -0.25000000       0.25000000       0.15000000 </v>
   <v>      -0.15000000       0.25000000       0.15000000 </v>
   <v>       0.35000000       0.35000000       0.15000000 </v>
   <v>       0.45000000       0.35000000       0.15000000 </v>
   <v>      -0.45000000       0.35000000       0.15000000 </v>
   <v>      -0.35000000       0.35000000       0.15000000 </v>
   <v>      -0.25000000       0.35000000       0.15000000 </v>
   <v>      -0.15000000       0.35000000       0.15000000 </v>
   <v>       0.45000000       0.45000000       0.15000000 </v>
   <v>      -0.45000000       0.45000000       0.15000000 </v>
   <v>      -0.35000000       0.45000000       0.15000000 </v>
   <v>      -0.25000000       0.45000000       0.15000000 </v>
   <v>      -0.15000000       0.45000000       0.15000000 </v>
   <v>      -0.45000000      -0.45000000       0.15000000 </v>
   <v>      -0.35000000      -0.45000000       0.15000000 </v>
   <v>      -0.25000000      -0.45000000       0.15000000 </v>
   <v>      -0.35000000      -0.35000000       0.15000000 </v>
   <v>      -0.25000000      -0.35000000       0.15000000 </v>
   <v>      -0.25000000      -0.25000000       0.15000000 </v>
   <v>       0.25000000       0.25000000       0.25000000 </v>
   <v>       0.35000000       0.25000000       0.25000000 </v>
   <v>       0.45000000       0.25000000       0.25000000 </v>
   <v>      -0.45000000       0.25000000       0.25000000 </v>
   <v>      -0.35000000       0.25000000       0.25000000 </v>
   <v>      -0.25000000       0.25000000       0.25000000 </v>
   <v>       0.35000000       0.35000000       0.25000000 </v>
   <v>       0.45000000       0.35000000       0.25000000 </v>
   <v>      -0.45000000       0.35000000       0.25000000 </v>
   <v>      -0.35000000       0.35000000       0.25000000 </v>
   <v>      -0.25000000       0.35000000       0.25000000 </v>
   <v>       0.45000000       0.45000000       0.25000000 </v>
   <v>      -0.45000000       0.45000000       0.25000000 </v>
   <v>      -0.35000000       0.45000000       0.25000000 </v>
   <v>      -0.25000000       0.45000000       0.25000000 </v>
   <v>      -0.45000000      -0.45000000       0.25000000 </v>
   <v>      -0.35000000      -0.45000000       0.25000000 </v>
   <v>      -0.35000000      -0.35000000       0.25000000 </v>
   <v>       0.35000000       0.35000000       0.35000000 </v>
   <v>       0.45000000       0.35000000       0.35000000 </v>
   <v>      -0.45000000       0.35000000       0.35000000 </v>
   <v>      -0.35000000       0.35000000       0.35000000 </v>
   <v>       0.45000000       0.45000000       0.35000000 </v>
   <v>      -0.45000000       0.45000000       0.35000000 </v>
   <v>      -0.35000000       0.45000000       0.35000000 </v>
   <v>      -0.45000000      -0.45000000       0.35000000 </v>
   <v>       0.45000000       0.45000000       0.45000000 </v>
   <v>      -0.45000000       0.45000000       0.45000000 </v>
  </varray>
  <varray name="weights" >
   <v>       0.00200000 </v>
   <v>       0.00600000 </v>
   <v>       0.00600000 </v>
   <v>       0.00600000 </v>
   <v>       0.00600000 </v>
   <v>       0.00600000 </v>
   <v>       0.00600000 </v>
   <v>       0.00600000 </v>
   <v>       0.00600000 </v>
   <v>       0.00600000 </v>
   <v>       0.00600000 </v>
   <v>       0.01200000 </v>
   <v>       0.01200000 </v>
   <v>       0.01200000 </v>
   <v>       0.01200000 </v>
   <v>       0.01200000 </v>
   <v>       0.01200000 </v>
   <v>       0.01200000 </v>
   <v>       0.01200000 </v>
   <v>       0.00600000 </v>
   <v>       0.01200000 </v>
   <v>       0.01200000 </v>
   <v>       0.01200000 </v>
   <v>       0.01200000 </v>
   <v>       0.01200000 </v>
   <v>       0.01200000 </v>
   <v>       0.01200000 </v>
   <v>       0.00600000 </v>
   <v>       0.01200000 </v>
   <v>       0.01200000 </v>
   <v>       0.01200000 </v>
   <v>       0.01200000 </v>
   <v>       0.01200000 </v>
   <v>       0.01200000 </v>
   <v>       0.00600000 </v>
   <v>       0.01200000 </v>
   <v>       0.01200000 </v>
   <v>       0.01200000 </v>
   <v>       0.01200000 </v>
   <v>       0.01200000 </v>
   <v>       0.00600000 </v>
   <v>       0.01200000 </v>
   <v>       0.01200000 </v>
   <v>       0.01200000 </v>
   <v>       0.00600000 </v>
   <v>       0.01200000 </v>
   <v>       0.01200000 </v>
   <v>       0.00600000 </v>
   <v>       0.01200000 </v>
   <v>       0.00600000 </v>
   <v>       0.00200000 </v>
   <v>       0.00600000 </v>
   <v>       0.00600000 </v>
   <v>       0.00600000 </v>
   <v>       0.00600000 </v>
   <v>       0.00600000 </v>
   <v>       0.00600000 </v>
   <v>       0.00600000 </v>
   <v>       0.00600000 </v>
   <v>       0.01200000 </v>
   <v>       0.01200000 </v>
   <v>       0.01200000 </v>
   <v>       0.01200000 </v>
   <v>       0.01200000 </v>
   <v>       0.01200000 </v>
   <v>       0.00600000 </v>
   <v>       0.01200000 </v>
   <v>       0.01200000 </v>
   <v>       0.01200000 </v>
   <v>       0.01200000 </v>
   <v>       0.01200000 </v>
   <v>       0.00600000 </v>
   <v>       0.01200000 </v>
   <v>       0.01200000 </v>
   <v>       0.01200000 </v>
   <v>       0.01200000 </v>
   <v>       0.00600000 </v>
   <v>       0.01200000 </v>
   <v>       0.01200000 </v>
   <v>       0.00600000 </v>
   <v>       0.01200000 </v>
   <v>       0.00600000 </v>
   <v>       0.00200000 </v>
   <v>       0.00600000 </v>
   <v>       0.00600000 </v>
   <v>       0.00600000 </v>
   <v>       0.00600000 </v>
   <v>       0.00600000 </v>
   <v>       0.00600000 </v>
   <v>       0.01200000 </v>
   <v>       0.01200000 </v>
   <v>       0.01200000 </v>
   <v>       0.01200000 </v>
   <v>       0.00600000 </v>
   <v>       0.01200000 </v>
   <v>       0.01200000 </v>
   <v>       0.01200000 </v>
   <v>       0.00600000 </v>
   <v>       0.01200000 </v>
   <v>       0.00600000 </v>
   <v>       0.00200000 </v>
   <v>       0.00600000 </v>
   <v>       0.00600000 </v>
   <v>       0.00600000 </v>
   <v>       0.00600000 </v>
   <v>       0.01200000 </v>
   <v>       0.01200000 </v>
   <v>       0.00600000 </v>
   <v>       0.00200000 </v>
   <v>       0.00600000 </v>
  </varray>
 </kpoints>
 <parameters>
  <separator name="general" >
   <i type="string" name="SYSTEM">FCC Au</i>
   <i type="logical" name="LCOMPAT"> F  </i>
  </separator>
  <separator name="electronic" >
   <i type="string" name="PREC">normal</i>
   <i name="ENMAX">    230.00000000</i>
   <i name="ENAUG">    356.67000000</i>
   <i name="EDIFF">      0.00010000</i>
   <i type="int" name="IALGO">    38</i>
   <i type="int" name="IWAVPR">    10</i>
   <i type="int" name="NBANDS">    12</i>
   <i name="NELECT">     11.00000000</i>
   <i type="int" name="TURBO">     0</i>
   <i type="int" name="IRESTART">     0</i>
   <i type="int" name="NREBOOT">     0</i>
   <i type="int" name="NMIN">     0</i>
   <i name="EREF">      0.00000000</i>
   <separator name="electronic smearing" >
    <i type="int" name="ISMEAR">     1</i>
    <i name="SIGMA">      0.20000000</i>
    <i name="KSPACING">      0.50000000</i>
    <i type="logical" name="KGAMMA"> T  </i>
   </separator>
   <separator name="electronic projectors" >
    <i type="logical" name="LREAL"> F  </i>
    <v name="ROPT">      0.00000000</v>
    <i type="int" name="LMAXPAW">  -100</i>
    <i type="int" name="LMAXMIX">     2</i>
    <i type="logical" name="NLSPLINE"> F  </i>
   </separator>
   <separator name="electronic startup" >
    <i type="int" name="ISTART">     1</i>
    <i type="int" name="ICHARG">     0</i>
    <i type="int" name="INIWAV">     1</i>
   </separator>
   <separator name="electronic spin" >
    <i type="int" name="ISPIN">     1</i>
    <i type="logical" name="LNONCOLLINEAR"> F  </i>
    <v name="MAGMOM">      1.00000000</v>
    <i name="NUPDOWN">     -1.00000000</i>
    <i type="logical" name="LSORBIT"> F  </i>
    <v name="SAXIS">      0.00000000      0.00000000      1.00000000</v>
    <i type="logical" name="LSPIRAL"> F  </i>
    <v name="QSPIRAL">      0.00000000      0.00000000      0.00000000</v>
    <i type="logical" name="LZEROZ"> F  </i>
   </separator>
   <separator name="electronic exchange-correlation" >
    <i type="logical" name="LASPH"> F  </i>
    <i type="logical" name="LMETAGGA"> F  </i>
   </separator>
   <separator name="electronic convergence" >
    <i type="int" name="NELM">    60</i>
    <i type="int" name="NELMDL">     0</i>
    <i type="int" name="NELMIN">     2</i>
    <i name="ENINI">    230.00000000</i>
    <separator name="electronic convergence detail" >
     <i type="logical" name="LDIAG"> T  </i>
     <i type="logical" name="LSUBROT"> F  </i>
     <i name="WEIMIN">      0.00000000</i>
     <i name="EBREAK">      0.00000208</i>
     <i name="DEPER">      0.30000000</i>
     <i type="int" name="NRMM">     4</i>
     <i name="TIME">      0.40000000</i>
    </separator>
   </separator>
   <separator name="electronic mixer" >
    <i name="AMIX">      0.40000000</i>
    <i name="BMIX">      1.00000000</i>
    <i name="AMIN">      0.10000000</i>
    <i name="AMIX_MAG">      1.60000000</i>
    <i name="BMIX_MAG">      1.00000000</i>
    <separator name="electronic mixer details" >
     <i type="int" name="IMIX">     4</i>
     <i type="logical" name="MIXFIRST"> F  </i>
     <i type="int" name="MAXMIX">   -45</i>
     <i name="WC">    100.00000000</i>
     <i type="int" name="INIMIX">     1</i>
     <i type="int" name="MIXPRE">     1</i>
     <i type="int" name="MREMOVE">     5</i>
    </separator>
   </separator>
   <separator name="electronic dipolcorrection" >
    <i type="logical" name="LDIPOL"> F  </i>
    <i type="logical" name="LMONO"> F  </i>
    <i type="int" name="IDIPOL">     0</i>
    <i name="EPSILON">      1.00000000</i>
    <v name="DIPOL">   -100.00000000   -100.00000000   -100.00000000</v>
    <i name="EFIELD">      0.00000000</i>
   </separator>
  </separator>
  <separator name="grids" >
   <i type="int" name="NGX">    12</i>
   <i type="int" name="NGY">    12</i>
   <i type="int" name="NGZ">    12</i>
   <i type="int" name="NGXF">    24</i>
   <i type="int" name="NGYF">    24</i>
   <i type="int" name="NGZF">    24</i>
   <i type="logical" name="ADDGRID"> F  </i>
  </separator>
  <separator name="ionic" >
   <i type="int" name="NSW">     0</i>
   <i type="int" name="IBRION">    -1</i>
   <i type="int" name="MDALGO">     0</i>
   <i type="int" name="ISIF">     2</i>
   <i name="PSTRESS">      0.00000000</i>
   <i name="EDIFFG">      0.00100000</i>
   <i type="int" name="NFREE">     0</i>
   <i name="POTIM">      0.50000000</i>
   <i name="SMASS">     -3.00000000</i>
   <i name="SCALEE">      1.00000000</i>
  </separator>
  <separator name="ionic md" >
   <i name="TEBEG">      0.00010000</i>
   <i name="TEEND">      0.00010000</i>
   <i type="int" name="NBLOCK">     1</i>
   <i type="int" name="KBLOCK">     1</i>
   <i type="int" name="NPACO">   256</i>
   <i name="APACO">     16.00000000</i>
  </separator>
  <separator name="symmetry" >
   <i type="int" name="ISYM">     2</i>
   <i name="SYMPREC">      0.00001000</i>
  </separator>
  <separator name="dos" >
   <i type="int" name="LORBIT">     0</i>
   <v name="RWIGS">     -1.00000000</v>
   <i type="int" name="NEDOS">   301</i>
   <i name="EMIN">     10.00000000</i>
   <i name="EMAX">    -10.00000000</i>
   <i name="EFERMI">      0.00000000</i>
  </separator>
  <separator name="writing" >
   <i type="int" name="NWRITE">     2</i>
   <i type="logical" name="LWAVE"> T  </i>
   <i type="logical" name="LDOWNSAMPLE"> F  </i>
   <i type="logical" name="LCHARG"> T  </i>
   <i type="logical" name="LPARD"> F  </i>
   <i type="logical" name="LVTOT"> F  </i>
   <i type="logical" name="LVHAR"> F  </i>
   <i type="logical" name="LELF"> F  </i>
   <i type="logical" name="LOPTICS"> F  </i>
   <v name="STM">      0.00000000      0.00000000      0.00000000      0.00000000      0.00000000      0.00000000      0.00000000</v>
  </separator>
  <separator name="performance" >
   <i type="int" name="NPAR">     4</i>
   <i type="int" name="NSIM">     4</i>
   <i type="int" name="NBLK">    -1</i>
   <i type="logical" name="LPLANE"> T  </i>
   <i type="logical" name="LSCALAPACK"> T  </i>
   <i type="logical" name="LSCAAWARE"> F  </i>
   <i type="logical" name="LSCALU"> F  </i>
   <i type="logical" name="LASYNC"> F  </i>
   <i type="logical" name="LORBITALREAL"> F  </i>
  </separator>
  <separator name="miscellaneous" >
   <i type="int" name="IDIOT">     3</i>
   <i type="int" name="ISPECIAL">     0</i>
   <i type="logical" name="LMUSIC"> F  </i>
   <v name="POMASS">    196.96600000</v>
   <v name="DARWINR">      0.00000000</v>
   <v name="DARWINV">      1.00000000</v>
   <i type="logical" name="LCORR"> T  </i>
  </separator>
  <i type="logical" name="GGA_COMPAT"> T  </i>
  <i type="logical" name="LBERRY"> F  </i>
  <i type="int" name="ICORELEVEL">     0</i>
  <i type="logical" name="LDAU"> F  </i>
  <i type="int" name="I_CONSTRAINED_M">     0</i>
  <separator name="electronic exchange-correlation" >
   <i type="string" name="GGA">--</i>
   <i type="int" name="VOSKOWN">     0</i>
   <i type="logical" name="LHFCALC"> F  </i>
   <i type="string" name="PRECFOCK"></i>
   <i type="logical" name="LSYMGRAD"> F  </i>
   <i type="logical" name="LHFONE"> F  </i>
   <i type="logical" name="LRHFCALC"> F  </i>
   <i type="logical" name="LTHOMAS"> F  </i>
   <i type="logical" name="LMODELHF"> F  </i>
   <i name="ENCUT4O">     -1.00000000</i>
   <i type="int" name="EXXOEP">     0</i>
   <i type="int" name="FOURORBIT">     0</i>
   <i name="AEXX">      0.00000000</i>
   <i name="HFALPHA">      0.00000000</i>
   <i name="MCALPHA">      0.00000000</i>
   <i name="ALDAX">      1.00000000</i>
   <i name="AGGAX">      1.00000000</i>
   <i name="ALDAC">      1.00000000</i>
   <i name="AGGAC">      1.00000000</i>
   <i type="int" name="NKREDX">     1</i>
   <i type="int" name="NKREDY">     1</i>
   <i type="int" name="NKREDZ">     1</i>
   <i type="logical" name="SHIFTRED"> F  </i>
   <i type="logical" name="ODDONLY"> F  </i>
   <i type="logical" name="EVENONLY"> F  </i>
   <i type="int" name="LMAXFOCK">     0</i>
   <i type="int" name="NMAXFOCKAE">     0</i>
   <i type="logical" name="LFOCKAEDFT"> F  </i>
   <i name="HFSCREEN">      0.00000000</i>
   <i name="HFSCREENC">      0.00000000</i>
   <i type="int" name="NBANDSGWLOW">     0</i>
  </separator>
  <separator name="vdW DFT" >
   <i type="logical" name="LUSE_VDW"> F  </i>
   <i name="Zab_VDW">     -0.84910000</i>
   <i name="PARAM1">      0.12340000</i>
   <i name="PARAM2">      1.00000000</i>
   <i name="PARAM3">      0.00000000</i>
  </separator>
  <separator name="model GW" >
   <i type="int" name="MODEL_GW">     0</i>
   <i name="MODEL_EPS0">     11.92605000</i>
   <i name="MODEL_ALPHA">      1.00000000</i>
  </separator>
  <separator name="linear response parameters" >
   <i type="logical" name="LEPSILON"> F  </i>
   <i type="logical" name="LRPA"> F  </i>
   <i type="logical" name="LNABLA"> F  </i>
   <i type="logical" name="LVEL"> F  </i>
   <i type="int" name="KINTER">     0</i>
   <i name="CSHIFT">      0.10000000</i>
   <i name="OMEGAMAX">     -1.00000000</i>
   <i name="DEG_THRESHOLD">      0.00200000</i>
   <i name="RTIME">     -0.10000000</i>
   <i name="WPLASMAI">      0.00000000</i>
   <v name="DFIELD">      0.00000000      0.00000000      0.00000000</v>
   <v name="WPLASMA">      0.00000000      0.00000000      0.00000000      0.00000000      0.00000000      0.00000000      0.00000000      0.00000000      0.00000000</v>
  </separator>
  <separator name="orbital magnetization" >
   <i type="logical" name="NUCIND"> F  </i>
   <v name="MAGPOS">      0.00000000      0.00000000      0.00000000</v>
   <i type="logical" name="LNICSALL"> T  </i>
   <i type="logical" name="ORBITALMAG"> F  </i>
   <i type="logical" name="LMAGBLOCH"> F  </i>
   <i type="logical" name="LCHIMAG"> F  </i>
   <i type="logical" name="LGAUGE"> T  </i>
   <i type="int" name="MAGATOM">     0</i>
   <v name="MAGDIPOL">      0.00000000      0.00000000      0.00000000</v>
   <v name="AVECCONST">      0.00000000      0.00000000      0.00000000</v>
  </separator>
  <separator name="response functions" >
   <i type="logical" name="LADDER"> F  </i>
   <i type="logical" name="LRPAFORCE"> F  </i>
   <i type="logical" name="LFXC"> F  </i>
   <i type="logical" name="LHARTREE"> T  </i>
   <i type="int" name="IBSE">     0</i>
   <v type="int" name="KPOINT">    -1     0     0     0</v>
   <i type="logical" name="LTCTE"> F  </i>
   <i type="logical" name="LTETE"> F  </i>
   <i type="logical" name="LTRIPLET"> F  </i>
   <i type="logical" name="LFXCEPS"> F  </i>
   <i type="logical" name="LFXHEG"> F  </i>
   <i type="int" name="NATURALO">     2</i>
   <i type="logical" name="L2ORDER"> F  </i>
   <i type="logical" name="LMP2LT"> F  </i>
   <i type="logical" name="LUSEW"> F  </i>
   <i name="ENCUTGW">     -2.00000000</i>
   <i name="ENCUTGWSOFT">     -2.00000000</i>
   <i name="ENCUTLF">     -1.00000000</i>
   <i type="int" name="LMAXMP2">    -1</i>
   <i name="SCISSOR">      0.00000000</i>
   <i type="int" name="NOMEGA">     0</i>
   <i type="int" name="NOMEGAR">     0</i>
   <i type="int" name="NBANDSGW">    -1</i>
   <i type="int" name="NBANDSO">    -1</i>
   <i type="int" name="NBANDSV">    -1</i>
   <i type="int" name="NELM">     1</i>
   <i type="int" name="NELMHF">     1</i>
   <i type="int" name="DIM">     3</i>
   <i type="int" name="ANTIRES">     0</i>
   <i name="OMEGAMAX">    -30.00000000</i>
   <i name="OMEGAMIN">    -30.00000000</i>
   <i name="OMEGATL">   -200.00000000</i>
   <i type="int" name="OMEGAGRID">   140</i>
   <i name="CSHIFT">     -0.10000000</i>
   <i type="logical" name="SELFENERGY"> F  </i>
   <i type="logical" name="LSPECTRAL"> F  </i>
   <i type="logical" name="LSPECTRALGW"> F  </i>
   <i type="logical" name="LSINGLES"> F  </i>
   <i type="logical" name="LFERMIGW"> F  </i>
   <i type="logical" name="ODDONLYGW"> F  </i>
   <i type="logical" name="EVENONLYGW"> F  </i>
   <i type="int" name="NKREDLFX">     1</i>
   <i type="int" name="NKREDLFY">     1</i>
   <i type="int" name="NKREDLFZ">     1</i>
   <i type="int" name="MAXMEM">  2800</i>
   <i type="int" name="TELESCOPE">     0</i>
   <i type="int" name="TAUPAR">     1</i>
   <i type="int" name="OMEGAPAR">    -1</i>
   <i name="LAMBDA">      1.00000000</i>
  </separator>
  <separator name="External order field" >
   <i name="OFIELD_KAPPA">      0.00000000</i>
   <v name="OFIELD_K">      0.00000000      0.00000000      0.00000000</v>
   <i name="OFIELD_Q6_NEAR">      0.00000000</i>
   <i name="OFIELD_Q6_FAR">      0.00000000</i>
   <i name="OFIELD_A">      0.00000000</i>
  </separator>
 </parameters>
 <atominfo>
  <atoms>       1 </atoms>
  <types>       1 </types>
  <array name="atoms" >
   <dimension dim="1">ion</dimension>
   <field type="string">element</field>
   <field type="int">atomtype</field>
   <set>
    <rc><c>Au</c><c>   1</c></rc>
   </set>
  </array>
  <array name="atomtypes" >
   <dimension dim="1">type</dimension>
   <field type="int">atomspertype</field>
   <field type="string">element</field>
   <field>mass</field>
   <field>valence</field>
   <field type="string">pseudopotential</field>
   <set>
    <rc><c>   1</c><c>Au</c><c>    196.96600000</c><c>     11.00000000</c><c> PAW Au 04Feb1998                       </c></rc>
   </set>
  </array>
 </atominfo>
 <structure name="initialpos" >
  <crystal>
   <varray name="basis" >
    <v>       0.00000000       2.15000000       2.15000000 </v>
    <v>       2.15000000       0.00000000       2.15000000 </v>
    <v>       2.15000000       2.15000000       0.00000000 </v>
   </varray>
   <i name="volume">     19.87675000 </i>
   <varray name="rec_basis" >
    <v>      -0.23255814       0.23255814       0.23255814 </v>
    <v>       0.23255814      -0.23255814       0.23255814 </v>
    <v>       0.23255814       0.23255814      -0.23255814 </v>
   </varray>
  </crystal>
  <varray name="positions" >
   <v>       0.00000000       0.00000000       0.00000000 </v>
  </varray>
 </structure>
 <calculation>
  <scstep>
   <time name="dav">    0.25    0.50</time>
   <time name="total">    0.26    0.52</time>
   <energy>
    <i name="alphaZ">     92.46377501 </i>
    <i name="ewald">   -928.90065159 </i>
    <i name="hartreedc">    -90.76209371 </i>
    <i name="XCdc">     13.42579278 </i>
    <i name="pawpsdc">    695.16550710 </i>
    <i name="pawaedc">   -676.48268312 </i>
    <i name="eentropy">     -0.00073869 </i>
    <i name="bandstr">    -46.63075800 </i>
    <i name="atom">    929.39633208 </i>
    <i name="e_fr_energy">    -12.32551814 </i>
    <i name="e_wo_entrp">    -12.32477945 </i>
    <i name="e_0_energy">    -12.32527191 </i>
   </energy>
  </scstep>
  <scstep>
   <time name="dav">    0.25    0.50</time>
   <time name="total">    0.25    0.51</time>
   <energy>
    <i name="e_fr_energy">     -4.50176920 </i>
    <i name="e_wo_entrp">     -4.50201365 </i>
    <i name="e_0_energy">     -4.50185068 </i>
   </energy>
  </scstep>
  <scstep>
   <time name="dav">    0.26    0.53</time>
   <time name="total">    0.27    0.54</time>
   <energy>
    <i name="e_fr_energy">     -4.16060531 </i>
    <i name="e_wo_entrp">     -4.16148414 </i>
    <i name="e_0_energy">     -4.16089825 </i>
   </energy>
  </scstep>
  <scstep>
   <time name="dav">    0.25    0.49</time>
   <time name="total">    0.25    0.52</time>
   <energy>
    <i name="e_fr_energy">     -4.15709058 </i>
    <i name="e_wo_entrp">     -4.15793101 </i>
    <i name="e_0_energy">     -4.15737072 </i>
   </energy>
  </scstep>
  <scstep>
   <time name="dav">    0.27    0.54</time>
   <time name="total">    0.28    0.56</time>
   <energy>
    <i name="e_fr_energy">     -4.15740241 </i>
    <i name="e_wo_entrp">     -4.15823703 </i>
    <i name="e_0_energy">     -4.15768062 </i>
   </energy>
  </scstep>
  <scstep>
   <time name="dav">    0.19    0.39</time>
   <time name="total">    0.19    0.39</time>
   <energy>
    <i name="alphaZ">     92.46377501 </i>
    <i name="ewald">   -928.90065159 </i>
    <i name="hartreedc">   -132.10976343 </i>
    <i name="XCdc">     15.31051574 </i>
    <i name="pawpsdc">    733.80855458 </i>
    <i name="pawaedc">   -715.11790969 </i>
    <i name="eentropy">      0.00083162 </i>
    <i name="bandstr">      0.99086448 </i>
    <i name="atom">    929.39633208 </i>
    <i name="e_fr_energy">     -4.15745121 </i>
    <i name="e_wo_entrp">     -4.15828283 </i>
    <i name="e_0_energy">     -4.15772842 </i>
   </energy>
  </scstep>
  <structure>
   <crystal>
    <varray name="basis" >
     <v>       0.00000000       2.15000000       2.15000000 </v>
     <v>       2.15000000       0.00000000       2.15000000 </v>
     <v>       2.15000000       2.15000000       0.00000000 </v>
    </varray>
    <i name="volume">     19.87675000 </i>
    <varray name="rec_basis" >
     <v>      -0.23255814       0.23255814       0.23255814 </v>
     <v>       0.23255814      -0.23255814       0.23255814 </v>
     <v>       0.23255814       0.23255814      -0.23255814 </v>
    </varray>
   </crystal>
   <varray name="positions" >
    <v>       0.00000000       0.00000000       0.00000000 </v>
   </varray>
  </structure>
  <varray name="forces" >
   <v>       0.00000000       0.00000000       0.00000000 </v>
  </varray>
  <varray name="stress" >
   <v>    -229.44631003      -0.00000000       0.00000000 </v>
   <v>      -0.00000000    -229.44631003      -0.00000000 </v>
   <v>       0.00000000      -0.00000000    -229.44631003 </v>
  </varray>
  <energy>
   <i name="e_fr_energy">     -4.15745121 </i>
   <i name="e_wo_entrp">     -4.15772842 </i>
   <i name="e_0_energy">      0.00083162 </i>
  </energy>
  <time name="totalsc">    1.73    3.55</time>
  <eigenvalues>
   <array>
    <dimension dim="1">band</dimension>
    <dimension dim="2">kpoint</dimension>
    <dimension dim="3">spin</dimension>
    <field>eigene</field>
    <field>occ</field>
    <set>
     <set comment="spin 1">
      <set comment="kpoint 1">
       <r>   -4.6507    1.0000 </r>
       <r>   -0.2973    1.0000 </r>
       <r>   -0.2523    1.0000 </r>
       <r>   -0.2523    1.0000 </r>
       <r>    0.8867    1.0000 </r>
       <r>    0.8867    1.0000 </r>
       <r>   18.9606    0.0000 </r>
       <r>   21.1334    0.0000 </r>
       <r>   21.8498    0.0000 </r>
       <r>   21.8498    0.0000 </r>
       <r>   26.3424    0.0000 </r>
       <r>   28.3658    0.0000 </r>
      </set>
      <set comment="kpoint 2">
       <r>   -4.2543    1.0000 </r>
       <r>   -0.4068    1.0000 </r>
       <r>   -0.1443    1.0000 </r>
       <r>   -0.1176    1.0000 </r>
       <r>    0.7835    1.0000 </r>
       <r>    0.9290    1.0000 </r>
       <r>   18.7247    0.0000 </r>
       <r>   19.4798    0.0000 </r>
       <r>   21.3018    0.0000 </r>
       <r>   22.6080    0.0000 </r>
       <r>   25.3396    0.0000 </r>
       <r>   27.8407    0.0000 </r>
      </set>
      <set comment="kpoint 3">
       <r>   -3.3840    1.0000 </r>
       <r>   -0.4783    1.0000 </r>
       <r>   -0.0209    1.0000 </r>
       <r>   -0.0075    1.0000 </r>
       <r>    0.7975    1.0000 </r>
       <r>    1.1009    1.0000 </r>
       <r>   15.1951    0.0000 </r>
       <r>   19.4008    0.0000 </r>
       <r>   21.1934    0.0000 </r>
       <r>   23.2204    0.0000 </r>
       <r>   23.9282    0.0000 </r>
       <r>   25.8085    0.0000 </r>
      </set>
      <set comment="kpoint 4">
       <r>   -2.5717    1.0000 </r>
       <r>   -0.1530    1.0000 </r>
       <r>   -0.0925    1.0000 </r>
       <r>    0.1124    1.0000 </r>
       <r>    1.1695    1.0000 </r>
       <r>    1.5474    1.0000 </r>
       <r>   11.3446    0.0000 </r>
       <r>   18.8818    0.0000 </r>
       <r>   20.2011    0.0000 </r>
       <r>   21.9840    0.0000 </r>
       <r>   24.9255    0.0000 </r>
       <r>   25.7359    0.0000 </r>
      </set>
      <set comment="kpoint 5">
       <r>   -2.3463    1.0000 </r>
       <r>   -0.2716    1.0000 </r>
       <r>   -0.2195    1.0000 </r>
       <r>    1.3386    1.0000 </r>
       <r>    1.6142    1.0000 </r>
       <r>    2.4517    1.0000 </r>
       <r>    7.7919   -0.0000 </r>
       <r>   18.3488    0.0000 </r>
       <r>   19.4095    0.0000 </r>
       <r>   20.3851    0.0000 </r>
       <r>   26.1907    0.0000 </r>
       <r>   26.2821    0.0000 </r>
      </set>
      <set comment="kpoint 6">
       <r>   -2.3350    1.0000 </r>
       <r>   -0.3217    1.0000 </r>
       <r>   -0.2495    1.0000 </r>
       <r>    1.5571    1.0000 </r>
       <r>    1.8259    1.0000 </r>
       <r>    3.5615    0.7355 </r>
       <r>    6.0857   -0.0000 </r>
       <r>   18.2219    0.0000 </r>
       <r>   19.4590    0.0000 </r>
       <r>   19.5985    0.0000 </r>
       <r>   26.4910    0.0000 </r>
       <r>   26.5359    0.0000 </r>
      </set>
      <set comment="kpoint 7">
       <r>   -2.3768    1.0000 </r>
       <r>   -0.2486    1.0000 </r>
       <r>   -0.1659    1.0000 </r>
       <r>    0.9022    1.0000 </r>
       <r>    1.6745    1.0000 </r>
       <r>    1.9048    1.0000 </r>
       <r>    8.9070   -0.0000 </r>
       <r>   18.5968    0.0000 </r>
       <r>   19.7545    0.0000 </r>
       <r>   20.4652    0.0000 </r>
       <r>   26.1307    0.0000 </r>
       <r>   26.4307    0.0000 </r>
      </set>
      <set comment="kpoint 8">
       <r>   -2.7823    1.0000 </r>
       <r>   -0.2571    1.0000 </r>
       <r>   -0.0695    1.0000 </r>
       <r>   -0.0353    1.0000 </r>
       <r>    1.1105    1.0000 </r>
       <r>    1.2983    1.0000 </r>
       <r>   12.6171    0.0000 </r>
       <r>   19.3167    0.0000 </r>
       <r>   20.4837    0.0000 </r>
       <r>   22.1037    0.0000 </r>
       <r>   24.6016    0.0000 </r>
       <r>   26.4075    0.0000 </r>
      </set>
      <set comment="kpoint 9">
       <r>   -3.7065    1.0000 </r>
       <r>   -0.4953    1.0000 </r>
       <r>   -0.0293    1.0000 </r>
       <r>   -0.0208    1.0000 </r>
       <r>    0.7635    1.0000 </r>
       <r>    1.0037    1.0000 </r>
       <r>   16.4735    0.0000 </r>
       <r>   19.6850    0.0000 </r>
       <r>   21.1156    0.0000 </r>
       <r>   22.9028    0.0000 </r>
       <r>   24.1372    0.0000 </r>
       <r>   26.8921    0.0000 </r>
      </set>
      <set comment="kpoint 10">
       <r>   -4.4494    1.0000 </r>
       <r>   -0.3763    1.0000 </r>
       <r>   -0.1773    1.0000 </r>
       <r>   -0.1735    1.0000 </r>
       <r>    0.7999    1.0000 </r>
       <r>    0.9307    1.0000 </r>
       <r>   19.0695    0.0000 </r>
       <r>   20.2495    0.0000 </r>
       <r>   21.4304    0.0000 </r>
       <r>   21.8995    0.0000 </r>
       <r>   26.4276    0.0000 </r>
       <r>   27.8204    0.0000 </r>
      </set>
      <set comment="kpoint 11">
       <r>   -4.0571    1.0000 </r>
       <r>   -0.5369    1.0000 </r>
       <r>   -0.0212    1.0000 </r>
       <r>   -0.0179    1.0000 </r>
       <r>    0.6400    1.0000 </r>
       <r>    1.0152    1.0000 </r>
       <r>   18.9587    0.0000 </r>
       <r>   19.6232    0.0000 </r>
       <r>   20.5710    0.0000 </r>
       <r>   21.4195    0.0000 </r>
       <r>   25.1022    0.0000 </r>
       <r>   27.5350    0.0000 </r>
      </set>
      <set comment="kpoint 12">
       <r>   -3.3364    1.0000 </r>
       <r>   -0.7195    1.0000 </r>
       <r>    0.0614    1.0000 </r>
       <r>    0.1971    1.0000 </r>
       <r>    0.6099    1.0000 </r>
       <r>    1.1889    1.0000 </r>
       <r>   16.6832    0.0000 </r>
       <r>   18.4821    0.0000 </r>
       <r>   20.6648    0.0000 </r>
       <r>   21.7951    0.0000 </r>
       <r>   23.0722    0.0000 </r>
       <r>   26.8318    0.0000 </r>
      </set>
      <set comment="kpoint 13">
       <r>   -2.4298    1.0000 </r>
       <r>   -0.6322    1.0000 </r>
       <r>   -0.1600    1.0000 </r>
       <r>    0.2081    1.0000 </r>
       <r>    1.1269    1.0000 </r>
       <r>    1.6546    1.0000 </r>
       <r>   12.8352    0.0000 </r>
       <r>   17.8720    0.0000 </r>
       <r>   19.6981    0.0000 </r>
       <r>   21.0070    0.0000 </r>
       <r>   24.6075    0.0000 </r>
       <r>   26.5701    0.0000 </r>
      </set>
      <set comment="kpoint 14">
       <r>   -2.0607    1.0000 </r>
       <r>   -0.3875    1.0000 </r>
       <r>    0.0393    1.0000 </r>
       <r>    0.1917    1.0000 </r>
       <r>    1.6742    1.0000 </r>
       <r>    2.7232    1.0000 </r>
       <r>    9.1361    0.0000 </r>
       <r>   17.5515    0.0000 </r>
       <r>   18.3192    0.0000 </r>
       <r>   20.0112    0.0000 </r>
       <r>   26.4303    0.0000 </r>
       <r>   27.3127    0.0000 </r>
      </set>
      <set comment="kpoint 15">
       <r>   -2.0319    1.0000 </r>
       <r>   -0.4852    1.0000 </r>
       <r>   -0.0178    1.0000 </r>
       <r>    0.7960    1.0000 </r>
       <r>    1.7896    1.0000 </r>
       <r>    4.6520   -0.0000 </r>
       <r>    6.1376   -0.0000 </r>
       <r>   17.2031    0.0000 </r>
       <r>   17.8421    0.0000 </r>
       <r>   19.5858    0.0000 </r>
       <r>   26.5504    0.0000 </r>
       <r>   27.7394    0.0000 </r>
      </set>
      <set comment="kpoint 16">
       <r>   -2.0243    1.0000 </r>
       <r>   -0.4266    1.0000 </r>
       <r>    0.0021    1.0000 </r>
       <r>    0.5570    1.0000 </r>
       <r>    1.5614    1.0000 </r>
       <r>    3.3548    1.0341 </r>
       <r>    8.0619   -0.0000 </r>
       <r>   16.7159    0.0000 </r>
       <r>   18.6232    0.0000 </r>
       <r>   20.1947    0.0000 </r>
       <r>   26.0186    0.0000 </r>
       <r>   27.3239    0.0000 </r>
      </set>
      <set comment="kpoint 17">
       <r>   -2.2099    1.0000 </r>
       <r>   -0.4133    1.0000 </r>
       <r>   -0.1737    1.0000 </r>
       <r>    0.1463    1.0000 </r>
       <r>    1.0475    1.0000 </r>
       <r>    2.0982    1.0000 </r>
       <r>   11.5884    0.0000 </r>
       <r>   16.8581    0.0000 </r>
       <r>   19.7620    0.0000 </r>
       <r>   21.7836    0.0000 </r>
       <r>   24.6055    0.0000 </r>
       <r>   26.5017    0.0000 </r>
      </set>
      <set comment="kpoint 18">
       <r>   -3.0222    1.0000 </r>
       <r>   -0.6811    1.0000 </r>
       <r>   -0.0145    1.0000 </r>
       <r>    0.2138    1.0000 </r>
       <r>    0.6046    1.0000 </r>
       <r>    1.3966    1.0000 </r>
       <r>   15.3260    0.0000 </r>
       <r>   17.4513    0.0000 </r>
       <r>   21.2979    0.0000 </r>
       <r>   22.2004    0.0000 </r>
       <r>   24.2187    0.0000 </r>
       <r>   25.6271    0.0000 </r>
      </set>
      <set comment="kpoint 19">
       <r>   -3.8744    1.0000 </r>
       <r>   -0.5300    1.0000 </r>
       <r>   -0.0172    1.0000 </r>
       <r>   -0.0121    1.0000 </r>
       <r>    0.6711    1.0000 </r>
       <r>    1.0278    1.0000 </r>
       <r>   17.7579    0.0000 </r>
       <r>   19.1275    0.0000 </r>
       <r>   20.9489    0.0000 </r>
       <r>   22.6450    0.0000 </r>
       <r>   24.3939    0.0000 </r>
       <r>   27.0073    0.0000 </r>
      </set>
      <set comment="kpoint 20">
       <r>   -2.8466    1.0000 </r>
       <r>   -0.9935    1.0000 </r>
       <r>    0.1911    1.0000 </r>
       <r>    0.4917    1.0000 </r>
       <r>    0.6471    1.0000 </r>
       <r>    1.2784    1.0000 </r>
       <r>   17.0212    0.0000 </r>
       <r>   18.0463    0.0000 </r>
       <r>   19.6602    0.0000 </r>
       <r>   20.0206    0.0000 </r>
       <r>   20.6398    0.0000 </r>
       <r>   28.5557    0.0000 </r>
      </set>
      <set comment="kpoint 21">
       <r>   -2.1242    1.0000 </r>
       <r>   -1.1636    1.0000 </r>
       <r>    0.0034    1.0000 </r>
       <r>    0.7619    1.0000 </r>
       <r>    1.1650    1.0000 </r>
       <r>    1.6684    1.0000 </r>
       <r>   14.4282    0.0000 </r>
       <r>   16.2951    0.0000 </r>
       <r>   17.8624    0.0000 </r>
       <r>   20.3732    0.0000 </r>
       <r>   21.7946    0.0000 </r>
       <r>   28.4722    0.0000 </r>
      </set>
      <set comment="kpoint 22">
       <r>   -1.7001    1.0000 </r>
       <r>   -0.9383    1.0000 </r>
       <r>   -0.1807    1.0000 </r>
       <r>    0.6638    1.0000 </r>
       <r>    1.7364    1.0000 </r>
       <r>    2.9353    1.0000 </r>
       <r>   10.7239    0.0000 </r>
       <r>   15.5881    0.0000 </r>
       <r>   16.3135    0.0000 </r>
       <r>   20.2027    0.0000 </r>
       <r>   24.6751    0.0000 </r>
       <r>   28.1581    0.0000 </r>
      </set>
      <set comment="kpoint 23">
       <r>   -1.6026    1.0000 </r>
       <r>   -0.7262    1.0000 </r>
       <r>    0.0000    1.0000 </r>
       <r>    0.5146    1.0000 </r>
       <r>    1.8171    1.0000 </r>
       <r>    5.0938   -0.0000 </r>
       <r>    7.4827   -0.0000 </r>
       <r>   14.3783    0.0000 </r>
       <r>   16.3790    0.0000 </r>
       <r>   20.0175    0.0000 </r>
       <r>   27.2593    0.0000 </r>
       <r>   28.3071    0.0000 </r>
      </set>
      <set comment="kpoint 24">
       <r>   -1.4719    1.0000 </r>
       <r>   -0.6830    1.0000 </r>
       <r>    0.0370    1.0000 </r>
       <r>    0.4342    1.0000 </r>
       <r>    1.5235    1.0000 </r>
       <r>    4.9482   -0.0000 </r>
       <r>    7.8894   -0.0000 </r>
       <r>   13.4142    0.0000 </r>
       <r>   17.4676    0.0000 </r>
       <r>   20.2209    0.0000 </r>
       <r>   26.6200    0.0000 </r>
       <r>   28.8027    0.0000 </r>
      </set>
      <set comment="kpoint 25">
       <r>   -1.4192    1.0000 </r>
       <r>   -0.6407    1.0000 </r>
       <r>   -0.4105    1.0000 </r>
       <r>    0.4991    1.0000 </r>
       <r>    1.0100    1.0000 </r>
       <r>    3.2824    1.0191 </r>
       <r>   10.9891    0.0000 </r>
       <r>   13.3115    0.0000 </r>
       <r>   18.8694    0.0000 </r>
       <r>   21.2088    0.0000 </r>
       <r>   24.9109    0.0000 </r>
       <r>   28.4498    0.0000 </r>
      </set>
      <set comment="kpoint 26">
       <r>   -2.0945    1.0000 </r>
       <r>   -0.7323    1.0000 </r>
       <r>   -0.2060    1.0000 </r>
       <r>    0.3972    1.0000 </r>
       <r>    0.7118    1.0000 </r>
       <r>    2.1593    1.0000 </r>
       <r>   12.9632    0.0000 </r>
       <r>   15.3702    0.0000 </r>
       <r>   20.1036    0.0000 </r>
       <r>   22.5650    0.0000 </r>
       <r>   23.5595    0.0000 </r>
       <r>   26.8954    0.0000 </r>
      </set>
      <set comment="kpoint 27">
       <r>   -2.9384    1.0000 </r>
       <r>   -0.5314    1.0000 </r>
       <r>   -0.0363    1.0000 </r>
       <r>    0.0686    1.0000 </r>
       <r>    0.8526    1.0000 </r>
       <r>    1.3420    1.0000 </r>
       <r>   13.9824    0.0000 </r>
       <r>   18.7705    0.0000 </r>
       <r>   20.5395    0.0000 </r>
       <r>   22.6270    0.0000 </r>
       <r>   24.0439    0.0000 </r>
       <r>   25.8663    0.0000 </r>
      </set>
      <set comment="kpoint 28">
       <r>   -1.9609    1.0000 </r>
       <r>   -1.4587    1.0000 </r>
       <r>    0.7422    1.0000 </r>
       <r>    1.1616    1.0000 </r>
       <r>    1.5626    1.0000 </r>
       <r>    1.5921    1.0000 </r>
       <r>   14.2535    0.0000 </r>
       <r>   15.5189    0.0000 </r>
       <r>   15.5308    0.0000 </r>
       <r>   19.3573    0.0000 </r>
       <r>   21.1303    0.0000 </r>
       <r>   30.8467    0.0000 </r>
      </set>
      <set comment="kpoint 29">
       <r>   -1.8153    1.0000 </r>
       <r>   -1.5413    1.0000 </r>
       <r>    0.7568    1.0000 </r>
       <r>    1.3936    1.0000 </r>
       <r>    1.7455    1.0000 </r>
       <r>    3.0535    1.0002 </r>
       <r>   11.6910    0.0000 </r>
       <r>   13.8772    0.0000 </r>
       <r>   14.5399    0.0000 </r>
       <r>   20.1910    0.0000 </r>
       <r>   21.9796    0.0000 </r>
       <r>   30.2921    0.0000 </r>
      </set>
      <set comment="kpoint 30">
       <r>   -1.6792    1.0000 </r>
       <r>   -1.2796    1.0000 </r>
       <r>    0.4782    1.0000 </r>
       <r>    1.1640    1.0000 </r>
       <r>    1.8922    1.0000 </r>
       <r>    5.3217   -0.0000 </r>
       <r>    8.9379   -0.0000 </r>
       <r>   12.1041    0.0000 </r>
       <r>   14.6746    0.0000 </r>
       <r>   20.4591    0.0000 </r>
       <r>   24.5014    0.0000 </r>
       <r>   29.3164    0.0000 </r>
      </set>
      <set comment="kpoint 31">
       <r>   -1.4549    1.0000 </r>
       <r>   -0.8631    1.0000 </r>
       <r>    0.0531    1.0000 </r>
       <r>    0.9149    1.0000 </r>
       <r>    1.6524    1.0000 </r>
       <r>    6.3465   -0.0000 </r>
       <r>    8.4507   -0.0000 </r>
       <r>   10.5509    0.0000 </r>
       <r>   15.7857    0.0000 </r>
       <r>   20.4256    0.0000 </r>
       <r>   27.6522    0.0000 </r>
       <r>   28.2010    0.0000 </r>
      </set>
      <set comment="kpoint 32">
       <r>   -1.2486    1.0000 </r>
       <r>   -0.6329    1.0000 </r>
       <r>   -0.3268    1.0000 </r>
       <r>    0.6448    1.0000 </r>
       <r>    1.3448    1.0000 </r>
       <r>    4.7555   -0.0000 </r>
       <r>    9.5836    0.0000 </r>
       <r>   11.5235    0.0000 </r>
       <r>   17.3980    0.0000 </r>
       <r>   20.4860    0.0000 </r>
       <r>   26.5647    0.0000 </r>
       <r>   29.1311    0.0000 </r>
      </set>
      <set comment="kpoint 33">
       <r>   -1.7334    1.0000 </r>
       <r>   -0.4992    1.0000 </r>
       <r>   -0.0560    1.0000 </r>
       <r>    0.2674    1.0000 </r>
       <r>    1.2844    1.0000 </r>
       <r>    3.3037    1.0240 </r>
       <r>    9.5047    0.0000 </r>
       <r>   14.9647    0.0000 </r>
       <r>   18.7721    0.0000 </r>
       <r>   20.7527    0.0000 </r>
       <r>   25.4229    0.0000 </r>
       <r>   27.8270    0.0000 </r>
      </set>
      <set comment="kpoint 34">
       <r>   -2.3247    1.0000 </r>
       <r>   -0.2444    1.0000 </r>
       <r>   -0.0553    1.0000 </r>
       <r>    0.2428    1.0000 </r>
       <r>    1.3941    1.0000 </r>
       <r>    1.9787    1.0000 </r>
       <r>   10.1833    0.0000 </r>
       <r>   18.3022    0.0000 </r>
       <r>   19.4032    0.0000 </r>
       <r>   21.0305    0.0000 </r>
       <r>   25.6443    0.0000 </r>
       <r>   26.2577    0.0000 </r>
      </set>
      <set comment="kpoint 35">
       <r>   -2.0148    1.0000 </r>
       <r>   -1.7696    1.0000 </r>
       <r>    1.6618    1.0000 </r>
       <r>    1.7135    1.0000 </r>
       <r>    1.9157    1.0000 </r>
       <r>    3.7189    0.1326 </r>
       <r>   10.1765    0.0000 </r>
       <r>   13.4596    0.0000 </r>
       <r>   13.8078    0.0000 </r>
       <r>   19.4708    0.0000 </r>
       <r>   21.5449    0.0000 </r>
       <r>   31.6866    0.0000 </r>
      </set>
      <set comment="kpoint 36">
       <r>   -1.9499    1.0000 </r>
       <r>   -1.7290    1.0000 </r>
       <r>    1.4407    1.0000 </r>
       <r>    1.6349    1.0000 </r>
       <r>    2.0265    1.0000 </r>
       <r>    5.5605   -0.0000 </r>
       <r>    8.4219   -0.0000 </r>
       <r>   12.4663    0.0000 </r>
       <r>   13.4083    0.0000 </r>
       <r>   20.2982    0.0000 </r>
       <r>   22.1278    0.0000 </r>
       <r>   30.8703    0.0000 </r>
      </set>
      <set comment="kpoint 37">
       <r>   -1.7169    1.0000 </r>
       <r>   -1.3529    1.0000 </r>
       <r>    0.7034    1.0000 </r>
       <r>    1.2879    1.0000 </r>
       <r>    1.8898    1.0000 </r>
       <r>    6.6972   -0.0000 </r>
       <r>    7.9947   -0.0000 </r>
       <r>   10.9942    0.0000 </r>
       <r>   14.3757    0.0000 </r>
       <r>   20.5598    0.0000 </r>
       <r>   24.4726    0.0000 </r>
       <r>   29.5850    0.0000 </r>
      </set>
      <set comment="kpoint 38">
       <r>   -1.4884    1.0000 </r>
       <r>   -0.8281    1.0000 </r>
       <r>    0.0187    1.0000 </r>
       <r>    0.7458    1.0000 </r>
       <r>    1.7434    1.0000 </r>
       <r>    6.2718   -0.0000 </r>
       <r>    7.2426   -0.0000 </r>
       <r>   12.3901    0.0000 </r>
       <r>   15.9808    0.0000 </r>
       <r>   20.2606    0.0000 </r>
       <r>   27.5130    0.0000 </r>
       <r>   28.2099    0.0000 </r>
      </set>
      <set comment="kpoint 39">
       <r>   -1.7670    1.0000 </r>
       <r>   -0.6074    1.0000 </r>
       <r>    0.1882    1.0000 </r>
       <r>    0.4260    1.0000 </r>
       <r>    1.6982    1.0000 </r>
       <r>    5.2552   -0.0000 </r>
       <r>    6.3878   -0.0000 </r>
       <r>   15.3466    0.0000 </r>
       <r>   17.6139    0.0000 </r>
       <r>   19.8471    0.0000 </r>
       <r>   26.6327    0.0000 </r>
       <r>   28.3247    0.0000 </r>
      </set>
      <set comment="kpoint 40">
       <r>   -2.2299    1.0000 </r>
       <r>   -0.3633    1.0000 </r>
       <r>   -0.1594    1.0000 </r>
       <r>    1.1316    1.0000 </r>
       <r>    1.7598    1.0000 </r>
       <r>    3.4465    1.0052 </r>
       <r>    6.8529   -0.0000 </r>
       <r>   18.1025    0.0000 </r>
       <r>   18.6752    0.0000 </r>
       <r>   19.7565    0.0000 </r>
       <r>   26.3967    0.0000 </r>
       <r>   26.9390    0.0000 </r>
      </set>
      <set comment="kpoint 41">
       <r>   -2.0692    1.0000 </r>
       <r>   -1.8362    1.0000 </r>
       <r>    1.7465    1.0000 </r>
       <r>    1.9105    1.0000 </r>
       <r>    2.0365    1.0000 </r>
       <r>    4.9851   -0.0000 </r>
       <r>    8.5423   -0.0000 </r>
       <r>   13.0586    0.0000 </r>
       <r>   13.4254    0.0000 </r>
       <r>   19.5443    0.0000 </r>
       <r>   21.6346    0.0000 </r>
       <r>   31.5472    0.0000 </r>
      </set>
      <set comment="kpoint 42">
       <r>   -1.8928    1.0000 </r>
       <r>   -1.6649    1.0000 </r>
       <r>    1.1718    1.0000 </r>
       <r>    1.5942    1.0000 </r>
       <r>    1.9099    1.0000 </r>
       <r>    4.2795   -0.0000 </r>
       <r>    9.9801    0.0000 </r>
       <r>   12.9302    0.0000 </r>
       <r>   13.7835    0.0000 </r>
       <r>   20.2416    0.0000 </r>
       <r>   22.0751    0.0000 </r>
       <r>   30.7413    0.0000 </r>
      </set>
      <set comment="kpoint 43">
       <r>   -1.6440    1.0000 </r>
       <r>   -1.1337    1.0000 </r>
       <r>    0.1353    1.0000 </r>
       <r>    0.9336    1.0000 </r>
       <r>    1.8552    1.0000 </r>
       <r>    4.0258   -0.0072 </r>
       <r>    9.7933    0.0000 </r>
       <r>   13.8208    0.0000 </r>
       <r>   15.2736    0.0000 </r>
       <r>   20.3075    0.0000 </r>
       <r>   24.5685    0.0000 </r>
       <r>   28.8180    0.0000 </r>
      </set>
      <set comment="kpoint 44">
       <r>   -1.8067    1.0000 </r>
       <r>   -0.5627    1.0000 </r>
       <r>    0.0304    1.0000 </r>
       <r>    0.2928    1.0000 </r>
       <r>    1.8077    1.0000 </r>
       <r>    3.8023   -0.0134 </r>
       <r>    8.2186   -0.0000 </r>
       <r>   16.3262    0.0000 </r>
       <r>   17.0156    0.0000 </r>
       <r>   19.8422    0.0000 </r>
       <r>   26.9031    0.0000 </r>
       <r>   28.2944    0.0000 </r>
      </set>
      <set comment="kpoint 45">
       <r>   -1.9424    1.0000 </r>
       <r>   -1.6410    1.0000 </r>
       <r>    1.3247    1.0000 </r>
       <r>    1.4639    1.0000 </r>
       <r>    1.7491    1.0000 </r>
       <r>    2.4426    1.0000 </r>
       <r>   12.2293    0.0000 </r>
       <r>   14.2451    0.0000 </r>
       <r>   14.5309    0.0000 </r>
       <r>   19.3885    0.0000 </r>
       <r>   21.3702    0.0000 </r>
       <r>   31.7070    0.0000 </r>
      </set>
      <set comment="kpoint 46">
       <r>   -1.8281    1.0000 </r>
       <r>   -1.3694    1.0000 </r>
       <r>    0.2850    1.0000 </r>
       <r>    1.0881    1.0000 </r>
       <r>    1.5204    1.0000 </r>
       <r>    2.1615    1.0000 </r>
       <r>   13.1714    0.0000 </r>
       <r>   15.1109    0.0000 </r>
       <r>   15.8807    0.0000 </r>
       <r>   20.2134    0.0000 </r>
       <r>   21.8629    0.0000 </r>
       <r>   29.4657    0.0000 </r>
      </set>
      <set comment="kpoint 47">
       <r>   -1.9683    1.0000 </r>
       <r>   -0.7584    1.0000 </r>
       <r>   -0.2812    1.0000 </r>
       <r>    0.4114    1.0000 </r>
       <r>    1.4935    1.0000 </r>
       <r>    2.1332    1.0000 </r>
       <r>   11.7447    0.0000 </r>
       <r>   16.8130    0.0000 </r>
       <r>   18.1073    0.0000 </r>
       <r>   20.2872    0.0000 </r>
       <r>   24.7554    0.0000 </r>
       <r>   27.3904    0.0000 </r>
      </set>
      <set comment="kpoint 48">
       <r>   -2.2571    1.0000 </r>
       <r>   -1.2368    1.0000 </r>
       <r>    0.2832    1.0000 </r>
       <r>    0.8211    1.0000 </r>
       <r>    1.0292    1.0000 </r>
       <r>    1.4335    1.0000 </r>
       <r>   15.7884    0.0000 </r>
       <r>   16.7305    0.0000 </r>
       <r>   17.5700    0.0000 </r>
       <r>   19.4404    0.0000 </r>
       <r>   20.8448    0.0000 </r>
       <r>   29.6152    0.0000 </r>
      </set>
      <set comment="kpoint 49">
       <r>   -2.7031    1.0000 </r>
       <r>   -0.9396    1.0000 </r>
       <r>    0.0073    1.0000 </r>
       <r>    0.4582    1.0000 </r>
       <r>    0.7982    1.0000 </r>
       <r>    1.3959    1.0000 </r>
       <r>   15.5832    0.0000 </r>
       <r>   17.4602    0.0000 </r>
       <r>   19.9140    0.0000 </r>
       <r>   20.7186    0.0000 </r>
       <r>   22.0013    0.0000 </r>
       <r>   27.5215    0.0000 </r>
      </set>
      <set comment="kpoint 50">
       <r>   -3.5005    1.0000 </r>
       <r>   -0.7515    1.0000 </r>
       <r>    0.1689    1.0000 </r>
       <r>    0.2068    1.0000 </r>
       <r>    0.4965    1.0000 </r>
       <r>    1.1352    1.0000 </r>
       <r>   18.0987    0.0000 </r>
       <r>   19.3782    0.0000 </r>
       <r>   19.7291    0.0000 </r>
       <r>   20.7779    0.0000 </r>
       <r>   22.6689    0.0000 </r>
       <r>   27.8237    0.0000 </r>
      </set>
      <set comment="kpoint 51">
       <r>   -4.0680    1.0000 </r>
       <r>   -0.4140    1.0000 </r>
       <r>   -0.1052    1.0000 </r>
       <r>   -0.1052    1.0000 </r>
       <r>    0.8610    1.0000 </r>
       <r>    0.8610    1.0000 </r>
       <r>   17.6390    0.0000 </r>
       <r>   19.6587    0.0000 </r>
       <r>   22.1075    0.0000 </r>
       <r>   22.1075    0.0000 </r>
       <r>   25.1381    0.0000 </r>
       <r>   27.1052    0.0000 </r>
      </set>
      <set comment="kpoint 52">
       <r>   -3.5203    1.0000 </r>
       <r>   -0.5676    1.0000 </r>
       <r>    0.0010    1.0000 </r>
       <r>    0.0547    1.0000 </r>
       <r>    0.6315    1.0000 </r>
       <r>    1.1538    1.0000 </r>
       <r>   16.5112    0.0000 </r>
       <r>   18.3604    0.0000 </r>
       <r>   21.3429    0.0000 </r>
       <r>   23.1529    0.0000 </r>
       <r>   24.0198    0.0000 </r>
       <r>   26.0864    0.0000 </r>
      </set>
      <set comment="kpoint 53">
       <r>   -2.5898    1.0000 </r>
       <r>   -0.6790    1.0000 </r>
       <r>   -0.0663    1.0000 </r>
       <r>    0.2756    1.0000 </r>
       <r>    0.5671    1.0000 </r>
       <r>    1.7348    1.0000 </r>
       <r>   14.0864    0.0000 </r>
       <r>   16.4125    0.0000 </r>
       <r>   21.0791    0.0000 </r>
       <r>   22.8211    0.0000 </r>
       <r>   23.7067    0.0000 </r>
       <r>   26.0463    0.0000 </r>
      </set>
      <set comment="kpoint 54">
       <r>   -1.9734    1.0000 </r>
       <r>   -0.3912    1.0000 </r>
       <r>   -0.0311    1.0000 </r>
       <r>    0.1251    1.0000 </r>
       <r>    1.0776    1.0000 </r>
       <r>    2.6274    1.0000 </r>
       <r>   10.4774    0.0000 </r>
       <r>   15.8720    0.0000 </r>
       <r>   19.7287    0.0000 </r>
       <r>   21.2077    0.0000 </r>
       <r>   24.8372    0.0000 </r>
       <r>   27.0484    0.0000 </r>
      </set>
      <set comment="kpoint 55">
       <r>   -1.9269    1.0000 </r>
       <r>   -0.4941    1.0000 </r>
       <r>    0.0409    1.0000 </r>
       <r>    0.6331    1.0000 </r>
       <r>    1.5887    1.0000 </r>
       <r>    4.1854   -0.0002 </r>
       <r>    7.1476   -0.0000 </r>
       <r>   15.9727    0.0000 </r>
       <r>   19.0794    0.0000 </r>
       <r>   19.2514    0.0000 </r>
       <r>   26.5688    0.0000 </r>
       <r>   27.3327    0.0000 </r>
      </set>
      <set comment="kpoint 56">
       <r>   -1.9561    1.0000 </r>
       <r>   -0.5102    1.0000 </r>
       <r>    0.0782    1.0000 </r>
       <r>    0.4826    1.0000 </r>
       <r>    1.8477    1.0000 </r>
       <r>    4.1994   -0.0002 </r>
       <r>    7.0107   -0.0000 </r>
       <r>   16.7893    0.0000 </r>
       <r>   18.1497    0.0000 </r>
       <r>   19.0429    0.0000 </r>
       <r>   27.4642    0.0000 </r>
       <r>   27.5039    0.0000 </r>
      </set>
      <set comment="kpoint 57">
       <r>   -2.0388    1.0000 </r>
       <r>   -0.4051    1.0000 </r>
       <r>   -0.2557    1.0000 </r>
       <r>    0.2016    1.0000 </r>
       <r>    1.7373    1.0000 </r>
       <r>    2.2657    1.0000 </r>
       <r>   10.3723    0.0000 </r>
       <r>   17.9620    0.0000 </r>
       <r>   18.1644    0.0000 </r>
       <r>   19.4617    0.0000 </r>
       <r>   26.4117    0.0000 </r>
       <r>   27.6831    0.0000 </r>
      </set>
      <set comment="kpoint 58">
       <r>   -2.6051    1.0000 </r>
       <r>   -0.8345    1.0000 </r>
       <r>   -0.0675    1.0000 </r>
       <r>    0.3001    1.0000 </r>
       <r>    1.0794    1.0000 </r>
       <r>    1.3937    1.0000 </r>
       <r>   14.1982    0.0000 </r>
       <r>   18.4691    0.0000 </r>
       <r>   19.5329    0.0000 </r>
       <r>   20.3169    0.0000 </r>
       <r>   23.3740    0.0000 </r>
       <r>   27.8414    0.0000 </r>
      </set>
      <set comment="kpoint 59">
       <r>   -3.1980    1.0000 </r>
       <r>   -0.6488    1.0000 </r>
       <r>    0.0176    1.0000 </r>
       <r>    0.1129    1.0000 </r>
       <r>    0.7813    1.0000 </r>
       <r>    1.1875    1.0000 </r>
       <r>   15.3258    0.0000 </r>
       <r>   19.6535    0.0000 </r>
       <r>   19.8263    0.0000 </r>
       <r>   22.3293    0.0000 </r>
       <r>   23.3815    0.0000 </r>
       <r>   27.1961    0.0000 </r>
      </set>
      <set comment="kpoint 60">
       <r>   -2.4373    1.0000 </r>
       <r>   -0.8432    1.0000 </r>
       <r>   -0.1406    1.0000 </r>
       <r>    0.4368    1.0000 </r>
       <r>    0.7741    1.0000 </r>
       <r>    1.7187    1.0000 </r>
       <r>   14.1976    0.0000 </r>
       <r>   16.4368    0.0000 </r>
       <r>   19.9852    0.0000 </r>
       <r>   21.8718    0.0000 </r>
       <r>   23.4185    0.0000 </r>
       <r>   26.4188    0.0000 </r>
      </set>
      <set comment="kpoint 61">
       <r>   -1.6207    1.0000 </r>
       <r>   -0.8163    1.0000 </r>
       <r>   -0.4289    1.0000 </r>
       <r>    0.6230    1.0000 </r>
       <r>    1.0067    1.0000 </r>
       <r>    2.6959    1.0000 </r>
       <r>   11.9514    0.0000 </r>
       <r>   14.3459    0.0000 </r>
       <r>   18.4077    0.0000 </r>
       <r>   22.2548    0.0000 </r>
       <r>   23.9302    0.0000 </r>
       <r>   27.3240    0.0000 </r>
      </set>
      <set comment="kpoint 62">
       <r>   -1.4939    1.0000 </r>
       <r>   -0.6743    1.0000 </r>
       <r>   -0.1529    1.0000 </r>
       <r>    0.4744    1.0000 </r>
       <r>    1.5218    1.0000 </r>
       <r>    4.2105   -0.0001 </r>
       <r>    8.6799   -0.0000 </r>
       <r>   14.1450    0.0000 </r>
       <r>   16.9920    0.0000 </r>
       <r>   21.1495    0.0000 </r>
       <r>   25.6838    0.0000 </r>
       <r>   28.9563    0.0000 </r>
      </set>
      <set comment="kpoint 63">
       <r>   -1.5468    1.0000 </r>
       <r>   -0.7409    1.0000 </r>
       <r>    0.1094    1.0000 </r>
       <r>    0.4182    1.0000 </r>
       <r>    1.7312    1.0000 </r>
       <r>    5.7699   -0.0000 </r>
       <r>    6.5621   -0.0000 </r>
       <r>   14.6479    0.0000 </r>
       <r>   16.0590    0.0000 </r>
       <r>   20.7544    0.0000 </r>
       <r>   26.3243    0.0000 </r>
       <r>   29.5952    0.0000 </r>
      </set>
      <set comment="kpoint 64">
       <r>   -1.5863    1.0000 </r>
       <r>   -0.6570    1.0000 </r>
       <r>   -0.3697    1.0000 </r>
       <r>    0.5693    1.0000 </r>
       <r>    1.6188    1.0000 </r>
       <r>    3.5499    0.7767 </r>
       <r>    9.6206    0.0000 </r>
       <r>   14.9382    0.0000 </r>
       <r>   16.5768    0.0000 </r>
       <r>   21.0265    0.0000 </r>
       <r>   25.6262    0.0000 </r>
       <r>   27.7049    0.0000 </r>
      </set>
      <set comment="kpoint 65">
       <r>   -1.8884    1.0000 </r>
       <r>   -1.0187    1.0000 </r>
       <r>   -0.2671    1.0000 </r>
       <r>    0.7134    1.0000 </r>
       <r>    1.0926    1.0000 </r>
       <r>    2.1509    1.0000 </r>
       <r>   13.1060    0.0000 </r>
       <r>   15.3787    0.0000 </r>
       <r>   18.0942    0.0000 </r>
       <r>   21.6007    0.0000 </r>
       <r>   23.1070    0.0000 </r>
       <r>   27.2505    0.0000 </r>
      </set>
      <set comment="kpoint 66">
       <r>   -2.0663    1.0000 </r>
       <r>   -1.0253    1.0000 </r>
       <r>   -0.1128    1.0000 </r>
       <r>    0.5356    1.0000 </r>
       <r>    1.5968    1.0000 </r>
       <r>    1.6272    1.0000 </r>
       <r>   13.0802    0.0000 </r>
       <r>   17.1819    0.0000 </r>
       <r>   17.9036    0.0000 </r>
       <r>   19.7267    0.0000 </r>
       <r>   23.2519    0.0000 </r>
       <r>   28.6709    0.0000 </r>
      </set>
      <set comment="kpoint 67">
       <r>   -1.5900    1.0000 </r>
       <r>   -1.1870    1.0000 </r>
       <r>   -0.1729    1.0000 </r>
       <r>    1.0207    1.0000 </r>
       <r>    1.4174    1.0000 </r>
       <r>    2.7970    1.0000 </r>
       <r>   12.0334    0.0000 </r>
       <r>   14.3325    0.0000 </r>
       <r>   16.1548    0.0000 </r>
       <r>   21.4397    0.0000 </r>
       <r>   23.0477    0.0000 </r>
       <r>   28.0109    0.0000 </r>
      </set>
      <set comment="kpoint 68">
       <r>   -1.2877    1.0000 </r>
       <r>   -1.0559    1.0000 </r>
       <r>   -0.3395    1.0000 </r>
       <r>    1.0855    1.0000 </r>
       <r>    1.6216    1.0000 </r>
       <r>    4.4413   -0.0000 </r>
       <r>   10.2161    0.0000 </r>
       <r>   12.4881    0.0000 </r>
       <r>   14.7059    0.0000 </r>
       <r>   22.5847    0.0000 </r>
       <r>   24.2473    0.0000 </r>
       <r>   27.6431    0.0000 </r>
      </set>
      <set comment="kpoint 69">
       <r>   -1.1578    1.0000 </r>
       <r>   -0.9192    1.0000 </r>
       <r>   -0.3053    1.0000 </r>
       <r>    0.8047    1.0000 </r>
       <r>    1.7899    1.0000 </r>
       <r>    6.4019   -0.0000 </r>
       <r>    7.8582   -0.0000 </r>
       <r>   12.0684    0.0000 </r>
       <r>   14.1796    0.0000 </r>
       <r>   22.4513    0.0000 </r>
       <r>   26.0118    0.0000 </r>
       <r>   28.5077    0.0000 </r>
      </set>
      <set comment="kpoint 70">
       <r>   -0.9723    1.0000 </r>
       <r>   -0.9023    1.0000 </r>
       <r>   -0.5984    1.0000 </r>
       <r>    0.8691    1.0000 </r>
       <r>    1.6016    1.0000 </r>
       <r>    5.0922   -0.0000 </r>
       <r>    9.6283    0.0000 </r>
       <r>   11.6144    0.0000 </r>
       <r>   15.0582    0.0000 </r>
       <r>   22.7079    0.0000 </r>
       <r>   25.1626    0.0000 </r>
       <r>   28.4160    0.0000 </r>
      </set>
      <set comment="kpoint 71">
       <r>   -1.3131    1.0000 </r>
       <r>   -0.9105    1.0000 </r>
       <r>   -0.5454    1.0000 </r>
       <r>    0.8898    1.0000 </r>
       <r>    1.3291    1.0000 </r>
       <r>    3.4352    1.0152 </r>
       <r>   11.0404    0.0000 </r>
       <r>   13.3792    0.0000 </r>
       <r>   16.4920    0.0000 </r>
       <r>   22.3332    0.0000 </r>
       <r>   24.1217    0.0000 </r>
       <r>   27.5083    0.0000 </r>
      </set>
      <set comment="kpoint 72">
       <r>   -1.7643    1.0000 </r>
       <r>   -1.3896    1.0000 </r>
       <r>    0.5433    1.0000 </r>
       <r>    1.0769    1.0000 </r>
       <r>    1.8867    1.0000 </r>
       <r>    3.4373    1.0135 </r>
       <r>   10.8273    0.0000 </r>
       <r>   13.8148    0.0000 </r>
       <r>   15.1257    0.0000 </r>
       <r>   19.9064    0.0000 </r>
       <r>   23.1091    0.0000 </r>
       <r>   30.1833    0.0000 </r>
      </set>
      <set comment="kpoint 73">
       <r>   -1.6682    1.0000 </r>
       <r>   -1.4571    1.0000 </r>
       <r>    0.5544    1.0000 </r>
       <r>    1.4054    1.0000 </r>
       <r>    1.8839    1.0000 </r>
       <r>    4.9979   -0.0000 </r>
       <r>    9.6764    0.0000 </r>
       <r>   12.3465    0.0000 </r>
       <r>   13.5299    0.0000 </r>
       <r>   21.5025    0.0000 </r>
       <r>   23.0711    0.0000 </r>
       <r>   29.1931    0.0000 </r>
      </set>
      <set comment="kpoint 74">
       <r>   -1.4518    1.0000 </r>
       <r>   -1.2149    1.0000 </r>
       <r>    0.2002    1.0000 </r>
       <r>    1.0940    1.0000 </r>
       <r>    2.0196    1.0000 </r>
       <r>    7.0540   -0.0000 </r>
       <r>    8.3810   -0.0000 </r>
       <r>   11.0103    0.0000 </r>
       <r>   12.7636    0.0000 </r>
       <r>   22.9911    0.0000 </r>
       <r>   24.5113    0.0000 </r>
       <r>   27.8791    0.0000 </r>
      </set>
      <set comment="kpoint 75">
       <r>   -1.1886    1.0000 </r>
       <r>   -0.8452    1.0000 </r>
       <r>   -0.3415    1.0000 </r>
       <r>    0.8526    1.0000 </r>
       <r>    1.8602    1.0000 </r>
       <r>    6.7049   -0.0000 </r>
       <r>    8.8008   -0.0000 </r>
       <r>   10.4824    0.0000 </r>
       <r>   13.7720    0.0000 </r>
       <r>   22.8904    0.0000 </r>
       <r>   26.3284    0.0000 </r>
       <r>   27.9874    0.0000 </r>
      </set>
      <set comment="kpoint 76">
       <r>   -1.2725    1.0000 </r>
       <r>   -0.8539    1.0000 </r>
       <r>   -0.2400    1.0000 </r>
       <r>    0.6742    1.0000 </r>
       <r>    1.6833    1.0000 </r>
       <r>    5.3298   -0.0000 </r>
       <r>    8.0473   -0.0000 </r>
       <r>   13.2993    0.0000 </r>
       <r>   15.2808    0.0000 </r>
       <r>   21.7894    0.0000 </r>
       <r>   25.8136    0.0000 </r>
       <r>   28.9552    0.0000 </r>
      </set>
      <set comment="kpoint 77">
       <r>   -1.8763    1.0000 </r>
       <r>   -1.5923    1.0000 </r>
       <r>    1.1925    1.0000 </r>
       <r>    1.4888    1.0000 </r>
       <r>    1.9435    1.0000 </r>
       <r>    6.0316   -0.0000 </r>
       <r>    8.2369   -0.0000 </r>
       <r>   11.6269    0.0000 </r>
       <r>   14.1410    0.0000 </r>
       <r>   20.1372    0.0000 </r>
       <r>   23.0993    0.0000 </r>
       <r>   30.6553    0.0000 </r>
      </set>
      <set comment="kpoint 78">
       <r>   -1.7300    1.0000 </r>
       <r>   -1.5172    1.0000 </r>
       <r>    0.8214    1.0000 </r>
       <r>    1.3917    1.0000 </r>
       <r>    2.0204    1.0000 </r>
       <r>    6.3683   -0.0000 </r>
       <r>    8.2814   -0.0000 </r>
       <r>   11.7867    0.0000 </r>
       <r>   13.1003    0.0000 </r>
       <r>   21.5670    0.0000 </r>
       <r>   23.0862    0.0000 </r>
       <r>   29.4758    0.0000 </r>
      </set>
      <set comment="kpoint 79">
       <r>   -1.3802    1.0000 </r>
       <r>   -1.1653    1.0000 </r>
       <r>   -0.0271    1.0000 </r>
       <r>    1.1368    1.0000 </r>
       <r>    1.8681    1.0000 </r>
       <r>    5.6858   -0.0000 </r>
       <r>    9.4003    0.0000 </r>
       <r>   11.6392    0.0000 </r>
       <r>   13.3823    0.0000 </r>
       <r>   22.8436    0.0000 </r>
       <r>   24.3871    0.0000 </r>
       <r>   27.7817    0.0000 </r>
      </set>
      <set comment="kpoint 80">
       <r>   -1.8269    1.0000 </r>
       <r>   -1.5230    1.0000 </r>
       <r>    0.9553    1.0000 </r>
       <r>    1.3235    1.0000 </r>
       <r>    1.9423    1.0000 </r>
       <r>    4.7032   -0.0000 </r>
       <r>    9.5755    0.0000 </r>
       <r>   12.3600    0.0000 </r>
       <r>   14.4767    0.0000 </r>
       <r>   20.0445    0.0000 </r>
       <r>   23.0977    0.0000 </r>
       <r>   30.5371    0.0000 </r>
      </set>
      <set comment="kpoint 81">
       <r>   -1.5836    1.0000 </r>
       <r>   -1.3408    1.0000 </r>
       <r>    0.1726    1.0000 </r>
       <r>    1.2848    1.0000 </r>
       <r>    1.6747    1.0000 </r>
       <r>    3.7564    0.0463 </r>
       <r>   10.9302    0.0000 </r>
       <r>   13.3070    0.0000 </r>
       <r>   14.5228    0.0000 </r>
       <r>   21.4311    0.0000 </r>
       <r>   23.0523    0.0000 </r>
       <r>   28.6763    0.0000 </r>
      </set>
      <set comment="kpoint 82">
       <r>   -1.7865    1.0000 </r>
       <r>   -1.2137    1.0000 </r>
       <r>    0.1068    1.0000 </r>
       <r>    0.8030    1.0000 </r>
       <r>    1.7687    1.0000 </r>
       <r>    2.4052    1.0000 </r>
       <r>   11.9631    0.0000 </r>
       <r>   15.7540    0.0000 </r>
       <r>   16.0458    0.0000 </r>
       <r>   19.7802    0.0000 </r>
       <r>   23.1559    0.0000 </r>
       <r>   29.5201    0.0000 </r>
      </set>
      <set comment="kpoint 83">
       <r>   -3.1273    1.0000 </r>
       <r>   -0.3369    1.0000 </r>
       <r>   -0.0500    1.0000 </r>
       <r>   -0.0500    1.0000 </r>
       <r>    1.0379    1.0000 </r>
       <r>    1.0379    1.0000 </r>
       <r>   13.8647    0.0000 </r>
       <r>   19.5631    0.0000 </r>
       <r>   21.9007    0.0000 </r>
       <r>   21.9007    0.0000 </r>
       <r>   24.6639    0.0000 </r>
       <r>   25.9696    0.0000 </r>
      </set>
      <set comment="kpoint 84">
       <r>   -2.5922    1.0000 </r>
       <r>   -0.4355    1.0000 </r>
       <r>   -0.0619    1.0000 </r>
       <r>    0.0606    1.0000 </r>
       <r>    0.8628    1.0000 </r>
       <r>    1.6682    1.0000 </r>
       <r>   12.7334    0.0000 </r>
       <r>   17.8191    0.0000 </r>
       <r>   20.4098    0.0000 </r>
       <r>   23.0622    0.0000 </r>
       <r>   23.8062    0.0000 </r>
       <r>   25.7129    0.0000 </r>
      </set>
      <set comment="kpoint 85">
       <r>   -1.7385    1.0000 </r>
       <r>   -0.6546    1.0000 </r>
       <r>   -0.2496    1.0000 </r>
       <r>    0.3646    1.0000 </r>
       <r>    0.7879    1.0000 </r>
       <r>    2.6680    1.0000 </r>
       <r>   11.8957    0.0000 </r>
       <r>   14.3149    0.0000 </r>
       <r>   20.1400    0.0000 </r>
       <r>   21.4105    0.0000 </r>
       <r>   24.2735    0.0000 </r>
       <r>   27.8857    0.0000 </r>
      </set>
      <set comment="kpoint 86">
       <r>   -1.3140    1.0000 </r>
       <r>   -0.5752    1.0000 </r>
       <r>   -0.3264    1.0000 </r>
       <r>    0.4920    1.0000 </r>
       <r>    1.1282    1.0000 </r>
       <r>    3.9478   -0.0212 </r>
       <r>   10.2107    0.0000 </r>
       <r>   12.3482    0.0000 </r>
       <r>   19.1984    0.0000 </r>
       <r>   19.7449    0.0000 </r>
       <r>   26.0446    0.0000 </r>
       <r>   28.3804    0.0000 </r>
      </set>
      <set comment="kpoint 87">
       <r>   -1.4887    1.0000 </r>
       <r>   -0.6997    1.0000 </r>
       <r>    0.0413    1.0000 </r>
       <r>    0.5449    1.0000 </r>
       <r>    1.6246    1.0000 </r>
       <r>    5.7863   -0.0000 </r>
       <r>    7.2543   -0.0000 </r>
       <r>   12.8255    0.0000 </r>
       <r>   17.3277    0.0000 </r>
       <r>   19.5862    0.0000 </r>
       <r>   27.9437    0.0000 </r>
       <r>   28.5671    0.0000 </r>
      </set>
      <set comment="kpoint 88">
       <r>   -1.6489    1.0000 </r>
       <r>   -0.8833    1.0000 </r>
       <r>    0.0462    1.0000 </r>
       <r>    0.6617    1.0000 </r>
       <r>    1.8882    1.0000 </r>
       <r>    4.4994   -0.0000 </r>
       <r>    8.5718   -0.0000 </r>
       <r>   14.0978    0.0000 </r>
       <r>   16.2156    0.0000 </r>
       <r>   19.6693    0.0000 </r>
       <r>   26.2350    0.0000 </r>
       <r>   28.9744    0.0000 </r>
      </set>
      <set comment="kpoint 89">
       <r>   -2.3980    1.0000 </r>
       <r>   -0.2663    1.0000 </r>
       <r>   -0.1783    1.0000 </r>
       <r>    0.0489    1.0000 </r>
       <r>    1.5184    1.0000 </r>
       <r>    1.5411    1.0000 </r>
       <r>   11.4512    0.0000 </r>
       <r>   19.0799    0.0000 </r>
       <r>   19.1459    0.0000 </r>
       <r>   20.5991    0.0000 </r>
       <r>   25.5849    0.0000 </r>
       <r>   27.0019    0.0000 </r>
      </set>
      <set comment="kpoint 90">
       <r>   -1.8523    1.0000 </r>
       <r>   -0.4215    1.0000 </r>
       <r>   -0.3988    1.0000 </r>
       <r>    0.3295    1.0000 </r>
       <r>    1.3617    1.0000 </r>
       <r>    2.6895    1.0000 </r>
       <r>   10.5458    0.0000 </r>
       <r>   15.9016    0.0000 </r>
       <r>   18.3643    0.0000 </r>
       <r>   21.0842    0.0000 </r>
       <r>   25.2577    0.0000 </r>
       <r>   27.3376    0.0000 </r>
      </set>
      <set comment="kpoint 91">
       <r>   -1.1475    1.0000 </r>
       <r>   -0.7258    1.0000 </r>
       <r>   -0.5852    1.0000 </r>
       <r>    0.7198    1.0000 </r>
       <r>    1.3025    1.0000 </r>
       <r>    4.0765   -0.0029 </r>
       <r>   10.2355    0.0000 </r>
       <r>   12.4034    0.0000 </r>
       <r>   16.9400    0.0000 </r>
       <r>   21.8313    0.0000 </r>
       <r>   25.1345    0.0000 </r>
       <r>   28.8244    0.0000 </r>
      </set>
      <set comment="kpoint 92">
       <r>   -1.1957    1.0000 </r>
       <r>   -0.7726    1.0000 </r>
       <r>   -0.3283    1.0000 </r>
       <r>    0.7887    1.0000 </r>
       <r>    1.6089    1.0000 </r>
       <r>    5.7192   -0.0000 </r>
       <r>    9.0827    0.0000 </r>
       <r>   10.9011    0.0000 </r>
       <r>   15.4951    0.0000 </r>
       <r>   21.5863    0.0000 </r>
       <r>   26.5114    0.0000 </r>
       <r>   29.4580    0.0000 </r>
      </set>
      <set comment="kpoint 93">
       <r>   -1.4493    1.0000 </r>
       <r>   -1.0106    1.0000 </r>
       <r>   -0.0063    1.0000 </r>
       <r>    0.9788    1.0000 </r>
       <r>    1.8255    1.0000 </r>
       <r>    5.9439   -0.0000 </r>
       <r>    8.3061   -0.0000 </r>
       <r>   12.0467    0.0000 </r>
       <r>   14.4435    0.0000 </r>
       <r>   21.4456    0.0000 </r>
       <r>   25.9850    0.0000 </r>
       <r>   27.9018    0.0000 </r>
      </set>
      <set comment="kpoint 94">
       <r>   -1.7764    1.0000 </r>
       <r>   -0.6608    1.0000 </r>
       <r>   -0.1562    1.0000 </r>
       <r>    0.4112    1.0000 </r>
       <r>    1.8565    1.0000 </r>
       <r>    3.2804    1.0187 </r>
       <r>    9.3981    0.0000 </r>
       <r>   16.1661    0.0000 </r>
       <r>   16.9743    0.0000 </r>
       <r>   19.4709    0.0000 </r>
       <r>   26.4341    0.0000 </r>
       <r>   28.3655    0.0000 </r>
      </set>
      <set comment="kpoint 95">
       <r>   -1.4602    1.0000 </r>
       <r>   -0.8727    1.0000 </r>
       <r>   -0.2194    1.0000 </r>
       <r>    0.8103    1.0000 </r>
       <r>    1.7570    1.0000 </r>
       <r>    4.6728   -0.0000 </r>
       <r>    8.8489   -0.0000 </r>
       <r>   13.7008    0.0000 </r>
       <r>   15.1496    0.0000 </r>
       <r>   21.2117    0.0000 </r>
       <r>   25.8343    0.0000 </r>
       <r>   27.7976    0.0000 </r>
      </set>
      <set comment="kpoint 96">
       <r>   -1.1246    1.0000 </r>
       <r>   -0.8451    1.0000 </r>
       <r>   -0.4857    1.0000 </r>
       <r>    0.8960    1.0000 </r>
       <r>    1.8601    1.0000 </r>
       <r>    6.2603   -0.0000 </r>
       <r>    9.1875    0.0000 </r>
       <r>   10.8956    0.0000 </r>
       <r>   13.4763    0.0000 </r>
       <r>   23.6822    0.0000 </r>
       <r>   25.2422    0.0000 </r>
       <r>   27.7982    0.0000 </r>
      </set>
      <set comment="kpoint 97">
       <r>   -1.2193    1.0000 </r>
       <r>   -0.8386    1.0000 </r>
       <r>   -0.3585    1.0000 </r>
       <r>    0.8627    1.0000 </r>
       <r>    2.0183    1.0000 </r>
       <r>    7.2868   -0.0000 </r>
       <r>    8.9818   -0.0000 </r>
       <r>   10.1734    0.0000 </r>
       <r>   12.5747    0.0000 </r>
       <r>   24.3295    0.0000 </r>
       <r>   25.7714    0.0000 </r>
       <r>   26.8345    0.0000 </r>
      </set>
      <set comment="kpoint 98">
       <r>   -1.6213    1.0000 </r>
       <r>   -1.0351    1.0000 </r>
       <r>    0.2790    1.0000 </r>
       <r>    0.9177    1.0000 </r>
       <r>    1.8362    1.0000 </r>
       <r>    5.8287   -0.0000 </r>
       <r>    7.9862   -0.0000 </r>
       <r>   12.1488    0.0000 </r>
       <r>   15.7024    0.0000 </r>
       <r>   19.8850    0.0000 </r>
       <r>   26.0879    0.0000 </r>
       <r>   29.4182    0.0000 </r>
      </set>
      <set comment="kpoint 99">
       <r>   -1.4739    1.0000 </r>
       <r>   -1.0711    1.0000 </r>
       <r>    0.1569    1.0000 </r>
       <r>    1.0367    1.0000 </r>
       <r>    1.8663    1.0000 </r>
       <r>    6.9807   -0.0000 </r>
       <r>    8.1738   -0.0000 </r>
       <r>   10.5858    0.0000 </r>
       <r>   14.1492    0.0000 </r>
       <r>   21.5984    0.0000 </r>
       <r>   26.0838    0.0000 </r>
       <r>   27.9874    0.0000 </r>
      </set>
      <set comment="kpoint 100">
       <r>   -1.6295    1.0000 </r>
       <r>   -1.1088    1.0000 </r>
       <r>    0.4337    1.0000 </r>
       <r>    1.1120    1.0000 </r>
       <r>    1.7473    1.0000 </r>
       <r>    6.8518   -0.0000 </r>
       <r>    7.8855   -0.0000 </r>
       <r>   10.5886    0.0000 </r>
       <r>   15.4448    0.0000 </r>
       <r>   20.0214    0.0000 </r>
       <r>   26.0186    0.0000 </r>
       <r>   29.6461    0.0000 </r>
      </set>
      <set comment="kpoint 101">
       <r>   -2.5040    1.0000 </r>
       <r>   -0.1698    1.0000 </r>
       <r>   -0.1698    1.0000 </r>
       <r>    0.6904    1.0000 </r>
       <r>    1.4502    1.0000 </r>
       <r>    1.4502    1.0000 </r>
       <r>   10.0612    0.0000 </r>
       <r>   18.8138    0.0000 </r>
       <r>   20.8223    0.0000 </r>
       <r>   20.8223    0.0000 </r>
       <r>   25.9340    0.0000 </r>
       <r>   26.0105    0.0000 </r>
      </set>
      <set comment="kpoint 102">
       <r>   -2.2010    1.0000 </r>
       <r>   -0.3032    1.0000 </r>
       <r>   -0.0814    1.0000 </r>
       <r>    0.5849    1.0000 </r>
       <r>    1.3715    1.0000 </r>
       <r>    2.5431    1.0000 </r>
       <r>    9.0521   -0.0000 </r>
       <r>   17.4813    0.0000 </r>
       <r>   19.2637    0.0000 </r>
       <r>   20.8393    0.0000 </r>
       <r>   25.5854    0.0000 </r>
       <r>   26.5163    0.0000 </r>
      </set>
      <set comment="kpoint 103">
       <r>   -1.6103    1.0000 </r>
       <r>   -0.5686    1.0000 </r>
       <r>    0.1168    1.0000 </r>
       <r>    0.2728    1.0000 </r>
       <r>    1.3544    1.0000 </r>
       <r>    4.0388   -0.0058 </r>
       <r>    8.6201   -0.0000 </r>
       <r>   14.1256    0.0000 </r>
       <r>   19.2071    0.0000 </r>
       <r>   19.4696    0.0000 </r>
       <r>   26.2840    0.0000 </r>
       <r>   27.9029    0.0000 </r>
      </set>
      <set comment="kpoint 104">
       <r>   -1.3790    1.0000 </r>
       <r>   -0.6683    1.0000 </r>
       <r>   -0.1230    1.0000 </r>
       <r>    0.7519    1.0000 </r>
       <r>    1.4624    1.0000 </r>
       <r>    5.5171   -0.0000 </r>
       <r>    8.9992   -0.0000 </r>
       <r>   10.8727    0.0000 </r>
       <r>   17.1758    0.0000 </r>
       <r>   19.7794    0.0000 </r>
       <r>   28.0497    0.0000 </r>
       <r>   28.8692    0.0000 </r>
      </set>
      <set comment="kpoint 105">
       <r>   -2.1904    1.0000 </r>
       <r>   -0.3676    1.0000 </r>
       <r>   -0.0804    1.0000 </r>
       <r>    0.7156    1.0000 </r>
       <r>    1.8122    1.0000 </r>
       <r>    2.9362    1.0000 </r>
       <r>    7.8862   -0.0000 </r>
       <r>   18.2850    0.0000 </r>
       <r>   18.8543    0.0000 </r>
       <r>   19.2703    0.0000 </r>
       <r>   26.9424    0.0000 </r>
       <r>   26.9577    0.0000 </r>
      </set>
      <set comment="kpoint 106">
       <r>   -1.8004    1.0000 </r>
       <r>   -0.5863    1.0000 </r>
       <r>    0.1587    1.0000 </r>
       <r>    0.3770    1.0000 </r>
       <r>    1.7088    1.0000 </r>
       <r>    4.4570   -0.0000 </r>
       <r>    7.2173   -0.0000 </r>
       <r>   15.9577    0.0000 </r>
       <r>   17.1339    0.0000 </r>
       <r>   20.3120    0.0000 </r>
       <r>   26.2118    0.0000 </r>
       <r>   28.5569    0.0000 </r>
      </set>
      <set comment="kpoint 107">
       <r>   -1.3108    1.0000 </r>
       <r>   -0.8266    1.0000 </r>
       <r>   -0.1181    1.0000 </r>
       <r>    0.6331    1.0000 </r>
       <r>    1.6767    1.0000 </r>
       <r>    5.9748   -0.0000 </r>
       <r>    7.3988   -0.0000 </r>
       <r>   12.7966    0.0000 </r>
       <r>   15.6566    0.0000 </r>
       <r>   21.2512    0.0000 </r>
       <r>   26.4271    0.0000 </r>
       <r>   29.6307    0.0000 </r>
      </set>
      <set comment="kpoint 108">
       <r>   -1.7035    1.0000 </r>
       <r>   -0.6401    1.0000 </r>
       <r>    0.2543    1.0000 </r>
       <r>    0.2967    1.0000 </r>
       <r>    1.7773    1.0000 </r>
       <r>    5.6426   -0.0000 </r>
       <r>    6.3013   -0.0000 </r>
       <r>   14.8244    0.0000 </r>
       <r>   17.6458    0.0000 </r>
       <r>   19.2895    0.0000 </r>
       <r>   27.7564    0.0000 </r>
       <r>   28.0694    0.0000 </r>
      </set>
      <set comment="kpoint 109">
       <r>   -2.3927    1.0000 </r>
       <r>   -0.2769    1.0000 </r>
       <r>   -0.2769    1.0000 </r>
       <r>    1.7716    1.0000 </r>
       <r>    1.7716    1.0000 </r>
       <r>    2.7127    1.0000 </r>
       <r>    6.7648   -0.0000 </r>
       <r>   18.2789    0.0000 </r>
       <r>   19.9466    0.0000 </r>
       <r>   19.9466    0.0000 </r>
       <r>   26.2885    0.0000 </r>
       <r>   26.2885    0.0000 </r>
      </set>
      <set comment="kpoint 110">
       <r>   -2.1766    1.0000 </r>
       <r>   -0.4005    1.0000 </r>
       <r>   -0.1405    1.0000 </r>
       <r>    1.1345    1.0000 </r>
       <r>    1.7583    1.0000 </r>
       <r>    4.1841   -0.0002 </r>
       <r>    6.1221   -0.0000 </r>
       <r>   17.6289    0.0000 </r>
       <r>   18.8349    0.0000 </r>
       <r>   19.3704    0.0000 </r>
       <r>   26.7082    0.0000 </r>
       <r>   26.8454    0.0000 </r>
      </set>
     </set>
    </set>
   </array>
  </eigenvalues>
  <separator name="orbital magnetization" >
   <v name="MAGDIPOLOUT">      0.00000000      0.00000000      0.00000000</v>
  </separator>
  <dos>
   <i name="efermi">      3.61983247 </i>
   <total>
    <array>
     <dimension dim="1">gridpoints</dimension>
     <dimension dim="2">spin</dimension>
     <field>energy</field>
     <field>total</field>
     <field>integrated</field>
     <set>
      <set comment="spin 1">
       <r>    -6.6507     0.0000     0.0000 </r>
       <r>    -6.5161     0.0000     0.0000 </r>
       <r>    -6.3816    -0.0000    -0.0000 </r>
       <r>    -6.2471    -0.0000    -0.0000 </r>
       <r>    -6.1126    -0.0000    -0.0000 </r>
       <r>    -5.9780    -0.0000    -0.0000 </r>
       <r>    -5.8435    -0.0000    -0.0000 </r>
       <r>    -5.7090    -0.0000    -0.0000 </r>
       <r>    -5.5745    -0.0000    -0.0000 </r>
       <r>    -5.4399    -0.0000    -0.0000 </r>
       <r>    -5.3054    -0.0000    -0.0000 </r>
       <r>    -5.1709    -0.0000    -0.0000 </r>
       <r>    -5.0363    -0.0003    -0.0000 </r>
       <r>    -4.9018    -0.0010    -0.0002 </r>
       <r>    -4.7673     0.0018     0.0001 </r>
       <r>    -4.6328     0.0144     0.0020 </r>
       <r>    -4.4982     0.0374     0.0070 </r>
       <r>    -4.3637     0.0582     0.0149 </r>
       <r>    -4.2292     0.0626     0.0233 </r>
       <r>    -4.0947     0.0710     0.0328 </r>
       <r>    -3.9601     0.0969     0.0459 </r>
       <r>    -3.8256     0.1178     0.0617 </r>
       <r>    -3.6911     0.0939     0.0744 </r>
       <r>    -3.5566     0.0919     0.0867 </r>
       <r>    -3.4220     0.1580     0.1080 </r>
       <r>    -3.2875     0.1835     0.1327 </r>
       <r>    -3.1530     0.1362     0.1510 </r>
       <r>    -3.0185     0.1569     0.1721 </r>
       <r>    -2.8839     0.2113     0.2005 </r>
       <r>    -2.7494     0.2138     0.2293 </r>
       <r>    -2.6149     0.2630     0.2647 </r>
       <r>    -2.4804     0.3723     0.3147 </r>
       <r>    -2.3458     0.5295     0.3860 </r>
       <r>    -2.2113     0.6611     0.4749 </r>
       <r>    -2.0768     0.8757     0.5927 </r>
       <r>    -1.9423     1.2096     0.7554 </r>
       <r>    -1.8077     1.6212     0.9735 </r>
       <r>    -1.6732     2.0650     1.2513 </r>
       <r>    -1.5387     2.2358     1.5521 </r>
       <r>    -1.4042     2.1315     1.8388 </r>
       <r>    -1.2696     1.9371     2.0994 </r>
       <r>    -1.1351     1.7838     2.3394 </r>
       <r>    -1.0006     1.5394     2.5465 </r>
       <r>    -0.8661     1.7810     2.7860 </r>
       <r>    -0.7315     2.3040     3.0960 </r>
       <r>    -0.5970     2.5065     3.4332 </r>
       <r>    -0.4625     2.5258     3.7730 </r>
       <r>    -0.3280     2.7457     4.1423 </r>
       <r>    -0.1934     3.0279     4.5497 </r>
       <r>    -0.0589     3.5350     5.0252 </r>
       <r>     0.0756     3.8118     5.5380 </r>
       <r>     0.2101     3.0281     5.9453 </r>
       <r>     0.3447     2.1186     6.2304 </r>
       <r>     0.4792     1.9395     6.4913 </r>
       <r>     0.6137     2.2799     6.7980 </r>
       <r>     0.7482     2.7450     7.1672 </r>
       <r>     0.8828     2.8052     7.5446 </r>
       <r>     1.0173     2.4542     7.8748 </r>
       <r>     1.1518     2.3703     8.1936 </r>
       <r>     1.2864     2.1364     8.4810 </r>
       <r>     1.4209     2.1175     8.7659 </r>
       <r>     1.5554     2.3716     9.0849 </r>
       <r>     1.6899     3.1058     9.5028 </r>
       <r>     1.8245     3.4576     9.9679 </r>
       <r>     1.9590     2.5477    10.3106 </r>
       <r>     2.0935     1.3325    10.4899 </r>
       <r>     2.2280     0.6184    10.5731 </r>
       <r>     2.3626     0.2202    10.6027 </r>
       <r>     2.4971     0.1521    10.6232 </r>
       <r>     2.6316     0.3125    10.6652 </r>
       <r>     2.7661     0.4675    10.7281 </r>
       <r>     2.9007     0.3595    10.7764 </r>
       <r>     3.0352     0.2122    10.8050 </r>
       <r>     3.1697     0.1537    10.8257 </r>
       <r>     3.3042     0.3093    10.8673 </r>
       <r>     3.4388     0.4962    10.9340 </r>
       <r>     3.5733     0.3965    10.9874 </r>
       <r>     3.7078     0.2473    11.0206 </r>
       <r>     3.8423     0.2296    11.0515 </r>
       <r>     3.9769     0.2393    11.0837 </r>
       <r>     4.1114     0.3516    11.1310 </r>
       <r>     4.2459     0.4085    11.1860 </r>
       <r>     4.3804     0.3189    11.2288 </r>
       <r>     4.5150     0.2757    11.2659 </r>
       <r>     4.6495     0.3085    11.3074 </r>
       <r>     4.7840     0.3016    11.3480 </r>
       <r>     4.9185     0.2483    11.3814 </r>
       <r>     5.0531     0.3384    11.4269 </r>
       <r>     5.1876     0.3486    11.4738 </r>
       <r>     5.3221     0.3009    11.5143 </r>
       <r>     5.4566     0.2333    11.5457 </r>
       <r>     5.5912     0.2367    11.5775 </r>
       <r>     5.7257     0.3820    11.6289 </r>
       <r>     5.8602     0.3958    11.6822 </r>
       <r>     5.9947     0.3296    11.7265 </r>
       <r>     6.1293     0.3380    11.7720 </r>
       <r>     6.2638     0.4506    11.8326 </r>
       <r>     6.3983     0.5682    11.9090 </r>
       <r>     6.5328     0.3828    11.9605 </r>
       <r>     6.6674     0.2394    11.9927 </r>
       <r>     6.8019     0.2804    12.0305 </r>
       <r>     6.9364     0.2887    12.0693 </r>
       <r>     7.0709     0.3037    12.1102 </r>
       <r>     7.2055     0.3694    12.1599 </r>
       <r>     7.3400     0.4084    12.2148 </r>
       <r>     7.4745     0.2792    12.2524 </r>
       <r>     7.6091     0.0964    12.2653 </r>
       <r>     7.7436     0.0656    12.2741 </r>
       <r>     7.8781     0.3087    12.3157 </r>
       <r>     8.0126     0.4971    12.3826 </r>
       <r>     8.1472     0.4730    12.4462 </r>
       <r>     8.2817     0.4846    12.5114 </r>
       <r>     8.4162     0.4932    12.5777 </r>
       <r>     8.5507     0.3709    12.6276 </r>
       <r>     8.6853     0.2599    12.6626 </r>
       <r>     8.8198     0.2909    12.7017 </r>
       <r>     8.9543     0.4251    12.7589 </r>
       <r>     9.0888     0.4742    12.8227 </r>
       <r>     9.2234     0.3319    12.8673 </r>
       <r>     9.3579     0.1804    12.8916 </r>
       <r>     9.4924     0.2859    12.9301 </r>
       <r>     9.6269     0.4875    12.9956 </r>
       <r>     9.7615     0.4101    13.0508 </r>
       <r>     9.8960     0.1695    13.0736 </r>
       <r>    10.0305     0.1385    13.0922 </r>
       <r>    10.1650     0.3633    13.1411 </r>
       <r>    10.2996     0.4617    13.2032 </r>
       <r>    10.4341     0.3345    13.2482 </r>
       <r>    10.5686     0.4235    13.3052 </r>
       <r>    10.7031     0.3770    13.3559 </r>
       <r>    10.8377     0.3561    13.4038 </r>
       <r>    10.9722     0.6201    13.4872 </r>
       <r>    11.1067     0.5141    13.5564 </r>
       <r>    11.2412     0.1164    13.5721 </r>
       <r>    11.3758     0.0312    13.5763 </r>
       <r>    11.5103     0.2321    13.6075 </r>
       <r>    11.6448     0.5112    13.6763 </r>
       <r>    11.7793     0.5095    13.7448 </r>
       <r>    11.9139     0.3716    13.7948 </r>
       <r>    12.0484     0.4691    13.8579 </r>
       <r>    12.1829     0.4447    13.9177 </r>
       <r>    12.3174     0.3706    13.9676 </r>
       <r>    12.4520     0.5186    14.0373 </r>
       <r>    12.5865     0.4418    14.0968 </r>
       <r>    12.7210     0.3242    14.1404 </r>
       <r>    12.8555     0.4204    14.1969 </r>
       <r>    12.9901     0.4429    14.2565 </r>
       <r>    13.1246     0.4294    14.3143 </r>
       <r>    13.2591     0.5038    14.3821 </r>
       <r>    13.3937     0.7382    14.4814 </r>
       <r>    13.5282     0.6622    14.5704 </r>
       <r>    13.6627     0.3390    14.6160 </r>
       <r>    13.7972     0.4300    14.6739 </r>
       <r>    13.9318     0.4778    14.7382 </r>
       <r>    14.0663     0.4275    14.7957 </r>
       <r>    14.2008     0.6841    14.8877 </r>
       <r>    14.3353     0.8251    14.9987 </r>
       <r>    14.4699     0.7829    15.1040 </r>
       <r>    14.6044     0.6076    15.1857 </r>
       <r>    14.7389     0.3869    15.2378 </r>
       <r>    14.8734     0.2357    15.2695 </r>
       <r>    15.0080     0.2918    15.3088 </r>
       <r>    15.1425     0.4422    15.3682 </r>
       <r>    15.2770     0.6024    15.4493 </r>
       <r>    15.4115     0.7069    15.5444 </r>
       <r>    15.5461     0.6026    15.6254 </r>
       <r>    15.6806     0.4815    15.6902 </r>
       <r>    15.8151     0.4681    15.7532 </r>
       <r>    15.9496     0.5667    15.8294 </r>
       <r>    16.0842     0.5228    15.8997 </r>
       <r>    16.2187     0.4206    15.9563 </r>
       <r>    16.3532     0.5279    16.0273 </r>
       <r>    16.4877     0.5823    16.1057 </r>
       <r>    16.6223     0.4441    16.1654 </r>
       <r>    16.7568     0.4069    16.2202 </r>
       <r>    16.8913     0.4715    16.2836 </r>
       <r>    17.0258     0.5052    16.3516 </r>
       <r>    17.1604     0.4355    16.4101 </r>
       <r>    17.2949     0.3231    16.4536 </r>
       <r>    17.4294     0.4257    16.5109 </r>
       <r>    17.5639     0.5948    16.5909 </r>
       <r>    17.6985     0.4937    16.6573 </r>
       <r>    17.8330     0.4447    16.7171 </r>
       <r>    17.9675     0.4767    16.7813 </r>
       <r>    18.1020     0.5082    16.8496 </r>
       <r>    18.2366     0.5866    16.9285 </r>
       <r>    18.3711     0.6268    17.0129 </r>
       <r>    18.5056     0.5086    17.0813 </r>
       <r>    18.6401     0.3776    17.1321 </r>
       <r>    18.7747     0.4792    17.1965 </r>
       <r>    18.9092     0.4986    17.2636 </r>
       <r>    19.0437     0.3992    17.3173 </r>
       <r>    19.1782     0.4478    17.3776 </r>
       <r>    19.3128     0.6101    17.4596 </r>
       <r>    19.4473     0.8307    17.5714 </r>
       <r>    19.5818     0.9044    17.6930 </r>
       <r>    19.7164     1.0084    17.8287 </r>
       <r>    19.8509     1.0473    17.9696 </r>
       <r>    19.9854     0.8518    18.0842 </r>
       <r>    20.1199     0.8812    18.2027 </r>
       <r>    20.2545     1.2386    18.3693 </r>
       <r>    20.3890     1.2607    18.5389 </r>
       <r>    20.5235     0.9107    18.6615 </r>
       <r>    20.6580     0.6833    18.7534 </r>
       <r>    20.7926     0.5701    18.8301 </r>
       <r>    20.9271     0.4755    18.8940 </r>
       <r>    21.0616     0.6180    18.9772 </r>
       <r>    21.1961     0.8208    19.0876 </r>
       <r>    21.3307     0.8062    19.1960 </r>
       <r>    21.4652     0.8152    19.3057 </r>
       <r>    21.5997     0.7843    19.4112 </r>
       <r>    21.7342     0.6712    19.5015 </r>
       <r>    21.8688     0.7880    19.6075 </r>
       <r>    22.0033     0.7444    19.7077 </r>
       <r>    22.1378     0.5479    19.7814 </r>
       <r>    22.2723     0.4194    19.8378 </r>
       <r>    22.4069     0.3093    19.8794 </r>
       <r>    22.5414     0.3682    19.9289 </r>
       <r>    22.6759     0.5345    20.0008 </r>
       <r>    22.8104     0.4446    20.0606 </r>
       <r>    22.9450     0.4867    20.1261 </r>
       <r>    23.0795     0.8782    20.2443 </r>
       <r>    23.2140     0.8206    20.3546 </r>
       <r>    23.3485     0.3507    20.4018 </r>
       <r>    23.4831     0.2071    20.4297 </r>
       <r>    23.6176     0.2095    20.4579 </r>
       <r>    23.7521     0.2060    20.4856 </r>
       <r>    23.8866     0.2065    20.5133 </r>
       <r>    24.0212     0.2900    20.5524 </r>
       <r>    24.1557     0.3837    20.6040 </r>
       <r>    24.2902     0.4559    20.6653 </r>
       <r>    24.4247     0.5557    20.7401 </r>
       <r>    24.5593     0.6798    20.8315 </r>
       <r>    24.6938     0.6085    20.9134 </r>
       <r>    24.8283     0.3510    20.9606 </r>
       <r>    24.9628     0.2116    20.9891 </r>
       <r>    25.0974     0.2496    21.0227 </r>
       <r>    25.2319     0.3902    21.0751 </r>
       <r>    25.3664     0.3277    21.1192 </r>
       <r>    25.5009     0.2314    21.1503 </r>
       <r>    25.6355     0.4615    21.2124 </r>
       <r>    25.7700     0.6906    21.3053 </r>
       <r>    25.9045     0.6651    21.3948 </r>
       <r>    26.0391     0.7008    21.4891 </r>
       <r>    26.1736     0.7154    21.5853 </r>
       <r>    26.3081     0.8058    21.6937 </r>
       <r>    26.4426     1.1755    21.8518 </r>
       <r>    26.5772     1.2196    22.0159 </r>
       <r>    26.7117     0.7101    22.1114 </r>
       <r>    26.8462     0.5237    22.1819 </r>
       <r>    26.9807     0.6815    22.2736 </r>
       <r>    27.1153     0.4565    22.3350 </r>
       <r>    27.2498     0.4421    22.3945 </r>
       <r>    27.3843     0.7344    22.4932 </r>
       <r>    27.5188     0.7110    22.5889 </r>
       <r>    27.6534     0.6752    22.6797 </r>
       <r>    27.7879     0.9550    22.8082 </r>
       <r>    27.9224     1.0988    22.9560 </r>
       <r>    28.0569     0.7653    23.0590 </r>
       <r>    28.1915     0.5083    23.1273 </r>
       <r>    28.3260     0.6037    23.2086 </r>
       <r>    28.4605     0.7110    23.3042 </r>
       <r>    28.5950     0.5927    23.3839 </r>
       <r>    28.7296     0.4217    23.4407 </r>
       <r>    28.8641     0.4574    23.5022 </r>
       <r>    28.9986     0.4369    23.5610 </r>
       <r>    29.1331     0.2787    23.5985 </r>
       <r>    29.2677     0.2149    23.6274 </r>
       <r>    29.4022     0.3237    23.6709 </r>
       <r>    29.5367     0.5723    23.7479 </r>
       <r>    29.6712     0.5477    23.8216 </r>
       <r>    29.8058     0.1925    23.8475 </r>
       <r>    29.9403    -0.0152    23.8454 </r>
       <r>    30.0748    -0.0049    23.8448 </r>
       <r>    30.2093     0.0787    23.8553 </r>
       <r>    30.3439     0.1250    23.8722 </r>
       <r>    30.4784     0.0775    23.8826 </r>
       <r>    30.6129     0.0870    23.8943 </r>
       <r>    30.7474     0.1805    23.9186 </r>
       <r>    30.8820     0.2234    23.9486 </r>
       <r>    31.0165     0.1163    23.9643 </r>
       <r>    31.1510     0.0065    23.9651 </r>
       <r>    31.2855    -0.0113    23.9636 </r>
       <r>    31.4201     0.0028    23.9640 </r>
       <r>    31.5546     0.0540    23.9713 </r>
       <r>    31.6891     0.1153    23.9868 </r>
       <r>    31.8237     0.0893    23.9988 </r>
       <r>    31.9582     0.0157    24.0009 </r>
       <r>    32.0927    -0.0051    24.0002 </r>
       <r>    32.2272    -0.0015    24.0000 </r>
       <r>    32.3618    -0.0001    24.0000 </r>
       <r>    32.4963    -0.0000    24.0000 </r>
       <r>    32.6308    -0.0000    24.0000 </r>
       <r>    32.7653    -0.0000    24.0000 </r>
       <r>    32.8999    -0.0000    24.0000 </r>
       <r>    33.0344    -0.0000    24.0000 </r>
       <r>    33.1689     0.0000    24.0000 </r>
       <r>    33.3034     0.0000    24.0000 </r>
       <r>    33.4380     0.0000    24.0000 </r>
       <r>    33.5725     0.0000    24.0000 </r>
       <r>    33.7070     0.0000    24.0000 </r>
      </set>
     </set>
    </array>
   </total>
  </dos>
 </calculation>
 <structure name="finalpos" >
  <crystal>
   <varray name="basis" >
    <v>       0.00000000       2.15000000       2.15000000 </v>
    <v>       2.15000000       0.00000000       2.15000000 </v>
    <v>       2.15000000       2.15000000       0.00000000 </v>
   </varray>
   <i name="volume">     19.87675000 </i>
   <varray name="rec_basis" >
    <v>      -0.23255814       0.23255814       0.23255814 </v>
    <v>       0.23255814      -0.23255814       0.23255814 </v>
    <v>       0.23255814       0.23255814      -0.23255814 </v>
   </varray>
  </crystal>
  <varray name="positions" >
   <v>       0.00000000       0.00000000       0.00000000 </v>
  </varray>
 </structure>
</modeling>
