bcc Fe                                  
   2.70000000000000     
    -0.500000    0.500000    0.500000
     0.500000   -0.500000    0.500000
     0.500000    0.500000   -0.500000
   Fe
     1
Direct
  0.000000  0.000000  0.000000
 
   20   20   20
  82.996      78.611      66.869      51.193      35.291      21.884      12.382      7.0093      4.8824      4.2944    
  4.1122      4.2944      4.8824      7.0093      12.382      21.884      35.291      51.193      66.869      78.611    
  78.611      77.182      68.000      53.864      38.409      24.638      14.321      8.0214      5.1990      4.3710    
  4.0804      4.1404      4.5420      5.8329      9.6938      17.336      28.939      43.544      58.950      71.821    
  66.869      68.000      61.983      50.716      37.311      24.697      14.809      8.4455      5.3551      4.3554    
  3.9902      3.9384      4.2108      4.8860      7.1326      12.379      21.216      33.175      46.652      58.950    
  51.193      53.864      50.716      42.782      32.398      22.082      13.683      8.0887      5.2438      4.2505    
  3.8547      3.7225      3.8729      4.2909      5.3218      8.2597      14.035      22.674      33.175      43.544    
  35.291      38.409      37.311      32.398      25.218      17.695      11.382      7.0992      4.8854      4.0714    
  3.6906      3.5202      3.5754      3.8595      4.3665      5.6324      8.7015      14.035      21.216      28.939    
  21.884      24.638      24.697      22.082      17.695      12.848      8.6881      5.8621      4.4165      3.8468    
  3.5145      3.3462      3.3456      3.5146      3.8645      4.4016      5.6324      8.2597      12.379      17.336    
  12.382      14.321      14.809      13.683      11.382      8.6881      6.3443      4.7763      3.9896      3.6060    
  3.3417      3.2041      3.1849      3.2787      3.5002      3.8645      4.3665      5.3218      7.1326      9.6938    
  7.0093      8.0214      8.4455      8.0887      7.0992      5.8621      4.7763      4.0603      3.6627      3.3782    
  3.1870      3.0929      3.0812      3.1408      3.2787      3.5146      3.8595      4.2909      4.8860      5.8329    
  4.8824      5.1990      5.3551      5.2438      4.8854      4.4165      3.9896      3.6627      3.3926      3.1887    
  3.0641      3.0141      3.0239      3.0812      3.1849      3.3456      3.5754      3.8729      4.2108      4.5420    
  4.2944      4.3710      4.3554      4.2505      4.0714      3.8468      3.6060      3.3782      3.1887      3.0553    
  2.9850      2.9745      3.0141      3.0929      3.2041      3.3462      3.5202      3.7225      3.9384      4.1404    
  4.1122      4.0804      3.9902      3.8547      3.6906      3.5145      3.3417      3.1870      3.0641      2.9850    
  2.9577      2.9850      3.0641      3.1870      3.3417      3.5145      3.6906      3.8547      3.9902      4.0804    
  4.2944      4.1404      3.9384      3.7225      3.5202      3.3462      3.2041      3.0929      3.0141      2.9745    
  2.9850      3.0553      3.1887      3.3782      3.6060      3.8468      4.0714      4.2505      4.3554      4.3710    
  4.8824      4.5420      4.2108      3.8729      3.5754      3.3456      3.1849      3.0812      3.0239      3.0141    
  3.0641      3.1887      3.3926      3.6627      3.9896      4.4165      4.8854      5.2438      5.3551      5.1990    
  7.0093      5.8329      4.8860      4.2909      3.8595      3.5146      3.2787      3.1408      3.0812      3.0929    
  3.1870      3.3782      3.6627      4.0603      4.7763      5.8621      7.0992      8.0887      8.4455      8.0214    
  12.382      9.6938      7.1326      5.3218      4.3665      3.8645      3.5002      3.2787      3.1849      3.2041    
  3.3417      3.6060      3.9896      4.7763      6.3443      8.6881      11.382      13.683      14.809      14.321    
  21.884      17.336      12.379      8.2597      5.6324      4.4016      3.8645      3.5146      3.3456      3.3462    
  3.5145      3.8468      4.4165      5.8621      8.6881      12.848      17.695      22.082      24.697      24.638    
  35.291      28.939      21.216      14.035      8.7015      5.6324      4.3665      3.8595      3.5754      3.5202    
  3.6906      4.0714      4.8854      7.0992      11.382      17.695      25.218      32.398      37.311      38.409    
  51.193      43.544      33.175      22.674      14.035      8.2597      5.3218      4.2909      3.8729      3.7225    
  3.8547      4.2505      5.2438      8.0887      13.683      22.082      32.398      42.782      50.716      53.864    
  66.869      58.950      46.652      33.175      21.216      12.379      7.1326      4.8860      4.2108      3.9384    
  3.9902      4.3554      5.3551      8.4455      14.809      24.697      37.311      50.716      61.983      68.000    
  78.611      71.821      58.950      43.544      28.939      17.336      9.6938      5.8329      4.5420      4.1404    
  4.0804      4.3710      5.1990      8.0214      14.321      24.638      38.409      53.864      68.000      77.182    
  78.611      77.182      68.000      53.864      38.409      24.638      14.321      8.0214      5.1990      4.3710    
  4.0804      4.1404      4.5420      5.8329      9.6938      17.336      28.939      43.544      58.950      71.821    
  77.182      78.609      71.818      58.947      43.543      28.938      17.337      9.6942      5.8332      4.5421    
  4.1404      4.0803      4.3709      5.1988      8.0212      14.321      24.639      38.410      53.866      68.002    
  68.000      71.818      67.998      57.767      44.110      30.292      18.739      10.698      6.2968      4.6352    
  4.1322      3.9641      4.1322      4.6351      6.2965      10.697      18.739      30.293      44.111      57.770    
  53.864      58.947      57.767      50.716      39.949      28.277      18.049      10.631      6.3602      4.6130    
  4.0554      3.8113      3.8650      4.2101      5.0129      7.5088      12.869      21.408      32.413      44.111    
  38.409      43.543      44.110      39.949      32.399      23.596      15.544      9.5295      5.9712      4.4534    
  3.9201      3.6432      3.6120      3.8307      4.2848      5.3873      8.2952      13.697      21.407      30.292    
  24.638      28.938      30.292      28.277      23.596      17.696      12.087      7.8235      5.2883      4.1938    
  3.7439      3.4764      3.4004      3.5160      3.8304      4.3411      5.5440      8.2952      12.869      18.738    
  14.321      17.337      18.739      18.049      15.544      12.087      8.6880      6.0909      4.5718      3.9068    
  3.5480      3.3216      3.2382      3.2895      3.4833      3.8344      4.3412      5.3873      7.5087      10.697    
  8.0214      9.6942      10.698      10.631      9.5295      7.8235      6.0909      4.7761      4.0220      3.6329    
  3.3551      3.1856      3.1204      3.1450      3.2597      3.4834      3.8304      4.2848      5.0129      6.2965    
  5.1990      5.8332      6.2968      6.3602      5.9712      5.2883      4.5718      4.0220      3.6627      3.3851    
  3.1865      3.0752      3.0400      3.0652      3.1450      3.2895      3.5160      3.8306      4.2100      4.6351    
  4.3710      4.5421      4.6352      4.6130      4.4534      4.1938      3.9068      3.6329      3.3851      3.1888    
  3.0595      2.9987      2.9967      3.0400      3.1204      3.2382      3.4003      3.6119      3.8649      4.1323    
  4.0804      4.1404      4.1322      4.0554      3.9201      3.7439      3.5480      3.3551      3.1865      3.0595    
  2.9850      2.9660      2.9987      3.0751      3.1856      3.3216      3.4764      3.6432      3.8114      3.9641    
  4.1404      4.0803      3.9641      3.8113      3.6432      3.4764      3.3216      3.1856      3.0752      2.9987    
  2.9660      2.9849      3.0595      3.1864      3.3551      3.5481      3.7439      3.9202      4.0555      4.1323    
  4.5420      4.3709      4.1322      3.8650      3.6120      3.4004      3.2382      3.1204      3.0400      2.9967    
  2.9987      3.0595      3.1887      3.3851      3.6330      3.9069      4.1940      4.4534      4.6130      4.6351    
  5.8329      5.1988      4.6351      4.2101      3.8307      3.5160      3.2895      3.1450      3.0652      3.0400    
  3.0751      3.1864      3.3851      3.6628      4.0222      4.5720      5.2884      5.9711      6.3600      6.2965    
  9.6938      8.0212      6.2965      5.0129      4.2848      3.8304      3.4833      3.2597      3.1450      3.1204    
  3.1856      3.3551      3.6330      4.0222      4.7763      6.0910      7.8234      9.5290      10.631      10.697    
  17.336      14.321      10.697      7.5088      5.3873      4.3411      3.8344      3.4834      3.2895      3.2382    
  3.3216      3.5481      3.9069      4.5720      6.0910      8.6879      12.087      15.543      18.048      18.738    
  28.939      24.639      18.739      12.869      8.2952      5.5440      4.3412      3.8304      3.5160      3.4003    
  3.4764      3.7439      4.1940      5.2884      7.8234      12.087      17.695      23.595      28.276      30.292    
  43.544      38.410      30.293      21.408      13.697      8.2952      5.3873      4.2848      3.8306      3.6119    
  3.6432      3.9202      4.4534      5.9711      9.5290      15.543      23.595      32.398      39.948      44.111    
  58.950      53.866      44.111      32.413      21.407      12.869      7.5087      5.0129      4.2100      3.8649    
  3.8114      4.0555      4.6130      6.3600      10.631      18.048      28.276      39.948      50.717      57.770    
  71.821      68.002      57.770      44.111      30.292      18.738      10.697      6.2965      4.6351      4.1323    
  3.9641      4.1323      4.6351      6.2965      10.697      18.738      30.292      44.111      57.770      68.002    
  66.869      68.000      61.983      50.716      37.311      24.697      14.809      8.4455      5.3551      4.3554    
  3.9902      3.9384      4.2108      4.8860      7.1326      12.379      21.216      33.175      46.652      58.950    
  68.000      71.818      67.998      57.767      44.110      30.292      18.739      10.698      6.2968      4.6352    
  4.1322      3.9641      4.1322      4.6351      6.2965      10.697      18.739      30.293      44.111      57.770    
  61.983      67.998      66.867      58.947      46.650      33.175      21.216      12.380      7.1330      4.8861    
  4.2108      3.9384      3.9902      4.3553      5.3549      8.4452      14.809      24.698      37.312      50.717    
  50.716      57.767      58.947      53.864      44.111      32.414      21.409      12.870      7.5091      5.0129    
  4.2100      3.8649      3.8114      4.0555      4.6129      6.3599      10.631      18.048      28.276      39.948    
  37.311      44.110      46.650      44.111      37.313      28.278      19.269      11.989      7.2476      4.9303    
  4.1285      3.7530      3.6243      3.7531      4.1286      4.9305      7.2475      11.989      19.268      28.276    
  24.697      30.292      33.175      32.414      28.278      22.083      15.544      10.084      6.4561      4.6499    
  3.9785      3.6149      3.4510      3.4921      3.7408      4.1851      5.1600      7.5983      11.989      18.048    
  14.809      18.739      21.216      21.409      19.269      15.544      11.382      7.8229      5.4521      4.2768    
  3.7819      3.4640      3.3027      3.2939      3.4371      3.7449      4.2093      5.1600      7.2475      10.631    
  8.4455      10.698      12.380      12.870      11.989      10.084      7.8229      5.8615      4.5715      3.9274    
  3.5662      3.3137      3.1817      3.1575      3.2338      3.4239      3.7449      4.1851      4.9305      6.3600    
  5.3551      6.2968      7.1330      7.5091      7.2476      6.4561      5.4521      4.5715      3.9894      3.6330    
  3.3595      3.1776      3.0868      3.0708      3.1180      3.2338      3.4371      3.7408      4.1286      4.6130    
  4.3554      4.6352      4.8861      5.0129      4.9303      4.6499      4.2768      3.9274      3.6330      3.3783    
  3.1865      3.0689      3.0197      3.0244      3.0709      3.1576      3.2940      3.4921      3.7530      4.0555    
  3.9902      4.1322      4.2108      4.2100      4.1285      3.9785      3.7819      3.5662      3.3595      3.1865    
  3.0642      2.9987      2.9870      3.0197      3.0869      3.1817      3.3028      3.4510      3.6242      3.8114    
  3.9384      3.9641      3.9384      3.8649      3.7530      3.6149      3.4640      3.3137      3.1776      3.0689    
  2.9987      2.9745      2.9987      3.0689      3.1776      3.3137      3.4641      3.6150      3.7530      3.8649    
  4.2108      4.1322      3.9902      3.8114      3.6243      3.4510      3.3027      3.1817      3.0868      3.0197    
  2.9870      2.9987      3.0641      3.1865      3.3594      3.5662      3.7820      3.9786      4.1286      4.2100    
  4.8860      4.6351      4.3553      4.0555      3.7531      3.4921      3.2939      3.1575      3.0708      3.0244    
  3.0197      3.0689      3.1865      3.3782      3.6330      3.9275      4.2771      4.6501      4.9305      5.0129    
  7.1326      6.2965      5.3549      4.6129      4.1286      3.7408      3.4371      3.2338      3.1180      3.0709    
  3.0869      3.1776      3.3594      3.6330      3.9897      4.5720      5.4526      6.4564      7.2475      7.5087    
  12.379      10.697      8.4452      6.3599      4.9305      4.1851      3.7449      3.4239      3.2338      3.1576    
  3.1817      3.3137      3.5662      3.9275      4.5720      5.8621      7.8233      10.084      11.989      12.869    
  21.216      18.739      14.809      10.631      7.2475      5.1600      4.2093      3.7449      3.4371      3.2940    
  3.3028      3.4641      3.7820      4.2771      5.4526      7.8233      11.381      15.543      19.268      21.407    
  33.175      30.293      24.698      18.048      11.989      7.5983      5.1600      4.1851      3.7408      3.4921    
  3.4510      3.6150      3.9786      4.6501      6.4564      10.084      15.543      22.082      28.276      32.413    
  46.652      44.111      37.312      28.276      19.268      11.989      7.2475      4.9305      4.1286      3.7530    
  3.6242      3.7530      4.1286      4.9305      7.2475      11.989      19.268      28.276      37.312      44.111    
  58.950      57.770      50.717      39.948      28.276      18.048      10.631      6.3600      4.6130      4.0555    
  3.8114      3.8649      4.2100      5.0129      7.5087      12.869      21.407      32.413      44.111      53.866    
  51.193      53.864      50.716      42.782      32.398      22.082      13.683      8.0887      5.2438      4.2505    
  3.8547      3.7225      3.8729      4.2909      5.3218      8.2597      14.035      22.674      33.175      43.544    
  53.864      58.947      57.767      50.716      39.949      28.277      18.049      10.631      6.3602      4.6130    
  4.0554      3.8113      3.8650      4.2101      5.0129      7.5088      12.869      21.408      32.413      44.111    
  50.716      57.767      58.947      53.864      44.111      32.414      21.409      12.870      7.5091      5.0129    
  4.2100      3.8649      3.8114      4.0555      4.6129      6.3599      10.631      18.048      28.276      39.948    
  42.782      50.716      53.864      51.194      43.545      33.176      22.675      14.036      8.2597      5.3216    
  4.2907      3.8729      3.7226      3.8548      4.2504      5.2436      8.0885      13.683      22.082      32.398    
  32.398      39.949      44.111      43.545      38.412      30.294      21.409      13.697      8.2949      5.3868    
  4.2845      3.8306      3.6119      3.6432      3.9201      4.4534      5.9711      9.5291      15.543      23.595    
  22.082      28.277      32.414      33.176      30.294      24.699      18.048      11.988      7.5975      5.1593    
  4.1848      3.7407      3.4921      3.4510      3.6149      3.9787      4.6502      6.4564      10.084      15.543    
  13.683      18.049      21.409      22.675      21.409      18.048      13.682      9.5280      6.4554      4.7335    
  4.0109      3.6132      3.3726      3.2950      3.3726      3.6133      4.0111      4.7341      6.4564      9.5290    
  8.0887      10.631      12.870      14.036      13.697      11.988      9.5280      7.0979      5.2876      4.2768    
  3.7953      3.4640      3.2599      3.1782      3.2049      3.3451      3.6157      4.0111      4.6501      5.9711    
  5.2438      6.3602      7.5091      8.2597      8.2949      7.5975      6.4554      5.2876      4.4161      3.9070    
  3.5664      3.3124      3.1592      3.0948      3.1026      3.1807      3.3450      3.6132      3.9786      4.4534    
  4.2505      4.6130      5.0129      5.3216      5.3868      5.1593      4.7335      4.2768      3.9070      3.6063    
  3.3553      3.1777      3.0766      3.0393      3.0500      3.1026      3.2050      3.3726      3.6150      3.9202    
  3.8547      4.0554      4.2100      4.2907      4.2845      4.1848      4.0109      3.7953      3.5664      3.3553    
  3.1871      3.0752      3.0197      3.0117      3.0393      3.0949      3.1782      3.2950      3.4510      3.6432    
  3.7225      3.8113      3.8649      3.8729      3.8306      3.7407      3.6132      3.4640      3.3124      3.1777    
  3.0752      3.0141      2.9967      3.0198      3.0767      3.1592      3.2599      3.3726      3.4921      3.6119    
  3.8729      3.8650      3.8114      3.7226      3.6119      3.4921      3.3726      3.2599      3.1592      3.0766    
  3.0197      2.9967      3.0141      3.0752      3.1776      3.3123      3.4639      3.6132      3.7408      3.8306    
  4.2909      4.2101      4.0555      3.8548      3.6432      3.4510      3.2950      3.1782      3.0948      3.0393    
  3.0117      3.0198      3.0752      3.1870      3.3550      3.5661      3.7953      4.0111      4.1851      4.2848    
  5.3218      5.0129      4.6129      4.2504      3.9201      3.6149      3.3726      3.2049      3.1026      3.0500    
  3.0393      3.0767      3.1776      3.3550      3.6060      3.9069      4.2772      4.7341      5.1600      5.3873    
  8.2597      7.5088      6.3599      5.2436      4.4534      3.9787      3.6133      3.3451      3.1807      3.1026    
  3.0949      3.1592      3.3123      3.5661      3.9069      4.4165      5.2884      6.4564      7.5983      8.2952    
  14.035      12.869      10.631      8.0885      5.9711      4.6502      4.0111      3.6157      3.3450      3.2050    
  3.1782      3.2599      3.4639      3.7953      4.2772      5.2884      7.0991      9.5291      11.989      13.697    
  22.674      21.408      18.048      13.683      9.5291      6.4564      4.7341      4.0111      3.6132      3.3726    
  3.2950      3.3726      3.6132      4.0111      4.7341      6.4564      9.5291      13.683      18.048      21.408    
  33.175      32.413      28.276      22.082      15.543      10.084      6.4564      4.6501      3.9786      3.6150    
  3.4510      3.4921      3.7408      4.1851      5.1600      7.5983      11.989      18.048      24.698      30.293    
  43.544      44.111      39.948      32.398      23.595      15.543      9.5290      5.9711      4.4534      3.9202    
  3.6432      3.6119      3.8306      4.2848      5.3873      8.2952      13.697      21.408      30.293      38.410    
  35.291      38.409      37.311      32.398      25.218      17.695      11.382      7.0992      4.8854      4.0714    
  3.6906      3.5202      3.5754      3.8595      4.3665      5.6324      8.7015      14.035      21.216      28.939    
  38.409      43.543      44.110      39.949      32.399      23.596      15.544      9.5295      5.9712      4.4534    
  3.9201      3.6432      3.6120      3.8307      4.2848      5.3873      8.2952      13.697      21.407      30.292    
  37.311      44.110      46.650      44.111      37.313      28.278      19.269      11.989      7.2476      4.9303    
  4.1285      3.7530      3.6243      3.7531      4.1286      4.9305      7.2475      11.989      19.268      28.276    
  32.398      39.949      44.111      43.545      38.412      30.294      21.409      13.697      8.2949      5.3868    
  4.2845      3.8306      3.6119      3.6432      3.9201      4.4534      5.9711      9.5291      15.543      23.595    
  25.218      32.399      37.313      38.412      35.294      28.941      21.216      14.035      8.7006      5.6316    
  4.3660      3.8594      3.5753      3.5202      3.6906      4.0713      4.8854      7.0991      11.381      17.695    
  17.695      23.596      28.278      30.294      28.941      24.640      18.738      12.868      8.2938      5.5431    
  4.3407      3.8303      3.5160      3.4003      3.4764      3.7439      4.1940      5.2884      7.8233      12.087    
  11.382      15.544      19.269      21.409      21.216      18.738      14.807      10.629      7.2461      5.1593    
  4.2091      3.7449      3.4372      3.2940      3.3027      3.4641      3.7821      4.2772      5.4526      7.8234    
  7.0992      9.5295      11.989      13.697      14.035      12.868      10.629      8.0869      5.9701      4.6500    
  4.0113      3.6160      3.3452      3.2050      3.1782      3.2599      3.4639      3.7953      4.2771      5.2884    
  4.8854      5.9712      7.2476      8.2949      8.7006      8.2938      7.2461      5.9701      4.8851      4.1943    
  3.7826      3.4643      3.2489      3.1330      3.0977      3.1330      3.2488      3.4639      3.7820      4.1940    
  4.0714      4.4534      4.9303      5.3868      5.6316      5.5431      5.1593      4.6500      4.1943      3.8474    
  3.5486      3.3140      3.1593      3.0772      3.0507      3.0683      3.1330      3.2599      3.4641      3.7439    
  3.6906      3.9201      4.1285      4.2845      4.3660      4.3407      4.2091      4.0113      3.7826      3.5486    
  3.3421      3.1857      3.0868      3.0393      3.0306      3.0507      3.0977      3.1782      3.3028      3.4764    
  3.5202      3.6432      3.7530      3.8306      3.8594      3.8303      3.7449      3.6160      3.4643      3.3140    
  3.1857      3.0928      3.0400      3.0244      3.0393      3.0772      3.1330      3.2050      3.2940      3.4003    
  3.5754      3.6120      3.6243      3.6119      3.5753      3.5160      3.4372      3.3452      3.2489      3.1593    
  3.0868      3.0400      3.0238      3.0400      3.0868      3.1592      3.2488      3.3450      3.4371      3.5160    
  3.8595      3.8307      3.7531      3.6432      3.5202      3.4003      3.2940      3.2050      3.1330      3.0772    
  3.0393      3.0244      3.0400      3.0929      3.1856      3.3137      3.4639      3.6157      3.7449      3.8304    
  4.3665      4.2848      4.1286      3.9201      3.6906      3.4764      3.3027      3.1782      3.0977      3.0507    
  3.0306      3.0393      3.0868      3.1856      3.3417      3.5480      3.7821      4.0111      4.2093      4.3412    
  5.6324      5.3873      4.9305      4.4534      4.0713      3.7439      3.4641      3.2599      3.1330      3.0683    
  3.0507      3.0772      3.1592      3.3137      3.5480      3.8468      4.1940      4.6502      5.1600      5.5440    
  8.7015      8.2952      7.2475      5.9711      4.8854      4.1940      3.7821      3.4639      3.2488      3.1330    
  3.0977      3.1330      3.2488      3.4639      3.7821      4.1940      4.8854      5.9711      7.2475      8.2952    
  14.035      13.697      11.989      9.5291      7.0991      5.2884      4.2772      3.7953      3.4639      3.2599    
  3.1782      3.2050      3.3450      3.6157      4.0111      4.6502      5.9711      8.0885      10.631      12.869    
  21.216      21.407      19.268      15.543      11.381      7.8233      5.4526      4.2771      3.7820      3.4641    
  3.3028      3.2940      3.4371      3.7449      4.2093      5.1600      7.2475      10.631      14.809      18.739    
  28.939      30.292      28.276      23.595      17.695      12.087      7.8234      5.2884      4.1940      3.7439    
  3.4764      3.4003      3.5160      3.8304      4.3412      5.5440      8.2952      12.869      18.739      24.639    
  21.884      24.638      24.697      22.082      17.695      12.848      8.6881      5.8621      4.4165      3.8468    
  3.5145      3.3462      3.3456      3.5146      3.8645      4.4016      5.6324      8.2597      12.379      17.336    
  24.638      28.938      30.292      28.277      23.596      17.696      12.087      7.8235      5.2883      4.1938    
  3.7439      3.4764      3.4004      3.5160      3.8304      4.3411      5.5440      8.2952      12.869      18.738    
  24.697      30.292      33.175      32.414      28.278      22.083      15.544      10.084      6.4561      4.6499    
  3.9785      3.6149      3.4510      3.4921      3.7408      4.1851      5.1600      7.5983      11.989      18.048    
  22.082      28.277      32.414      33.176      30.294      24.699      18.048      11.988      7.5975      5.1593    
  4.1848      3.7407      3.4921      3.4510      3.6149      3.9787      4.6502      6.4564      10.084      15.543    
  17.695      23.596      28.278      30.294      28.941      24.640      18.738      12.868      8.2938      5.5431    
  4.3407      3.8303      3.5160      3.4003      3.4764      3.7439      4.1940      5.2884      7.8233      12.087    
  12.848      17.696      22.083      24.699      24.640      21.884      17.335      12.377      8.2579      5.6314    
  4.4014      3.8646      3.5147      3.3456      3.3462      3.5145      3.8468      4.4165      5.8621      8.6879    
  8.6881      12.087      15.544      18.048      18.738      17.335      14.319      10.695      7.5073      5.3868    
  4.3414      3.8348      3.4836      3.2896      3.2382      3.3216      3.5480      3.9069      4.5720      6.0910    
  5.8621      7.8235      10.084      11.988      12.868      12.377      10.695      8.4436      6.3594      4.9309    
  4.1859      3.7455      3.4243      3.2340      3.1576      3.1817      3.3137      3.5661      3.9275      4.5720    
  4.4165      5.2883      6.4561      7.5975      8.2938      8.2579      7.5073      6.3594      5.2440      4.4545    
  3.9797      3.6140      3.3454      3.1808      3.1027      3.0949      3.1592      3.3123      3.5662      3.9069    
  3.8468      4.1938      4.6499      5.1593      5.5431      5.6314      5.3868      4.9309      4.4545      4.0726    
  3.7449      3.4645      3.2600      3.1330      3.0683      3.0507      3.0772      3.1592      3.3137      3.5481    
  3.5145      3.7439      3.9785      4.1848      4.3407      4.4014      4.3414      4.1859      3.9797      3.7449    
  3.5150      3.3216      3.1816      3.0948      3.0507      3.0376      3.0507      3.0949      3.1817      3.3216    
  3.3462      3.4764      3.6149      3.7407      3.8303      3.8646      3.8348      3.7455      3.6140      3.4645    
  3.3216      3.2038      3.1201      3.0707      3.0500      3.0507      3.0683      3.1026      3.1576      3.2382    
  3.3456      3.4004      3.4510      3.4921      3.5160      3.5147      3.4836      3.4243      3.3454      3.2600    
  3.1816      3.1201      3.0810      3.0651      3.0709      3.0949      3.1330      3.1807      3.2338      3.2895    
  3.5146      3.5160      3.4921      3.4510      3.4003      3.3456      3.2896      3.2340      3.1808      3.1330    
  3.0948      3.0707      3.0651      3.0811      3.1204      3.1817      3.2599      3.3451      3.4239      3.4834    
  3.8645      3.8304      3.7408      3.6149      3.4764      3.3462      3.2382      3.1576      3.1027      3.0683    
  3.0507      3.0500      3.0709      3.1204      3.2040      3.3216      3.4641      3.6133      3.7449      3.8344    
  4.4016      4.3411      4.1851      3.9787      3.7439      3.5145      3.3216      3.1817      3.0949      3.0507    
  3.0376      3.0507      3.0949      3.1817      3.3216      3.5145      3.7439      3.9787      4.1851      4.3411    
  5.6324      5.5440      5.1600      4.6502      4.1940      3.8468      3.5480      3.3137      3.1592      3.0772    
  3.0507      3.0683      3.1330      3.2599      3.4641      3.7439      4.0713      4.4534      4.9305      5.3873    
  8.2597      8.2952      7.5983      6.4564      5.2884      4.4165      3.9069      3.5661      3.3123      3.1592    
  3.0949      3.1026      3.1807      3.3451      3.6133      3.9787      4.4534      5.2436      6.3599      7.5088    
  12.379      12.869      11.989      10.084      7.8233      5.8621      4.5720      3.9275      3.5662      3.3137    
  3.1817      3.1576      3.2338      3.4239      3.7449      4.1851      4.9305      6.3599      8.4452      10.697    
  17.336      18.738      18.048      15.543      12.087      8.6879      6.0910      4.5720      3.9069      3.5481    
  3.3216      3.2382      3.2895      3.4834      3.8344      4.3411      5.3873      7.5088      10.697      14.321    
  12.382      14.321      14.809      13.683      11.382      8.6881      6.3443      4.7763      3.9896      3.6060    
  3.3417      3.2041      3.1849      3.2787      3.5002      3.8645      4.3665      5.3218      7.1326      9.6938    
  14.321      17.337      18.739      18.049      15.544      12.087      8.6880      6.0909      4.5718      3.9068    
  3.5480      3.3216      3.2382      3.2895      3.4833      3.8344      4.3412      5.3873      7.5087      10.697    
  14.809      18.739      21.216      21.409      19.269      15.544      11.382      7.8229      5.4521      4.2768    