    1    1    1    2
  0.9841500E+01  0.2338269E-09  0.2338269E-09  0.2338269E-09  0.5000000E-15
  1.000000000000000E-004
  CAR 
 bcc Fe                                  
      8     44     12
 
  0.5000000E-01  0.5000000E-01  0.5000000E-01  0.8000000E-02
    1       -1.204428     -0.990989   1.000000   1.000000
    2        4.661328      6.327866   1.000000   1.000000
    3        4.661328      6.327866   1.000000   1.000000
    4        5.303314      7.029436   1.000000   1.006426
    5        6.328507      8.805989   1.000000  -0.000000
    6        6.328507      8.805989   1.000000  -0.000000
    7       31.517542     31.662213   0.000000   0.000000
    8       31.517542     31.662213   0.000000   0.000000
    9       34.466052     34.305353   0.000000   0.000000
   10       37.686478     38.517802   0.000000   0.000000
   11       40.679608     40.985408   0.000000   0.000000
   12       40.679608     40.985408   0.000000   0.000000
 
  0.1500000E+00  0.5000000E-01  0.5000000E-01  0.2400000E-01
    1        0.025009      0.271713   1.000000   1.000000
    2        4.279945      5.891326   1.000000   1.000000
    3        4.458323      6.078474   1.000000   1.000000
    4        6.132766      7.904677   1.000000  -0.002589
    5        6.201325      8.589740   1.000000  -0.000000
    6        6.427151      8.920652   1.000000  -0.000000
    7       27.356762     27.832460   0.000000   0.000000
    8       29.622940     29.912591   0.000000   0.000000
    9       33.881591     34.645946   0.000000   0.000000
   10       34.990821     34.944768   0.000000   0.000000
   11       40.710225     41.010858   0.000000   0.000000
   12       40.957365     41.597537   0.000000   0.000000
 
  0.2500000E+00  0.5000000E-01  0.5000000E-01  0.2400000E-01
    1        1.425231      1.905207   1.000000   1.000000
    2        3.866022      5.414440   1.000000   1.000000
    3        4.565440      5.928741   1.000000   1.000000
    4        6.289801      8.609194   1.000000  -0.000000
    5        6.535279      9.057578   1.000000  -0.000000
    6        7.288970      9.085756   0.981438  -0.000000
    7       22.656396     23.409759   0.000000   0.000000
    8       27.770068     28.079991   0.000000   0.000000
    9       31.122052     31.809631   0.000000   0.000000
   10       34.902908     35.076806   0.000000   0.000000
   11       39.881051     40.465825   0.000000   0.000000
   12       42.804867     43.071596   0.000000   0.000000
 
  0.3500000E+00  0.5000000E-01  0.5000000E-01  0.2400000E-01
    1        1.861792      2.864621   1.000000   1.000000
    2        3.556123      5.059545   1.000000   1.000000
    3        5.828592      6.698537   1.000000   1.000001
    4        6.470584      8.753049   1.000000  -0.000000
    5        6.628714      9.181864   1.000000  -0.000000
    6        8.604703     10.279450  -0.000000  -0.000000
    7       18.384609     19.408806   0.000000   0.000000
    8       26.438412     26.719321   0.000000   0.000000
    9       29.265501     29.882613   0.000000   0.000000
   10       34.659824     34.981548   0.000000   0.000000
   11       39.552499     40.142269   0.000000   0.000000
   12       45.034124     45.212289   0.000000   0.000000
 
  0.4500000E+00  0.5000000E-01  0.5000000E-01  0.1200000E-01
    1        1.834718      3.003271   1.000000   1.000000
    2        3.442617      4.930023   1.000000   1.000000
    3        6.501130      7.507699   1.000000   0.240039
    4        6.667168      8.814175   1.000000  -0.000000
    5        6.721339      9.234092   1.000002  -0.000000
    6        9.554321     10.939979  -0.000000  -0.000000
    7       16.222720     17.481436   0.000000   0.000000
    8       25.952912     26.216904   0.000000   0.000000
    9       28.578185     29.160169   0.000000   0.000000
   10       34.558326     34.928601   0.000000   0.000000
   11       39.550368     40.159915   0.000000   0.000000
   12       44.740363     44.849858   0.000000   0.000000
 
 -0.5000000E-01  0.5000000E-01  0.5000000E-01  0.6000000E-02
    1       -1.654904     -1.445743   1.000000   1.000000
    2        4.823948      6.511642   1.000000   1.000000
    3        4.823977      6.511705   1.000000   1.000000
    4        4.895051      6.595663   1.000000   1.000000
    5        6.280974      8.755221   1.000000  -0.000000
    6        6.449551      8.960808   1.000000  -0.000000
    7       32.662602     32.625197   0.000000   0.000000
    8       33.767576     33.670801   0.000000   0.000000
    9       33.767604     33.670806   0.000000   0.000000
   10       38.502069     38.874691   0.000000   0.000000
   11       41.438836     41.927381   0.000000   0.000000
   12       41.438933     42.245809   0.000000   0.000000
 
  0.1500000E+00  0.1500000E+00  0.5000000E-01  0.2400000E-01
    1        1.383224      1.726142   1.000000   1.000000
    2        3.978539      5.548000   1.000000   1.000000
    3        4.032970      5.556379   1.000000   1.000000
    4        6.227529      8.591948   1.000000  -0.000000
    5        6.550812      9.014827   1.000000  -0.000000
    6        7.358204      9.155451   0.824280  -0.000000
    7       24.906441     25.502592   0.000000   0.000000
    8       26.007787     26.533135   0.000000   0.000000
    9       30.217398     30.892440   0.000000   0.000000
   10       36.442732     36.396858   0.000000   0.000000
   11       41.423292     41.787567   0.000000   0.000000
   12       43.245301     43.698408   0.000000   0.000000
 
  0.2500000E+00  0.1500000E+00  0.5000000E-01  0.4800000E-01
    1        2.362909      3.142345   1.000000   1.000000
    2        3.632151      5.122485   1.000000   1.000000
    3        4.342271      5.565312   1.000000   1.000000
    4        6.359259      8.694392   1.000000  -0.000000
    5        6.690296      9.190255   1.000001  -0.000000
    6        8.999522     10.646031  -0.000000  -0.000000
    7       20.755398     21.575271   0.000000   0.000000
    8       24.028349     24.599551   0.000000   0.000000
    9       28.101184     28.691026   0.000000   0.000000
   10       36.926469     37.026397   0.000000   0.000000
   11       42.198748     42.514819   0.000000   0.000000
   12       44.013353     44.443217   0.000000   0.000000
 
  0.3500000E+00  0.1500000E+00  0.5000000E-01  0.4800000E-01
    1        2.371537      3.539748   1.000000   1.000000
    2        3.470041      4.919382   1.000000   1.000000
    3        5.218786      6.297590   1.000000   1.000000
    4        6.509344      8.844235   1.000000  -0.000000
    5        6.808669      9.267872   1.000035  -0.000000
    6       10.931171     12.231867  -0.000000  -0.000000
    7       17.030012     18.122422   0.000000   0.000000
    8       23.121595     23.684726   0.000000   0.000000
    9       27.048175     27.593851   0.000000   0.000000
   10       36.931366     37.131898   0.000000   0.000000
   11       43.114411     43.387111   0.000000   0.000000
   12       43.943493     44.313925   0.000000   0.000000
 
 -0.1500000E+00  0.1500000E+00  0.5000000E-01  0.2400000E-01
    1       -0.773617     -0.551952   1.000000   1.000000
    2        4.588677      6.239113   1.000000   1.000000
    3        4.768927      6.431852   1.000000   1.000000
    4        5.405392      7.141357   1.000000   1.027374
    5        6.023179      8.415056   1.000000  -0.000000
    6        6.531855      9.050236   1.000000  -0.000000
    7       29.588678     29.886192   0.000000   0.000000
    8       32.306697     32.418270   0.000000   0.000000
    9       33.301733     33.442301   0.000000   0.000000
   10       37.656355     37.997894   0.000000   0.000000
   11       38.545306     39.251930   0.000000   0.000000
   12       39.453506     40.096537   0.000000   0.000000
 
  0.2500000E+00  0.2500000E+00  0.5000000E-01  0.2400000E-01
    1        2.911266      4.068324   1.000000   1.000000
    2        3.540452      4.943258   1.000000   1.000000
    3        4.307208      5.473600   1.000000   1.000000
    4        6.492763      8.835666   1.000000  -0.000000
    5        6.792537      9.238930   1.000022  -0.000000
    6       11.421057     12.781501  -0.000000  -0.000000
    7       18.874540     19.757247   0.000000   0.000000
    8       20.276633     21.018047   0.000000   0.000000
    9       26.810926     27.372257   0.000000   0.000000
   10       38.417019     38.511257   0.000000   0.000000
   11       41.750523     41.960614   0.000000   0.000000
   12       48.398541     48.700864   0.000000   0.000000
 
  0.3500000E+00  0.2500000E+00  0.5000000E-01  0.2400000E-01
    1        2.944548      4.225117   1.000000   1.000000
    2        3.602376      4.962073   1.000000   1.000000
    3        4.369830      5.592198   1.000000   1.000000
    4        6.616571      8.974979   1.000000  -0.000000
    5        6.798205      9.196966   1.000026  -0.000000
    6       13.653548     14.736091   0.000000   0.000000
    7       16.289861     17.347175   0.000000   0.000000
    8       19.450192     20.221561   0.000000   0.000000
    9       26.433814     26.996832   0.000000   0.000000
   10       39.062771     39.190197   0.000000   0.000000
   11       41.558003     41.664404   0.000000   0.000000
   12       48.307604     48.792887   0.000000   0.000000
 
 -0.2500000E+00  0.2500000E+00  0.5000000E-01  0.2400000E-01
    1        0.670075      0.989776   1.000000   1.000000
    2        4.185749      5.778484   1.000000   1.000000
    3        4.627034      6.187225   1.000000   1.000000
    4        6.030450      8.128670   1.000000  -0.000007
    5        6.317233      8.299727   1.000000  -0.000000
    6        6.629777      9.145087   1.000000  -0.000000
    7       25.007560     25.645740   0.000000   0.000000
    8       30.004460     30.188186   0.000000   0.000000
    9       32.249853     32.705958   0.000000   0.000000
   10       35.949810     36.497045   0.000000   0.000000
   11       37.851935     38.392999   0.000000   0.000000
   12       39.767412     40.092558   0.000000   0.000000
 
 -0.1500000E+00  0.2500000E+00  0.5000000E-01  0.2400000E-01
    1        0.391425      0.661587   1.000000   1.000000
    2        4.474864      6.092164   1.000000   1.000000
    3        4.493065      6.137014   1.000000   1.000000
    4        5.780633      7.863074   1.000000  -0.005664
    5        6.091909      8.045204   1.000000  -0.000087
    6        6.724767      9.240084   1.000002  -0.000000
    7       27.124288     27.611689   0.000000   0.000000
    8       28.759378     29.218468   0.000000   0.000000
    9       33.392327     33.578330   0.000000   0.000000
   10       35.095933     35.685431   0.000000   0.000000
   11       37.710041     38.091237   0.000000   0.000000
   12       41.319625     41.791687   0.000000   0.000000
 
 -0.3500000E+00  0.3500000E+00  0.5000000E-01  0.2400000E-01
    1        1.657652      2.420658   1.000000   1.000000
    2        3.804996      5.346055   1.000000   1.000000
    3        5.198840      6.376695   1.000000   1.000000
    4        6.342972      8.512932   1.000000  -0.000000
    5        6.916269      9.253077   1.000630  -0.000000
    6        7.344854      9.302629   0.863834  -0.000000
    7       20.371338     21.270774   0.000000   0.000000
    8       28.129899     28.307111   0.000000   0.000000
    9       30.609217     31.199907   0.000000   0.000000
   10       34.721083     35.193822   0.000000   0.000000
   11       37.843213     38.420223   0.000000   0.000000
   12       41.723918     42.002314   0.000000   0.000000
 
 -0.2500000E+00  0.3500000E+00  0.5000000E-01  0.4800000E-01
    1        1.713397      2.229953   1.000000   1.000000
    2        4.025614      5.621106   1.000000   1.000000
    3        4.437671      5.917432   1.000000   1.000000
    4        5.951319      8.102394   1.000000  -0.000016
    5        6.804547      8.934507   1.000031  -0.000000
    6        7.441407      9.542230   0.505033  -0.000000
    7       22.928109     23.675486   0.000000   0.000000
    8       26.260197     26.775827   0.000000   0.000000
    9       31.845457     32.252167   0.000000   0.000000
   10       34.435258     34.841056   0.000000   0.000000
   11       38.257332     38.639731   0.000000   0.000000
   12       42.029674     42.478833   0.000000   0.000000
 
 -0.4500000E+00  0.4500000E+00  0.5000000E-01  0.2400000E-01
    1        1.750831      2.887135   1.000000   1.000000
    2        3.578713      5.090501   1.000000   1.000000
    3        5.997330      7.346946   1.000000   0.857920
    4        6.432606      8.675395   1.000000  -0.000000
    5        8.051932      9.704007  -0.000072  -0.000000
    6        8.183882     10.038065  -0.000001  -0.000000
    7       16.835491     18.028291   0.000000   0.000000
    8       27.093875     27.248549   0.000000   0.000000
    9       29.368062     29.930891   0.000000   0.000000
   10       34.338884     34.836448   0.000000   0.000000
   11       38.102034     38.723883   0.000000   0.000000
   12       42.792979     42.938650   0.000000   0.000000
 
 -0.3500000E+00  0.4500000E+00  0.5000000E-01  0.4800000E-01
    1        2.132878      3.181355   1.000000   1.000000
    2        3.792828      5.315534   1.000000   1.000000
    3        4.865655      6.182984   1.000000   1.000000
    4        6.255981      8.412245   1.000000  -0.000000
    5        7.259692      9.423378   1.013832  -0.000000
    6        9.094204     10.714402  -0.000000  -0.000000
    7       18.590240     19.586609   0.000000   0.000000
    8       24.899109     25.417643   0.000000   0.000000
    9       30.066886     30.456485   0.000000   0.000000
   10       34.729868     35.184370   0.000000   0.000000
   11       39.306522     39.604400   0.000000   0.000000
   12       41.860452     42.327805   0.000000   0.000000
 
 -0.2500000E+00  0.4500000E+00  0.5000000E-01  0.2400000E-01
    1        2.613829      3.503518   1.000000   1.000000
    2        3.585282      5.156461   1.000000   1.000000
    3        4.437009      5.825970   1.000000   1.000000
    4        6.115175      8.235332   1.000000  -0.000000
    5        6.995485      9.253943   1.003474  -0.000000
    6        9.418355     11.054972  -0.000000  -0.000000
    7       20.871555     21.721005   0.000000   0.000000
    8       21.989155     22.670472   0.000000   0.000000
    9       31.546901     32.027422   0.000000   0.000000
   10       33.883324     34.136393   0.000000   0.000000
   11       38.156339     38.515106   0.000000   0.000000
   12       46.475783     46.880880   0.000000   0.000000
 
 -0.4500000E+00 -0.4500000E+00  0.5000000E-01  0.2400000E-01
    1        2.091090      3.315949   1.000000   1.000000
    2        3.713285      5.219485   1.000000   1.000000
    3        5.156604      6.556291   1.000000   1.000000
    4        6.300960      8.507478   1.000000  -0.000000
    5        7.622126      9.671841  -0.010988  -0.000000
    6       10.440423     11.700030  -0.000000  -0.000000
    7       16.258588     17.484395   0.000000   0.000000
    8       24.403229     24.914160   0.000000   0.000000
    9       29.416466     29.782489   0.000000   0.000000
   10       34.826489     35.319191   0.000000   0.000000
   11       40.281994     40.424640   0.000000   0.000000
   12       41.240740     41.790228   0.000000   0.000000
 
 -0.3500000E+00 -0.4500000E+00  0.5000000E-01  0.4800000E-01
    1        2.781721      4.046464   1.000000   1.000000
    2        3.652778      5.133749   1.000000   1.000000
    3        4.312756      5.708914   1.000000   1.000000
    4        6.397325      8.537564   1.000000  -0.000000
    5        7.169869      9.316011   1.033015  -0.000000
    6       11.981213     13.247552  -0.000000   0.000000
    7       17.244149     18.280521   0.000000   0.000000
    8       20.656242     21.377570   0.000000   0.000000
    9       30.749528     31.203040   0.000000   0.000000
   10       34.725724     35.043202   0.000000   0.000000
   11       38.004326     38.222824   0.000000   0.000000
   12       45.890569     46.540632   0.000000   0.000000
 
 -0.3500000E+00 -0.3500000E+00  0.5000000E-01  0.8000000E-02
    1        3.336612      4.703360   1.000000   1.000000
    2        3.669946      5.105141   1.000000   1.000000
    3        3.669959      5.105187   1.000000   1.000000
    4        6.830262      8.960579   1.000066  -0.000000
    5        6.830337      8.960690   1.000066  -0.000000
    6       15.225893     16.288238   0.000000   0.000000
    7       15.225909     16.288338   0.000000   0.000000
    8       18.461946     19.312049   0.000000   0.000000
    9       30.990325     31.523552   0.000000   0.000000
   10       36.123179     36.331341   0.000000   0.000000
   11       36.123247     36.331368   0.000000   0.000000
   12       45.895728     46.783584   0.000000   0.000000
 
  0.1500000E+00  0.1500000E+00  0.1500000E+00  0.8000000E-02
    1        2.722100      3.213657   1.000000   1.000000
    2        3.627804      5.099514   1.000000   1.000000
    3        3.627804      5.099514   1.000000   1.000000
    4        6.517729      8.986746   1.000000  -0.000000
    5        6.517729      8.986746   1.000000  -0.000000
    6        9.037288     10.694175  -0.000000  -0.000000
    7       23.147762     23.784968   0.000000   0.000000
    8       23.147762     23.784968   0.000000   0.000000
    9       25.741546     26.442506   0.000000   0.000000
   10       39.397144     39.241850   0.000000   0.000000
   11       44.474101     44.757050   0.000000   0.000000
   12       44.474101     44.757051   0.000000   0.000000
 
  0.2500000E+00  0.1500000E+00  0.1500000E+00  0.2400000E-01
    1        3.038144      4.128470   1.000000   1.000000
    2        3.436320      4.838610   1.000000   1.000000
    3        4.228148      5.302107   1.000000   1.000000
    4        6.594560      9.045096   1.000000  -0.000000
    5        6.657376      9.202412   1.000000  -0.000000
    6       11.215654     12.599104  -0.000000  -0.000000
    7       19.173069     20.025261   0.000000   0.000000
    8       22.020793     22.664033   0.000000   0.000000
    9       23.734789     24.386446   0.000000   0.000000
   10       40.783356     40.753257   0.000000   0.000000
   11       45.475516     45.746906   0.000000   0.000000
   12       46.633546     46.759704   0.000000   0.000000
 
  0.3500000E+00  0.1500000E+00  0.1500000E+00  0.1200000E-01
    1        2.909381      4.121227   1.000000   1.000000
    2        3.377944      4.755306   1.000000   1.000000
    3        4.747601      5.828030   1.000000   1.000000
    4        6.640696      9.086689   1.000000  -0.000000
    5        6.696538      9.269540   1.000001  -0.000000
    6       13.078327     14.152589   0.000000   0.000000
    7       16.496275     17.579122   0.000000   0.000000
    8       21.627042     22.268887   0.000000   0.000000
    9       23.177701     23.813028   0.000000   0.000000
   10       40.913934     40.959124   0.000000   0.000000
   11       46.469833     46.706043   0.000000   0.000000
   12       46.580084     46.913842   0.000000   0.000000
 
 -0.1500000E+00  0.1500000E+00  0.1500000E+00  0.6000000E-02
    1        0.038178      0.285769   1.000000   1.000000
    2        4.887895      6.536553   1.000000   1.000000
    3        4.887943      6.536646   1.000000   1.000000
    4        5.381441      7.161162   1.000000   1.031507
    5        5.417668      7.656710   1.000000  -0.030986
    6        6.812010      9.339553   1.000039  -0.000000
    7       28.887798     29.195242   0.000000   0.000000
    8       31.345148     31.775602   0.000000   0.000000
    9       31.345155     31.775715   0.000000   0.000000
   10       33.217033     33.638823   0.000000   0.000000
   11       40.550466     40.985351   0.000000   0.000000
   12       40.550472     40.985363   0.000000   0.000000
 
  0.2500000E+00  0.2500000E+00  0.1500000E+00  0.2400000E-01
    1        3.248902      4.531801   1.000000   1.000000
    2        3.620937      4.901955   1.000000   1.000000
    3        4.090777      5.221276   1.000000   1.000000
    4        6.672767      9.183352   1.000000  -0.000000
    5        6.701452      9.251634   1.000001  -0.000000
    6       14.046069     15.135327   0.000000   0.000000
    7       17.594541     18.481724   0.000000   0.000000
    8       19.138168     19.931402   0.000000   0.000000
    9       22.322753     22.966514   0.000000   0.000000
   10       43.649351     43.629618   0.000000   0.000000
   11       45.709583     45.791626   0.000000   0.000000
   12       49.693359     49.752121   0.000000   0.000000
 
 -0.2500000E+00  0.2500000E+00  0.1500000E+00  0.2400000E-01
    1        1.328102      1.709236   1.000000   1.000000
    2        4.464722      6.253745   1.000000   1.000000
    3        4.695566      6.312325   1.000000   1.000000
    4        5.447543      7.404837   1.000000   0.656657
    5        6.205400      8.006123   1.000000  -0.000250
    6        7.169961      9.593939   1.033029  -0.000000
    7       25.569771     26.203066   0.000000   0.000000
    8       28.930877     29.319992   0.000000   0.000000
    9       29.204255     29.779884   0.000000   0.000000
   10       33.165222     33.594612   0.000000   0.000000
   11       39.974443     40.416508   0.000000   0.000000
   12       41.362386     41.769108   0.000000   0.000000
 
 -0.3500000E+00  0.3500000E+00  0.1500000E+00  0.2400000E-01
    1        2.194192      3.036280   1.000000   1.000000
    2        4.152855      5.762285   1.000000   1.000000
    3        4.383052      5.958752   1.000000   1.000000
    4        5.932047      7.888266   1.000000  -0.003571
    5        7.250030      9.146596   1.020828  -0.000000
    6        8.211308     10.173074  -0.000000  -0.000000
    7       20.899478     21.760376   0.000000   0.000000
    8       27.320287     27.915972   0.000000   0.000000
    9       27.521282     27.919000   0.000000   0.000000
   10       34.761179     35.141025   0.000000   0.000000
   11       38.817342     39.282159   0.000000   0.000000
   12       41.396877     41.861243   0.000000   0.000000
 
 -0.2500000E+00  0.3500000E+00  0.1500000E+00  0.2400000E-01
    1        2.318649      3.007854   1.000000   1.000000
    2        3.794356      5.586131   1.000000   1.000000
    3        4.857204      6.436454   1.000000   1.000000
    4        5.628260      7.484237   1.000000   0.327968
    5        6.854553      8.781884   1.000130  -0.000000
    6        8.228446     10.226565  -0.000000  -0.000000
    7       23.455782     24.221609   0.000000   0.000000
    8       24.407573     25.030109   0.000000   0.000000
    9       29.944835     30.389017   0.000000   0.000000
   10       31.807954     32.238839   0.000000   0.000000
   11       39.545002     39.994940   0.000000   0.000000
   12       44.996520     45.398862   0.000000   0.000000
 
 -0.4500000E+00  0.4500000E+00  0.1500000E+00  0.2400000E-01
    1        2.214778      3.471679   1.000000   1.000000
    2        4.188404      5.739345   1.000000   1.000000
    3        4.400915      5.904075   1.000000   1.000000
    4        6.033854      8.089634   1.000000  -0.000024
    5        7.984789      9.963893  -0.000429  -0.000000
    6       10.273186     11.579397  -0.000000  -0.000000
    7       17.060763     18.177302   0.000000   0.000000
    8       26.149369     26.717243   0.000000   0.000000
    9       26.777471     27.173865   0.000000   0.000000
   10       36.799584     37.063487   0.000000   0.000000
   11       38.213151     38.690820   0.000000   0.000000
   12       40.297279     40.852154   0.000000   0.000000
 
 -0.3500000E+00  0.4500000E+00  0.1500000E+00  0.4800000E-01
    1        2.674138      3.876000   1.000000   1.000000
    2        3.532418      5.126252   1.000000   1.000000
    3        4.607945      6.185989   1.000000   1.000000
    4        6.058958      7.971507   1.000000  -0.000593
    5        7.454093      9.434410   0.451441  -0.000000
    6       10.482188     11.923336  -0.000000  -0.000000
    7       19.250963     20.164042   0.000000   0.000000
    8       22.644609     23.314632   0.000000   0.000000
    9       29.370301     29.805141   0.000000   0.000000
   10       33.212328     33.585249   0.000000   0.000000
   11       38.377999     38.842768   0.000000   0.000000
   12       43.845837     44.521822   0.000000   0.000000
 
 -0.4500000E+00 -0.4500000E+00  0.1500000E+00  0.2400000E-01
    1        2.567869      3.989617   1.000000   1.000000
    2        3.735247      5.262038   1.000000   1.000000
    3        4.381433      5.937851   1.000000   1.000000
    4        6.177502      8.122798   1.000000  -0.000008
    5        7.774222      9.755891  -0.020405  -0.000000
    6       12.533466     13.640127  -0.000000   0.000000
    7       16.450865     17.563632   0.000000   0.000000
    8       22.103242     22.760699   0.000000   0.000000
    9       28.969054     29.400094   0.000000   0.000000
   10       34.863239     35.122447   0.000000   0.000000
   11       37.122330     37.673697   0.000000   0.000000
   12       42.559830     43.303492   0.000000   0.000000
 
 -0.3500000E+00 -0.4500000E+00  0.1500000E+00  0.2400000E-01
    1        3.073635      4.595742   1.000000   1.000000
    2        3.157971      4.677987   1.000000   1.000000
    3        4.286839      5.801218   1.000000   1.000000
    4        6.679931      8.599236   1.000000  -0.000000
    5        7.335176      9.305277   0.889790  -0.000000
    6       13.613178     14.744024   0.000000   0.000000
    7       17.477937     18.447638   0.000000   0.000000
    8       19.133356     19.898789   0.000000   0.000000
    9       31.436905     31.816015   0.000000   0.000000
   10       32.612253     32.973535   0.000000   0.000000
   11       36.202037     36.737857   0.000000   0.000000
   12       42.770720     43.584488   0.000000   0.000000
 
  0.2500000E+00  0.2500000E+00  0.2500000E+00  0.2000000E-02
    1        3.676283      4.909216   1.000000   1.000000
    2        3.676283      4.909216   1.000000   1.000000
    3        3.676334      4.909319   1.000000   1.000000
    4        6.701925      9.280437   1.000001  -0.000000
    5        6.701925      9.280437   1.000001  -0.000000
    6       17.146708     18.032592   0.000000   0.000000
    7       17.146708     18.032592   0.000000   0.000000
    8       17.146784     18.032789   0.000000   0.000000
    9       20.172161     20.869092   0.000000   0.000000
   10       49.242378     49.102582   0.000000   0.000000
   11       49.242381     49.102583   0.000000   0.000000
   12       49.242426     49.102613   0.000000   0.000000
 
 -0.2500000E+00  0.2500000E+00  0.2500000E+00  0.6000000E-02
    1        2.185980      2.812500   1.000000   1.000000
    2        3.957441      5.952279   1.000000   1.000000
    3        5.356986      6.993078   1.000000   1.003317
    4        5.357050      6.993196   1.000000   1.003325
    5        6.286781      8.105114   1.000000  -0.000015
    6        8.017925     10.136705  -0.000183  -0.000000
    7       26.454850     27.092606   0.000000   0.000000
    8       26.529144     27.144780   0.000000   0.000000
    9       26.529165     27.144864   0.000000   0.000000
   10       29.409648     29.849403   0.000000   0.000000
   11       44.450753     44.842631   0.000000   0.000000
   12       44.450786     44.842652   0.000000   0.000000
 
 -0.3500000E+00  0.3500000E+00  0.2500000E+00  0.2400000E-01
    1        2.622445      3.707700   1.000000   1.000000
    2        3.266903      5.072654   1.000000   1.000000
    3        5.402321      7.044515   1.000000   1.008245
    4        5.828581      7.563682   1.000000   0.077565
    5        7.118357      9.002998   1.022088  -0.000000
    6        9.729193     11.286918  -0.000000  -0.000000
    7       21.899621     22.661919   0.000000   0.000000
    8       24.365433     24.960543   0.000000   0.000000
    9       26.607715     27.243841   0.000000   0.000000
   10       29.946270     30.417411   0.000000   0.000000
   11       42.555309     43.268785   0.000000   0.000000
   12       43.362819     43.806186   0.000000   0.000000
 
 -0.4500000E+00  0.4500000E+00  0.2500000E+00  0.2400000E-01
    1        2.502961      4.005343   1.000000   1.000000
    2        3.110115      4.697210   1.000000   1.000000
    3        5.297041      6.930614   1.000000   1.000882
    4        6.043527      7.829787   1.000000  -0.009778
    5        7.876344      9.844686  -0.004465  -0.000000
    6       12.466318     13.561667  -0.000000   0.000000
    7       17.671980     18.611913   0.000000   0.000000
    8       23.071272     23.615808   0.000000   0.000000
    9       26.314121     26.967140   0.000000   0.000000
   10       31.849260     32.239977   0.000000   0.000000
   11       39.059076     39.895741   0.000000   0.000000
   12       42.638059     43.078658   0.000000   0.000000
 
 -0.3500000E+00  0.4500000E+00  0.2500000E+00  0.2400000E-01
    1        2.646143      4.062166   1.000000   1.000000
    2        2.707012      4.430343   1.000000   1.000000
    3        5.498043      7.135519   1.000000   1.026050
    4        6.495786      8.269841   1.000000  -0.000000
    5        7.520627      9.450689   0.196037  -0.000000
    6       12.299503     13.429201  -0.000000   0.000000
    7       20.066832     20.857711   0.000000   0.000000
    8       20.733000     21.370295   0.000000   0.000000
    9       27.536059     28.153913   0.000000   0.000000
   10       29.493642     29.992853   0.000000   0.000000
   11       38.503287     39.315896   0.000000   0.000000
   12       43.688291     44.166365   0.000000   0.000000
 
 -0.4500000E+00 -0.4500000E+00  0.2500000E+00  0.2400000E-01
    1        2.466269      4.093789   1.000000   1.000000
    2        2.659709      4.256172   1.000000   1.000000