PROCAR new format
# of k-points:   44         # of bands:   12         # of ions:    1

 k-point     1 :    0.05000000 0.05000000 0.05000000     weight = 0.00800000

band     1 # energy   -1.20442752 # occ.  1.00000000
 
ion      s      p      d    tot
    1  0.681  0.045  0.004  0.730
 
band     2 # energy    4.66132770 # occ.  1.00000000
 
ion      s      p      d    tot
    1  0.000  0.002  0.979  0.981
 
band     3 # energy    4.66132770 # occ.  1.00000000
 
ion      s      p      d    tot
    1  0.000  0.002  0.979  0.981
 
band     4 # energy    5.30331419 # occ.  1.00000000
 
ion      s      p      d    tot
    1  0.001  0.007  0.975  0.983
 
band     5 # energy    6.32850687 # occ.  1.00000000
 
ion      s      p      d    tot
    1  0.000  0.000  0.969  0.969
 
band     6 # energy    6.32850687 # occ.  1.00000000
 
ion      s      p      d    tot
    1  0.000  0.000  0.969  0.969
 
band     7 # energy   31.51754230 # occ.  0.00000000
 
ion      s      p      d    tot
    1  0.000  0.053  0.239  0.293
 
band     8 # energy   31.51754230 # occ.  0.00000000
 
ion      s      p      d    tot
    1  0.000  0.053  0.239  0.293
 
band     9 # energy   34.46605194 # occ.  0.00000000
 
ion      s      p      d    tot
    1  0.000  0.000  0.000  0.000
 
band    10 # energy   37.68647848 # occ.  0.00000000
 
ion      s      p      d    tot
    1  0.049  0.482  0.332  0.863
 
band    11 # energy   40.67960836 # occ.  0.00000000
 
ion      s      p      d    tot
    1  0.000  0.240  0.112  0.351
 
band    12 # energy   40.67960838 # occ.  0.00000000
 
ion      s      p      d    tot
    1  0.000  0.240  0.112  0.351
 

 k-point     2 :    0.15000000 0.05000000 0.05000000     weight = 0.02400000

band     1 # energy    0.02500908 # occ.  1.00000000
 
ion      s      p      d    tot
    1  0.585  0.116  0.038  0.739
 
band     2 # energy    4.27994469 # occ.  1.00000000
 
ion      s      p      d    tot
    1  0.000  0.003  0.970  0.973
 
band     3 # energy    4.45832279 # occ.  1.00000000
 
ion      s      p      d    tot
    1  0.004  0.020  0.934  0.959
 
band     4 # energy    6.13276571 # occ.  1.00000000
 
ion      s      p      d    tot
    1  0.006  0.020  0.948  0.974
 
band     5 # energy    6.20132519 # occ.  1.00000000
 
ion      s      p      d    tot
    1  0.000  0.001  0.970  0.971
 
band     6 # energy    6.42715089 # occ.  1.00000000
 
ion      s      p      d    tot
    1  0.000  0.000  0.974  0.974
 
band     7 # energy   27.35676223 # occ.  0.00000000
 
ion      s      p      d    tot
    1  0.022  0.169  0.356  0.547
 
band     8 # energy   29.62293966 # occ.  0.00000000
 
ion      s      p      d    tot
    1  0.000  0.138  0.270  0.408
 
band     9 # energy   33.88159149 # occ.  0.00000000
 
ion      s      p      d    tot
    1  0.099  0.493  0.225  0.817
 
band    10 # energy   34.99082110 # occ.  0.00000000
 
ion      s      p      d    tot
    1  0.000  0.001  0.132  0.133
 
band    11 # energy   40.71022513 # occ.  0.00000000
 
ion      s      p      d    tot
    1  0.000  0.225  0.122  0.347
 
band    12 # energy   40.95736533 # occ.  0.00000000
 
ion      s      p      d    tot
    1  0.025  0.333  0.329  0.687
 

 k-point     3 :    0.25000000 0.05000000 0.05000000     weight = 0.02400000

band     1 # energy    1.42523081 # occ.  1.00000000
 
ion      s      p      d    tot
    1  0.383  0.130  0.279  0.792
 
band     2 # energy    3.86602233 # occ.  1.00000000
 
ion      s      p      d    tot
    1  0.000  0.004  0.964  0.969
 
band     3 # energy    4.56544020 # occ.  1.00000000
 
ion      s      p      d    tot
    1  0.059  0.133  0.701  0.893
 
band     4 # energy    6.28980148 # occ.  1.00000000
 
ion      s      p      d    tot
    1  0.002  0.002  0.974  0.978
 
band     5 # energy    6.53527866 # occ.  1.00000000
 
ion      s      p      d    tot
    1  0.000  0.000  0.979  0.979
 
band     6 # energy    7.28897049 # occ.  0.98143832
 
ion      s      p      d    tot
    1  0.018  0.048  0.898  0.964
 
band     7 # energy   22.65639636 # occ.  0.00000000
 
ion      s      p      d    tot
    1  0.111  0.234  0.368  0.712
 
band     8 # energy   27.77006842 # occ.  0.00000000
 
ion      s      p      d    tot
    1  0.000  0.204  0.215  0.419
 
band     9 # energy   31.12205203 # occ.  0.00000000
 
ion      s      p      d    tot
    1  0.106  0.520  0.151  0.777
 
band    10 # energy   34.90290769 # occ.  0.00000000
 
ion      s      p      d    tot
    1  0.000  0.005  0.373  0.378
 
band    11 # energy   39.88105064 # occ.  0.00000000
 
ion      s      p      d    tot
    1  0.078  0.238  0.324  0.640
 
band    12 # energy   42.80486706 # occ.  0.00000000
 
ion      s      p      d    tot
    1  0.000  0.208  0.098  0.306
 

 k-point     4 :    0.35000000 0.05000000 0.05000000     weight = 0.02400000

band     1 # energy    1.86179225 # occ.  1.00000000
 
ion      s      p      d    tot
    1  0.172  0.037  0.663  0.873
 
band     2 # energy    3.55612347 # occ.  1.00000000
 
ion      s      p      d    tot
    1  0.000  0.005  0.961  0.966
 
band     3 # energy    5.82859243 # occ.  1.00000000
 
ion      s      p      d    tot
    1  0.076  0.308  0.448  0.832
 
band     4 # energy    6.47058365 # occ.  1.00000000
 
ion      s      p      d    tot
    1  0.001  0.020  0.958  0.979
 
band     5 # energy    6.62871361 # occ.  1.00000007
 
ion      s      p      d    tot
    1  0.000  0.000  0.984  0.984
 
band     6 # energy    8.60470292 # occ. -0.00000000
 
ion      s      p      d    tot
    1  0.035  0.153  0.730  0.919
 
band     7 # energy   18.38460901 # occ.  0.00000000
 
ion      s      p      d    tot
    1  0.261  0.156  0.394  0.811
 
band     8 # energy   26.43841157 # occ.  0.00000000
 
ion      s      p      d    tot
    1  0.000  0.240  0.160  0.400
 
band     9 # energy   29.26550147 # occ.  0.00000000
 
ion      s      p      d    tot
    1  0.099  0.575  0.074  0.748
 
band    10 # energy   34.65982407 # occ.  0.00000000
 
ion      s      p      d    tot
    1  0.000  0.006  0.528  0.534
 
band    11 # energy   39.55249893 # occ.  0.00000000
 
ion      s      p      d    tot
    1  0.137  0.141  0.361  0.640
 
band    12 # energy   45.03412424 # occ.  0.00000000
 
ion      s      p      d    tot
    1  0.031  0.042  0.085  0.158
 

 k-point     5 :    0.45000000 0.05000000 0.05000000     weight = 0.01200000

band     1 # energy    1.83471834 # occ.  1.00000000
 
ion      s      p      d    tot
    1  0.124  0.011  0.756  0.891
 
band     2 # energy    3.44261739 # occ.  1.00000000
 
ion      s      p      d    tot
    1  0.000  0.006  0.960  0.966
 
band     3 # energy    6.50113036 # occ.  1.00000000
 
ion      s      p      d    tot
    1  0.013  0.000  0.970  0.984
 
band     4 # energy    6.66716819 # occ.  1.00000030
 
ion      s      p      d    tot
    1  0.000  0.000  0.987  0.987
 
band     5 # energy    6.72133916 # occ.  1.00000212
 
ion      s      p      d    tot
    1  0.000  0.341  0.507  0.849
 
band     6 # energy    9.55432135 # occ. -0.00000000
 
ion      s      p      d    tot
    1  0.000  0.350  0.494  0.844
 
band     7 # energy   16.22272032 # occ.  0.00000000
 
ion      s      p      d    tot
    1  0.399  0.011  0.461  0.871
 
band     8 # energy   25.95291200 # occ.  0.00000000
 
ion      s      p      d    tot
    1  0.000  0.251  0.139  0.390
 
band     9 # energy   28.57818504 # occ.  0.00000000
 
ion      s      p      d    tot
    1  0.096  0.601  0.037  0.735
 
band    10 # energy   34.55832607 # occ.  0.00000000
 
ion      s      p      d    tot
    1  0.000  0.006  0.578  0.584
 
band    11 # energy   39.55036804 # occ.  0.00000000
 
ion      s      p      d    tot
    1  0.167  0.097  0.391  0.655
 
band    12 # energy   44.74036257 # occ.  0.00000000
 
ion      s      p      d    tot
    1  0.000  0.077  0.004  0.081
 

 k-point     6 :   -0.05000000 0.05000000 0.05000000     weight = 0.00600000

band     1 # energy   -1.65490373 # occ.  1.00000000
 
ion      s      p      d    tot
    1  0.712  0.016  0.000  0.728
 
band     2 # energy    4.82394766 # occ.  1.00000000
 
ion      s      p      d    tot
    1  0.000  0.002  0.983  0.985
 
band     3 # energy    4.82397658 # occ.  1.00000000
 
ion      s      p      d    tot
    1  0.000  0.002  0.983  0.985
 
band     4 # energy    4.89505117 # occ.  1.00000000
 
ion      s      p      d    tot
    1  0.000  0.000  0.986  0.986
 
band     5 # energy    6.28097402 # occ.  1.00000000
 
ion      s      p      d    tot
    1  0.000  0.000  0.967  0.967
 
band     6 # energy    6.44955064 # occ.  1.00000000
 
ion      s      p      d    tot
    1  0.000  0.000  0.973  0.973
 
band     7 # energy   32.66260202 # occ.  0.00000000
 
ion      s      p      d    tot
    1  0.000  0.000  0.115  0.115
 
band     8 # energy   33.76757556 # occ.  0.00000000
 
ion      s      p      d    tot
    1  0.000  0.005  0.072  0.077
 
band     9 # energy   33.76760408 # occ.  0.00000000
 
ion      s      p      d    tot
    1  0.000  0.005  0.072  0.077
 
band    10 # energy   38.50206850 # occ.  0.00000000
 
ion      s      p      d    tot
    1  0.008  0.203  0.239  0.450
 
band    11 # energy   41.43883598 # occ.  0.00000000
 
ion      s      p      d    tot
    1  0.000  0.439  0.387  0.826
 
band    12 # energy   41.43893324 # occ.  0.00000000
 
ion      s      p      d    tot
    1  0.000  0.438  0.388  0.826
 

 k-point     7 :    0.15000000 0.15000000 0.05000000     weight = 0.02400000

band     1 # energy    1.38322418 # occ.  1.00000000
 
ion      s      p      d    tot
    1  0.451  0.173  0.138  0.762
 
band     2 # energy    3.97853876 # occ.  1.00000000
 
ion      s      p      d    tot
    1  0.000  0.025  0.923  0.948
 
band     3 # energy    4.03297014 # occ.  1.00000000
 
ion      s      p      d    tot
    1  0.009  0.026  0.922  0.956
 
band     4 # energy    6.22752949 # occ.  1.00000000
 
ion      s      p      d    tot
    1  0.000  0.001  0.973  0.974
 
band     5 # energy    6.55081208 # occ.  1.00000000
 
ion      s      p      d    tot
    1  0.002  0.000  0.978  0.980
 
band     6 # energy    7.35820390 # occ.  0.82427967
 
ion      s      p      d    tot
    1  0.027  0.058  0.874  0.959
 
band     7 # energy   24.90644063 # occ.  0.00000000
 
ion      s      p      d    tot
    1  0.000  0.232  0.385  0.618
 
band     8 # energy   26.00778685 # occ.  0.00000000
 
ion      s      p      d    tot
    1  0.077  0.235  0.287  0.599
 
band     9 # energy   30.21739828 # occ.  0.00000000
 
ion      s      p      d    tot
    1  0.159  0.443  0.146  0.748
 
band    10 # energy   36.44273206 # occ.  0.00000000
 
ion      s      p      d    tot
    1  0.000  0.013  0.115  0.129
 
band    11 # energy   41.42329230 # occ.  0.00000000
 
ion      s      p      d    tot
    1  0.016  0.108  0.343  0.466
 
band    12 # energy   43.24530064 # occ.  0.00000000
 
ion      s      p      d    tot
    1  0.000  0.229  0.307  0.535
 

 k-point     8 :    0.25000000 0.15000000 0.05000000     weight = 0.04800000

band     1 # energy    2.36290853 # occ.  1.00000000
 
ion      s      p      d    tot
    1  0.212  0.108  0.528  0.848
 
band     2 # energy    3.63215103 # occ.  1.00000000
 
ion      s      p      d    tot
    1  0.000  0.028  0.923  0.951
 
band     3 # energy    4.34227146 # occ.  1.00000000
 
ion      s      p      d    tot
    1  0.062  0.165  0.659  0.885
 
band     4 # energy    6.35925930 # occ.  1.00000000
 
ion      s      p      d    tot
    1  0.001  0.003  0.976  0.979
 
band     5 # energy    6.69029645 # occ.  1.00000071
 
ion      s      p      d    tot
    1  0.007  0.002  0.974  0.984
 
band     6 # energy    8.99952235 # occ. -0.00000000
 
ion      s      p      d    tot
    1  0.062  0.139  0.720  0.920
 
band     7 # energy   20.75539848 # occ.  0.00000000
 
ion      s      p      d    tot
    1  0.125  0.256  0.361  0.742
 
band     8 # energy   24.02834858 # occ.  0.00000000
 
ion      s      p      d    tot
    1  0.093  0.268  0.270  0.631
 
band     9 # energy   28.10118402 # occ.  0.00000000
 
ion      s      p      d    tot
    1  0.153  0.421  0.119  0.693
 
band    10 # energy   36.92646919 # occ.  0.00000000
 
ion      s      p      d    tot
    1  0.004  0.020  0.259  0.283
 
band    11 # energy   42.19874818 # occ.  0.00000000
 
ion      s      p      d    tot
    1  0.004  0.096  0.329  0.430
 
band    12 # energy   44.01335294 # occ.  0.00000000
 
ion      s      p      d    tot
    1  0.058  0.178  0.228  0.464
 

 k-point     9 :    0.35000000 0.15000000 0.05000000     weight = 0.04800000

band     1 # energy    2.37153717 # occ.  1.00000000
 
ion      s      p      d    tot
    1  0.100  0.045  0.750  0.895
 
band     2 # energy    3.47004080 # occ.  1.00000000
 
ion      s      p      d    tot
    1  0.000  0.026  0.929  0.955
 
band     3 # energy    5.21878584 # occ.  1.00000000
 
ion      s      p      d    tot
    1  0.015  0.242  0.617  0.874
 
band     4 # energy    6.50934422 # occ.  1.00000000
 
ion      s      p      d    tot
    1  0.006  0.003  0.974  0.983
 
band     5 # energy    6.80866943 # occ.  1.00003506
 
ion      s      p      d    tot
    1  0.003  0.020  0.959  0.982
 
band     6 # energy   10.93117058 # occ. -0.00000000
 
ion      s      p      d    tot
    1  0.037  0.321  0.490  0.847
 
band     7 # energy   17.03001230 # occ.  0.00000000
 
ion      s      p      d    tot
    1  0.300  0.125  0.403  0.828
 
band     8 # energy   23.12159506 # occ.  0.00000000
 
ion      s      p      d    tot
    1  0.098  0.291  0.243  0.632
 
band     9 # energy   27.04817497 # occ.  0.00000000
 
ion      s      p      d    tot
    1  0.144  0.430  0.097  0.671
 
band    10 # energy   36.93136580 # occ.  0.00000000
 
ion      s      p      d    tot
    1  0.010  0.014  0.363  0.387
 
band    11 # energy   43.11441096 # occ.  0.00000000
 
ion      s      p      d    tot
    1  0.014  0.119  0.260  0.393
 
band    12 # energy   43.94349263 # occ.  0.00000000
 
ion      s      p      d    tot
    1  0.058  0.100  0.219  0.376
 

 k-point    10 :   -0.15000000 0.15000000 0.05000000     weight = 0.02400000

band     1 # energy   -0.77361744 # occ.  1.00000000
 
ion      s      p      d    tot
    1  0.649  0.072  0.011  0.732
 
band     2 # energy    4.58867713 # occ.  1.00000000
 
ion      s      p      d    tot
    1  0.000  0.002  0.978  0.980
 
band     3 # energy    4.76892689 # occ.  1.00000000
 
ion      s      p      d    tot
    1  0.002  0.012  0.958  0.972
 
band     4 # energy    5.40539186 # occ.  1.00000000
 
ion      s      p      d    tot
    1  0.000  0.005  0.977  0.982
 
band     5 # energy    6.02317864 # occ.  1.00000000
 
ion      s      p      d    tot
    1  0.000  0.000  0.960  0.961
 
band     6 # energy    6.53185495 # occ.  1.00000000
 
ion      s      p      d    tot
    1  0.002  0.000  0.973  0.975
 
band     7 # energy   29.58867793 # occ.  0.00000000
 
ion      s      p      d    tot
    1  0.008  0.085  0.315  0.408
 
band     8 # energy   32.30669664 # occ.  0.00000000
 
ion      s      p      d    tot
    1  0.011  0.087  0.152  0.249
 
band     9 # energy   33.30173251 # occ.  0.00000000
 
ion      s      p      d    tot
    1  0.000  0.057  0.285  0.343
 
band    10 # energy   37.65635474 # occ.  0.00000000
 
ion      s      p      d    tot
    1  0.012  0.263  0.127  0.401
 
band    11 # energy   38.54530612 # occ.  0.00000000
 
ion      s      p      d    tot
    1  0.000  0.460  0.294  0.754
 
band    12 # energy   39.45350558 # occ.  0.00000000
 
ion      s      p      d    tot
    1  0.057  0.403  0.152  0.612
 

 k-point    11 :    0.25000000 0.25000000 0.05000000     weight = 0.02400000

band     1 # energy    2.91126573 # occ.  1.00000000
 
ion      s      p      d    tot
    1  0.082  0.049  0.783  0.914
 
band     2 # energy    3.54045150 # occ.  1.00000000
 
ion      s      p      d    tot
    1  0.000  0.088  0.830  0.917
 
band     3 # energy    4.30720793 # occ.  1.00000000
 
ion      s      p      d    tot
    1  0.032  0.182  0.676  0.890
 
band     4 # energy    6.49276311 # occ.  1.00000000
 
ion      s      p      d    tot
    1  0.000  0.005  0.977  0.981
 
band     5 # energy    6.79253737 # occ.  1.00002153
 
ion      s      p      d    tot
    1  0.008  0.008  0.968  0.985
 
band     6 # energy   11.42105691 # occ. -0.00000000
 
ion      s      p      d    tot
    1  0.083  0.259  0.521  0.863
 
band     7 # energy   18.87454049 # occ.  0.00000000
 
ion      s      p      d    tot
    1  0.000  0.364  0.391  0.756
 
band     8 # energy   20.27663290 # occ.  0.00000000
 
ion      s      p      d    tot
    1  0.378  0.150  0.216  0.744
 
band     9 # energy   26.81092640 # occ.  0.00000000
 
ion      s      p      d    tot
    1  0.144  0.381  0.147  0.672
 
band    10 # energy   38.41701869 # occ.  0.00000000
 
ion      s      p      d    tot
    1  0.000  0.046  0.211  0.257
 
band    11 # energy   41.75052312 # occ.  0.00000000
 
ion      s      p      d    tot
    1  0.017  0.046  0.262  0.325
 
band    12 # energy   48.39854082 # occ.  0.00000000
 
ion      s      p      d    tot
    1  0.000  0.179  0.172  0.351
 

 k-point    12 :    0.35000000 0.25000000 0.05000000     weight = 0.02400000

band     1 # energy    2.94454788 # occ.  1.00000000
 
ion      s      p      d    tot
    1  0.053  0.035  0.839  0.927
 
band     2 # energy    3.60237559 # occ.  1.00000000
 
ion      s      p      d    tot
    1  0.000  0.097  0.823  0.920
 
band     3 # energy    4.36982960 # occ.  1.00000000
 
ion      s      p      d    tot
    1  0.000  0.189  0.701  0.890
 
band     4 # energy    6.61657123 # occ.  1.00000004
 
ion      s      p      d    tot
    1  0.002  0.006  0.975  0.983
 
band     5 # energy    6.79820539 # occ.  1.00002559
 
ion      s      p      d    tot
    1  0.000  0.014  0.971  0.985
 
band     6 # energy   13.65354839 # occ.  0.00000000
 
ion      s      p      d    tot
    1  0.000  0.408  0.399  0.808
 
band     7 # energy   16.28986093 # occ.  0.00000000
 
ion      s      p      d    tot
    1  0.168  0.244  0.399  0.811
 
band     8 # energy   19.45019181 # occ.  0.00000000
 
ion      s      p      d    tot
    1  0.364  0.152  0.235  0.751
 
band     9 # energy   26.43381442 # occ.  0.00000000
 
ion      s      p      d    tot
    1  0.141  0.375  0.157  0.674
 
band    10 # energy   39.06277124 # occ.  0.00000000
 
ion      s      p      d    tot
    1  0.004  0.044  0.236  0.284
 
band    11 # energy   41.55800305 # occ.  0.00000000
 
ion      s      p      d    tot
    1  0.000  0.056  0.169  0.225
 
band    12 # energy   48.30760383 # occ.  0.00000000
 
ion      s      p      d    tot
    1  0.001  0.124  0.382  0.507
 

 k-point    13 :   -0.25000000 0.25000000 0.05000000     weight = 0.02400000

band     1 # energy    0.67007514 # occ.  1.00000000
 
ion      s      p      d    tot
    1  0.505  0.136  0.115  0.756
 
band     2 # energy    4.18574896 # occ.  1.00000000
 
ion      s      p      d    tot
    1  0.000  0.002  0.972  0.974
 
band     3 # energy    4.62703401 # occ.  1.00000000
 
ion      s      p      d    tot
    1  0.028  0.069  0.827  0.923
 
band     4 # energy    6.03045045 # occ.  1.00000000
 
ion      s      p      d    tot
    1  0.000  0.005  0.964  0.969
 
band     5 # energy    6.31723270 # occ.  1.00000000
 
ion      s      p      d    tot
    1  0.000  0.010  0.969  0.980
 
band     6 # energy    6.62977685 # occ.  1.00000007
 
ion      s      p      d    tot
    1  0.009  0.003  0.965  0.977
 
band     7 # energy   25.00755978 # occ.  0.00000000
 
ion      s      p      d    tot
    1  0.067  0.211  0.372  0.650
 
band     8 # energy   30.00445999 # occ.  0.00000000
 
ion      s      p      d    tot
    1  0.017  0.155  0.113  0.285
 
band     9 # energy   32.24985274 # occ.  0.00000000
 
ion      s      p      d    tot
    1  0.000  0.242  0.403  0.646
 
band    10 # energy   35.94981044 # occ.  0.00000000
 
ion      s      p      d    tot
    1  0.000  0.352  0.307  0.659
 
band    11 # energy   37.85193481 # occ.  0.00000000
 
ion      s      p      d    tot
    1  0.049  0.299  0.252  0.600
 
band    12 # energy   39.76741194 # occ.  0.00000000
 
ion      s      p      d    tot
    1  0.100  0.155  0.070  0.325
 

 k-point    14 :   -0.15000000 0.25000000 0.05000000     weight = 0.02400000

band     1 # energy    0.39142454 # occ.  1.00000000
 
ion      s      p      d    tot
    1  0.548  0.138  0.058  0.743
 
band     2 # energy    4.47486357 # occ.  1.00000000
 
ion      s      p      d    tot
    1  0.000  0.016  0.939  0.955
 
band     3 # energy    4.49306524 # occ.  1.00000000
 
ion      s      p      d    tot
    1  0.005  0.014  0.950  0.969
 
band     4 # energy    5.78063311 # occ.  1.00000000
 
ion      s      p      d    tot
    1  0.000  0.001  0.959  0.960
 
band     5 # energy    6.09190867 # occ.  1.00000000
 
ion      s      p      d    tot
    1  0.003  0.017  0.956  0.976
 
band     6 # energy    6.72476745 # occ.  1.00000238
 
ion      s      p      d    tot
    1  0.015  0.005  0.958  0.977
 
band     7 # energy   27.12428848 # occ.  0.00000000
 
ion      s      p      d    tot
    1  0.000  0.145  0.389  0.534
 
band     8 # energy   28.75937790 # occ.  0.00000000
 
ion      s      p      d    tot
    1  0.074  0.234  0.262  0.570
 
band     9 # energy   33.39232698 # occ.  0.00000000
 
ion      s      p      d    tot
    1  0.000  0.084  0.282  0.366
 
band    10 # energy   35.09593250 # occ.  0.00000000
 
ion      s      p      d    tot
    1  0.003  0.483  0.163  0.649
 
band    11 # energy   37.71004062 # occ.  0.00000000
 
ion      s      p      d    tot
    1  0.085  0.139  0.226  0.449
 
band    12 # energy   41.31962494 # occ.  0.00000000
 
ion      s      p      d    tot
    1  0.000  0.376  0.087  0.462
 

 k-point    15 :   -0.35000000 0.35000000 0.05000000     weight = 0.02400000

band     1 # energy    1.65765156 # occ.  1.00000000
 
ion      s      p      d    tot
    1  0.260  0.073  0.505  0.838
 
band     2 # energy    3.80499615 # occ.  1.00000000
 
ion      s      p      d    tot
    1  0.000  0.002  0.968  0.970
 
band     3 # energy    5.19884046 # occ.  1.00000000
 
ion      s      p      d    tot
    1  0.083  0.218  0.547  0.849
 
band     4 # energy    6.34297154 # occ.  1.00000000
 
ion      s      p      d    tot
    1  0.000  0.031  0.942  0.973
 
band     5 # energy    6.91626893 # occ.  1.00063036
 
ion      s      p      d    tot
    1  0.042  0.073  0.833  0.948
 
band     6 # energy    7.34485408 # occ.  0.86383447
 
ion      s      p      d    tot
    1  0.000  0.008  0.975  0.983
 
band     7 # energy   20.37133781 # occ.  0.00000000
 
ion      s      p      d    tot
    1  0.186  0.209  0.379  0.773
 
band     8 # energy   28.12989883 # occ.  0.00000000
 
ion      s      p      d    tot
    1  0.016  0.202  0.065  0.282
 
band     9 # energy   30.60921729 # occ.  0.00000000
 
ion      s      p      d    tot
    1  0.000  0.495  0.261  0.756
 
band    10 # energy   34.72108293 # occ.  0.00000000
 
ion      s      p      d    tot
    1  0.000  0.176  0.485  0.661
 
band    11 # energy   37.84321277 # occ.  0.00000000
 
ion      s      p      d    tot
    1  0.142  0.154  0.320  0.617
 
band    12 # energy   41.72391822 # occ.  0.00000000
 
ion      s      p      d    tot
    1  0.075  0.083  0.163  0.321
 

 k-point    16 :   -0.25000000 0.35000000 0.05000000     weight = 0.04800000

band     1 # energy    1.71339668 # occ.  1.00000000
 
ion      s      p      d    tot
    1  0.350  0.149  0.294  0.793
 
band     2 # energy    4.02561449 # occ.  1.00000000
 
ion      s      p      d    tot
    1  0.002  0.023  0.922  0.946
 
band     3 # energy    4.43767143 # occ.  1.00000000
 
ion      s      p      d    tot
    1  0.030  0.083  0.808  0.921
 
band     4 # energy    5.95131935 # occ.  1.00000000
 
ion      s      p      d    tot
    1  0.000  0.010  0.958  0.968
 
band     5 # energy    6.80454721 # occ.  1.00003099
 
ion      s      p      d    tot
    1  0.012  0.003  0.968  0.983
 
band     6 # energy    7.44140692 # occ.  0.50503251
 
ion      s      p      d    tot
    1  0.049  0.069  0.832  0.950
 
band     7 # energy   22.92810936 # occ.  0.00000000
 
ion      s      p      d    tot
    1  0.088  0.247  0.374  0.709
 
band     8 # energy   26.26019727 # occ.  0.00000000
 
ion      s      p      d    tot
    1  0.085  0.252  0.259  0.596
 
band     9 # energy   31.84545703 # occ.  0.00000000
 
ion      s      p      d    tot
    1  0.003  0.376  0.157  0.535
 
band    10 # energy   34.43525765 # occ.  0.00000000
 
ion      s      p      d    tot
    1  0.026  0.203  0.302  0.531
 
band    11 # energy   38.25733154 # occ.  0.00000000
 
ion      s      p      d    tot
    1  0.056  0.103  0.334  0.492
 
band    12 # energy   42.02967445 # occ.  0.00000000
 
ion      s      p      d    tot
    1  0.068  0.215  0.183  0.466
 

 k-point    17 :   -0.45000000 0.45000000 0.05000000     weight = 0.02400000

band     1 # energy    1.75083111 # occ.  1.00000000
 
ion      s      p      d    tot
    1  0.139  0.010  0.736  0.885
 
band     2 # energy    3.57871296 # occ.  1.00000000
 
ion      s      p      d    tot
    1  0.000  0.002  0.966  0.968
 
band     3 # energy    5.99733049 # occ.  1.00000000
 
ion      s      p      d    tot
    1  0.014  0.145  0.749  0.908
 
band     4 # energy    6.43260637 # occ.  1.00000000
 
ion      s      p      d    tot
    1  0.009  0.010  0.959  0.979
 
band     5 # energy    8.05193183 # occ. -0.00007177
 
ion      s      p      d    tot
    1  0.000  0.001  0.989  0.990
 
band     6 # energy    8.18388183 # occ. -0.00000105
 
ion      s      p      d    tot
    1  0.032  0.470  0.297  0.799
 
band     7 # energy   16.83549071 # occ.  0.00000000
 
ion      s      p      d    tot
    1  0.356  0.061  0.439  0.857
 
band     8 # energy   27.09387529 # occ.  0.00000000
 
ion      s      p      d    tot
    1  0.014  0.224  0.034  0.273
 
band     9 # energy   29.36806241 # occ.  0.00000000
 
ion      s      p      d    tot
    1  0.000  0.611  0.136  0.746
 
band    10 # energy   34.33888440 # occ.  0.00000000
 
ion      s      p      d    tot
    1  0.000  0.109  0.602  0.711
 
band    11 # energy   38.10203396 # occ.  0.00000000
 
ion      s      p      d    tot
    1  0.209  0.048  0.398  0.655
 
band    12 # energy   42.79297925 # occ.  0.00000000
 
ion      s      p      d    tot
    1  0.015  0.064  0.122  0.201
 

 k-point    18 :   -0.35000000 0.45000000 0.05000000     weight = 0.04800000

band     1 # energy    2.13287775 # occ.  1.00000000
 
ion      s      p      d    tot
    1  0.149  0.051  0.673  0.873
 
band     2 # energy    3.79282778 # occ.  1.00000000
 
ion      s      p      d    tot
    1  0.002  0.016  0.941  0.958
 
band     3 # energy    4.86565487 # occ.  1.00000000
 
ion      s      p      d    tot
    1  0.032  0.180  0.664  0.875
 
band     4 # energy    6.25598094 # occ.  1.00000000
 
ion      s      p      d    tot
    1  0.004  0.014  0.956  0.974
 
band     5 # energy    7.25969239 # occ.  1.01383169
 
ion      s      p      d    tot
    1  0.019  0.041  0.910  0.971
 
band     6 # energy    9.09420384 # occ. -0.00000000
 
ion      s      p      d    tot
    1  0.069  0.226  0.595  0.890
 
band     7 # energy   18.59024007 # occ.  0.00000000
 
ion      s      p      d    tot
    1  0.235  0.189  0.382  0.806
 
band     8 # energy   24.89910858 # occ.  0.00000000
 
ion      s      p      d    tot
    1  0.083  0.293  0.228  0.604
 
band     9 # energy   30.06688646 # occ.  0.00000000
 
ion      s      p      d    tot
    1  0.004  0.458  0.065  0.527
 
band    10 # energy   34.72986800 # occ.  0.00000000
 
ion      s      p      d    tot
    1  0.053  0.081  0.475  0.609
 
band    11 # energy   39.30652240 # occ.  0.00000000
 
ion      s      p      d    tot
    1  0.006  0.130  0.283  0.419
 
band    12 # energy   41.86045248 # occ.  0.00000000
 
ion      s      p      d    tot
    1  0.109  0.104  0.297  0.510
 

 k-point    19 :   -0.25000000 0.45000000 0.05000000     weight = 0.02400000

band     1 # energy    2.61382925 # occ.  1.00000000
 
ion      s      p      d    tot
    1  0.177  0.108  0.572  0.857
 
band     2 # energy    3.58528247 # occ.  1.00000000
 
ion      s      p      d    tot
    1  0.000  0.053  0.861  0.914
 
band     3 # energy    4.43700946 # occ.  1.00000000
 
ion      s      p      d    tot
    1  0.017  0.108  0.797  0.922
 
band     4 # energy    6.11517492 # occ.  1.00000000
 
ion      s      p      d    tot
    1  0.000  0.010  0.961  0.971
 
band     5 # energy    6.99548494 # occ.  1.00347429
 
ion      s      p      d    tot
    1  0.024  0.011  0.945  0.980
 
band     6 # energy    9.41835495 # occ. -0.00000000
 
ion      s      p      d    tot
    1  0.094  0.188  0.619  0.901
 
band     7 # energy   20.87155513 # occ.  0.00000000
 
ion      s      p      d    tot
    1  0.000  0.337  0.408  0.745
 
band     8 # energy   21.98915451 # occ.  0.00000000
 
ion      s      p      d    tot
    1  0.293  0.215  0.214  0.722
 
band     9 # energy   31.54690096 # occ.  0.00000000
 
ion      s      p      d    tot
    1  0.027  0.475  0.078  0.580
 
band    10 # energy   33.88332412 # occ.  0.00000000
 
ion      s      p      d    tot
    1  0.000  0.094  0.316  0.410
 
band    11 # energy   38.15633893 # occ.  0.00000000
 
ion      s      p      d    tot
    1  0.077  0.017  0.393  0.487
 
band    12 # energy   46.47578321 # occ.  0.00000000
 
ion      s      p      d    tot
    1  0.000  0.261  0.148  0.409
 

 k-point    20 :   -0.45000000-0.45000000 0.05000000     weight = 0.02400000

band     1 # energy    2.09108960 # occ.  1.00000000
 
ion      s      p      d    tot
    1  0.103  0.022  0.765  0.891
 
band     2 # energy    3.71328527 # occ.  1.00000000
 
ion      s      p      d    tot
    1  0.001  0.013  0.948  0.962
 