<?xml version="1.0" encoding="ISO-8859-1"?>
<modeling>
 <generator>
  <i name="program" type="string">vasp </i>
  <i name="version" type="string">5.4.4.18Apr17-6-g9f103f2a35  </i>
  <i name="subversion" type="string">(build May 18 2018 14:42:58) complex            parallel </i>
  <i name="platform" type="string">LinuxIFC </i>
  <i name="date" type="string">2020 06 30 </i>
  <i name="time" type="string">16:50:39 </i>
 </generator>
 <incar>
  <i type="string" name="SYSTEM"> bcc Fe</i>
  <i type="string" name="PREC">normal</i>
  <i type="int" name="ISPIN">     2</i>
  <i name="EDIFF">      0.00010000</i>
  <i name="ENCUT">    268.00000000</i>
  <v name="RWIGS">      1.30200000</v>
  <v name="MAGMOM">      3.00000000</v>
  <v type="int" name="KPOINT_BSE">    -1     0     0     0</v>
 </incar>
 <structure name="primitive_cell" >
  <crystal>
   <varray name="basis" >
    <v>      -1.35000000       1.35000000       1.35000000 </v>
    <v>       1.35000000      -1.35000000       1.35000000 </v>
    <v>       1.35000000       1.35000000      -1.35000000 </v>
   </varray>
   <i name="volume">      9.84150000 </i>
   <varray name="rec_basis" >
    <v>       0.00000000       0.37037037       0.37037037 </v>
    <v>       0.37037037       0.00000000       0.37037037 </v>
    <v>       0.37037037       0.37037037       0.00000000 </v>
   </varray>
  </crystal>
  <varray name="positions" >
   <v>       0.00000000       0.00000000       0.00000000 </v>
  </varray>
 </structure>
 <varray name="primitive_index" >
  <v type="int" >        1 </v>
 </varray>
 <kpoints>
  <generation param="Monkhorst-Pack">
   <v type="int" name="divisions">      10       10       10 </v>
   <v name="usershift">      0.00000000       0.00000000       0.00000000 </v>
   <v name="genvec1">      0.10000000       0.00000000       0.00000000 </v>
   <v name="genvec2">      0.00000000       0.10000000       0.00000000 </v>
   <v name="genvec3">      0.00000000       0.00000000       0.10000000 </v>
   <v name="shift">      0.50000000       0.50000000       0.50000000 </v>
  </generation>
  <varray name="kpointlist" >
   <v>       0.05000000       0.05000000       0.05000000 </v>
   <v>       0.15000000       0.05000000       0.05000000 </v>
   <v>       0.25000000       0.05000000       0.05000000 </v>
   <v>       0.35000000       0.05000000       0.05000000 </v>
   <v>       0.45000000       0.05000000       0.05000000 </v>
   <v>      -0.05000000       0.05000000       0.05000000 </v>
   <v>       0.15000000       0.15000000       0.05000000 </v>
   <v>       0.25000000       0.15000000       0.05000000 </v>
   <v>       0.35000000       0.15000000       0.05000000 </v>
   <v>      -0.15000000       0.15000000       0.05000000 </v>
   <v>       0.25000000       0.25000000       0.05000000 </v>
   <v>       0.35000000       0.25000000       0.05000000 </v>
   <v>      -0.25000000       0.25000000       0.05000000 </v>
   <v>      -0.15000000       0.25000000       0.05000000 </v>
   <v>      -0.35000000       0.35000000       0.05000000 </v>
   <v>      -0.25000000       0.35000000       0.05000000 </v>
   <v>      -0.45000000       0.45000000       0.05000000 </v>
   <v>      -0.35000000       0.45000000       0.05000000 </v>
   <v>      -0.25000000       0.45000000       0.05000000 </v>
   <v>      -0.45000000      -0.45000000       0.05000000 </v>
   <v>      -0.35000000      -0.45000000       0.05000000 </v>
   <v>      -0.35000000      -0.35000000       0.05000000 </v>
   <v>       0.15000000       0.15000000       0.15000000 </v>
   <v>       0.25000000       0.15000000       0.15000000 </v>
   <v>       0.35000000       0.15000000       0.15000000 </v>
   <v>      -0.15000000       0.15000000       0.15000000 </v>
   <v>       0.25000000       0.25000000       0.15000000 </v>
   <v>      -0.25000000       0.25000000       0.15000000 </v>
   <v>      -0.35000000       0.35000000       0.15000000 </v>
   <v>      -0.25000000       0.35000000       0.15000000 </v>
   <v>      -0.45000000       0.45000000       0.15000000 </v>
   <v>      -0.35000000       0.45000000       0.15000000 </v>
   <v>      -0.45000000      -0.45000000       0.15000000 </v>
   <v>      -0.35000000      -0.45000000       0.15000000 </v>
   <v>       0.25000000       0.25000000       0.25000000 </v>
   <v>      -0.25000000       0.25000000       0.25000000 </v>
   <v>      -0.35000000       0.35000000       0.25000000 </v>
   <v>      -0.45000000       0.45000000       0.25000000 </v>
   <v>      -0.35000000       0.45000000       0.25000000 </v>
   <v>      -0.45000000      -0.45000000       0.25000000 </v>
   <v>      -0.35000000       0.35000000       0.35000000 </v>
   <v>      -0.45000000       0.45000000       0.35000000 </v>
   <v>      -0.45000000      -0.45000000       0.35000000 </v>
   <v>      -0.45000000       0.45000000       0.45000000 </v>
  </varray>
  <varray name="weights" >
   <v>       0.00800000 </v>
   <v>       0.02400000 </v>
   <v>       0.02400000 </v>
   <v>       0.02400000 </v>
   <v>       0.01200000 </v>
   <v>       0.00600000 </v>
   <v>       0.02400000 </v>
   <v>       0.04800000 </v>
   <v>       0.04800000 </v>
   <v>       0.02400000 </v>
   <v>       0.02400000 </v>
   <v>       0.02400000 </v>
   <v>       0.02400000 </v>
   <v>       0.02400000 </v>
   <v>       0.02400000 </v>
   <v>       0.04800000 </v>
   <v>       0.02400000 </v>
   <v>       0.04800000 </v>
   <v>       0.02400000 </v>
   <v>       0.02400000 </v>
   <v>       0.04800000 </v>
   <v>       0.00800000 </v>
   <v>       0.00800000 </v>
   <v>       0.02400000 </v>
   <v>       0.01200000 </v>
   <v>       0.00600000 </v>
   <v>       0.02400000 </v>
   <v>       0.02400000 </v>
   <v>       0.02400000 </v>
   <v>       0.02400000 </v>
   <v>       0.02400000 </v>
   <v>       0.04800000 </v>
   <v>       0.02400000 </v>
   <v>       0.02400000 </v>
   <v>       0.00200000 </v>
   <v>       0.00600000 </v>
   <v>       0.02400000 </v>
   <v>       0.02400000 </v>
   <v>       0.02400000 </v>
   <v>       0.02400000 </v>
   <v>       0.00600000 </v>
   <v>       0.02400000 </v>
   <v>       0.00800000 </v>
   <v>       0.00600000 </v>
  </varray>
 </kpoints>
 <parameters>
  <separator name="general" >
   <i type="string" name="SYSTEM">bcc Fe</i>
   <i type="logical" name="LCOMPAT"> F  </i>
  </separator>
  <separator name="electronic" >
   <i type="string" name="PREC">normal</i>
   <i name="ENMAX">    268.00000000</i>
   <i name="ENAUG">    511.36800000</i>
   <i name="EDIFF">      0.00010000</i>
   <i type="int" name="IALGO">    38</i>
   <i type="int" name="IWAVPR">    10</i>
   <i type="int" name="NBANDS">    12</i>
   <i name="NELECT">      8.00000000</i>
   <i type="int" name="TURBO">     0</i>
   <i type="int" name="IRESTART">     0</i>
   <i type="int" name="NREBOOT">     0</i>
   <i type="int" name="NMIN">     0</i>
   <i name="EREF">      0.00000000</i>
   <separator name="electronic smearing" >
    <i type="int" name="ISMEAR">     1</i>
    <i name="SIGMA">      0.20000000</i>
    <i name="KSPACING">      0.50000000</i>
    <i type="logical" name="KGAMMA"> T  </i>
   </separator>
   <separator name="electronic projectors" >
    <i type="logical" name="LREAL"> F  </i>
    <v name="ROPT">      0.00000000</v>
    <i type="int" name="LMAXPAW">  -100</i>
    <i type="int" name="LMAXMIX">     2</i>
    <i type="logical" name="NLSPLINE"> F  </i>
   </separator>
   <separator name="electronic startup" >
    <i type="int" name="ISTART">     0</i>
    <i type="int" name="ICHARG">     2</i>
    <i type="int" name="INIWAV">     1</i>
   </separator>
   <separator name="electronic spin" >
    <i type="int" name="ISPIN">     2</i>
    <i type="logical" name="LNONCOLLINEAR"> F  </i>
    <v name="MAGMOM">      3.00000000</v>
    <i name="NUPDOWN">     -1.00000000</i>
    <i type="logical" name="LSORBIT"> F  </i>
    <v name="SAXIS">      0.00000000      0.00000000      1.00000000</v>
    <i type="logical" name="LSPIRAL"> F  </i>
    <v name="QSPIRAL">      0.00000000      0.00000000      0.00000000</v>
    <i type="logical" name="LZEROZ"> F  </i>
   </separator>
   <separator name="electronic exchange-correlation" >
    <i type="logical" name="LASPH"> F  </i>
    <i type="logical" name="LMETAGGA"> F  </i>
   </separator>
   <separator name="electronic convergence" >
    <i type="int" name="NELM">    60</i>
    <i type="int" name="NELMDL">    -5</i>
    <i type="int" name="NELMIN">     2</i>
    <i name="ENINI">    268.00000000</i>
    <separator name="electronic convergence detail" >
     <i type="logical" name="LDIAG"> T  </i>
     <i type="logical" name="LSUBROT"> F  </i>
     <i name="WEIMIN">      0.00000000</i>
     <i name="EBREAK">      0.00000208</i>
     <i name="DEPER">      0.30000000</i>
     <i type="int" name="NRMM">     4</i>
     <i name="TIME">      0.40000000</i>
    </separator>
   </separator>
   <separator name="electronic mixer" >
    <i name="AMIX">      0.40000000</i>
    <i name="BMIX">      1.00000000</i>
    <i name="AMIN">      0.10000000</i>
    <i name="AMIX_MAG">      1.60000000</i>
    <i name="BMIX_MAG">      1.00000000</i>
    <separator name="electronic mixer details" >
     <i type="int" name="IMIX">     4</i>
     <i type="logical" name="MIXFIRST"> F  </i>
     <i type="int" name="MAXMIX">   -45</i>
     <i name="WC">    100.00000000</i>
     <i type="int" name="INIMIX">     1</i>
     <i type="int" name="MIXPRE">     1</i>
     <i type="int" name="MREMOVE">     5</i>
    </separator>
   </separator>
   <separator name="electronic dipolcorrection" >
    <i type="logical" name="LDIPOL"> F  </i>
    <i type="logical" name="LMONO"> F  </i>
    <i type="int" name="IDIPOL">     0</i>
    <i name="EPSILON">      1.00000000</i>
    <v name="DIPOL">   -100.00000000   -100.00000000   -100.00000000</v>
    <i name="EFIELD">      0.00000000</i>
   </separator>
  </separator>
  <separator name="grids" >
   <i type="int" name="NGX">    10</i>
   <i type="int" name="NGY">    10</i>
   <i type="int" name="NGZ">    10</i>
   <i type="int" name="NGXF">    20</i>
   <i type="int" name="NGYF">    20</i>
   <i type="int" name="NGZF">    20</i>
   <i type="logical" name="ADDGRID"> F  </i>
  </separator>
  <separator name="ionic" >
   <i type="int" name="NSW">     0</i>
   <i type="int" name="IBRION">    -1</i>
   <i type="int" name="MDALGO">     0</i>
   <i type="int" name="ISIF">     2</i>
   <i name="PSTRESS">      0.00000000</i>
   <i name="EDIFFG">      0.00100000</i>
   <i type="int" name="NFREE">     0</i>
   <i name="POTIM">      0.50000000</i>
   <i name="SMASS">     -3.00000000</i>
   <i name="SCALEE">      1.00000000</i>
  </separator>
  <separator name="ionic md" >
   <i name="TEBEG">      0.00010000</i>
   <i name="TEEND">      0.00010000</i>
   <i type="int" name="NBLOCK">     1</i>
   <i type="int" name="KBLOCK">     1</i>
   <i type="int" name="NPACO">   256</i>
   <i name="APACO">     16.00000000</i>
  </separator>
  <separator name="symmetry" >
   <i type="int" name="ISYM">     2</i>
   <i name="SYMPREC">      0.00001000</i>
  </separator>
  <separator name="dos" >
   <i type="int" name="LORBIT">     0</i>
   <v name="RWIGS">      1.30200000</v>
   <i type="int" name="NEDOS">   301</i>
   <i name="EMIN">     10.00000000</i>
   <i name="EMAX">    -10.00000000</i>
   <i name="EFERMI">      0.00000000</i>
  </separator>
  <separator name="writing" >
   <i type="int" name="NWRITE">     2</i>
   <i type="logical" name="LWAVE"> T  </i>
   <i type="logical" name="LDOWNSAMPLE"> F  </i>
   <i type="logical" name="LCHARG"> T  </i>
   <i type="logical" name="LPARD"> F  </i>
   <i type="logical" name="LVTOT"> F  </i>
   <i type="logical" name="LVHAR"> F  </i>
   <i type="logical" name="LELF"> F  </i>
   <i type="logical" name="LOPTICS"> F  </i>
   <v name="STM">      0.00000000      0.00000000      0.00000000      0.00000000      0.00000000      0.00000000      0.00000000</v>
  </separator>
  <separator name="performance" >
   <i type="int" name="NPAR">     4</i>
   <i type="int" name="NSIM">     4</i>
   <i type="int" name="NBLK">    -1</i>
   <i type="logical" name="LPLANE"> T  </i>
   <i type="logical" name="LSCALAPACK"> T  </i>
   <i type="logical" name="LSCAAWARE"> F  </i>
   <i type="logical" name="LSCALU"> F  </i>
   <i type="logical" name="LASYNC"> F  </i>
   <i type="logical" name="LORBITALREAL"> F  </i>
  </separator>
  <separator name="miscellaneous" >
   <i type="int" name="IDIOT">     3</i>
   <i type="int" name="ISPECIAL">     0</i>
   <i type="logical" name="LMUSIC"> F  </i>
   <v name="POMASS">     55.84700000</v>
   <v name="DARWINR">      0.00000000</v>
   <v name="DARWINV">      1.00000000</v>
   <i type="logical" name="LCORR"> T  </i>
  </separator>
  <i type="logical" name="GGA_COMPAT"> T  </i>
  <i type="logical" name="LBERRY"> F  </i>
  <i type="int" name="ICORELEVEL">     0</i>
  <i type="logical" name="LDAU"> F  </i>
  <i type="int" name="I_CONSTRAINED_M">     0</i>
  <separator name="electronic exchange-correlation" >
   <i type="string" name="GGA">--</i>
   <i type="int" name="VOSKOWN">     0</i>
   <i type="logical" name="LHFCALC"> F  </i>
   <i type="string" name="PRECFOCK"></i>
   <i type="logical" name="LSYMGRAD"> F  </i>
   <i type="logical" name="LHFONE"> F  </i>
   <i type="logical" name="LRHFCALC"> F  </i>
   <i type="logical" name="LTHOMAS"> F  </i>
   <i type="logical" name="LMODELHF"> F  </i>
   <i name="ENCUT4O">     -1.00000000</i>
   <i type="int" name="EXXOEP">     0</i>
   <i type="int" name="FOURORBIT">     0</i>
   <i name="AEXX">      0.00000000</i>
   <i name="HFALPHA">      0.00000000</i>
   <i name="MCALPHA">      0.00000000</i>
   <i name="ALDAX">      1.00000000</i>
   <i name="AGGAX">      1.00000000</i>
   <i name="ALDAC">      1.00000000</i>
   <i name="AGGAC">      1.00000000</i>
   <i type="int" name="NKREDX">     1</i>
   <i type="int" name="NKREDY">     1</i>
   <i type="int" name="NKREDZ">     1</i>
   <i type="logical" name="SHIFTRED"> F  </i>
   <i type="logical" name="ODDONLY"> F  </i>
   <i type="logical" name="EVENONLY"> F  </i>
   <i type="int" name="LMAXFOCK">     0</i>
   <i type="int" name="NMAXFOCKAE">     0</i>
   <i type="logical" name="LFOCKAEDFT"> F  </i>
   <i name="HFSCREEN">      0.00000000</i>
   <i name="HFSCREENC">      0.00000000</i>
   <i type="int" name="NBANDSGWLOW">     0</i>
  </separator>
  <separator name="vdW DFT" >
   <i type="logical" name="LUSE_VDW"> F  </i>
   <i name="Zab_VDW">     -0.84910000</i>
   <i name="PARAM1">      0.12340000</i>
   <i name="PARAM2">      1.00000000</i>
   <i name="PARAM3">      0.00000000</i>
  </separator>
  <separator name="model GW" >
   <i type="int" name="MODEL_GW">     0</i>
   <i name="MODEL_EPS0">      5.90490000</i>
   <i name="MODEL_ALPHA">      1.00000000</i>
  </separator>
  <separator name="linear response parameters" >
   <i type="logical" name="LEPSILON"> F  </i>
   <i type="logical" name="LRPA"> F  </i>
   <i type="logical" name="LNABLA"> F  </i>
   <i type="logical" name="LVEL"> F  </i>
   <i type="int" name="KINTER">     0</i>
   <i name="CSHIFT">      0.10000000</i>
   <i name="OMEGAMAX">     -1.00000000</i>
   <i name="DEG_THRESHOLD">      0.00200000</i>
   <i name="RTIME">     -0.10000000</i>
   <i name="WPLASMAI">      0.00000000</i>
   <v name="DFIELD">      0.00000000      0.00000000      0.00000000</v>
   <v name="WPLASMA">      0.00000000      0.00000000      0.00000000      0.00000000      0.00000000      0.00000000      0.00000000      0.00000000      0.00000000</v>
  </separator>
  <separator name="orbital magnetization" >
   <i type="logical" name="NUCIND"> F  </i>
   <v name="MAGPOS">      0.00000000      0.00000000      0.00000000</v>
   <i type="logical" name="LNICSALL"> T  </i>
   <i type="logical" name="ORBITALMAG"> F  </i>
   <i type="logical" name="LMAGBLOCH"> F  </i>
   <i type="logical" name="LCHIMAG"> F  </i>
   <i type="logical" name="LGAUGE"> T  </i>
   <i type="int" name="MAGATOM">     0</i>
   <v name="MAGDIPOL">      0.00000000      0.00000000      0.00000000</v>
   <v name="AVECCONST">      0.00000000      0.00000000      0.00000000</v>
  </separator>
  <separator name="response functions" >
   <i type="logical" name="LADDER"> F  </i>
   <i type="logical" name="LRPAFORCE"> F  </i>
   <i type="logical" name="LFXC"> F  </i>
   <i type="logical" name="LHARTREE"> T  </i>
   <i type="int" name="IBSE">     0</i>
   <v type="int" name="KPOINT">    -1     0     0     0</v>
   <i type="logical" name="LTCTE"> F  </i>
   <i type="logical" name="LTETE"> F  </i>
   <i type="logical" name="LTRIPLET"> F  </i>
   <i type="logical" name="LFXCEPS"> F  </i>
   <i type="logical" name="LFXHEG"> F  </i>
   <i type="int" name="NATURALO">     2</i>
   <i type="logical" name="L2ORDER"> F  </i>
   <i type="logical" name="LMP2LT"> F  </i>
   <i type="logical" name="LUSEW"> F  </i>
   <i name="ENCUTGW">     -2.00000000</i>
   <i name="ENCUTGWSOFT">     -2.00000000</i>
   <i name="ENCUTLF">     -1.00000000</i>
   <i type="int" name="LMAXMP2">    -1</i>
   <i name="SCISSOR">      0.00000000</i>
   <i type="int" name="NOMEGA">     0</i>
   <i type="int" name="NOMEGAR">     0</i>
   <i type="int" name="NBANDSGW">    -1</i>
   <i type="int" name="NBANDSO">    -1</i>
   <i type="int" name="NBANDSV">    -1</i>
   <i type="int" name="NELM">     1</i>
   <i type="int" name="NELMHF">     1</i>
   <i type="int" name="DIM">     3</i>
   <i type="int" name="ANTIRES">     0</i>
   <i name="OMEGAMAX">    -30.00000000</i>
   <i name="OMEGAMIN">    -30.00000000</i>
   <i name="OMEGATL">   -200.00000000</i>
   <i type="int" name="OMEGAGRID">   140</i>
   <i name="CSHIFT">     -0.10000000</i>
   <i type="logical" name="SELFENERGY"> F  </i>
   <i type="logical" name="LSPECTRAL"> F  </i>
   <i type="logical" name="LSPECTRALGW"> F  </i>
   <i type="logical" name="LSINGLES"> F  </i>
   <i type="logical" name="LFERMIGW"> F  </i>
   <i type="logical" name="ODDONLYGW"> F  </i>
   <i type="logical" name="EVENONLYGW"> F  </i>
   <i type="int" name="NKREDLFX">     1</i>
   <i type="int" name="NKREDLFY">     1</i>
   <i type="int" name="NKREDLFZ">     1</i>
   <i type="int" name="MAXMEM">  2800</i>
   <i type="int" name="TELESCOPE">     0</i>
   <i type="int" name="TAUPAR">     1</i>
   <i type="int" name="OMEGAPAR">    -1</i>
   <i name="LAMBDA">      1.00000000</i>
  </separator>
  <separator name="External order field" >
   <i name="OFIELD_KAPPA">      0.00000000</i>
   <v name="OFIELD_K">      0.00000000      0.00000000      0.00000000</v>
   <i name="OFIELD_Q6_NEAR">      0.00000000</i>
   <i name="OFIELD_Q6_FAR">      0.00000000</i>
   <i name="OFIELD_A">      0.00000000</i>
  </separator>
 </parameters>
 <atominfo>
  <atoms>       1 </atoms>
  <types>       1 </types>
  <array name="atoms" >
   <dimension dim="1">ion</dimension>
   <field type="string">element</field>
   <field type="int">atomtype</field>
   <set>
    <rc><c>Fe</c><c>   1</c></rc>
   </set>
  </array>
  <array name="atomtypes" >
   <dimension dim="1">type</dimension>
   <field type="int">atomspertype</field>
   <field type="string">element</field>
   <field>mass</field>
   <field>valence</field>
   <field type="string">pseudopotential</field>
   <set>
    <rc><c>   1</c><c>Fe</c><c>     55.84700000</c><c>      8.00000000</c><c>  PAW_PBE Fe 06Sep2000                  </c></rc>
   </set>
  </array>
 </atominfo>
 <structure name="initialpos" >
  <crystal>
   <varray name="basis" >
    <v>      -1.35000000       1.35000000       1.35000000 </v>
    <v>       1.35000000      -1.35000000       1.35000000 </v>
    <v>       1.35000000       1.35000000      -1.35000000 </v>
   </varray>
   <i name="volume">      9.84150000 </i>
   <varray name="rec_basis" >
    <v>       0.00000000       0.37037037       0.37037037 </v>
    <v>       0.37037037       0.00000000       0.37037037 </v>
    <v>       0.37037037       0.37037037       0.00000000 </v>
   </varray>
  </crystal>
  <varray name="positions" >
   <v>       0.00000000       0.00000000       0.00000000 </v>
  </varray>
 </structure>
 <calculation>
  <scstep>
   <time name="dav">    0.30    0.31</time>
   <time name="total">    0.31    0.33</time>
   <energy>
    <i name="alphaZ">     70.22687192 </i>
    <i name="ewald">   -621.08666213 </i>
    <i name="hartreedc">   -100.72981162 </i>
    <i name="XCdc">      5.53268362 </i>
    <i name="pawpsdc">    553.75926685 </i>
    <i name="pawaedc">   -561.48528711 </i>
    <i name="eentropy">     -0.00046077 </i>
    <i name="bandstr">     69.37414824 </i>
    <i name="atom">    594.28084496 </i>
    <i name="e_fr_energy">      9.87159398 </i>
    <i name="e_wo_entrp">      9.87205474 </i>
    <i name="e_0_energy">      9.87174757 </i>
   </energy>
  </scstep>
  <scstep>
   <time name="dav">    0.30    0.30</time>
   <time name="total">    0.30    0.30</time>
   <energy>
    <i name="e_fr_energy">     -8.56510591 </i>
    <i name="e_wo_entrp">     -8.56576204 </i>
    <i name="e_0_energy">     -8.56532462 </i>
   </energy>
  </scstep>
  <scstep>
   <time name="dav">    0.20    0.21</time>
   <time name="total">    0.20    0.21</time>
   <energy>
    <i name="e_fr_energy">     -8.83780629 </i>
    <i name="e_wo_entrp">     -8.83840895 </i>
    <i name="e_0_energy">     -8.83800717 </i>
   </energy>
  </scstep>
  <scstep>
   <time name="dav">    0.19    0.20</time>
   <time name="total">    0.19    0.20</time>
   <energy>
    <i name="e_fr_energy">     -8.83840813 </i>
    <i name="e_wo_entrp">     -8.83901071 </i>
    <i name="e_0_energy">     -8.83860899 </i>
   </energy>
  </scstep>
  <scstep>
   <time name="dav">    0.18    0.19</time>
   <time name="total">    0.18    0.19</time>
   <energy>
    <i name="e_fr_energy">     -8.83841034 </i>
    <i name="e_wo_entrp">     -8.83901292 </i>
    <i name="e_0_energy">     -8.83861120 </i>
   </energy>
  </scstep>
  <scstep>
   <time name="dav">    0.19    0.19</time>
   <time name="total">    0.20    0.21</time>
   <energy>
    <i name="e_fr_energy">     -8.10913321 </i>
    <i name="e_wo_entrp">     -8.10936371 </i>
    <i name="e_0_energy">     -8.10921004 </i>
   </energy>
  </scstep>
  <scstep>
   <time name="dav">    0.20    0.21</time>
   <time name="total">    0.22    0.22</time>
   <energy>
    <i name="e_fr_energy">     -8.09111037 </i>
    <i name="e_wo_entrp">     -8.08958142 </i>
    <i name="e_0_energy">     -8.09060072 </i>
   </energy>
  </scstep>
  <scstep>
   <time name="dav">    0.19    0.19</time>
   <time name="total">    0.20    0.21</time>
   <energy>
    <i name="e_fr_energy">     -8.08104487 </i>
    <i name="e_wo_entrp">     -8.07951296 </i>
    <i name="e_0_energy">     -8.08053424 </i>
   </energy>
  </scstep>
  <scstep>
   <time name="dav">    0.21    0.21</time>
   <time name="total">    0.22    0.23</time>
   <energy>
    <i name="e_fr_energy">     -8.07473474 </i>
    <i name="e_wo_entrp">     -8.07315631 </i>
    <i name="e_0_energy">     -8.07420859 </i>
   </energy>
  </scstep>
  <scstep>
   <time name="dav">    0.17    0.18</time>
   <time name="total">    0.18    0.19</time>
   <energy>
    <i name="alphaZ">     70.22687192 </i>
    <i name="ewald">   -621.08666213 </i>
    <i name="hartreedc">    -84.36807544 </i>
    <i name="XCdc">      4.50702014 </i>
    <i name="pawpsdc">    798.61031545 </i>
    <i name="pawaedc">   -808.23760040 </i>
    <i name="eentropy">     -0.00161753 </i>
    <i name="bandstr">     37.99412438 </i>
    <i name="atom">    594.28084496 </i>
    <i name="e_fr_energy">     -8.07477865 </i>
    <i name="e_wo_entrp">     -8.07316112 </i>
    <i name="e_0_energy">     -8.07423947 </i>
   </energy>
  </scstep>
  <structure>
   <crystal>
    <varray name="basis" >
     <v>      -1.35000000       1.35000000       1.35000000 </v>
     <v>       1.35000000      -1.35000000       1.35000000 </v>
     <v>       1.35000000       1.35000000      -1.35000000 </v>
    </varray>
    <i name="volume">      9.84150000 </i>
    <varray name="rec_basis" >
     <v>       0.00000000       0.37037037       0.37037037 </v>
     <v>       0.37037037       0.00000000       0.37037037 </v>
     <v>       0.37037037       0.37037037       0.00000000 </v>
    </varray>
   </crystal>
   <varray name="positions" >
    <v>       0.00000000       0.00000000       0.00000000 </v>
   </varray>
  </structure>
  <varray name="forces" >
   <v>      -0.00000000      -0.00000000       0.00000000 </v>
  </varray>
  <varray name="stress" >
   <v>     317.43327104       0.00000000       0.00000000 </v>
   <v>      -0.00000000     317.43327104      -0.00000000 </v>
   <v>       0.00000000      -0.00000000     317.43327104 </v>
  </varray>
  <energy>
   <i name="e_fr_energy">     -8.07477865 </i>
   <i name="e_wo_entrp">     -8.07423947 </i>
   <i name="e_0_energy">     -0.00161753 </i>
  </energy>
  <time name="totalsc">    2.35    2.43</time>
  <eigenvalues>
   <array>
    <dimension dim="1">band</dimension>
    <dimension dim="2">kpoint</dimension>
    <dimension dim="3">spin</dimension>
    <field>eigene</field>
    <field>occ</field>
    <set>
     <set comment="spin 1">
      <set comment="kpoint 1">
       <r>   -1.2044    1.0000 </r>
       <r>    4.6613    1.0000 </r>
       <r>    4.6613    1.0000 </r>
       <r>    5.3033    1.0000 </r>
       <r>    6.3285    1.0000 </r>
       <r>    6.3285    1.0000 </r>
       <r>   31.5175    0.0000 </r>
       <r>   31.5175    0.0000 </r>
       <r>   34.4661    0.0000 </r>
       <r>   37.6865    0.0000 </r>
       <r>   40.6796    0.0000 </r>
       <r>   40.6796    0.0000 </r>
      </set>
      <set comment="kpoint 2">
       <r>    0.0250    1.0000 </r>
       <r>    4.2799    1.0000 </r>
       <r>    4.4583    1.0000 </r>
       <r>    6.1328    1.0000 </r>
       <r>    6.2013    1.0000 </r>
       <r>    6.4272    1.0000 </r>
       <r>   27.3568    0.0000 </r>
       <r>   29.6229    0.0000 </r>
       <r>   33.8816    0.0000 </r>
       <r>   34.9908    0.0000 </r>
       <r>   40.7102    0.0000 </r>
       <r>   40.9574    0.0000 </r>
      </set>
      <set comment="kpoint 3">
       <r>    1.4252    1.0000 </r>
       <r>    3.8660    1.0000 </r>
       <r>    4.5654    1.0000 </r>
       <r>    6.2898    1.0000 </r>
       <r>    6.5353    1.0000 </r>
       <r>    7.2890    0.9814 </r>
       <r>   22.6564    0.0000 </r>
       <r>   27.7701    0.0000 </r>
       <r>   31.1221    0.0000 </r>
       <r>   34.9029    0.0000 </r>
       <r>   39.8811    0.0000 </r>
       <r>   42.8049    0.0000 </r>
      </set>
      <set comment="kpoint 4">
       <r>    1.8618    1.0000 </r>
       <r>    3.5561    1.0000 </r>
       <r>    5.8286    1.0000 </r>
       <r>    6.4706    1.0000 </r>
       <r>    6.6287    1.0000 </r>
       <r>    8.6047   -0.0000 </r>
       <r>   18.3846    0.0000 </r>
       <r>   26.4384    0.0000 </r>
       <r>   29.2655    0.0000 </r>
       <r>   34.6598    0.0000 </r>
       <r>   39.5525    0.0000 </r>
       <r>   45.0341    0.0000 </r>
      </set>
      <set comment="kpoint 5">
       <r>    1.8347    1.0000 </r>
       <r>    3.4426    1.0000 </r>
       <r>    6.5011    1.0000 </r>
       <r>    6.6672    1.0000 </r>
       <r>    6.7213    1.0000 </r>
       <r>    9.5543   -0.0000 </r>
       <r>   16.2227    0.0000 </r>
       <r>   25.9529    0.0000 </r>
       <r>   28.5782    0.0000 </r>
       <r>   34.5583    0.0000 </r>
       <r>   39.5504    0.0000 </r>
       <r>   44.7404    0.0000 </r>
      </set>
      <set comment="kpoint 6">
       <r>   -1.6549    1.0000 </r>
       <r>    4.8239    1.0000 </r>
       <r>    4.8240    1.0000 </r>
       <r>    4.8951    1.0000 </r>
       <r>    6.2810    1.0000 </r>
       <r>    6.4496    1.0000 </r>
       <r>   32.6626    0.0000 </r>
       <r>   33.7676    0.0000 </r>
       <r>   33.7676    0.0000 </r>
       <r>   38.5021    0.0000 </r>
       <r>   41.4388    0.0000 </r>
       <r>   41.4389    0.0000 </r>
      </set>
      <set comment="kpoint 7">
       <r>    1.3832    1.0000 </r>
       <r>    3.9785    1.0000 </r>
       <r>    4.0330    1.0000 </r>
       <r>    6.2275    1.0000 </r>
       <r>    6.5508    1.0000 </r>
       <r>    7.3582    0.8243 </r>
       <r>   24.9064    0.0000 </r>
       <r>   26.0078    0.0000 </r>
       <r>   30.2174    0.0000 </r>
       <r>   36.4427    0.0000 </r>
       <r>   41.4233    0.0000 </r>
       <r>   43.2453    0.0000 </r>
      </set>
      <set comment="kpoint 8">
       <r>    2.3629    1.0000 </r>
       <r>    3.6322    1.0000 </r>
       <r>    4.3423    1.0000 </r>
       <r>    6.3593    1.0000 </r>
       <r>    6.6903    1.0000 </r>
       <r>    8.9995   -0.0000 </r>
       <r>   20.7554    0.0000 </r>
       <r>   24.0283    0.0000 </r>
       <r>   28.1012    0.0000 </r>
       <r>   36.9265    0.0000 </r>
       <r>   42.1987    0.0000 </r>
       <r>   44.0134    0.0000 </r>
      </set>
      <set comment="kpoint 9">
       <r>    2.3715    1.0000 </r>
       <r>    3.4700    1.0000 </r>
       <r>    5.2188    1.0000 </r>
       <r>    6.5093    1.0000 </r>
       <r>    6.8087    1.0000 </r>
       <r>   10.9312   -0.0000 </r>
       <r>   17.0300    0.0000 </r>
       <r>   23.1216    0.0000 </r>
       <r>   27.0482    0.0000 </r>
       <r>   36.9314    0.0000 </r>
       <r>   43.1144    0.0000 </r>
       <r>   43.9435    0.0000 </r>
      </set>
      <set comment="kpoint 10">
       <r>   -0.7736    1.0000 </r>
       <r>    4.5887    1.0000 </r>
       <r>    4.7689    1.0000 </r>
       <r>    5.4054    1.0000 </r>
       <r>    6.0232    1.0000 </r>
       <r>    6.5319    1.0000 </r>
       <r>   29.5887    0.0000 </r>
       <r>   32.3067    0.0000 </r>
       <r>   33.3017    0.0000 </r>
       <r>   37.6564    0.0000 </r>
       <r>   38.5453    0.0000 </r>
       <r>   39.4535    0.0000 </r>
      </set>
      <set comment="kpoint 11">
       <r>    2.9113    1.0000 </r>
       <r>    3.5405    1.0000 </r>
       <r>    4.3072    1.0000 </r>
       <r>    6.4928    1.0000 </r>
       <r>    6.7925    1.0000 </r>
       <r>   11.4211   -0.0000 </r>
       <r>   18.8745    0.0000 </r>
       <r>   20.2766    0.0000 </r>
       <r>   26.8109    0.0000 </r>
       <r>   38.4170    0.0000 </r>
       <r>   41.7505    0.0000 </r>
       <r>   48.3985    0.0000 </r>
      </set>
      <set comment="kpoint 12">
       <r>    2.9445    1.0000 </r>
       <r>    3.6024    1.0000 </r>
       <r>    4.3698    1.0000 </r>
       <r>    6.6166    1.0000 </r>
       <r>    6.7982    1.0000 </r>
       <r>   13.6535    0.0000 </r>
       <r>   16.2899    0.0000 </r>
       <r>   19.4502    0.0000 </r>
       <r>   26.4338    0.0000 </r>
       <r>   39.0628    0.0000 </r>
       <r>   41.5580    0.0000 </r>
       <r>   48.3076    0.0000 </r>
      </set>
      <set comment="kpoint 13">
       <r>    0.6701    1.0000 </r>
       <r>    4.1857    1.0000 </r>
       <r>    4.6270    1.0000 </r>
       <r>    6.0305    1.0000 </r>
       <r>    6.3172    1.0000 </r>
       <r>    6.6298    1.0000 </r>
       <r>   25.0076    0.0000 </r>
       <r>   30.0045    0.0000 </r>
       <r>   32.2499    0.0000 </r>
       <r>   35.9498    0.0000 </r>
       <r>   37.8519    0.0000 </r>
       <r>   39.7674    0.0000 </r>
      </set>
      <set comment="kpoint 14">
       <r>    0.3914    1.0000 </r>
       <r>    4.4749    1.0000 </r>
       <r>    4.4931    1.0000 </r>
       <r>    5.7806    1.0000 </r>
       <r>    6.0919    1.0000 </r>
       <r>    6.7248    1.0000 </r>
       <r>   27.1243    0.0000 </r>
       <r>   28.7594    0.0000 </r>
       <r>   33.3923    0.0000 </r>
       <r>   35.0959    0.0000 </r>
       <r>   37.7100    0.0000 </r>
       <r>   41.3196    0.0000 </r>
      </set>
      <set comment="kpoint 15">
       <r>    1.6577    1.0000 </r>
       <r>    3.8050    1.0000 </r>
       <r>    5.1988    1.0000 </r>
       <r>    6.3430    1.0000 </r>
       <r>    6.9163    1.0006 </r>
       <r>    7.3449    0.8638 </r>
       <r>   20.3713    0.0000 </r>
       <r>   28.1299    0.0000 </r>
       <r>   30.6092    0.0000 </r>
       <r>   34.7211    0.0000 </r>
       <r>   37.8432    0.0000 </r>
       <r>   41.7239    0.0000 </r>
      </set>
      <set comment="kpoint 16">
       <r>    1.7134    1.0000 </r>
       <r>    4.0256    1.0000 </r>
       <r>    4.4377    1.0000 </r>
       <r>    5.9513    1.0000 </r>
       <r>    6.8045    1.0000 </r>
       <r>    7.4414    0.5050 </r>
       <r>   22.9281    0.0000 </r>
       <r>   26.2602    0.0000 </r>
       <r>   31.8455    0.0000 </r>
       <r>   34.4353    0.0000 </r>
       <r>   38.2573    0.0000 </r>
       <r>   42.0297    0.0000 </r>
      </set>
      <set comment="kpoint 17">
       <r>    1.7508    1.0000 </r>
       <r>    3.5787    1.0000 </r>
       <r>    5.9973    1.0000 </r>
       <r>    6.4326    1.0000 </r>
       <r>    8.0519   -0.0001 </r>
       <r>    8.1839   -0.0000 </r>
       <r>   16.8355    0.0000 </r>
       <r>   27.0939    0.0000 </r>
       <r>   29.3681    0.0000 </r>
       <r>   34.3389    0.0000 </r>
       <r>   38.1020    0.0000 </r>
       <r>   42.7930    0.0000 </r>
      </set>
      <set comment="kpoint 18">
       <r>    2.1329    1.0000 </r>
       <r>    3.7928    1.0000 </r>
       <r>    4.8657    1.0000 </r>
       <r>    6.2560    1.0000 </r>
       <r>    7.2597    1.0138 </r>
       <r>    9.0942   -0.0000 </r>
       <r>   18.5902    0.0000 </r>
       <r>   24.8991    0.0000 </r>
       <r>   30.0669    0.0000 </r>
       <r>   34.7299    0.0000 </r>
       <r>   39.3065    0.0000 </r>
       <r>   41.8605    0.0000 </r>
      </set>
      <set comment="kpoint 19">
       <r>    2.6138    1.0000 </r>
       <r>    3.5853    1.0000 </r>
       <r>    4.4370    1.0000 </r>
       <r>    6.1152    1.0000 </r>
       <r>    6.9955    1.0035 </r>
       <r>    9.4184   -0.0000 </r>
       <r>   20.8716    0.0000 </r>
       <r>   21.9892    0.0000 </r>
       <r>   31.5469    0.0000 </r>
       <r>   33.8833    0.0000 </r>
       <r>   38.1563    0.0000 </r>
       <r>   46.4758    0.0000 </r>
      </set>
      <set comment="kpoint 20">
       <r>    2.0911    1.0000 </r>
       <r>    3.7133    1.0000 </r>
       <r>    5.1566    1.0000 </r>
       <r>    6.3010    1.0000 </r>
       <r>    7.6221   -0.0110 </r>
       <r>   10.4404   -0.0000 </r>
       <r>   16.2586    0.0000 </r>
       <r>   24.4032    0.0000 </r>
       <r>   29.4165    0.0000 </r>
       <r>   34.8265    0.0000 </r>
       <r>   40.2820    0.0000 </r>
       <r>   41.2407    0.0000 </r>
      </set>
      <set comment="kpoint 21">
       <r>    2.7817    1.0000 </r>
       <r>    3.6528    1.0000 </r>
       <r>    4.3128    1.0000 </r>
       <r>    6.3973    1.0000 </r>
       <r>    7.1699    1.0330 </r>
       <r>   11.9812   -0.0000 </r>
       <r>   17.2441    0.0000 </r>
       <r>   20.6562    0.0000 </r>
       <r>   30.7495    0.0000 </r>
       <r>   34.7257    0.0000 </r>
       <r>   38.0043    0.0000 </r>
       <r>   45.8906    0.0000 </r>
      </set>
      <set comment="kpoint 22">
       <r>    3.3366    1.0000 </r>
       <r>    3.6699    1.0000 </r>
       <r>    3.6700    1.0000 </r>
       <r>    6.8303    1.0001 </r>
       <r>    6.8303    1.0001 </r>
       <r>   15.2259    0.0000 </r>
       <r>   15.2259    0.0000 </r>
       <r>   18.4619    0.0000 </r>
       <r>   30.9903    0.0000 </r>
       <r>   36.1232    0.0000 </r>
       <r>   36.1232    0.0000 </r>
       <r>   45.8957    0.0000 </r>
      </set>
      <set comment="kpoint 23">
       <r>    2.7221    1.0000 </r>
       <r>    3.6278    1.0000 </r>
       <r>    3.6278    1.0000 </r>
       <r>    6.5177    1.0000 </r>
       <r>    6.5177    1.0000 </r>
       <r>    9.0373   -0.0000 </r>
       <r>   23.1478    0.0000 </r>
       <r>   23.1478    0.0000 </r>
       <r>   25.7415    0.0000 </r>
       <r>   39.3971    0.0000 </r>
       <r>   44.4741    0.0000 </r>
       <r>   44.4741    0.0000 </r>
      </set>
      <set comment="kpoint 24">
       <r>    3.0381    1.0000 </r>
       <r>    3.4363    1.0000 </r>
       <r>    4.2281    1.0000 </r>
       <r>    6.5946    1.0000 </r>
       <r>    6.6574    1.0000 </r>
       <r>   11.2157   -0.0000 </r>
       <r>   19.1731    0.0000 </r>
       <r>   22.0208    0.0000 </r>
       <r>   23.7348    0.0000 </r>
       <r>   40.7834    0.0000 </r>
       <r>   45.4755    0.0000 </r>
       <r>   46.6335    0.0000 </r>
      </set>
      <set comment="kpoint 25">
       <r>    2.9094    1.0000 </r>
       <r>    3.3779    1.0000 </r>
       <r>    4.7476    1.0000 </r>
       <r>    6.6407    1.0000 </r>
       <r>    6.6965    1.0000 </r>
       <r>   13.0783    0.0000 </r>
       <r>   16.4963    0.0000 </r>
       <r>   21.6270    0.0000 </r>
       <r>   23.1777    0.0000 </r>
       <r>   40.9139    0.0000 </r>
       <r>   46.4698    0.0000 </r>
       <r>   46.5801    0.0000 </r>
      </set>
      <set comment="kpoint 26">
       <r>    0.0382    1.0000 </r>
       <r>    4.8879    1.0000 </r>
       <r>    4.8879    1.0000 </r>
       <r>    5.3814    1.0000 </r>
       <r>    5.4177    1.0000 </r>
       <r>    6.8120    1.0000 </r>
       <r>   28.8878    0.0000 </r>
       <r>   31.3451    0.0000 </r>
       <r>   31.3452    0.0000 </r>
       <r>   33.2170    0.0000 </r>
       <r>   40.5505    0.0000 </r>
       <r>   40.5505    0.0000 </r>
      </set>
      <set comment="kpoint 27">
       <r>    3.2489    1.0000 </r>
       <r>    3.6209    1.0000 </r>
       <r>    4.0908    1.0000 </r>
       <r>    6.6728    1.0000 </r>
       <r>    6.7015    1.0000 </r>
       <r>   14.0461    0.0000 </r>
       <r>   17.5945    0.0000 </r>
       <r>   19.1382    0.0000 </r>
       <r>   22.3228    0.0000 </r>
       <r>   43.6494    0.0000 </r>
       <r>   45.7096    0.0000 </r>
       <r>   49.6934    0.0000 </r>
      </set>
      <set comment="kpoint 28">
       <r>    1.3281    1.0000 </r>
       <r>    4.4647    1.0000 </r>
       <r>    4.6956    1.0000 </r>
       <r>    5.4475    1.0000 </r>
       <r>    6.2054    1.0000 </r>
       <r>    7.1700    1.0330 </r>
       <r>   25.5698    0.0000 </r>
       <r>   28.9309    0.0000 </r>
       <r>   29.2043    0.0000 </r>
       <r>   33.1652    0.0000 </r>
       <r>   39.9744    0.0000 </r>
       <r>   41.3624    0.0000 </r>
      </set>
      <set comment="kpoint 29">
       <r>    2.1942    1.0000 </r>
       <r>    4.1529    1.0000 </r>
       <r>    4.3831    1.0000 </r>
       <r>    5.9320    1.0000 </r>
       <r>    7.2500    1.0208 </r>
       <r>    8.2113   -0.0000 </r>
       <r>   20.8995    0.0000 </r>
       <r>   27.3203    0.0000 </r>
       <r>   27.5213    0.0000 </r>
       <r>   34.7612    0.0000 </r>
       <r>   38.8173    0.0000 </r>
       <r>   41.3969    0.0000 </r>
      </set>
      <set comment="kpoint 30">
       <r>    2.3186    1.0000 </r>
       <r>    3.7944    1.0000 </r>
       <r>    4.8572    1.0000 </r>
       <r>    5.6283    1.0000 </r>
       <r>    6.8546    1.0001 </r>
       <r>    8.2284   -0.0000 </r>
       <r>   23.4558    0.0000 </r>
       <r>   24.4076    0.0000 </r>
       <r>   29.9448    0.0000 </r>
       <r>   31.8080    0.0000 </r>
       <r>   39.5450    0.0000 </r>
       <r>   44.9965    0.0000 </r>
      </set>
      <set comment="kpoint 31">
       <r>    2.2148    1.0000 </r>
       <r>    4.1884    1.0000 </r>
       <r>    4.4009    1.0000 </r>
       <r>    6.0339    1.0000 </r>
       <r>    7.9848   -0.0004 </r>
       <r>   10.2732   -0.0000 </r>
       <r>   17.0608    0.0000 </r>
       <r>   26.1494    0.0000 </r>
       <r>   26.7775    0.0000 </r>
       <r>   36.7996    0.0000 </r>
       <r>   38.2132    0.0000 </r>
       <r>   40.2973    0.0000 </r>
      </set>
      <set comment="kpoint 32">
       <r>    2.6741    1.0000 </r>
       <r>    3.5324    1.0000 </r>
       <r>    4.6079    1.0000 </r>
       <r>    6.0590    1.0000 </r>
       <r>    7.4541    0.4514 </r>
       <r>   10.4822   -0.0000 </r>
       <r>   19.2510    0.0000 </r>
       <r>   22.6446    0.0000 </r>
       <r>   29.3703    0.0000 </r>
       <r>   33.2123    0.0000 </r>
       <r>   38.3780    0.0000 </r>
       <r>   43.8458    0.0000 </r>
      </set>
      <set comment="kpoint 33">
       <r>    2.5679    1.0000 </r>
       <r>    3.7352    1.0000 </r>
       <r>    4.3814    1.0000 </r>
       <r>    6.1775    1.0000 </r>
       <r>    7.7742   -0.0204 </r>
       <r>   12.5335   -0.0000 </r>
       <r>   16.4509    0.0000 </r>
       <r>   22.1032    0.0000 </r>
       <r>   28.9691    0.0000 </r>
       <r>   34.8632    0.0000 </r>
       <r>   37.1223    0.0000 </r>
       <r>   42.5598    0.0000 </r>
      </set>
      <set comment="kpoint 34">
       <r>    3.0736    1.0000 </r>
       <r>    3.1580    1.0000 </r>
       <r>    4.2868    1.0000 </r>
       <r>    6.6799    1.0000 </r>
       <r>    7.3352    0.8898 </r>
       <r>   13.6132    0.0000 </r>
       <r>   17.4779    0.0000 </r>
       <r>   19.1334    0.0000 </r>
       <r>   31.4369    0.0000 </r>
       <r>   32.6123    0.0000 </r>
       <r>   36.2020    0.0000 </r>
       <r>   42.7707    0.0000 </r>
      </set>
      <set comment="kpoint 35">
       <r>    3.6763    1.0000 </r>
       <r>    3.6763    1.0000 </r>
       <r>    3.6763    1.0000 </r>
       <r>    6.7019    1.0000 </r>
       <r>    6.7019    1.0000 </r>
       <r>   17.1467    0.0000 </r>
       <r>   17.1467    0.0000 </r>
       <r>   17.1468    0.0000 </r>
       <r>   20.1722    0.0000 </r>
       <r>   49.2424    0.0000 </r>
       <r>   49.2424    0.0000 </r>
       <r>   49.2424    0.0000 </r>
      </set>
      <set comment="kpoint 36">
       <r>    2.1860    1.0000 </r>
       <r>    3.9574    1.0000 </r>
       <r>    5.3570    1.0000 </r>
       <r>    5.3571    1.0000 </r>
       <r>    6.2868    1.0000 </r>
       <r>    8.0179   -0.0002 </r>
       <r>   26.4548    0.0000 </r>
       <r>   26.5291    0.0000 </r>
       <r>   26.5292    0.0000 </r>
       <r>   29.4096    0.0000 </r>
       <r>   44.4508    0.0000 </r>
       <r>   44.4508    0.0000 </r>
      </set>
      <set comment="kpoint 37">
       <r>    2.6224    1.0000 </r>
       <r>    3.2669    1.0000 </r>
       <r>    5.4023    1.0000 </r>
       <r>    5.8286    1.0000 </r>
       <r>    7.1184    1.0221 </r>
       <r>    9.7292   -0.0000 </r>
       <r>   21.8996    0.0000 </r>
       <r>   24.3654    0.0000 </r>
       <r>   26.6077    0.0000 </r>
       <r>   29.9463    0.0000 </r>
       <r>   42.5553    0.0000 </r>
       <r>   43.3628    0.0000 </r>
      </set>
      <set comment="kpoint 38">
       <r>    2.5030    1.0000 </r>
       <r>    3.1101    1.0000 </r>
       <r>    5.2970    1.0000 </r>
       <r>    6.0435    1.0000 </r>
       <r>    7.8763   -0.0045 </r>
       <r>   12.4663   -0.0000 </r>
       <r>   17.6720    0.0000 </r>
       <r>   23.0713    0.0000 </r>
       <r>   26.3141    0.0000 </r>
       <r>   31.8493    0.0000 </r>
       <r>   39.0591    0.0000 </r>
       <r>   42.6381    0.0000 </r>
      </set>
      <set comment="kpoint 39">
       <r>    2.6461    1.0000 </r>
       <r>    2.7070    1.0000 </r>
       <r>    5.4980    1.0000 </r>
       <r>    6.4958    1.0000 </r>
       <r>    7.5206    0.1960 </r>
       <r>   12.2995   -0.0000 </r>
       <r>   20.0668    0.0000 </r>
       <r>   20.7330    0.0000 </r>
       <r>   27.5361    0.0000 </r>
       <r>   29.4936    0.0000 </r>
       <r>   38.5033    0.0000 </r>
       <r>   43.6883    0.0000 </r>
      </set>
      <set comment="kpoint 40">
       <r>    2.4663    1.0000 </r>
       <r>    2.6597    1.0000 </r>
       <r>    5.4292    1.0000 </r>
       <r>    6.8410    1.0001 </r>
       <r>    7.7163   -0.0329 </r>
       <r>   15.0235    0.0000 </r>
       <r>   16.9658    0.0000 </r>
       <r>   19.8875    0.0000 </r>
       <r>   27.8358    0.0000 </r>
       <r>   30.2268    0.0000 </r>
       <r>   36.4150    0.0000 </r>
       <r>   43.4844    0.0000 </r>
      </set>
      <set comment="kpoint 41">
       <r>    2.4387    1.0000 </r>
       <r>    2.5885    1.0000 </r>
       <r>    6.4154    1.0000 </r>
       <r>    6.4155    1.0000 </r>
       <r>    7.1881    1.0351 </r>
       <r>   11.7874   -0.0000 </r>
       <r>   21.9628    0.0000 </r>
       <r>   21.9628    0.0000 </r>
       <r>   25.2477    0.0000 </r>
       <r>   27.6841    0.0000 </r>
       <r>   38.3312    0.0000 </r>
       <r>   47.0130    0.0000 </r>
      </set>
      <set comment="kpoint 42">
       <r>    2.1556    1.0000 </r>
       <r>    2.2267    1.0000 </r>
       <r>    6.6276    1.0000 </r>
       <r>    6.8701    1.0002 </r>
       <r>    7.7727   -0.0207 </r>
       <r>   14.6933    0.0000 </r>
       <r>   18.6605    0.0000 </r>
       <r>   20.5079    0.0000 </r>
       <r>   25.6038    0.0000 </r>
       <r>   27.9147    0.0000 </r>
       <r>   35.0001    0.0000 </r>
       <r>   46.9476    0.0000 </r>
      </set>
      <set comment="kpoint 43">
       <r>    1.9986    1.0000 </r>
       <r>    1.9986    1.0000 </r>
       <r>    6.7570    1.0000 </r>
       <r>    7.6385   -0.0229 </r>
       <r>    7.6387   -0.0230 </r>
       <r>   17.5086    0.0000 </r>
       <r>   17.5087    0.0000 </r>
       <r>   18.5155    0.0000 </r>
       <r>   26.5615    0.0000 </r>
       <r>   26.5616    0.0000 </r>
       <r>   33.4260    0.0000 </r>
       <r>   47.5361    0.0000 </r>
      </set>
      <set comment="kpoint 44">
       <r>    1.7766    1.0000 </r>
       <r>    1.7867    1.0000 </r>
       <r>    7.6060    0.0057 </r>
       <r>    7.6061    0.0056 </r>
       <r>    7.7610   -0.0234 </r>
       <r>   17.0531    0.0000 </r>
       <r>   18.9092    0.0000 </r>
       <r>   18.9093    0.0000 </r>
       <r>   24.7932    0.0000 </r>
       <r>   25.7539    0.0000 </r>
       <r>   32.3076    0.0000 </r>
       <r>   49.4093    0.0000 </r>
      </set>
     </set>
     <set comment="spin 2">
      <set comment="kpoint 1">
       <r>   -0.9910    1.0000 </r>
       <r>    6.3279    1.0000 </r>
       <r>    6.3279    1.0000 </r>
       <r>    7.0294    1.0064 </r>
       <r>    8.8060   -0.0000 </r>
       <r>    8.8060   -0.0000 </r>
       <r>   31.6622    0.0000 </r>
       <r>   31.6622    0.0000 </r>
       <r>   34.3054    0.0000 </r>
       <r>   38.5178    0.0000 </r>
       <r>   40.9854    0.0000 </r>
       <r>   40.9854    0.0000 </r>
      </set>
      <set comment="kpoint 2">
       <r>    0.2717    1.0000 </r>
       <r>    5.8913    1.0000 </r>
       <r>    6.0785    1.0000 </r>
       <r>    7.9047   -0.0026 </r>
       <r>    8.5897   -0.0000 </r>
       <r>    8.9207   -0.0000 </r>
       <r>   27.8325    0.0000 </r>
       <r>   29.9126    0.0000 </r>
       <r>   34.6459    0.0000 </r>
       <r>   34.9448    0.0000 </r>
       <r>   41.0109    0.0000 </r>
       <r>   41.5975    0.0000 </r>
      </set>
      <set comment="kpoint 3">
       <r>    1.9052    1.0000 </r>
       <r>    5.4144    1.0000 </r>
       <r>    5.9287    1.0000 </r>
       <r>    8.6092   -0.0000 </r>
       <r>    9.0576   -0.0000 </r>
       <r>    9.0858   -0.0000 </r>
       <r>   23.4098    0.0000 </r>
       <r>   28.0800    0.0000 </r>
       <r>   31.8096    0.0000 </r>
       <r>   35.0768    0.0000 </r>
       <r>   40.4658    0.0000 </r>
       <r>   43.0716    0.0000 </r>
      </set>
      <set comment="kpoint 4">
       <r>    2.8646    1.0000 </r>
       <r>    5.0595    1.0000 </r>
       <r>    6.6985    1.0000 </r>
       <r>    8.7530   -0.0000 </r>
       <r>    9.1819   -0.0000 </r>
       <r>   10.2794   -0.0000 </r>
       <r>   19.4088    0.0000 </r>
       <r>   26.7193    0.0000 </r>
       <r>   29.8826    0.0000 </r>
       <r>   34.9815    0.0000 </r>
       <r>   40.1423    0.0000 </r>
       <r>   45.2123    0.0000 </r>
      </set>
      <set comment="kpoint 5">
       <r>    3.0033    1.0000 </r>
       <r>    4.9300    1.0000 </r>
       <r>    7.5077    0.2400 </r>
       <r>    8.8142   -0.0000 </r>
       <r>    9.2341   -0.0000 </r>
       <r>   10.9400   -0.0000 </r>
       <r>   17.4814    0.0000 </r>
       <r>   26.2169    0.0000 </r>
       <r>   29.1602    0.0000 </r>
       <r>   34.9286    0.0000 </r>
       <r>   40.1599    0.0000 </r>
       <r>   44.8499    0.0000 </r>
      </set>
      <set comment="kpoint 6">
       <r>   -1.4457    1.0000 </r>
       <r>    6.5116    1.0000 </r>
       <r>    6.5117    1.0000 </r>
       <r>    6.5957    1.0000 </r>
       <r>    8.7552   -0.0000 </r>
       <r>    8.9608   -0.0000 </r>
       <r>   32.6252    0.0000 </r>
       <r>   33.6708    0.0000 </r>
       <r>   33.6708    0.0000 </r>
       <r>   38.8747    0.0000 </r>
       <r>   41.9274    0.0000 </r>
       <r>   42.2458    0.0000 </r>
      </set>
      <set comment="kpoint 7">
       <r>    1.7261    1.0000 </r>
       <r>    5.5480    1.0000 </r>
       <r>    5.5564    1.0000 </r>
       <r>    8.5919   -0.0000 </r>
       <r>    9.0148   -0.0000 </r>
       <r>    9.1555   -0.0000 </r>
       <r>   25.5026    0.0000 </r>
       <r>   26.5331    0.0000 </r>
       <r>   30.8924    0.0000 </r>
       <r>   36.3969    0.0000 </r>
       <r>   41.7876    0.0000 </r>
       <r>   43.6984    0.0000 </r>
      </set>
      <set comment="kpoint 8">
       <r>    3.1423    1.0000 </r>
       <r>    5.1225    1.0000 </r>
       <r>    5.5653    1.0000 </r>
       <r>    8.6944   -0.0000 </r>
       <r>    9.1903   -0.0000 </r>
       <r>   10.6460   -0.0000 </r>
       <r>   21.5753    0.0000 </r>
       <r>   24.5996    0.0000 </r>
       <r>   28.6910    0.0000 </r>
       <r>   37.0264    0.0000 </r>
       <r>   42.5148    0.0000 </r>
       <r>   44.4432    0.0000 </r>
      </set>
      <set comment="kpoint 9">
       <r>    3.5397    1.0000 </r>
       <r>    4.9194    1.0000 </r>
       <r>    6.2976    1.0000 </r>
       <r>    8.8442   -0.0000 </r>
       <r>    9.2679   -0.0000 </r>
       <r>   12.2319   -0.0000 </r>
       <r>   18.1224    0.0000 </r>
       <r>   23.6847    0.0000 </r>
       <r>   27.5939    0.0000 </r>
       <r>   37.1319    0.0000 </r>
       <r>   43.3871    0.0000 </r>
       <r>   44.3139    0.0000 </r>
      </set>
      <set comment="kpoint 10">
       <r>   -0.5520    1.0000 </r>
       <r>    6.2391    1.0000 </r>
       <r>    6.4319    1.0000 </r>
       <r>    7.1414    1.0274 </r>
       <r>    8.4151   -0.0000 </r>
       <r>    9.0502   -0.0000 </r>
       <r>   29.8862    0.0000 </r>
       <r>   32.4183    0.0000 </r>
       <r>   33.4423    0.0000 </r>
       <r>   37.9979    0.0000 </r>
       <r>   39.2519    0.0000 </r>
       <r>   40.0965    0.0000 </r>
      </set>
      <set comment="kpoint 11">
       <r>    4.0683    1.0000 </r>
       <r>    4.9433    1.0000 </r>
       <r>    5.4736    1.0000 </r>
       <r>    8.8357   -0.0000 </r>
       <r>    9.2389   -0.0000 </r>
       <r>   12.7815   -0.0000 </r>
       <r>   19.7572    0.0000 </r>
       <r>   21.0180    0.0000 </r>
       <r>   27.3723    0.0000 </r>
       <r>   38.5113    0.0000 </r>
       <r>   41.9606    0.0000 </r>
       <r>   48.7009    0.0000 </r>
      </set>
      <set comment="kpoint 12">
       <r>    4.2251    1.0000 </r>
       <r>    4.9621    1.0000 </r>
       <r>    5.5922    1.0000 </r>
       <r>    8.9750   -0.0000 </r>
       <r>    9.1970   -0.0000 </r>
       <r>   14.7361    0.0000 </r>
       <r>   17.3472    0.0000 </r>
       <r>   20.2216    0.0000 </r>
       <r>   26.9968    0.0000 </r>
       <r>   39.1902    0.0000 </r>
       <r>   41.6644    0.0000 </r>
       <r>   48.7929    0.0000 </r>
      </set>
      <set comment="kpoint 13">
       <r>    0.9898    1.0000 </r>
       <r>    5.7785    1.0000 </r>
       <r>    6.1872    1.0000 </r>
       <r>    8.1287   -0.0000 </r>
       <r>    8.2997   -0.0000 </r>
       <r>    9.1451   -0.0000 </r>
       <r>   25.6457    0.0000 </r>
       <r>   30.1882    0.0000 </r>
       <r>   32.7060    0.0000 </r>
       <r>   36.4970    0.0000 </r>
       <r>   38.3930    0.0000 </r>
       <r>   40.0926    0.0000 </r>
      </set>
      <set comment="kpoint 14">
       <r>    0.6616    1.0000 </r>
       <r>    6.0922    1.0000 </r>
       <r>    6.1370    1.0000 </r>
       <r>    7.8631   -0.0057 </r>
       <r>    8.0452   -0.0001 </r>
       <r>    9.2401   -0.0000 </r>
       <r>   27.6117    0.0000 </r>
       <r>   29.2185    0.0000 </r>
       <r>   33.5783    0.0000 </r>
       <r>   35.6854    0.0000 </r>
       <r>   38.0912    0.0000 </r>
       <r>   41.7917    0.0000 </r>
      </set>
      <set comment="kpoint 15">
       <r>    2.4207    1.0000 </r>
       <r>    5.3461    1.0000 </r>
       <r>    6.3767    1.0000 </r>
       <r>    8.5129   -0.0000 </r>
       <r>    9.2531   -0.0000 </r>
       <r>    9.3026   -0.0000 </r>
       <r>   21.2708    0.0000 </r>
       <r>   28.3071    0.0000 </r>
       <r>   31.1999    0.0000 </r>
       <r>   35.1938    0.0000 </r>
       <r>   38.4202    0.0000 </r>
       <r>   42.0023    0.0000 </r>
      </set>
      <set comment="kpoint 16">
       <r>    2.2300    1.0000 </r>
       <r>    5.6211    1.0000 </r>
       <r>    5.9174    1.0000 </r>
       <r>    8.1024   -0.0000 </r>
       <r>    8.9345   -0.0000 </r>
       <r>    9.5422   -0.0000 </r>
       <r>   23.6755    0.0000 </r>
       <r>   26.7758    0.0000 </r>
       <r>   32.2522    0.0000 </r>
       <r>   34.8411    0.0000 </r>
       <r>   38.6397    0.0000 </r>
       <r>   42.4788    0.0000 </r>
      </set>
      <set comment="kpoint 17">
       <r>    2.8871    1.0000 </r>
       <r>    5.0905    1.0000 </r>
       <r>    7.3469    0.8579 </r>
       <r>    8.6754   -0.0000 </r>
       <r>    9.7040   -0.0000 </r>
       <r>   10.0381   -0.0000 </r>
       <r>   18.0283    0.0000 </r>
       <r>   27.2485    0.0000 </r>
       <r>   29.9309    0.0000 </r>
       <r>   34.8364    0.0000 </r>
       <r>   38.7239    0.0000 </r>
       <r>   42.9386    0.0000 </r>
      </set>
      <set comment="kpoint 18">
       <r>    3.1814    1.0000 </r>
       <r>    5.3155    1.0000 </r>
       <r>    6.1830    1.0000 </r>
       <r>    8.4122   -0.0000 </r>
       <r>    9.4234   -0.0000 </r>
       <r>   10.7144   -0.0000 </r>
       <r>   19.5866    0.0000 </r>
       <r>   25.4176    0.0000 </r>
       <r>   30.4565    0.0000 </r>
       <r>   35.1844    0.0000 </r>
       <r>   39.6044    0.0000 </r>
       <r>   42.3278    0.0000 </r>
      </set>
      <set comment="kpoint 19">
       <r>    3.5035    1.0000 </r>
       <r>    5.1565    1.0000 </r>
       <r>    5.8260    1.0000 </r>
       <r>    8.2353   -0.0000 </r>
       <r>    9.2539   -0.0000 </r>
       <r>   11.0550   -0.0000 </r>
       <r>   21.7210    0.0000 </r>
       <r>   22.6705    0.0000 </r>
       <r>   32.0274    0.0000 </r>
       <r>   34.1364    0.0000 </r>
       <r>   38.5151    0.0000 </r>
       <r>   46.8809    0.0000 </r>
      </set>
      <set comment="kpoint 20">
       <r>    3.3159    1.0000 </r>
       <r>    5.2195    1.0000 </r>
       <r>    6.5563    1.0000 </r>
       <r>    8.5075   -0.0000 </r>
       <r>    9.6718   -0.0000 </r>
       <r>   11.7000   -0.0000 </r>
       <r>   17.4844    0.0000 </r>
       <r>   24.9142    0.0000 </r>
       <r>   29.7825    0.0000 </r>
       <r>   35.3192    0.0000 </r>
       <r>   40.4246    0.0000 </r>
       <r>   41.7902    0.0000 </r>
      </set>
      <set comment="kpoint 21">
       <r>    4.0465    1.0000 </r>
       <r>    5.1337    1.0000 </r>
       <r>    5.7089    1.0000 </r>
       <r>    8.5376   -0.0000 </r>
       <r>    9.3160   -0.0000 </r>
       <r>   13.2476    0.0000 </r>
       <r>   18.2805    0.0000 </r>
       <r>   21.3776    0.0000 </r>
       <r>   31.2030    0.0000 </r>
       <r>   35.0432    0.0000 </r>
       <r>   38.2228    0.0000 </r>
       <r>   46.5406    0.0000 </r>
      </set>
      <set comment="kpoint 22">
       <r>    4.7034    1.0000 </r>
       <r>    5.1051    1.0000 </r>
       <r>    5.1052    1.0000 </r>
       <r>    8.9606   -0.0000 </r>
       <r>    8.9607   -0.0000 </r>
       <r>   16.2882    0.0000 </r>
       <r>   16.2883    0.0000 </r>
       <r>   19.3120    0.0000 </r>
       <r>   31.5236    0.0000 </r>
       <r>   36.3313    0.0000 </r>
       <r>   36.3314    0.0000 </r>
       <r>   46.7836    0.0000 </r>
      </set>
      <set comment="kpoint 23">
       <r>    3.2137    1.0000 </r>
       <r>    5.0995    1.0000 </r>
       <r>    5.0995    1.0000 </r>
       <r>    8.9867   -0.0000 </r>
       <r>    8.9867   -0.0000 </r>
       <r>   10.6942   -0.0000 </r>
       <r>   23.7850    0.0000 </r>
       <r>   23.7850    0.0000 </r>
       <r>   26.4425    0.0000 </r>
       <r>   39.2419    0.0000 </r>
       <r>   44.7571    0.0000 </r>
       <r>   44.7571    0.0000 </r>
      </set>
      <set comment="kpoint 24">
       <r>    4.1285    1.0000 </r>
       <r>    4.8386    1.0000 </r>
       <r>    5.3021    1.0000 </r>
       <r>    9.0451   -0.0000 </r>
       <r>    9.2024   -0.0000 </r>
       <r>   12.5991   -0.0000 </r>
       <r>   20.0253    0.0000 </r>
       <r>   22.6640    0.0000 </r>
       <r>   24.3864    0.0000 </r>
       <r>   40.7533    0.0000 </r>
       <r>   45.7469    0.0000 </r>
       <r>   46.7597    0.0000 </r>
      </set>
      <set comment="kpoint 25">
       <r>    4.1212    1.0000 </r>
       <r>    4.7553    1.0000 </r>
       <r>    5.8280    1.0000 </r>
       <r>    9.0867   -0.0000 </r>
       <r>    9.2695   -0.0000 </r>
       <r>   14.1526    0.0000 </r>
       <r>   17.5791    0.0000 </r>
       <r>   22.2689    0.0000 </r>
       <r>   23.8130    0.0000 </r>
       <r>   40.9591    0.0000 </r>
       <r>   46.7060    0.0000 </r>
       <r>   46.9138    0.0000 </r>
      </set>
      <set comment="kpoint 26">
       <r>    0.2858    1.0000 </r>
       <r>    6.5366    1.0000 </r>
       <r>    6.5366    1.0000 </r>
       <r>    7.1612    1.0315 </r>
       <r>    7.6567   -0.0310 </r>
       <r>    9.3396   -0.0000 </r>
       <r>   29.1952    0.0000 </r>
       <r>   31.7756    0.0000 </r>
       <r>   31.7757    0.0000 </r>
       <r>   33.6388    0.0000 </r>
       <r>   40.9854    0.0000 </r>
       <r>   40.9854    0.0000 </r>
      </set>
      <set comment="kpoint 27">
       <r>    4.5318    1.0000 </r>
       <r>    4.9020    1.0000 </r>
       <r>    5.2213    1.0000 </r>
       <r>    9.1834   -0.0000 </r>
       <r>    9.2516   -0.0000 </r>
       <r>   15.1353    0.0000 </r>
       <r>   18.4817    0.0000 </r>
       <r>   19.9314    0.0000 </r>
       <r>   22.9665    0.0000 </r>
       <r>   43.6296    0.0000 </r>
       <r>   45.7916    0.0000 </r>
       <r>   49.7521    0.0000 </r>
      </set>
      <set comment="kpoint 28">
       <r>    1.7092    1.0000 </r>
       <r>    6.2537    1.0000 </r>
       <r>    6.3123    1.0000 </r>
       <r>    7.4048    0.6567 </r>
       <r>    8.0061   -0.0002 </r>
       <r>    9.5939   -0.0000 </r>
       <r>   26.2031    0.0000 </r>
       <r>   29.3200    0.0000 </r>
       <r>   29.7799    0.0000 </r>
       <r>   33.5946    0.0000 </r>
       <r>   40.4165    0.0000 </r>
       <r>   41.7691    0.0000 </r>
      </set>
      <set comment="kpoint 29">
       <r>    3.0363    1.0000 </r>
       <r>    5.7623    1.0000 </r>
       <r>    5.9588    1.0000 </r>
       <r>    7.8883   -0.0036 </r>
       <r>    9.1466   -0.0000 </r>
       <r>   10.1731   -0.0000 </r>
       <r>   21.7604    0.0000 </r>
       <r>   27.9160    0.0000 </r>
       <r>   27.9190    0.0000 </r>
       <r>   35.1410    0.0000 </r>
       <r>   39.2822    0.0000 </r>
       <r>   41.8612    0.0000 </r>
      </set>
      <set comment="kpoint 30">
       <r>    3.0079    1.0000 </r>
       <r>    5.5861    1.0000 </r>
       <r>    6.4365    1.0000 </r>
       <r>    7.4842    0.3280 </r>
       <r>    8.7819   -0.0000 </r>
       <r>   10.2266   -0.0000 </r>
       <r>   24.2216    0.0000 </r>
       <r>   25.0301    0.0000 </r>
       <r>   30.3890    0.0000 </r>
       <r>   32.2388    0.0000 </r>
       <r>   39.9949    0.0000 </r>
       <r>   45.3989    0.0000 </r>
      </set>
      <set comment="kpoint 31">
       <r>    3.4717    1.0000 </r>
       <r>    5.7393    1.0000 </r>
       <r>    5.9041    1.0000 </r>
       <r>    8.0896   -0.0000 </r>
       <r>    9.9639   -0.0000 </r>
       <r>   11.5794   -0.0000 </r>
       <r>   18.1773    0.0000 </r>
       <r>   26.7172    0.0000 </r>
       <r>   27.1739    0.0000 </r>
       <r>   37.0635    0.0000 </r>
       <r>   38.6908    0.0000 </r>
       <r>   40.8522    0.0000 </r>
      </set>
      <set comment="kpoint 32">
       <r>    3.8760    1.0000 </r>
       <r>    5.1263    1.0000 </r>
       <r>    6.1860    1.0000 </r>
       <r>    7.9715   -0.0006 </r>
       <r>    9.4344   -0.0000 </r>
       <r>   11.9233   -0.0000 </r>
       <r>   20.1640    0.0000 </r>
       <r>   23.3146    0.0000 </r>
       <r>   29.8051    0.0000 </r>
       <r>   33.5852    0.0000 </r>
       <r>   38.8428    0.0000 </r>
       <r>   44.5218    0.0000 </r>
      </set>
      <set comment="kpoint 33">
       <r>    3.9896    1.0000 </r>
       <r>    5.2620    1.0000 </r>
       <r>    5.9379    1.0000 </r>
       <r>    8.1228   -0.0000 </r>
       <r>    9.7559   -0.0000 </r>
       <r>   13.6401    0.0000 </r>
       <r>   17.5636    0.0000 </r>
       <r>   22.7607    0.0000 </r>
       <r>   29.4001    0.0000 </r>
       <r>   35.1224    0.0000 </r>
       <r>   37.6737    0.0000 </r>
       <r>   43.3035    0.0000 </r>
      </set>
      <set comment="kpoint 34">
       <r>    4.5957    1.0000 </r>
       <r>    4.6780    1.0000 </r>
       <r>    5.8012    1.0000 </r>
       <r>    8.5992   -0.0000 </r>
       <r>    9.3053   -0.0000 </r>
       <r>   14.7440    0.0000 </r>
       <r>   18.4476    0.0000 </r>
       <r>   19.8988    0.0000 </r>
       <r>   31.8160    0.0000 </r>
       <r>   32.9735    0.0000 </r>
       <r>   36.7379    0.0000 </r>
       <r>   43.5845    0.0000 </r>
      </set>
      <set comment="kpoint 35">
       <r>    4.9092    1.0000 </r>
       <r>    4.9092    1.0000 </r>
       <r>    4.9093    1.0000 </r>
       <r>    9.2804   -0.0000 </r>
       <r>    9.2804   -0.0000 </r>
       <r>   18.0326    0.0000 </r>
       <r>   18.0326    0.0000 </r>
       <r>   18.0328    0.0000 </r>
       <r>   20.8691    0.0000 </r>
       <r>   49.1026    0.0000 </r>
       <r>   49.1026    0.0000 </r>
       <r>   49.1026    0.0000 </r>
      </set>
      <set comment="kpoint 36">
       <r>    2.8125    1.0000 </r>
       <r>    5.9523    1.0000 </r>
       <r>    6.9931    1.0033 </r>
       <r>    6.9932    1.0033 </r>
       <r>    8.1051   -0.0000 </r>
       <r>   10.1367   -0.0000 </r>
       <r>   27.0926    0.0000 </r>
       <r>   27.1448    0.0000 </r>
       <r>   27.1449    0.0000 </r>
       <r>   29.8494    0.0000 </r>
       <r>   44.8426    0.0000 </r>
       <r>   44.8427    0.0000 </r>
      </set>
      <set comment="kpoint 37">
       <r>    3.7077    1.0000 </r>
       <r>    5.0727    1.0000 </r>
       <r>    7.0445    1.0082 </r>
       <r>    7.5637    0.0776 </r>
       <r>    9.0030   -0.0000 </r>
       <r>   11.2869   -0.0000 </r>
       <r>   22.6619    0.0000 </r>
       <r>   24.9605    0.0000 </r>
       <r>   27.2438    0.0000 </r>
       <r>   30.4174    0.0000 </r>
       <r>   43.2688    0.0000 </r>
       <r>   43.8062    0.0000 </r>
      </set>
      <set comment="kpoint 38">
       <r>    4.0053    1.0000 </r>
       <r>    4.6972    1.0000 </r>
       <r>    6.9306    1.0009 </r>
       <r>    7.8298   -0.0098 </r>
       <r>    9.8447   -0.0000 </r>
       <r>   13.5617    0.0000 </r>
       <r>   18.6119    0.0000 </r>
       <r>   23.6158    0.0000 </r>
       <r>   26.9671    0.0000 </r>
       <r>   32.2400    0.0000 </r>
       <r>   39.8957    0.0000 </r>
       <r>   43.0787    0.0000 </r>
      </set>
      <set comment="kpoint 39">
       <r>    4.0622    1.0000 </r>
       <r>    4.4303    1.0000 </r>
       <r>    7.1355    1.0260 </r>
       <r>    8.2698   -0.0000 </r>
       <r>    9.4507   -0.0000 </r>
       <r>   13.4292    0.0000 </r>
       <r>   20.8577    0.0000 </r>
       <r>   21.3703    0.0000 </r>
       <r>   28.1539    0.0000 </r>
       <r>   29.9929    0.0000 </r>
       <r>   39.3159    0.0000 </r>
       <r>   44.1664    0.0000 </r>
      </set>
      <set comment="kpoint 40">
       <r>    4.0938    1.0000 </r>
       <r>    4.2562    1.0000 </r>
       <r>    7.0323    1.0067 </r>
       <r>    8.6655   -0.0000 </r>
       <r>    9.6611   -0.0000 </r>
       <r>   15.9232    0.0000 </r>
       <r>   17.8565    0.0000 </r>
       <r>   20.5356    0.0000 </r>
       <r>   28.4303    0.0000 </r>
       <r>   30.6822    0.0000 </r>
       <r>   37.3194    0.0000 </r>
       <r>   43.9656    0.0000 </r>
      </set>
      <set comment="kpoint 41">
       <r>    3.8379    1.0000 </r>
       <r>    4.3570    1.0000 </r>
       <r>    8.1348   -0.0000 </r>
       <r>    8.1350   -0.0000 </r>
       <r>    9.0896   -0.0000 </r>
       <r>   12.8983   -0.0000 </r>
       <r>   22.5054    0.0000 </r>
       <r>   22.5054    0.0000 </r>
       <r>   26.1341    0.0000 </r>
       <r>   28.2925    0.0000 </r>
       <r>   39.1638    0.0000 </r>
       <r>   47.3703    0.0000 </r>
      </set>
      <set comment="kpoint 42">
       <r>    3.7670    1.0000 </r>
       <r>    3.8711    1.0000 </r>
       <r>    8.3958   -0.0000 </r>
       <r>    8.6466   -0.0000 </r>
       <r>    9.7306   -0.0000 </r>
       <r>   15.4960    0.0000 </r>
       <r>   19.3010    0.0000 </r>
       <r>   20.9703    0.0000 </r>
       <r>   26.4542    0.0000 </r>
       <r>   28.5370    0.0000 </r>
       <r>   35.9486    0.0000 </r>
       <r>   47.3098    0.0000 </r>
      </set>
      <set comment="kpoint 43">
       <r>    3.6363    1.0000 </r>
       <r>    3.6363    1.0000 </r>
       <r>    8.5245   -0.0000 </r>
       <r>    9.5605   -0.0000 </r>
       <r>    9.5608   -0.0000 </r>
       <r>   18.1114    0.0000 </r>
       <r>   18.1115    0.0000 </r>
       <r>   19.0227    0.0000 </r>
       <r>   27.3110    0.0000 </r>
       <r>   27.3110    0.0000 </r>
       <r>   34.4380    0.0000 </r>
       <r>   47.8889    0.0000 </r>
      </set>
      <set comment="kpoint 44">
       <r>    3.4094    1.0000 </r>
       <r>    3.4285    1.0000 </r>
       <r>    9.5200   -0.0000 </r>
       <r>    9.5202   -0.0000 </r>
       <r>    9.7184   -0.0000 </r>
       <r>   17.5352    0.0000 </r>
       <r>   19.2492    0.0000 </r>
       <r>   19.2492    0.0000 </r>
       <r>   25.8045    0.0000 </r>
       <r>   26.6155    0.0000 </r>
       <r>   33.3461    0.0000 </r>
       <r>   49.6657    0.0000 </r>
      </set>
     </set>
    </set>
   </array>
  </eigenvalues>
  <separator name="orbital magnetization" >
   <v name="MAGDIPOLOUT">      0.00000000      0.00000000      0.00000000</v>
  </separator>
  <dos>
   <i name="efermi">      7.44259626 </i>
   <total>
    <array>
     <dimension dim="1">gridpoints</dimension>
     <dimension dim="2">spin</dimension>
     <field>energy</field>
     <field>total</field>
     <field>integrated</field>
     <set>
      <set comment="spin 1">
       <r>    -4.2253     0.0000     0.0000 </r>
       <r>    -4.0368     0.0000     0.0000 </r>
       <r>    -3.8483     0.0000     0.0000 </r>
       <r>    -3.6598     0.0000     0.0000 </r>
       <r>    -3.4713     0.0000     0.0000 </r>
       <r>    -3.2828    -0.0000    -0.0000 </r>
       <r>    -3.0943    -0.0000    -0.0000 </r>
       <r>    -2.9058    -0.0000    -0.0000 </r>
       <r>    -2.7173    -0.0000    -0.0000 </r>
       <r>    -2.5288    -0.0000    -0.0000 </r>
       <r>    -2.3403    -0.0000    -0.0000 </r>
       <r>    -2.1518    -0.0000    -0.0000 </r>
       <r>    -1.9633    -0.0008    -0.0002 </r>
       <r>    -1.7749     0.0034     0.0005 </r>
       <r>    -1.5864     0.0216     0.0045 </r>
       <r>    -1.3979     0.0079     0.0060 </r>
       <r>    -1.2094     0.0197     0.0098 </r>
       <r>    -1.0209     0.0186     0.0133 </r>
       <r>    -0.8324     0.0379     0.0204 </r>
       <r>    -0.6439     0.0858     0.0366 </r>
       <r>    -0.4554     0.0103     0.0385 </r>
       <r>    -0.2669    -0.0072     0.0372 </r>
       <r>    -0.0784     0.0223     0.0414 </r>
       <r>     0.1101     0.1082     0.0618 </r>
       <r>     0.2986     0.0559     0.0723 </r>
       <r>     0.4871     0.0851     0.0883 </r>
       <r>     0.6755     0.0900     0.1053 </r>
       <r>     0.8640     0.0594     0.1165 </r>
       <r>     1.0525    -0.0096     0.1147 </r>
       <r>     1.2410     0.0296     0.1203 </r>
       <r>     1.4295     0.2253     0.1627 </r>
       <r>     1.6180     0.2233     0.2048 </r>
       <r>     1.8065     0.4273     0.2854 </r>
       <r>     1.9950     0.3066     0.3431 </r>
       <r>     2.1835     0.5479     0.4464 </r>
       <r>     2.3720     0.7718     0.5919 </r>
       <r>     2.5605     0.7153     0.7267 </r>
       <r>     2.7490     0.8670     0.8901 </r>
       <r>     2.9375     0.5324     0.9905 </r>
       <r>     3.1259     0.4307     1.0717 </r>
       <r>     3.3144     0.3814     1.1436 </r>
       <r>     3.5029     0.7316     1.2815 </r>
       <r>     3.6914     1.4510     1.5550 </r>
       <r>     3.8799     0.9574     1.7354 </r>
       <r>     4.0684     0.5536     1.8398 </r>
       <r>     4.2569     0.8631     2.0025 </r>
       <r>     4.4454     1.4896     2.2833 </r>
       <r>     4.6339     1.1620     2.5023 </r>
       <r>     4.8224     0.6797     2.6304 </r>
       <r>     5.0109     0.3732     2.7008 </r>
       <r>     5.1994     0.2871     2.7549 </r>
       <r>     5.3879     0.6494     2.8773 </r>
       <r>     5.5764     0.5189     2.9751 </r>
       <r>     5.7648     0.2168     3.0160 </r>
       <r>     5.9533     0.6229     3.1334 </r>
       <r>     6.1418     1.2080     3.3611 </r>
       <r>     6.3303     1.3727     3.6198 </r>
       <r>     6.5188     1.6641     3.9335 </r>
       <r>     6.7073     1.9286     4.2970 </r>
       <r>     6.8958     1.5515     4.5895 </r>
       <r>     7.0843     0.5392     4.6911 </r>
       <r>     7.2728     0.7152     4.8259 </r>
       <r>     7.4613     0.8921     4.9941 </r>
       <r>     7.6498     0.5721     5.1019 </r>
       <r>     7.8383     0.4342     5.1837 </r>
       <r>     8.0268     0.3121     5.2426 </r>
       <r>     8.2152     0.3338     5.3055 </r>
       <r>     8.4037     0.1800     5.3394 </r>
       <r>     8.5922     0.0512     5.3491 </r>
       <r>     8.7807     0.0536     5.3592 </r>
       <r>     8.9692     0.1386     5.3853 </r>
       <r>     9.1577     0.3540     5.4521 </r>
       <r>     9.3462     0.1127     5.4733 </r>
       <r>     9.5347     0.1023     5.4926 </r>
       <r>     9.7232     0.1138     5.5140 </r>
       <r>     9.9117     0.0644     5.5262 </r>
       <r>    10.1002    -0.0050     5.5252 </r>
       <r>    10.2887     0.0733     5.5391 </r>
       <r>    10.4772     0.2657     5.5891 </r>
       <r>    10.6656     0.1747     5.6221 </r>
       <r>    10.8541     0.0525     5.6320 </r>
       <r>    11.0426     0.1743     5.6648 </r>
       <r>    11.2311     0.1040     5.6844 </r>
       <r>    11.4196     0.1170     5.7065 </r>
       <r>    11.6081     0.0610     5.7180 </r>
       <r>    11.7966     0.0147     5.7208 </r>
       <r>    11.9851     0.1461     5.7483 </r>
       <r>    12.1736     0.1343     5.7736 </r>
       <r>    12.3621     0.1045     5.7933 </r>
       <r>    12.5506     0.1965     5.8304 </r>
       <r>    12.7391     0.0795     5.8453 </r>
       <r>    12.9276    -0.0042     5.8445 </r>
       <r>    13.1160     0.0387     5.8518 </r>
       <r>    13.3045     0.0188     5.8554 </r>
       <r>    13.4930     0.0149     5.8582 </r>
       <r>    13.6815     0.1634     5.8890 </r>
       <r>    13.8700     0.0871     5.9054 </r>
       <r>    14.0585     0.0643     5.9175 </r>
       <r>    14.2470     0.0584     5.9285 </r>
       <r>    14.4355    -0.0061     5.9274 </r>
       <r>    14.6240     0.0309     5.9332 </r>
       <r>    14.8125     0.0849     5.9492 </r>
       <r>    15.0010     0.0668     5.9618 </r>
       <r>    15.1895     0.1047     5.9815 </r>
       <r>    15.3780     0.0557     5.9920 </r>
       <r>    15.5664     0.0014     5.9923 </r>
       <r>    15.7549    -0.0019     5.9919 </r>
       <r>    15.9434    -0.0071     5.9906 </r>
       <r>    16.1319     0.0235     5.9950 </r>
       <r>    16.3204     0.2209     6.0367 </r>
       <r>    16.5089     0.2173     6.0776 </r>
       <r>    16.6974     0.0564     6.0883 </r>
       <r>    16.8859     0.1166     6.1102 </r>
       <r>    17.0744     0.3961     6.1849 </r>
       <r>    17.2629     0.3377     6.2486 </r>
       <r>    17.4514     0.1868     6.2838 </r>
       <r>    17.6399     0.2591     6.3326 </r>
       <r>    17.8284     0.1307     6.3572 </r>
       <r>    18.0169    -0.0055     6.3562 </r>
       <r>    18.2053    -0.0080     6.3547 </r>
       <r>    18.3938     0.0779     6.3694 </r>
       <r>    18.5823     0.2694     6.4202 </r>
       <r>    18.7708     0.2606     6.4693 </r>
       <r>    18.9593     0.1364     6.4950 </r>
       <r>    19.1478     0.2723     6.5463 </r>
       <r>    19.3363     0.3863     6.6192 </r>
       <r>    19.5248     0.1376     6.6451 </r>
       <r>    19.7133     0.0177     6.6484 </r>
       <r>    19.9018     0.0678     6.6612 </r>
       <r>    20.0903     0.1318     6.6861 </r>
       <r>    20.2788     0.1431     6.7130 </r>
       <r>    20.4673     0.1848     6.7479 </r>
       <r>    20.6557     0.2963     6.8037 </r>
       <r>    20.8442     0.4952     6.8971 </r>
       <r>    21.0327     0.2242     6.9393 </r>
       <r>    21.2212    -0.0016     6.9390 </r>
       <r>    21.4097    -0.0075     6.9376 </r>
       <r>    21.5982     0.0199     6.9414 </r>
       <r>    21.7867     0.0461     6.9500 </r>
       <r>    21.9752     0.2391     6.9951 </r>
       <r>    22.1637     0.3041     7.0524 </r>
       <r>    22.3522     0.1078     7.0728 </r>
       <r>    22.5407     0.0930     7.0903 </r>
       <r>    22.7292     0.2555     7.1385 </r>
       <r>    22.9177     0.2016     7.1765 </r>
       <r>    23.1061     0.3715     7.2465 </r>
       <r>    23.2946     0.2960     7.3023 </r>
       <r>    23.4831     0.0800     7.3174 </r>
       <r>    23.6716     0.0777     7.3320 </r>
       <r>    23.8601     0.0875     7.3485 </r>
       <r>    24.0486     0.1533     7.3774 </r>
       <r>    24.2371     0.1248     7.4009 </r>
       <r>    24.4256     0.2289     7.4441 </r>
       <r>    24.6141     0.1365     7.4698 </r>
       <r>    24.8026     0.0681     7.4826 </r>
       <r>    24.9911     0.3401     7.5467 </r>
       <r>    25.1796     0.1525     7.5755 </r>
       <r>    25.3681     0.0049     7.5764 </r>
       <r>    25.5565     0.1024     7.5957 </r>
       <r>    25.7450     0.1859     7.6308 </r>
       <r>    25.9335     0.0966     7.6490 </r>
       <r>    26.1220     0.1822     7.6833 </r>
       <r>    26.3105     0.3425     7.7479 </r>
       <r>    26.4990     0.4057     7.8243 </r>
       <r>    26.6875     0.2913     7.8792 </r>
       <r>    26.8760     0.1988     7.9167 </r>
       <r>    27.0645     0.2751     7.9686 </r>
       <r>    27.2530     0.3182     8.0286 </r>
       <r>    27.4415     0.2327     8.0724 </r>
       <r>    27.6300     0.2229     8.1144 </r>
       <r>    27.8185     0.2072     8.1535 </r>
       <r>    28.0069     0.2588     8.2023 </r>
       <r>    28.1954     0.2870     8.2564 </r>
       <r>    28.3839     0.0715     8.2698 </r>
       <r>    28.5724     0.0156     8.2728 </r>
       <r>    28.7609     0.1012     8.2919 </r>
       <r>    28.9494     0.2080     8.3311 </r>
       <r>    29.1379     0.1663     8.3624 </r>
       <r>    29.3264     0.3334     8.4252 </r>
       <r>    29.5149     0.5283     8.5248 </r>
       <r>    29.7034     0.2577     8.5734 </r>
       <r>    29.8919     0.1215     8.5963 </r>
       <r>    30.0804     0.4089     8.6734 </r>
       <r>    30.2689     0.3313     8.7358 </r>
       <r>    30.4574     0.0717     8.7493 </r>
       <r>    30.6458     0.1069     8.7695 </r>
       <r>    30.8343     0.2246     8.8118 </r>
       <r>    31.0228     0.0939     8.8295 </r>
       <r>    31.2113     0.0950     8.8474 </r>
       <r>    31.3998     0.1272     8.8714 </r>
       <r>    31.5883     0.2219     8.9133 </r>
       <r>    31.7768     0.2203     8.9548 </r>
       <r>    31.9653     0.3280     9.0166 </r>
       <r>    32.1538     0.0720     9.0302 </r>
       <r>    32.3423     0.1738     9.0629 </r>
       <r>    32.5308     0.1145     9.0845 </r>
       <r>    32.7193     0.1022     9.1038 </r>
       <r>    32.9078     0.0137     9.1064 </r>
       <r>    33.0962     0.0549     9.1167 </r>
       <r>    33.2847     0.3652     9.1856 </r>
       <r>    33.4732     0.2727     9.2370 </r>
       <r>    33.6617     0.0344     9.2434 </r>
       <r>    33.8502     0.1380     9.2694 </r>
       <r>    34.0387     0.1651     9.3006 </r>
       <r>    34.2272     0.0134     9.3031 </r>
       <r>    34.4157     0.1931     9.3395 </r>
       <r>    34.6042     0.3419     9.4039 </r>
       <r>    34.7927     0.7188     9.5394 </r>
       <r>    34.9812     0.6176     9.6558 </r>
       <r>    35.1697     0.2543     9.7037 </r>
       <r>    35.3582     0.0205     9.7076 </r>
       <r>    35.5466    -0.0090     9.7059 </r>
       <r>    35.7351    -0.0046     9.7050 </r>
       <r>    35.9236     0.0483     9.7141 </r>
       <r>    36.1121     0.1358     9.7398 </r>
       <r>    36.3006     0.1626     9.7704 </r>
       <r>    36.4891     0.1863     9.8055 </r>
       <r>    36.6776     0.0665     9.8181 </r>
       <r>    36.8661     0.2201     9.8596 </r>
       <r>    37.0546     0.4155     9.9379 </r>
       <r>    37.2431     0.1296     9.9623 </r>
       <r>    37.4316    -0.0093     9.9606 </r>
       <r>    37.6201     0.0709     9.9739 </r>
       <r>    37.8086     0.2836    10.0274 </r>
       <r>    37.9970     0.3244    10.0885 </r>
       <r>    38.1855     0.4172    10.1672 </r>
       <r>    38.3740     0.5374    10.2684 </r>
       <r>    38.5625     0.4281    10.3491 </r>
       <r>    38.7510     0.1283    10.3733 </r>
       <r>    38.9395     0.0968    10.3916 </r>
       <r>    39.1280     0.1816    10.4258 </r>
       <r>    39.3165     0.2141    10.4662 </r>
       <r>    39.5050     0.3359    10.5295 </r>
       <r>    39.6935     0.2757    10.5814 </r>
       <r>    39.8820     0.1861    10.6165 </r>
       <r>    40.0705     0.1575    10.6462 </r>
       <r>    40.2590     0.1177    10.6684 </r>
       <r>    40.4474     0.1517    10.6970 </r>
       <r>    40.6359     0.1148    10.7186 </r>
       <r>    40.8244     0.2553    10.7667 </r>
       <r>    41.0129     0.1835    10.8013 </r>
       <r>    41.2014     0.0968    10.8196 </r>
       <r>    41.3899     0.3715    10.8896 </r>
       <r>    41.5784     0.3550    10.9565 </r>
       <r>    41.7669     0.2472    11.0031 </r>
       <r>    41.9554     0.3289    11.0651 </r>
       <r>    42.1439     0.2930    11.1203 </r>
       <r>    42.3324     0.1810    11.1545 </r>
       <r>    42.5209     0.1117    11.1755 </r>
       <r>    42.7094     0.3272    11.2372 </r>
       <r>    42.8979     0.3002    11.2938 </r>
       <r>    43.0863     0.1486    11.3218 </r>
[...]
      </set>
      <set comment="kpoint 27">
       <set comment="band 1">
        <r>  0.0277  0.0868  0.7993 </r>
       </set>
       <set comment="band 2">
        <r>  0.0000  0.1424  0.7585 </r>
       </set>
       <set comment="band 3">
        <r>  0.0135  0.2196  0.6414 </r>
       </set>
       <set comment="band 4">
        <r>  0.0000  0.0004  0.9844 </r>
       </set>
       <set comment="band 5">
        <r>  0.0002  0.0003  0.9861 </r>
       </set>
       <set comment="band 6">
        <r>  0.0462  0.2851  0.4998 </r>
       </set>
       <set comment="band 7">
        <r>  0.0000  0.3404  0.4289 </r>
       </set>
       <set comment="band 8">
        <r>  0.3159  0.1516  0.2872 </r>
       </set>
       <set comment="band 9">
        <r>  0.3635  0.2509  0.1190 </r>
       </set>
       <set comment="band 10">
        <r>  0.0000  0.0160  0.0925 </r>
       </set>
       <set comment="band 11">
        <r>  0.0011  0.0259  0.1325 </r>
       </set>
       <set comment="band 12">
        <r>  0.0001  0.0554  0.1090 </r>
       </set>
      </set>
      <set comment="kpoint 28">
       <set comment="band 1">
        <r>  0.4490  0.1971  0.0946 </r>
       </set>
       <set comment="band 2">
        <r>  0.0026  0.0373  0.8795 </r>
       </set>
       <set comment="band 3">
        <r>  0.0000  0.0170  0.9462 </r>
       </set>
       <set comment="band 4">
        <r>  0.0003  0.0104  0.9271 </r>
       </set>
       <set comment="band 5">
        <r>  0.0000  0.0088  0.9656 </r>
       </set>
       <set comment="band 6">
        <r>  0.0385  0.0149  0.9223 </r>
       </set>
       <set comment="band 7">
        <r>  0.0364  0.1872  0.4155 </r>
       </set>
       <set comment="band 8">
        <r>  0.0733  0.1181  0.2492 </r>
       </set>
       <set comment="band 9">
        <r>  0.0000  0.3431  0.3864 </r>
       </set>
       <set comment="band 10">
        <r>  0.0488  0.2770  0.1592 </r>
       </set>
       <set comment="band 11">
        <r>  0.0000  0.2608  0.2637 </r>
       </set>
       <set comment="band 12">
        <r>  0.0648  0.2536  0.0770 </r>
       </set>
      </set>
      <set comment="kpoint 29">
       <set comment="band 1">
        <r>  0.2589  0.1689  0.3667 </r>
       </set>
       <set comment="band 2">
        <r>  0.0146  0.1264  0.7202 </r>
       </set>
       <set comment="band 3">
        <r>  0.0000  0.0167  0.9423 </r>
       </set>
       <set comment="band 4">
        <r>  0.0004  0.0297  0.9197 </r>
       </set>
       <set comment="band 5">
        <r>  0.0000  0.0097  0.9692 </r>
       </set>
       <set comment="band 6">
        <r>  0.0799  0.0954  0.7692 </r>
       </set>
       <set comment="band 7">
        <r>  0.1459  0.2341  0.3960 </r>
       </set>
       <set comment="band 8">
        <r>  0.0798  0.0936  0.2344 </r>
       </set>
       <set comment="band 9">
        <r>  0.0000  0.4643  0.3047 </r>
       </set>
       <set comment="band 10">
        <r>  0.0124  0.2398  0.2049 </r>
       </set>
       <set comment="band 11">
        <r>  0.0000  0.1924  0.4078 </r>
       </set>
       <set comment="band 12">
        <r>  0.1246  0.1204  0.2403 </r>
       </set>
      </set>
      <set comment="kpoint 30">
       <set comment="band 1">
        <r>  0.2890  0.2242  0.2566 </r>
       </set>
       <set comment="band 2">
        <r>  0.0000  0.0317  0.8612 </r>
       </set>
       <set comment="band 3">
        <r>  0.0012  0.0479  0.8979 </r>
       </set>
       <set comment="band 4">
        <r>  0.0000  0.0187  0.9315 </r>
       </set>
       <set comment="band 5">
        <r>  0.0012  0.0099  0.9638 </r>
       </set>
       <set comment="band 6">
        <r>  0.0925  0.0769  0.7795 </r>
       </set>
       <set comment="band 7">
        <r>  0.0000  0.2740  0.4512 </r>
       </set>
       <set comment="band 8">
        <r>  0.1631  0.2892  0.2498 </r>
       </set>
       <set comment="band 9">
        <r>  0.0000  0.1519  0.3991 </r>
       </set>
       <set comment="band 10">
        <r>  0.0605  0.3322  0.0874 </r>
       </set>
       <set comment="band 11">
        <r>  0.0534  0.1417  0.3534 </r>
       </set>
       <set comment="band 12">
        <r>  0.0000  0.2905  0.0784 </r>
       </set>
      </set>
      <set comment="kpoint 31">
       <set comment="band 1">
        <r>  0.1229  0.0501  0.6863 </r>
       </set>
       <set comment="band 2">
        <r>  0.0000  0.0168  0.9403 </r>
       </set>
       <set comment="band 3">
        <r>  0.0069  0.2495  0.5684 </r>
       </set>
       <set comment="band 4">
        <r>  0.0169  0.0074  0.9282 </r>
       </set>
       <set comment="band 5">
        <r>  0.0000  0.0018  0.9865 </r>
       </set>
       <set comment="band 6">
        <r>  0.0364  0.3289  0.5103 </r>
       </set>
       <set comment="band 7">
        <r>  0.2980  0.1113  0.4448 </r>
       </set>
       <set comment="band 8">
        <r>  0.0000  0.5388  0.2239 </r>
       </set>
       <set comment="band 9">
        <r>  0.0779  0.1040  0.2206 </r>
       </set>
       <set comment="band 10">
        <r>  0.0004  0.1317  0.2359 </r>
       </set>
       <set comment="band 11">
        <r>  0.0000  0.1644  0.4696 </r>
       </set>
       <set comment="band 12">
        <r>  0.0724  0.2180  0.2927 </r>
       </set>
      </set>
      <set comment="kpoint 32">
       <set comment="band 1">
        <r>  0.1268  0.1394  0.5648 </r>
       </set>
       <set comment="band 2">
        <r>  0.0070  0.1038  0.7518 </r>
       </set>
       <set comment="band 3">
        <r>  0.0010  0.0522  0.8848 </r>
       </set>
       <set comment="band 4">
        <r>  0.0054  0.0211  0.9276 </r>
       </set>
       <set comment="band 5">
        <r>  0.0097  0.0091  0.9598 </r>
       </set>
       <set comment="band 6">
        <r>  0.0978  0.2353  0.5626 </r>
       </set>
       <set comment="band 7">
        <r>  0.1555  0.2645  0.3836 </r>
       </set>
       <set comment="band 8">
        <r>  0.1180  0.3320  0.2780 </r>
       </set>
       <set comment="band 9">
        <r>  0.0211  0.1982  0.2957 </r>
       </set>
       <set comment="band 10">
        <r>  0.0159  0.2317  0.2068 </r>
       </set>
       <set comment="band 11">
        <r>  0.0333  0.1652  0.3769 </r>
       </set>
       <set comment="band 12">
        <r>  0.0292  0.2871  0.3195 </r>
       </set>
      </set>
      <set comment="kpoint 33">
       <set comment="band 1">
        <r>  0.0641  0.0576  0.7438 </r>
       </set>
       <set comment="band 2">
        <r>  0.0000  0.1978  0.6392 </r>
       </set>
       <set comment="band 3">
        <r>  0.0118  0.0246  0.9072 </r>
       </set>
       <set comment="band 4">
        <r>  0.0187  0.0112  0.9236 </r>
       </set>
       <set comment="band 5">
        <r>  0.0000  0.0177  0.9648 </r>
       </set>
       <set comment="band 6">
        <r>  0.0000  0.4295  0.4187 </r>
       </set>
       <set comment="band 7">
        <r>  0.3012  0.1246  0.4282 </r>
       </set>
       <set comment="band 8">
        <r>  0.1141  0.3619  0.2539 </r>
       </set>
       <set comment="band 9">
        <r>  0.0257  0.2126  0.2656 </r>
       </set>
       <set comment="band 10">
        <r>  0.0000  0.0857  0.3010 </r>
       </set>
       <set comment="band 11">
        <r>  0.0069  0.3217  0.2883 </r>
       </set>
       <set comment="band 12">
        <r>  0.0741  0.2746  0.3452 </r>
       </set>
      </set>
      <set comment="kpoint 34">
       <set comment="band 1">
        <r>  0.0354  0.1396  0.6741 </r>
       </set>
       <set comment="band 2">
        <r>  0.0000  0.0919  0.7720 </r>
       </set>
       <set comment="band 3">
        <r>  0.0314  0.0322  0.8648 </r>
       </set>
       <set comment="band 4">
        <r>  0.0000  0.0280  0.9368 </r>
       </set>
       <set comment="band 5">
        <r>  0.0053  0.0217  0.9475 </r>
       </set>
       <set comment="band 6">
        <r>  0.0551  0.3662  0.4325 </r>
       </set>
       <set comment="band 7">
        <r>  0.0000  0.4149  0.4069 </r>
       </set>
       <set comment="band 8">
        <r>  0.3842  0.1537  0.2336 </r>
       </set>
       <set comment="band 9">
        <r>  0.0000  0.1031  0.3819 </r>
       </set>
       <set comment="band 10">
        <r>  0.0100  0.1990  0.2411 </r>
       </set>
       <set comment="band 11">
        <r>  0.0011  0.3814  0.2033 </r>
       </set>
       <set comment="band 12">
        <r>  0.2218  0.1489  0.3484 </r>
       </set>
      </set>
      <set comment="kpoint 35">
       <set comment="band 1">
        <r>  0.0000  0.1549  0.7464 </r>
       </set>
       <set comment="band 2">
        <r>  0.0000  0.1549  0.7464 </r>
       </set>
       <set comment="band 3">
        <r>  0.0000  0.1549  0.7464 </r>
       </set>
       <set comment="band 4">
        <r>  0.0000  0.0000  0.9876 </r>
       </set>
       <set comment="band 5">
        <r>  0.0000  0.0000  0.9876 </r>
       </set>
       <set comment="band 6">
        <r>  0.0000  0.3401  0.4302 </r>
       </set>
       <set comment="band 7">
        <r>  0.0000  0.3401  0.4302 </r>
       </set>
       <set comment="band 8">
        <r>  0.0000  0.3401  0.4302 </r>
       </set>
       <set comment="band 9">
        <r>  0.7828  0.0000  0.0000 </r>
       </set>
       <set comment="band 10">
        <r>  0.0000  0.0000  0.0000 </r>
       </set>
       <set comment="band 11">
        <r>  0.0000  0.0000  0.0000 </r>
       </set>
       <set comment="band 12">
        <r>  0.0000  0.0000  0.0000 </r>
       </set>
      </set>
      <set comment="kpoint 36">
       <set comment="band 1">
        <r>  0.3092  0.2432  0.2041 </r>
       </set>
       <set comment="band 2">
        <r>  0.0000  0.0000  0.8820 </r>
       </set>
       <set comment="band 3">
        <r>  0.0000  0.0403  0.9145 </r>
       </set>
       <set comment="band 4">
        <r>  0.0000  0.0403  0.9145 </r>
       </set>
       <set comment="band 5">
        <r>  0.0000  0.0000  0.9739 </r>
       </set>
       <set comment="band 6">
        <r>  0.1029  0.0527  0.7995 </r>
       </set>
       <set comment="band 7">
        <r>  0.0000  0.0000  0.5464 </r>
       </set>
       <set comment="band 8">
        <r>  0.0000  0.4346  0.3410 </r>
       </set>
       <set comment="band 9">
        <r>  0.0000  0.4346  0.3410 </r>
       </set>
       <set comment="band 10">
        <r>  0.2222  0.1538  0.0407 </r>
       </set>
       <set comment="band 11">
        <r>  0.0000  0.3020  0.0481 </r>
       </set>
       <set comment="band 12">
        <r>  0.0000  0.3019  0.0481 </r>
       </set>
      </set>
      <set comment="kpoint 37">
       <set comment="band 1">
        <r>  0.1441  0.2060  0.4502 </r>
       </set>
       <set comment="band 2">
        <r>  0.0006  0.0220  0.8477 </r>
       </set>
       <set comment="band 3">
        <r>  0.0000  0.0378  0.9155 </r>
       </set>
       <set comment="band 4">
        <r>  0.0040  0.0413  0.9035 </r>
       </set>
       <set comment="band 5">
        <r>  0.0000  0.0071  0.9692 </r>
       </set>
       <set comment="band 6">
        <r>  0.1571  0.1755  0.5701 </r>
       </set>
       <set comment="band 7">
        <r>  0.0763  0.3491  0.3476 </r>
       </set>
       <set comment="band 8">
        <r>  0.0000  0.5144  0.2653 </r>
       </set>
       <set comment="band 9">
        <r>  0.0712  0.0351  0.4562 </r>
       </set>
       <set comment="band 10">
        <r>  0.1181  0.1749  0.2040 </r>
       </set>
       <set comment="band 11">
        <r>  0.0464  0.3698  0.2315 </r>
       </set>
       <set comment="band 12">
        <r>  0.0000  0.1258  0.3925 </r>
       </set>
      </set>
      <set comment="kpoint 38">
       <set comment="band 1">
        <r>  0.0454  0.0733  0.7344 </r>
       </set>
       <set comment="band 2">
        <r>  0.0020  0.1203  0.7248 </r>
       </set>
       <set comment="band 3">
        <r>  0.0000  0.0354  0.9171 </r>
       </set>
       <set comment="band 4">
        <r>  0.0299  0.0231  0.8901 </r>
       </set>
       <set comment="band 5">
        <r>  0.0000  0.0019  0.9845 </r>
       </set>
       <set comment="band 6">
        <r>  0.0756  0.3962  0.3749 </r>
       </set>
       <set comment="band 7">
        <r>  0.2146  0.2527  0.3557 </r>
       </set>
       <set comment="band 8">
        <r>  0.0000  0.5700  0.1956 </r>
       </set>
       <set comment="band 9">
        <r>  0.1043  0.0175  0.4335 </r>
       </set>
       <set comment="band 10">
        <r>  0.0210  0.1178  0.3363 </r>
       </set>
       <set comment="band 11">
        <r>  0.1170  0.4578  0.1401 </r>
       </set>
       <set comment="band 12">
        <r>  0.0000  0.1201  0.4037 </r>
       </set>
      </set>
      <set comment="kpoint 39">
       <set comment="band 1">
        <r>  0.0420  0.1421  0.6503 </r>
       </set>
       <set comment="band 2">
        <r>  0.0000  0.0258  0.8395 </r>
       </set>
       <set comment="band 3">
        <r>  0.0153  0.0362  0.8931 </r>
       </set>
       <set comment="band 4">
        <r>  0.0000  0.0437  0.9132 </r>
       </set>
       <set comment="band 5">
        <r>  0.0065  0.0069  0.9646 </r>
       </set>
       <set comment="band 6">
        <r>  0.1381  0.3281  0.3857 </r>
       </set>
       <set comment="band 7">
        <r>  0.0000  0.4607  0.3361 </r>
       </set>
       <set comment="band 8">
        <r>  0.1692  0.3825  0.2088 </r>
       </set>
       <set comment="band 9">
        <r>  0.0000  0.0979  0.5079 </r>
       </set>
       <set comment="band 10">
        <r>  0.1090  0.1312  0.2737 </r>
       </set>
       <set comment="band 11">
        <r>  0.1554  0.4039  0.1372 </r>
       </set>
       <set comment="band 12">
        <r>  0.0824  0.0583  0.3654 </r>
       </set>
      </set>
      <set comment="kpoint 40">
       <set comment="band 1">
        <r>  0.0075  0.0487  0.8037 </r>
       </set>
       <set comment="band 2">
        <r>  0.0000  0.0936  0.7580 </r>
       </set>
       <set comment="band 3">
        <r>  0.0267  0.0339  0.8799 </r>
       </set>
       <set comment="band 4">
        <r>  0.0066  0.0354  0.9183 </r>
       </set>
       <set comment="band 5">
        <r>  0.0000  0.0147  0.9660 </r>
       </set>
       <set comment="band 6">
        <r>  0.0000  0.5127  0.3057 </r>
       </set>
       <set comment="band 7">
        <r>  0.1939  0.3061  0.3153 </r>
       </set>
       <set comment="band 8">
        <r>  0.1301  0.4239  0.2115 </r>
       </set>
       <set comment="band 9">
        <r>  0.0299  0.0918  0.4619 </r>
       </set>
       <set comment="band 10">
        <r>  0.0000  0.0949  0.4275 </r>
       </set>
       <set comment="band 11">
        <r>  0.2410  0.4544  0.0364 </r>
       </set>
       <set comment="band 12">
        <r>  0.0980  0.0396  0.3674 </r>
       </set>
      </set>
      <set comment="kpoint 41">
       <set comment="band 1">
        <r>  0.0453  0.1403  0.6459 </r>
       </set>
       <set comment="band 2">
        <r>  0.0000  0.0000  0.8656 </r>
       </set>
       <set comment="band 3">
        <r>  0.0000  0.0513  0.9026 </r>
       </set>
       <set comment="band 4">
        <r>  0.0000  0.0513  0.9026 </r>
       </set>
       <set comment="band 5">
        <r>  0.0000  0.0000  0.9777 </r>
       </set>
       <set comment="band 6">
        <r>  0.1871  0.3010  0.3565 </r>
       </set>
       <set comment="band 7">
        <r>  0.0000  0.5729  0.1958 </r>
       </set>
       <set comment="band 8">
        <r>  0.0000  0.5729  0.1958 </r>
       </set>
       <set comment="band 9">
        <r>  0.0000  0.0000  0.6698 </r>
       </set>
       <set comment="band 10">
        <r>  0.2379  0.0148  0.2784 </r>
       </set>
       <set comment="band 11">
        <r>  0.2370  0.3115  0.1587 </r>
       </set>
       <set comment="band 12">
        <r>  0.0000  0.0000  0.3610 </r>
       </set>
      </set>
      <set comment="kpoint 42">
       <set comment="band 1">
        <r>  0.0073  0.0589  0.7880 </r>
       </set>
       <set comment="band 2">
        <r>  0.0000  0.0220  0.8392 </r>
       </set>
       <set comment="band 3">
        <r>  0.0000  0.0378  0.9213 </r>
       </set>
       <set comment="band 4">
        <r>  0.0108  0.0412  0.9039 </r>
       </set>
       <set comment="band 5">
        <r>  0.0000  0.0018  0.9830 </r>
       </set>
       <set comment="band 6">
        <r>  0.1023  0.4650  0.2321 </r>
       </set>
       <set comment="band 7">
        <r>  0.0845  0.4870  0.2012 </r>
       </set>
       <set comment="band 8">
        <r>  0.0000  0.6236  0.1244 </r>
       </set>
       <set comment="band 9">
        <r>  0.0381  0.0099  0.6202 </r>
       </set>
       <set comment="band 10">
        <r>  0.0624  0.0643  0.4625 </r>
       </set>
       <set comment="band 11">
        <r>  0.4159  0.2708  0.0611 </r>
       </set>
       <set comment="band 12">
        <r>  0.0000  0.0441  0.2772 </r>
       </set>
      </set>
      <set comment="kpoint 43">
       <set comment="band 1">
        <r>  0.0000  0.0246  0.8362 </r>
       </set>
       <set comment="band 2">
        <r>  0.0000  0.0246  0.8362 </r>
       </set>
       <set comment="band 3">
        <r>  0.0086  0.0364  0.9117 </r>
       </set>
       <set comment="band 4">
        <r>  0.0000  0.0149  0.9636 </r>
       </set>
       <set comment="band 5">
        <r>  0.0000  0.0149  0.9636 </r>
       </set>
       <set comment="band 6">
        <r>  0.0000  0.6002  0.1664 </r>
       </set>
       <set comment="band 7">
        <r>  0.0000  0.6002  0.1664 </r>
       </set>
       <set comment="band 8">
        <r>  0.1670  0.4630  0.1138 </r>
       </set>
       <set comment="band 9">
        <r>  0.0000  0.0630  0.5903 </r>
       </set>
       <set comment="band 10">
        <r>  0.0000  0.0630  0.5903 </r>
       </set>
       <set comment="band 11">
        <r>  0.5593  0.1975  0.0033 </r>
       </set>
       <set comment="band 12">
        <r>  0.0122  0.0377  0.2224 </r>
       </set>
      </set>
      <set comment="kpoint 44">
       <set comment="band 1">
        <r>  0.0005  0.0165  0.8446 </r>
       </set>
       <set comment="band 2">
        <r>  0.0000  0.0000  0.8639 </r>
       </set>
       <set comment="band 3">
        <r>  0.0000  0.0153  0.9624 </r>
       </set>
       <set comment="band 4">
        <r>  0.0000  0.0153  0.9624 </r>
       </set>
       <set comment="band 5">
        <r>  0.0000  0.0000  0.9850 </r>
       </set>
       <set comment="band 6">
        <r>  0.0537  0.6005  0.0863 </r>
       </set>
       <set comment="band 7">
        <r>  0.0000  0.6822  0.0371 </r>
       </set>
       <set comment="band 8">
        <r>  0.0000  0.6822  0.0371 </r>
       </set>
       <set comment="band 9">
        <r>  0.0000  0.0000  0.7302 </r>
       </set>
       <set comment="band 10">
        <r>  0.0229  0.0251  0.6393 </r>
       </set>
       <set comment="band 11">
        <r>  0.6777  0.0740  0.0085 </r>
       </set>
       <set comment="band 12">
        <r>  0.0000  0.0000  0.0718 </r>
       </set>
      </set>
     </set>
    </set>
   </array>
  </projected>
 </calculation>
 <structure name="finalpos" >
  <crystal>
   <varray name="basis" >
    <v>      -1.35000000       1.35000000       1.35000000 </v>
    <v>       1.35000000      -1.35000000       1.35000000 </v>
    <v>       1.35000000       1.35000000      -1.35000000 </v>
   </varray>
   <i name="volume">      9.84150000 </i>
   <varray name="rec_basis" >
    <v>       0.00000000       0.37037037       0.37037037 </v>
    <v>       0.37037037       0.00000000       0.37037037 </v>
    <v>       0.37037037       0.37037037       0.00000000 </v>
   </varray>
  </crystal>
  <varray name="positions" >
   <v>       0.00000000       0.00000000       0.00000000 </v>
  </varray>
 </structure>
</modeling>
