fcc Ni                                  
   3.70000000000000     
     0.000000    0.500000    0.500000
     0.500000    0.000000    0.500000
     0.500000    0.500000    0.000000
   Ni
     1
Direct
  0.000000  0.000000  0.000000
 
   24   24   24
  176.10      167.40      143.62      110.80      76.263      46.284      24.563      11.843      6.3165      4.6254    
  3.7714      3.2703      3.1092      3.2703      3.7714      4.6254      6.3165      11.843      24.563      46.284    
  76.263      110.80      143.62      167.40      167.40      151.18      123.00      89.640      57.935      32.820    
  16.423      8.1008      5.1509      4.1122      3.4456      3.1261      3.1261      3.4456      4.1122      5.1508    
  8.1011      16.424      32.821      57.936      89.639      123.00      151.17      167.39      143.62      123.00    
  94.552      64.715      38.998      20.630      10.153      5.7951      4.4243      3.6289      3.1711      3.0252    
  3.1711      3.6289      4.4242      5.7950      10.153      20.631      39.000      64.715      94.550      123.00    
  143.62      151.17      110.80      89.640      64.715      41.291      23.154      11.806      6.4586      4.6701    
  3.7930      3.2299      2.9665      2.9666      3.2299      3.7929      4.6699      6.4584      11.806      23.154    
  41.291      64.715      89.640      110.80      123.00      123.00      76.263      57.935      38.998      23.154    
  12.441      6.8894      4.8347      3.9145      3.2854      2.9396      2.8316      2.9396      3.2855      3.9147    
  4.8347      6.8891      12.440      23.153      38.998      57.936      76.263      89.640      94.550      89.639    
  46.284      32.820      20.630      11.806      6.8894      4.8960      3.9787      3.3239      2.9308      2.7532    
  2.7532      2.9308      3.3241      3.9791      4.8964      6.8896      11.806      20.629      32.819      46.283    
  57.936      64.715      64.715      57.936      24.563      16.423      10.153      6.4586      4.8347      3.9787    
  3.3376      2.9292      2.7148      2.6491      2.7147      2.9291      3.3375      3.9791      4.8356      6.4596    
  10.153      16.422      24.561      32.819      38.998      41.291      39.000      32.821      11.843      8.1008    
  5.7951      4.6701      3.9145      3.3239      2.9292      2.7036      2.6043      2.6042      2.7034      2.9288    
  3.3234      3.9145      4.6709      5.7965      8.1019      11.843      16.422      20.629      23.153      23.154    
  20.631      16.424      6.3165      5.1509      4.4243      3.7930      3.2854      2.9308      2.7148      2.6043    
  2.5711      2.6044      2.7148      2.9303      3.2845      3.7922      4.4244      5.1519      6.3179      8.1019    
  10.153      11.806      12.440      11.806      10.153      8.1011      4.6254      4.1122      3.6289      3.2299    
  2.9396      2.7532      2.6491      2.6042      2.6044      2.6496      2.7536      2.9396      3.2291      3.6277    
  4.1113      4.6254      5.1519      5.7965      6.4596      6.8896      6.8891      6.4584      5.7950      5.1508    
  3.7714      3.4456      3.1711      2.9665      2.8316      2.7532      2.7147      2.7034      2.7148      2.7536    
  2.8324      2.9673      3.1711      3.4447      3.7700      4.1113      4.4244      4.6709      4.8356      4.8964    
  4.8347      4.6699      4.4242      4.1122      3.2703      3.1261      3.0252      2.9666      2.9396      2.9308    
  2.9291      2.9288      2.9303      2.9396      2.9673      3.0264      3.1270      3.2703      3.4447      3.6277    
  3.7922      3.9145      3.9791      3.9791      3.9147      3.7929      3.6289      3.4456      3.1092      3.1261    
  3.1711      3.2299      3.2855      3.3241      3.3375      3.3234      3.2845      3.2291      3.1711      3.1270    
  3.1105      3.1270      3.1711      3.2291      3.2845      3.3234      3.3375      3.3241      3.2855      3.2299    
  3.1711      3.1261      3.2703      3.4456      3.6289      3.7929      3.9147      3.9791      3.9791      3.9145    
  3.7922      3.6277      3.4447      3.2703      3.1270      3.0264      2.9673      2.9396      2.9303      2.9288    
  2.9291      2.9308      2.9396      2.9666      3.0252      3.1261      3.7714      4.1122      4.4242      4.6699    
  4.8347      4.8964      4.8356      4.6709      4.4244      4.1113      3.7700      3.4447      3.1711      2.9673    
  2.8324      2.7536      2.7148      2.7034      2.7147      2.7532      2.8316      2.9665      3.1711      3.4456    
  4.6254      5.1508      5.7950      6.4584      6.8891      6.8896      6.4596      5.7965      5.1519      4.6254    
  4.1113      3.6277      3.2291      2.9396      2.7536      2.6496      2.6044      2.6042      2.6491      2.7532    
  2.9396      3.2299      3.6289      4.1122      6.3165      8.1011      10.153      11.806      12.440      11.806    
  10.153      8.1019      6.3179      5.1519      4.4244      3.7922      3.2845      2.9303      2.7148      2.6044    
  2.5711      2.6043      2.7148      2.9308      3.2854      3.7930      4.4243      5.1509      11.843      16.424    
  20.631      23.154      23.153      20.629      16.422      11.843      8.1019      5.7965      4.6709      3.9145    
  3.3234      2.9288      2.7034      2.6042      2.6043      2.7036      2.9292      3.3239      3.9145      4.6701    
  5.7951      8.1008      24.563      32.821      39.000      41.291      38.998      32.819      24.561      16.422    
  10.153      6.4596      4.8356      3.9791      3.3375      2.9291      2.7147      2.6491      2.7148      2.9292    
  3.3376      3.9787      4.8347      6.4586      10.153      16.423      46.284      57.936      64.715      64.715    
  57.936      46.283      32.819      20.629      11.806      6.8896      4.8964      3.9791      3.3241      2.9308    
  2.7532      2.7532      2.9308      3.3239      3.9787      4.8960      6.8894      11.806      20.630      32.820    
  76.263      89.639      94.550      89.640      76.263      57.936      38.998      23.153      12.440      6.8891    
  4.8347      3.9147      3.2855      2.9396      2.8316      2.9396      3.2854      3.9145      4.8347      6.8894    
  12.441      23.154      38.998      57.935      110.80      123.00      123.00      110.80      89.640      64.715    
  41.291      23.154      11.806      6.4584      4.6699      3.7929      3.2299      2.9666      2.9665      3.2299    
  3.7930      4.6701      6.4586      11.806      23.154      41.291      64.715      89.640      143.62      151.17    
  143.62      123.00      94.550      64.715      39.000      20.631      10.153      5.7950      4.4242      3.6289    
  3.1711      3.0252      3.1711      3.6289      4.4243      5.7951      10.153      20.630      38.998      64.715    
  94.552      123.00      167.40      167.39      151.17      123.00      89.639      57.936      32.821      16.424    
  8.1011      5.1508      4.1122      3.4456      3.1261      3.1261      3.4456      4.1122      5.1509      8.1008    
  16.423      32.820      57.935      89.640      123.00      151.18      167.40      151.18      123.00      89.640    
  57.935      32.820      16.423      8.1008      5.1509      4.1122      3.4456      3.1261      3.1261      3.4456    
  4.1122      5.1508      8.1011      16.424      32.821      57.936      89.639      123.00      151.17      167.39    
  151.18      129.42      99.466      68.107      41.093      21.752      10.637      5.9469      4.4907      3.6789    
  3.2083      3.0577      3.2083      3.6788      4.4905      5.9469      10.638      21.753      41.094      68.107    
  99.463      129.42      151.17      159.15      123.00      99.466      71.831      45.904      25.775      13.040    
  6.8918      4.8106      3.8984      3.3056      3.0259      3.0259      3.3056      3.8982      4.8103      6.8917    
  13.041      25.777      45.906      71.831      99.464      123.00      136.60      136.60      89.640      68.107    
  45.904      27.272      14.503      7.6807      5.0752      4.0748      3.3986      3.0213      2.9026      3.0213    
  3.3987      4.0747      5.0749      7.6802      14.503      27.272      45.905      68.107      89.641      105.41    
  111.21      105.41      57.935      41.093      25.775      14.503      7.9888      5.2397      4.1875      3.4699    
  3.0302      2.8294      2.8295      3.0303      3.4701      4.1876      5.2395      7.9882      14.503      25.775    
  41.093      57.937      72.529      81.038      81.038      72.528      32.820      21.752      13.040      7.6807    
  5.2397      4.2260      3.5081      3.0406      2.7920      2.7154      2.7919      3.0406      3.5083      4.2264    
  5.2400      7.6806      13.040      21.751      32.819      43.957      52.277      55.365      52.277      43.957    
  16.423      10.637      6.8918      5.0752      4.1875      3.5081      3.0448      2.7770      2.6584      2.6583    
  2.7768      3.0446      3.5081      4.1879      5.0761      6.8927      10.637      16.422      23.296      29.522    
  33.236      33.237      29.523      23.297      8.1008      5.9469      4.8106      4.0748      3.4699      3.0406    
  2.7770      2.6415      2.6005      2.6414      2.7767      3.0400      3.4693      4.0747      4.8114      5.9482    
  8.1018      11.282      14.803      17.578      18.633      17.579      14.803      11.282      5.1509      4.4907    
  3.8984      3.3986      3.0302      2.7920      2.6584      2.6005      2.6006      2.6586      2.7920      3.0297    
  3.3976      3.8975      4.4906      5.1518      6.1367      7.4943      8.8703      9.7440      9.7439      8.8698    
  7.4932      6.1354      4.1122      3.6789      3.3056      3.0213      2.8294      2.7154      2.6583      2.6414    
  2.6586      2.7160      2.8300      3.0213      3.3048      3.6776      4.1112      4.5554      4.9729      5.4036    
  5.7678      5.9130      5.7668      5.4021      4.9718      4.5554      3.4456      3.2083      3.0259      2.9026    
  2.8295      2.7919      2.7768      2.7767      2.7920      2.8300      2.9035      3.0267      3.2083      3.4447    
  3.7164      3.9909      4.2317      4.4078      4.4998      4.4995      4.4071      4.2315      3.9917      3.7177    
  3.1261      3.0577      3.0259      3.0213      3.0303      3.0406      3.0446      3.0400      3.0297      3.0213    
  3.0267      3.0590      3.1270      3.2300      3.3561      3.4851      3.5952      3.6684      3.6939      3.6687    
  3.5960      3.4862      3.3569      3.2300      3.1261      3.2083      3.3056      3.3987      3.4701      3.5083    
  3.5081      3.4693      3.3976      3.3048      3.2083      3.1270      3.0750      3.0566      3.0656      3.0893    
  3.1140      3.1292      3.1295      3.1148      3.0900      3.0656      3.0557      3.0737      3.4456      3.6788    
  3.8982      4.0747      4.1876      4.2264      4.1879      4.0747      3.8975      3.6776      3.4447      3.2300    
  3.0566      2.9337      2.8575      2.8166      2.7983      2.7934      2.7985      2.8166      2.8569      2.9326    
  3.0557      3.2300      4.1122      4.4905      4.8103      5.0749      5.2395      5.2400      5.0761      4.8114    
  4.4906      4.1112      3.7164      3.3561      3.0656      2.8575      2.7251      2.6513      2.6195      2.6194    
  2.6509      2.7244      2.8569      3.0655      3.3569      3.7177      5.1508      5.9469      6.8917      7.6802    
  7.9882      7.6806      6.8927      5.9482      5.1518      4.5554      3.9909      3.4851      3.0893      2.8166    
  2.6513      2.5668      2.5412      2.5665      2.6510      2.8166      3.0899      3.4862      3.9918      4.5554    
  8.1011      10.638      13.041      14.503      14.503      13.040      10.637      8.1018      6.1367      4.9729    
  4.2317      3.5952      3.1140      2.7983      2.6195      2.5412      2.5412      2.6195      2.7986      3.1147    
  3.5958      4.2316      4.9719      6.1354      16.424      21.753      25.777      27.272      25.775      21.751    
  16.422      11.282      7.4943      5.4036      4.4078      3.6684      3.1292      2.7934      2.6194      2.5665    
  2.6195      2.7937      3.1295      3.6684      4.4071      5.4024      7.4932      11.282      32.821      41.094    
  45.906      45.905      41.093      32.819      23.296      14.803      8.8703      5.7678      4.4998      3.6939    
  3.1295      2.7985      2.6509      2.6510      2.7986      3.1295      3.6936      4.4991      5.7671      8.8700    
  14.803      23.297      57.936      68.107      71.831      68.107      57.937      43.957      29.522      17.578    
  9.7440      5.9130      4.4995      3.6687      3.1148      2.8166      2.7244      2.8166      3.1147      3.6684    
  4.4991      5.9129      9.7445      17.579      29.523      43.957      89.639      99.463      99.464      89.641    
  72.529      52.277      33.236      18.633      9.7439      5.7668      4.4071      3.5960      3.0900      2.8569    
  2.8569      3.0899      3.5958      4.4071      5.7671      9.7445      18.634      33.236      52.277      72.528    
  123.00      129.42      123.00      105.41      81.038      55.365      33.237      17.579      8.8698      5.4021    
  4.2315      3.4862      3.0656      2.9326      3.0655      3.4862      4.2316      5.4024      8.8700      17.579    
  33.236      55.364      81.038      105.41      151.17      151.17      136.60      111.21      81.038      52.277    
  29.523      14.803      7.4932      4.9718      3.9917      3.3569      3.0557      3.0557      3.3569      3.9918    
  4.9719      7.4932      14.803      29.523      52.277      81.038      111.22      136.60      167.39      159.15    
  136.60      105.41      72.528      43.957      23.297      11.282      6.1354      4.5554      3.7177      3.2300    
  3.0737      3.2300      3.7177      4.5554      6.1354      11.282      23.297      43.957      72.528      105.41    
  136.60      159.15      143.62      123.00      94.552      64.715      38.998      20.630      10.153      5.7951    
  4.4243      3.6289      3.1711      3.0252      3.1711      3.6289      4.4242      5.7950      10.153      20.631    
  39.000      64.715      94.550      123.00      143.62      151.17      123.00      99.466      71.831      45.904    
  25.775      13.040      6.8918      4.8106      3.8984      3.3056      3.0259      3.0259      3.3056      3.8982    
  4.8103      6.8917      13.041      25.777      45.906      71.831      99.464      123.00      136.60      136.60    
  94.552      71.831      48.431      28.786      15.273      7.9845      5.1659      4.1302      3.4383      3.0499    
  2.9275      3.0500      3.4383      4.1300      5.1654      7.9840      15.273      28.786      48.432      71.832    
  94.552      111.21      117.35      111.22      64.715      45.904      28.786      16.111      8.6699      5.4523    
  4.2971      3.5482      3.0837      2.8703      2.8704      3.0838      3.5483      4.2969      5.4517      8.6688    
  16.111      28.786      45.906      64.718      81.040      90.574      90.573      81.038      38.998      25.775    
  15.273      8.6699      5.5649      4.3835      3.6197      3.1138      2.8424      2.7585      2.8424      3.1140    
  3.6199      4.3836      5.5645      8.6688      15.272      25.775      39.000      52.279      62.205      65.892    
  62.204      52.277      20.630      13.040      7.9845      5.4523      4.3835      3.6443      3.1310      2.8313    
  2.6978      2.6978      2.8312      3.1311      3.6446      4.3840      5.4525      7.9842      13.039      20.629    
  29.523      37.535      42.307      42.307      37.534      29.523      10.153      6.8918      5.1659      4.2971    
  3.6197      3.1310      2.8285      2.6723      2.6248      2.6721      2.8283      3.1308      3.6197      4.2975    
  5.1666      6.8924      10.153      14.802      19.840      23.770      25.258      23.770      19.840      14.803    
  5.7951      4.8106      4.1302      3.5482      3.1138      2.8313      2.6723      2.6031      2.6031      2.6723    
  2.8310      3.1133      3.5476      4.1301      4.8113      5.7961      7.4939      9.7888      12.053      13.468    
  13.468      12.053      9.7887      7.4932      4.4243      3.8984      3.4383      3.0837      2.8424      2.6978    
  2.6248      2.6031      2.6251      2.6981      2.8424      3.0832      3.4373      3.8975      4.4242      4.9727    
  5.6680      6.5111      7.2357      7.5235      7.2351      6.5099      5.6668      4.9719      3.6289      3.3056    
  3.0499      2.8703      2.7585      2.6978      2.6721      2.6723      2.6981      2.7591      2.8709      3.0500    
  3.3048      3.6276      3.9908      4.3515      4.6639      4.9102      5.0601      5.0595      4.9090      4.6630    
  4.3515      3.9918      3.1711      3.0259      2.9275      2.8704      2.8424      2.8312      2.8283      2.8310    
  2.8424      2.8709      2.9285      3.0267      3.1711      3.3560      3.5631      3.7651      3.9329      4.0430    
  4.0811      4.0427      3.9329      3.7658      3.5643      3.3569      3.0252      3.0259      3.0500      3.0838    
  3.1140      3.1311      3.1308      3.1133      3.0832      3.0500      3.0267      3.0264      3.0565      3.1155    
  3.1923      3.2702      3.3327      3.3671      3.3673      3.3333      3.2712      3.1930      3.1155      3.0557    
  3.1711      3.3056      3.4383      3.5483      3.6199      3.6446      3.6197      3.5476      3.4373      3.3048    
  3.1711      3.0565      2.9742      2.9267      2.9075      2.9052      2.9088      2.9111      2.9093      2.9057    
  2.9075      2.9260      2.9730      3.0557      3.6289      3.8982      4.1300      4.2969      4.3836      4.3840    
  4.2975      4.1301      3.8975      3.6276      3.3560      3.1155      2.9267      2.7949      2.7128      2.6681    
  2.6492      2.6492      2.6681      2.7123      2.7940      2.9260      3.1155      3.3569      4.4242      4.8103    
  5.1654      5.4517      5.5645      5.4525      5.1666      4.8113      4.4242      3.9908      3.5631      3.1923    
  2.9075      2.7128      2.5947      2.5341      2.5156      2.5338      2.5942      2.7123      2.9075      3.1930    
  3.5643      3.9917      5.7950      6.8917      7.9840      8.6688      8.6688      7.9842      6.8924      5.7961    
  4.9727      4.3515      3.7651      3.2702      2.9052      2.6681      2.5341      2.4753      2.4752      2.5338    
  2.6681      2.9057      3.2711      3.7658      4.3515      4.9718      10.153      13.041      15.273      16.111    
  15.272      13.039      10.153      7.4939      5.6680      4.6639      3.9329      3.3327      2.9088      2.6492    
  2.5156      2.4752      2.5157      2.6494      2.9093      3.3331      3.9329      4.6631      5.6668      7.4932    
  20.631      25.777      28.786      28.786      25.775      20.629      14.802      9.7888      6.5111      4.9102    
  4.0430      3.3671      2.9111      2.6492      2.5338      2.5338      2.6494      2.9113      3.3671      4.0425    
  4.9092      6.5102      9.7887      14.803      39.000      45.906      48.432      45.906      39.000      29.523    
  19.840      12.053      7.2357      5.0601      4.0811      3.3673      2.9093      2.6681      2.5942      2.6681    
  2.9093      3.3671      4.0806      5.0596      7.2357      12.053      19.840      29.523      64.715      71.831    
  71.832      64.718      52.279      37.535      23.770      13.468      7.5235      5.0595      4.0427      3.3333    
  2.9057      2.7123      2.7123      2.9057      3.3331      4.0425      5.0596      7.5241      13.469      23.770    
  37.534      52.277      94.550      99.464      94.552      81.040      62.205      42.307      25.258      13.468    
  7.2351      4.9090      3.9329      3.2712      2.9075      2.7940      2.9075      3.2711      3.9329      4.9092    
  7.2357      13.469      25.258      42.306      62.204      81.038      123.00      123.00      111.21      90.574    
  65.892      42.307      23.770      12.053      6.5099      4.6630      3.7658      3.1930      2.9260      2.9260    
  3.1930      3.7658      4.6631      6.5102      12.053      23.770      42.306      65.891      90.573      111.21    
  143.62      136.60      117.35      90.573      62.204      37.534      19.840      9.7887      5.6668      4.3515    
  3.5643      3.1155      2.9730      3.1155      3.5643      4.3515      5.6668      9.7887      19.840      37.534    
  62.204      90.573      117.35      136.60      151.17      136.60      111.22      81.038      52.277      29.523    
  14.803      7.4932      4.9719      3.9918      3.3569      3.0557      3.0557      3.3569      3.9917      4.9718    
  7.4932      14.803      29.523      52.277      81.038      111.21      136.60      151.17      110.80      89.640    
  64.715      41.291      23.154      11.806      6.4586      4.6701      3.7930      3.2299      2.9665      2.9666    
  3.2299      3.7929      4.6699      6.4584      11.806      23.154      41.291      64.715      89.640      110.80    
  123.00      123.00      89.640      68.107      45.904      27.272      14.503      7.6807      5.0752      4.0748    
  3.3986      3.0213      2.9026      3.0213      3.3987      4.0747      5.0749      7.6802      14.503      27.272    
  45.905      68.107      89.641      105.41      111.21      105.41      64.715      45.904      28.786      16.111    
  8.6699      5.4523      4.2971      3.5482      3.0837      2.8703      2.8704      3.0838      3.5483      4.2969    
  5.4517      8.6688      16.111      28.786      45.906      64.718      81.040      90.574      90.573      81.038    
  41.291      27.272      16.111      9.0496      5.6918      4.4373      3.6584      3.1394      2.8599      2.7734    
  2.8600      3.1396      3.6587      4.4373      5.6911      9.0481      16.110      27.272      41.293      55.368    
  65.894      69.804      65.891      55.364      23.154      14.503      8.6699      5.6918      4.4849      3.7164    
  3.1770      2.8601      2.7186      2.7185      2.8601      3.1772      3.7169      4.4852      5.6914      8.6686    
  14.502      23.153      33.238      42.308      47.710      47.709      42.306      33.236      11.806      7.6807    
  5.4523      4.4373      3.7164      3.1901      2.8623      2.6924      2.6407      2.6923      2.8622      3.1903    
  3.7169      4.4379      5.4526      7.6802      11.805      17.578      23.770      28.581      30.399      28.581    
  23.770      17.579      6.4586      5.0752      4.2971      3.6584      3.1770      2.8623      2.6848      2.6074    
  2.6074      2.6847      2.8620      3.1768      3.6585      4.2977      5.0760      6.4590      8.8697      12.052    
  15.142      17.059      17.059      15.143      12.053      8.8700      4.6701      4.0748      3.5482      3.1394    
  2.8601      2.6924      2.6074      2.5820      2.6075      2.6924      2.8598      3.1389      3.5477      4.0748    
  4.6707      5.4031      6.5107      7.8648      9.0113      9.4627      9.0115      7.8647      6.5102      5.4024    
  3.7930      3.3986      3.0837      2.8599      2.7186      2.6407      2.6074      2.6075      2.6410      2.7189    
  2.8600      3.0832      3.3977      3.7922      4.2315      4.6637      5.0865      5.5013      5.7741      5.7738    
  5.5005      5.0855      4.6631      4.2316      3.2299      3.0213      2.8703      2.7734      2.7185      2.6923    
  2.6847      2.6924      2.7189      2.7740      2.8709      3.0213      3.2292      3.4851      3.7650      4.0343    
  4.2567      4.4022      4.4525      4.4016      4.2560      4.0343      3.7658      3.4862      2.9665      2.9026    
  2.8704      2.8600      2.8601      2.8622      2.8620      2.8598      2.8600      2.8709      2.9035      2.9673    
  3.0655      3.1923      3.3319      3.4631      3.5644      3.6193      3.6193      3.5645      3.4637      3.3328    
  3.1930      3.0655      2.9666      3.0213      3.0838      3.1396      3.1772      3.1903      3.1768      3.1389    
  3.0832      3.0213      2.9673      2.9336      2.9267      2.9443      2.9772      3.0125      3.0388      3.0486    
  3.0393      3.0132      2.9777      2.9443      2.9260      2.9326      3.2299      3.3987      3.5483      3.6587    
  3.7169      3.7169      3.6585      3.5477      3.3977      3.2292      3.0655      2.9267      2.8236      2.7566    
  2.7187      2.7004      2.6936      2.6937      2.7007      2.7187      2.7560      2.8226      2.9260      3.0656    
  3.7929      4.0747      4.2969      4.4373      4.4852      4.4379      4.2977      4.0748      3.7922      3.4851    
  3.1923      2.9443      2.7566      2.6286      2.5506      2.5101      2.4978      2.5100      2.5502      2.6279    
  2.7560      2.9443      3.1930      3.4862      4.6699      5.0749      5.4517      5.6911      5.6914      5.4526    
  5.0760      4.6707      4.2315      3.7650      3.3319      2.9772      2.7187      2.5506      2.4546      2.4121    
  2.4120      2.4542      2.5502      2.7187      2.9777      3.3328      3.7658      4.2315      6.4584      7.6802    
  8.6688      9.0481      8.6686      7.6802      6.4590      5.4031      4.6637      4.0343      3.4631      3.0125    
  2.7004      2.5101      2.4121      2.3823      2.4120      2.5101      2.7007      3.0131      3.4637      4.0343    
  4.6630      5.4021      11.806      14.503      16.111      16.110      14.502      11.805      8.8697      6.5107    
  5.0865      4.2567      3.5644      3.0388      2.6936      2.4978      2.4120      2.4120      2.4979      2.6939    
  3.0391      3.5644      4.2561      5.0855      6.5099      8.8698      23.154      27.272      28.786      27.272    
  23.153      17.578      12.052      7.8648      5.5013      4.4022      3.6193      3.0486      2.6937      2.5100    
  2.4542      2.5101      2.6939      3.0486      3.6190      4.4016      5.5008      7.8647      12.053      17.579    
  41.291      45.905      45.906      41.293      33.238      23.770      15.142      9.0113      5.7741      4.4525    
  3.6193      3.0393      2.7007      2.5502      2.5502      2.7007      3.0391      3.6190      4.4522      5.7743    
  9.0121      15.143      23.770      33.237      64.715      68.107      64.718      55.368      42.308      28.581    
  17.059      9.4627      5.7738      4.4016      3.5645      3.0132      2.7187      2.6279      2.7187      3.0131    
  3.5644      4.4016      5.7743      9.4638      17.060      28.581      42.307      55.365      89.640      89.641    
  81.040      65.894      47.710      30.399      17.059      9.0115      5.5005      4.2560      3.4637      2.9777    
  2.7560      2.7560      2.9777      3.4637      4.2561      5.5008      9.0121      17.060      30.399      47.709    
  65.892      81.038      110.80      105.41      90.574      69.804      47.709      28.581      15.143      7.8647    
  5.0855      4.0343      3.3328      2.9443      2.8226      2.9443      3.3328      4.0343      5.0855      7.8647    
  15.143      28.581      47.709      69.804      90.574      105.41      123.00      111.21      90.573      65.891    
  42.306      23.770      12.053      6.5102      4.6631      3.7658      3.1930      2.9260      2.9260      3.1930    
  3.7658      4.6630      6.5099      12.053      23.770      42.307      65.892      90.574      111.21      123.00    
  123.00      105.41      81.038      55.364      33.236      17.579      8.8700      5.4024      4.2316      3.4862    
  3.0655      2.9326      3.0656      3.4862      4.2315      5.4021      8.8698      17.579      33.237      55.365    
  81.038      105.41      123.00      129.42      76.263      57.935      38.998      23.154      12.441      6.8894    
  4.8347      3.9145      3.2854      2.9396      2.8316      2.9396      3.2855      3.9147      4.8347      6.8891    
  12.440      23.153      38.998      57.936      76.263      89.640      94.550      89.639      57.935      41.093    
  25.775      14.503      7.9888      5.2397      4.1875      3.4699      3.0302      2.8294      2.8295      3.0303    
  3.4701      4.1876      5.2395      7.9882      14.503      25.775      41.093      57.937      72.529      81.038    
  81.038      72.528      38.998      25.775      15.273      8.6699      5.5649      4.3835      3.6197      3.1138    
  2.8424      2.7585      2.8424      3.1140      3.6199      4.3836      5.5645      8.6688      15.272      25.775    
  39.000      52.279      62.205      65.892      62.204      52.277      23.154      14.503      8.6699      5.6918    
  4.4849      3.7164      3.1770      2.8601      2.7186      2.7185      2.8601      3.1772      3.7169      4.4852    
  5.6914      8.6686      14.502      23.153      33.238      42.308      47.710      47.709      42.306      33.236    
  12.441      7.9888      5.5649      4.4849      3.7497      3.2106      2.8740      2.6993      2.6461      2.6992    
  2.8740      3.2109      3.7504      4.4855      5.5649      7.9878      12.439      18.633      25.258      30.400    
  32.343      30.399      25.258      18.634      6.8894      5.2397      4.3835      3.7164      3.2106      2.8792    
  2.6920      2.6102      2.6102      2.6918      2.8790      3.2108      3.7171      4.3844      5.2403      6.8891    
  9.7433      13.468      17.059      19.279      19.279      17.060      13.469      9.7445      4.8347      4.1875    