fcc Ni                                  
   3.70000000000000     
     0.000000    0.500000    0.500000
     0.500000    0.000000    0.500000
     0.500000    0.500000    0.000000
   Ni
     1
Direct
  0.000000  0.000000  0.000000
 
   24   24   24
 0.17609996646E+03 0.16739586265E+03 0.14362174442E+03 0.11079669516E+03 0.76262633039E+02
 0.46283549671E+02 0.24563139066E+02 0.11842961714E+02 0.63165349763E+01 0.46253763644E+01
 0.37714172489E+01 0.32703050959E+01 0.31091686455E+01 0.32703050959E+01 0.37714172489E+01
 0.46253763644E+01 0.63165349763E+01 0.11842961714E+02 0.24563139066E+02 0.46283549671E+02
 0.76262633039E+02 0.11079669516E+03 0.14362174442E+03 0.16739586265E+03 0.16739586265E+03
 0.15117575152E+03 0.12299845939E+03 0.89640382179E+02 0.57935261412E+02 0.32819589207E+02
 0.16422850615E+02 0.81008164861E+01 0.51508750139E+01 0.41122337931E+01 0.34456459888E+01
 0.31260723803E+01 0.31260824820E+01 0.34456437145E+01 0.41121756280E+01 0.51508458352E+01
 0.81011047514E+01 0.16423723649E+02 0.32820806838E+02 0.57935869477E+02 0.89639318691E+02
 0.12299566808E+03 0.15117267161E+03 0.16739451876E+03 0.14362174442E+03 0.12299845939E+03
 0.94551509822E+02 0.64715026262E+02 0.38998176201E+02 0.20629828263E+02 0.10152838050E+02
 0.57951016448E+01 0.44243337701E+01 0.36289144898E+01 0.31711105253E+01 0.30251560241E+01
 0.31711375275E+01 0.36288807901E+01 0.44241858180E+01 0.57950228299E+01 0.10153263902E+02
 0.20631001137E+02 0.38999534963E+02 0.64715268624E+02 0.94549690683E+02 0.12299520981E+03
 0.14361916727E+03 0.15117267161E+03 0.11079669516E+03 0.89640382179E+02 0.64715026262E+02
 0.41290592235E+02 0.23153602169E+02 0.11806337825E+02 0.64586375220E+01 0.46700688765E+01
 0.37929669171E+01 0.32298782993E+01 0.29665213995E+01 0.29665514760E+01 0.32299337126E+01
 0.37929470309E+01 0.46698874602E+01 0.64583941496E+01 0.11806344787E+02 0.23154073957E+02
 0.41291269818E+02 0.64715277414E+02 0.89639841690E+02 0.11079576519E+03 0.12299520981E+03
 0.12299566808E+03 0.76262633039E+02 0.57935261412E+02 0.38998176201E+02 0.23153602169E+02
 0.12440827179E+02 0.68893962675E+01 0.48347273408E+01 0.39145459955E+01 0.32853867299E+01
 0.29395904174E+01 0.28315635333E+01 0.29396425478E+01 0.32855111001E+01 0.39146870664E+01
 0.48347228376E+01 0.68891102355E+01 0.12440331806E+02 0.23153196685E+02 0.38998180949E+02
 0.57935753878E+02 0.76263356800E+02 0.89639841690E+02 0.94549690683E+02 0.89639318691E+02
 0.46283549671E+02 0.32819589207E+02 0.20629828263E+02 0.11806337825E+02 0.68893962675E+01
 0.48959777845E+01 0.39786771927E+01 0.33239063732E+01 0.29307980142E+01 0.27531839809E+01
 0.27531628980E+01 0.29308009080E+01 0.33240703012E+01 0.39790574104E+01 0.48964142206E+01
 0.68895591274E+01 0.11805983898E+02 0.20629052742E+02 0.32818787393E+02 0.46283078371E+02
 0.57935753878E+02 0.64715277414E+02 0.64715268624E+02 0.57935869477E+02 0.24563139066E+02
 0.16422850615E+02 0.10152838050E+02 0.64586375220E+01 0.48347273408E+01 0.39786771927E+01
 0.33375508109E+01 0.29292341033E+01 0.27147898332E+01 0.26491330123E+01 0.27146538508E+01
 0.29290521537E+01 0.33375363700E+01 0.39790818671E+01 0.48355924780E+01 0.64595948101E+01
 0.10153228944E+02 0.16422161512E+02 0.24561432202E+02 0.32818787393E+02 0.38998180949E+02
 0.41291269818E+02 0.38999534963E+02 0.32820806838E+02 0.11842961714E+02 0.81008164861E+01
 0.57951016448E+01 0.46700688765E+01 0.39145459955E+01 0.33239063732E+01 0.29292341033E+01
 0.27035646308E+01 0.26042956502E+01 0.26042498789E+01 0.27033606166E+01 0.29288074299E+01
 0.33234442606E+01 0.39145175759E+01 0.46708588674E+01 0.57965004362E+01 0.81019245748E+01
 0.11842804726E+02 0.16422161512E+02 0.20629052742E+02 0.23153196685E+02 0.23154073957E+02
 0.20631001137E+02 0.16423723649E+02 0.63165349763E+01 0.51508750139E+01 0.44243337701E+01
 0.37929669171E+01 0.32853867299E+01 0.29307980142E+01 0.27147898332E+01 0.26042956502E+01
 0.25710685496E+01 0.26044252344E+01 0.27147809231E+01 0.29303490281E+01 0.32845229792E+01
 0.37922081733E+01 0.44243623098E+01 0.51518755803E+01 0.63178945935E+01 0.81019245748E+01
 0.10153228944E+02 0.11805983898E+02 0.12440331806E+02 0.11806344787E+02 0.10153263902E+02
 0.81011047514E+01 0.46253763644E+01 0.41122337931E+01 0.36289144898E+01 0.32298782993E+01
 0.29395904174E+01 0.27531839809E+01 0.26491330123E+01 0.26042498789E+01 0.26044252344E+01
 0.26495848041E+01 0.27536352207E+01 0.29395895762E+01 0.32291325480E+01 0.36276839766E+01
 0.41112808419E+01 0.46253877273E+01 0.51518755803E+01 0.57965004362E+01 0.64595948101E+01
 0.68895591274E+01 0.68891102355E+01 0.64583941496E+01 0.57950228299E+01 0.51508458352E+01
 0.37714172489E+01 0.34456459888E+01 0.31711105253E+01 0.29665213995E+01 0.28315635333E+01
 0.27531628980E+01 0.27146538508E+01 0.27033606166E+01 0.27147809231E+01 0.27536352207E+01
 0.28324053013E+01 0.29672780414E+01 0.31711255557E+01 0.34446908004E+01 0.37700242989E+01
 0.41112808419E+01 0.44243623098E+01 0.46708588674E+01 0.48355924780E+01 0.48964142206E+01
 0.48347228376E+01 0.46698874602E+01 0.44241858180E+01 0.41121756280E+01 0.32703050959E+01
 0.31260723803E+01 0.30251560241E+01 0.29665514760E+01 0.29396425478E+01 0.29308009080E+01
 0.29290521537E+01 0.29288074299E+01 0.29303490281E+01 0.29395895762E+01 0.29672780414E+01
 0.30263956002E+01 0.31270294844E+01 0.32702939937E+01 0.34446908004E+01 0.36276839766E+01
 0.37922081733E+01 0.39145175759E+01 0.39790818671E+01 0.39790574104E+01 0.39146870664E+01
 0.37929470309E+01 0.36288807901E+01 0.34456437145E+01 0.31091686455E+01 0.31260824820E+01
 0.31711375275E+01 0.32299337126E+01 0.32855111001E+01 0.33240703012E+01 0.33375363700E+01
 0.33234442606E+01 0.32845229792E+01 0.32291325480E+01 0.31711255557E+01 0.31270294844E+01
 0.31105498671E+01 0.31270294844E+01 0.31711255557E+01 0.32291325480E+01 0.32845229792E+01
 0.33234442606E+01 0.33375363700E+01 0.33240703012E+01 0.32855111001E+01 0.32299337126E+01
 0.31711375275E+01 0.31260824820E+01 0.32703050959E+01 0.34456437145E+01 0.36288807901E+01
 0.37929470309E+01 0.39146870664E+01 0.39790574104E+01 0.39790818671E+01 0.39145175759E+01
 0.37922081733E+01 0.36276839766E+01 0.34446908004E+01 0.32702939937E+01 0.31270294844E+01
 0.30263956002E+01 0.29672780414E+01 0.29395895762E+01 0.29303490281E+01 0.29288074299E+01
 0.29290521537E+01 0.29308009080E+01 0.29396425478E+01 0.29665514760E+01 0.30251560241E+01
 0.31260723803E+01 0.37714172489E+01 0.41121756280E+01 0.44241858180E+01 0.46698874602E+01
 0.48347228376E+01 0.48964142206E+01 0.48355924780E+01 0.46708588674E+01 0.44243623098E+01
 0.41112808419E+01 0.37700242989E+01 0.34446908004E+01 0.31711255557E+01 0.29672780414E+01
 0.28324053013E+01 0.27536352207E+01 0.27147809231E+01 0.27033606166E+01 0.27146538508E+01
 0.27531628980E+01 0.28315635333E+01 0.29665213995E+01 0.31711105253E+01 0.34456459888E+01
 0.46253763644E+01 0.51508458352E+01 0.57950228299E+01 0.64583941496E+01 0.68891102355E+01
 0.68895591274E+01 0.64595948101E+01 0.57965004362E+01 0.51518755803E+01 0.46253877273E+01
 0.41112808419E+01 0.36276839766E+01 0.32291325480E+01 0.29395895762E+01 0.27536352207E+01
 0.26495848041E+01 0.26044252344E+01 0.26042498789E+01 0.26491330123E+01 0.27531839809E+01
 0.29395904174E+01 0.32298782993E+01 0.36289144898E+01 0.41122337931E+01 0.63165349763E+01
 0.81011047514E+01 0.10153263902E+02 0.11806344787E+02 0.12440331806E+02 0.11805983898E+02
 0.10153228944E+02 0.81019245748E+01 0.63178945935E+01 0.51518755803E+01 0.44243623098E+01
 0.37922081733E+01 0.32845229792E+01 0.29303490281E+01 0.27147809231E+01 0.26044252344E+01
 0.25710685496E+01 0.26042956502E+01 0.27147898332E+01 0.29307980142E+01 0.32853867299E+01
 0.37929669171E+01 0.44243337701E+01 0.51508750139E+01 0.11842961714E+02 0.16423723649E+02
 0.20631001137E+02 0.23154073957E+02 0.23153196685E+02 0.20629052742E+02 0.16422161512E+02
 0.11842804726E+02 0.81019245748E+01 0.57965004362E+01 0.46708588674E+01 0.39145175759E+01
 0.33234442606E+01 0.29288074299E+01 0.27033606166E+01 0.26042498789E+01 0.26042956502E+01
 0.27035646308E+01 0.29292341033E+01 0.33239063732E+01 0.39145459955E+01 0.46700688765E+01
 0.57951016448E+01 0.81008164861E+01 0.24563139066E+02 0.32820806838E+02 0.38999534963E+02
 0.41291269818E+02 0.38998180949E+02 0.32818787393E+02 0.24561432202E+02 0.16422161512E+02
 0.10153228944E+02 0.64595948101E+01 0.48355924780E+01 0.39790818671E+01 0.33375363700E+01
 0.29290521537E+01 0.27146538508E+01 0.26491330123E+01 0.27147898332E+01 0.29292341033E+01
 0.33375508109E+01 0.39786771927E+01 0.48347273408E+01 0.64586375220E+01 0.10152838050E+02
 0.16422850615E+02 0.46283549671E+02 0.57935869477E+02 0.64715268624E+02 0.64715277414E+02
 0.57935753878E+02 0.46283078371E+02 0.32818787393E+02 0.20629052742E+02 0.11805983898E+02
 0.68895591274E+01 0.48964142206E+01 0.39790574104E+01 0.33240703012E+01 0.29308009080E+01
 0.27531628980E+01 0.27531839809E+01 0.29307980142E+01 0.33239063732E+01 0.39786771927E+01
 0.48959777845E+01 0.68893962675E+01 0.11806337825E+02 0.20629828263E+02 0.32819589207E+02
 0.76262633039E+02 0.89639318691E+02 0.94549690683E+02 0.89639841690E+02 0.76263356800E+02
 0.57935753878E+02 0.38998180949E+02 0.23153196685E+02 0.12440331806E+02 0.68891102355E+01
 0.48347228376E+01 0.39146870664E+01 0.32855111001E+01 0.29396425478E+01 0.28315635333E+01
 0.29395904174E+01 0.32853867299E+01 0.39145459955E+01 0.48347273408E+01 0.68893962675E+01
 0.12440827179E+02 0.23153602169E+02 0.38998176201E+02 0.57935261412E+02 0.11079669516E+03
 0.12299566808E+03 0.12299520981E+03 0.11079576519E+03 0.89639841690E+02 0.64715277414E+02
 0.41291269818E+02 0.23154073957E+02 0.11806344787E+02 0.64583941496E+01 0.46698874602E+01
 0.37929470309E+01 0.32299337126E+01 0.29665514760E+01 0.29665213995E+01 0.32298782993E+01
 0.37929669171E+01 0.46700688765E+01 0.64586375220E+01 0.11806337825E+02 0.23153602169E+02
 0.41290592235E+02 0.64715026262E+02 0.89640382179E+02 0.14362174442E+03 0.15117267161E+03
 0.14361916727E+03 0.12299520981E+03 0.94549690683E+02 0.64715268624E+02 0.38999534963E+02
 0.20631001137E+02 0.10153263902E+02 0.57950228299E+01 0.44241858180E+01 0.36288807901E+01
 0.31711375275E+01 0.30251560241E+01 0.31711105253E+01 0.36289144898E+01 0.44243337701E+01
 0.57951016448E+01 0.10152838050E+02 0.20629828263E+02 0.38998176201E+02 0.64715026262E+02
 0.94551509822E+02 0.12299845939E+03 0.16739586265E+03 0.16739451876E+03 0.15117267161E+03
 0.12299566808E+03 0.89639318691E+02 0.57935869477E+02 0.32820806838E+02 0.16423723649E+02
 0.81011047514E+01 0.51508458352E+01 0.41121756280E+01 0.34456437145E+01 0.31260824820E+01
 0.31260723803E+01 0.34456459888E+01 0.41122337931E+01 0.51508750139E+01 0.81008164861E+01
 0.16422850615E+02 0.32819589207E+02 0.57935261412E+02 0.89640382179E+02 0.12299845939E+03
 0.15117575152E+03 0.16739586265E+03 0.15117575152E+03 0.12299845939E+03 0.89640382179E+02
 0.57935261412E+02 0.32819589207E+02 0.16422850615E+02 0.81008164861E+01 0.51508750139E+01
 0.41122337931E+01 0.34456459888E+01 0.31260723803E+01 0.31260824820E+01 0.34456437145E+01
 0.41121756280E+01 0.51508458352E+01 0.81011047514E+01 0.16423723649E+02 0.32820806838E+02
 0.57935869477E+02 0.89639318691E+02 0.12299566808E+03 0.15117267161E+03 0.16739451876E+03
 0.15117575152E+03 0.12941975873E+03 0.99466130081E+02 0.68106720948E+02 0.41092514759E+02
 0.21751795129E+02 0.10636928980E+02 0.59469177006E+01 0.44906538878E+01 0.36788592164E+01
 0.32082585717E+01 0.30577487736E+01 0.32082829407E+01 0.36788085619E+01 0.44904976617E+01
 0.59469376213E+01 0.10637680424E+02 0.21753490062E+02 0.41094272513E+02 0.68106758344E+02
 0.99463272159E+02 0.12941501110E+03 0.15117206790E+03 0.15914995522E+03 0.12299845939E+03
 0.99466130081E+02 0.71830806721E+02 0.45904297949E+02 0.25775197856E+02 0.13040121958E+02
 0.68918154405E+01 0.48106112666E+01 0.38983589723E+01 0.33055687588E+01 0.30258734403E+01
 0.30259039885E+01 0.33055950104E+01 0.38982398134E+01 0.48103302278E+01 0.68917085513E+01
 0.13040727721E+02 0.25776585595E+02 0.45905540920E+02 0.71830509005E+02 0.99463845842E+02
 0.12299553849E+03 0.13660260163E+03 0.13660393772E+03 0.89640382179E+02 0.68106720948E+02
 0.45904297949E+02 0.27272113242E+02 0.14503309125E+02 0.76806535448E+01 0.50752144631E+01
 0.40747555885E+01 0.33986022173E+01 0.30212598446E+01 0.29025754210E+01 0.30213251715E+01
 0.33986647146E+01 0.40746662827E+01 0.50748651634E+01 0.76801857811E+01 0.14503108186E+02
 0.27272464285E+02 0.45905051836E+02 0.68107408515E+02 0.89640687218E+02 0.10541152308E+03
 0.11121399509E+03 0.10541149958E+03 0.57935261412E+02 0.41092514759E+02 0.25775197856E+02
 0.14503309125E+02 0.79887678759E+01 0.52396716027E+01 0.41874750026E+01 0.34699119082E+01
 0.30302280879E+01 0.28294419356E+01 0.28294580640E+01 0.30303099007E+01 0.34700799749E+01
 0.41876054762E+01 0.52395159989E+01 0.79881888723E+01 0.14502533821E+02 0.25774787413E+02
 0.41092962680E+02 0.57936515349E+02 0.72529071176E+02 0.81038270472E+02 0.81037682058E+02
 0.72527707194E+02 0.32819589207E+02 0.21751795129E+02 0.13040121958E+02 0.76806535448E+01
 0.52396716027E+01 0.42260288839E+01 0.35080964746E+01 0.30405767556E+01 0.27919722457E+01
 0.27154226892E+01 0.27919132830E+01 0.30405805252E+01 0.35083070759E+01 0.42264425448E+01
 0.52400391068E+01 0.76806301810E+01 0.13039600810E+02 0.21751077460E+02 0.32819137122E+02
 0.43956794390E+02 0.52277202435E+02 0.55364743647E+02 0.52277035448E+02 0.43956807206E+02
 0.16422850615E+02 0.10636928980E+02 0.68918154405E+01 0.50752144631E+01 0.41874750026E+01
 0.35080964746E+01 0.30448223946E+01 0.27769755202E+01 0.26583667223E+01 0.26582931422E+01
 0.27767672217E+01 0.30445786777E+01 0.35080609168E+01 0.41878981017E+01 0.50760701437E+01
 0.68926701351E+01 0.10637173558E+02 0.16422154819E+02 0.23296094930E+02 0.29522026876E+02
 0.33236227596E+02 0.33236782795E+02 0.29523375077E+02 0.23297479633E+02 0.81008164861E+01
 0.59469177006E+01 0.48106112666E+01 0.40747555885E+01 0.34699119082E+01 0.30405767556E+01
 0.27769755202E+01 0.26414602103E+01 0.26004901568E+01 0.26414138107E+01 0.27767196653E+01
 0.30400374323E+01 0.34693487219E+01 0.40746851983E+01 0.48113628347E+01 0.59481964611E+01
 0.81017890636E+01 0.11282397183E+02 0.14802512802E+02 0.17577665331E+02 0.18633036701E+02
 0.17578551512E+02 0.14803421990E+02 0.11282426972E+02 0.51508750139E+01 0.44906538878E+01
 0.38983589723E+01 0.33986022173E+01 0.30302280879E+01 0.27919722457E+01 0.26583667223E+01
 0.26004901568E+01 0.26006176325E+01 0.26586057378E+01 0.27919730027E+01 0.30296933839E+01
 0.33976253747E+01 0.38975125617E+01 0.44905986902E+01 0.51517719905E+01 0.61367091616E+01
 0.74942614681E+01 0.88703269675E+01 0.97440010602E+01 0.97438674434E+01 0.88697839154E+01
 0.74931656071E+01 0.61353640510E+01 0.41122337931E+01 0.36788592164E+01 0.33055687588E+01
 0.30212598446E+01 0.28294419356E+01 0.27154226892E+01 0.26582931422E+01 0.26414138107E+01
 0.26586057378E+01 0.27159874768E+01 0.28299692371E+01 0.30212632435E+01 0.33047638698E+01
 0.36775568606E+01 0.41112374200E+01 0.45553780965E+01 0.49728964370E+01 0.54036380988E+01
 0.57678445318E+01 0.59130142124E+01 0.57667906601E+01 0.54021307230E+01 0.49718191544E+01
 0.45553645395E+01 0.34456459888E+01 0.32082585717E+01 0.30258734403E+01 0.29025754210E+01
 0.28294580640E+01 0.27919132830E+01 0.27767672217E+01 0.27767196653E+01 0.27919730027E+01
 0.28299692371E+01 0.29035197561E+01 0.30266917975E+01 0.32082627231E+01 0.34446727198E+01
 0.37163938005E+01 0.39909189588E+01 0.42316512298E+01 0.44077883423E+01 0.44998426865E+01
 0.44994788208E+01 0.44071130027E+01 0.42315019513E+01 0.39917254954E+01 0.37177376431E+01
 0.31260723803E+01 0.30577487736E+01 0.30259039885E+01 0.30213251715E+01 0.30303099007E+01
 0.30405805252E+01 0.30445786777E+01 0.30400374323E+01 0.30296933839E+01 0.30212632435E+01
 0.30266917975E+01 0.30590225586E+01 0.31270117716E+01 0.32299825182E+01 0.33560558773E+01
 0.34851467865E+01 0.35952191079E+01 0.36683683938E+01 0.36939399166E+01 0.36686529212E+01
 0.35959544568E+01 0.34862397082E+01 0.33569351628E+01 0.32299983890E+01 0.31260824820E+01
 0.32082829407E+01 0.33055950104E+01 0.33986647146E+01 0.34700799749E+01 0.35083070759E+01
 0.35080609168E+01 0.34693487219E+01 0.33976253747E+01 0.33047638698E+01 0.32082627231E+01
 0.31270117716E+01 0.30750157557E+01 0.30565545711E+01 0.30655558025E+01 0.30892937236E+01
 0.31139822664E+01 0.31291717464E+01 0.31295019210E+01 0.31147684076E+01 0.30899950151E+01
 0.30655718232E+01 0.30556755770E+01 0.30736934530E+01 0.34456437145E+01 0.36788085619E+01
 0.38982398134E+01 0.40746662827E+01 0.41876054762E+01 0.42264425448E+01 0.41878981017E+01
 0.40746851983E+01 0.38975125617E+01 0.36775568606E+01 0.34446727198E+01 0.32299825182E+01
 0.30565545711E+01 0.29336813130E+01 0.28575305963E+01 0.28166194088E+01 0.27983087437E+01
 0.27934295614E+01 0.27985244879E+01 0.28166145592E+01 0.28569074596E+01 0.29325800124E+01
 0.30556669644E+01 0.32299983890E+01 0.41121756280E+01 0.44904976617E+01 0.48103302278E+01
 0.50748651634E+01 0.52395159989E+01 0.52400391068E+01 0.50760701437E+01 0.48113628347E+01
 0.44905986902E+01 0.41112374200E+01 0.37163938005E+01 0.33560558773E+01 0.30655558025E+01
 0.28575305963E+01 0.27250661051E+01 0.26513445907E+01 0.26194975421E+01 0.26193845911E+01
 0.26509397322E+01 0.27243680700E+01 0.28568884871E+01 0.30655426293E+01 0.33569340263E+01
 0.37177376431E+01 0.51508458352E+01 0.59469376213E+01 0.68917085513E+01 0.76801857811E+01
 0.79881888723E+01 0.76806301810E+01 0.68926701351E+01 0.59481964611E+01 0.51517719905E+01
 0.45553780965E+01 0.39909189588E+01 0.34851467865E+01 0.30892937236E+01 0.28166194088E+01
 0.26513445907E+01 0.25668085777E+01 0.25412235303E+01 0.25665216780E+01 0.26509997612E+01
 0.28166151872E+01 0.30899240187E+01 0.34862305489E+01 0.39917798898E+01 0.45553645395E+01
 0.81011047514E+01 0.10637680424E+02 0.13040727721E+02 0.14503108186E+02 0.14502533821E+02
 0.13039600810E+02 0.10637173558E+02 0.81017890636E+01 0.61367091616E+01 0.49728964370E+01
 0.42316512298E+01 0.35952191079E+01 0.31139822664E+01 0.27983087437E+01 0.26194975421E+01
 0.25412235303E+01 0.25411892117E+01 0.26195239184E+01 0.27986434716E+01 0.31146627157E+01
 0.35958473466E+01 0.42315998494E+01 0.49719167547E+01 0.61353640510E+01 0.16423723649E+02
 0.21753490062E+02 0.25776585595E+02 0.27272464285E+02 0.25774787413E+02 0.21751077460E+02
 0.16422154819E+02 0.11282397183E+02 0.74942614681E+01 0.54036380988E+01 0.44077883423E+01
 0.36683683938E+01 0.31291717464E+01 0.27934295614E+01 0.26193845911E+01 0.25665216780E+01
 0.26195239184E+01 0.27937294044E+01 0.31295005292E+01 0.36683634121E+01 0.44070994068E+01
 0.54023682302E+01 0.74931536726E+01 0.11282426972E+02 0.32820806838E+02 0.41094272513E+02
 0.45905540920E+02 0.45905051836E+02 0.41092962680E+02 0.32819137122E+02 0.23296094930E+02
 0.14802512802E+02 0.88703269675E+01 0.57678445318E+01 0.44998426865E+01 0.36939399166E+01
 0.31295019210E+01 0.27985244879E+01 0.26509397322E+01 0.26509997612E+01 0.27986434716E+01
 0.31295005292E+01 0.36936021298E+01 0.44991271483E+01 0.57670605045E+01 0.88700231468E+01
 0.14803090645E+02 0.23297479633E+02 0.57935869477E+02 0.68106758344E+02 0.71830509005E+02
 0.68107408515E+02 0.57936515349E+02 0.43956794390E+02 0.29522026876E+02 0.17577665331E+02
 0.97440010602E+01 0.59130142124E+01 0.44994788208E+01 0.36686529212E+01 0.31147684076E+01
 0.28166145592E+01 0.27243680700E+01 0.28166151872E+01 0.31146627157E+01 0.36683634121E+01
 0.44991271483E+01 0.59129311566E+01 0.97444609933E+01 0.17578535591E+02 0.29522739225E+02
 0.43956807206E+02 0.89639318691E+02 0.99463272159E+02 0.99463845842E+02 0.89640687218E+02
 0.72529071176E+02 0.52277202435E+02 0.33236227596E+02 0.18633036701E+02 0.97438674434E+01
 0.57667906601E+01 0.44071130027E+01 0.35959544568E+01 0.30899950151E+01 0.28569074596E+01
 0.28568884871E+01 0.30899240187E+01 0.35958473466E+01 0.44070994068E+01 0.57670605045E+01
 0.97444609933E+01 0.18633670888E+02 0.33236390470E+02 0.52276527180E+02 0.72527707194E+02
 0.12299566808E+03 0.12941501110E+03 0.12299553849E+03 0.10541152308E+03 0.81038270472E+02
 0.55364743647E+02 0.33236782795E+02 0.17578551512E+02 0.88697839154E+01 0.54021307230E+01
 0.42315019513E+01 0.34862397082E+01 0.30655718232E+01 0.29325800124E+01 0.30655426293E+01
 0.34862305489E+01 0.42315998494E+01 0.54023682302E+01 0.88700231468E+01 0.17578535591E+02
 0.33236390470E+02 0.55364176601E+02 0.81037895577E+02 0.10541149958E+03 0.15117267161E+03
 0.15117206790E+03 0.13660260163E+03 0.11121399509E+03 0.81037682058E+02 0.52277035448E+02
 0.29523375077E+02 0.14803421990E+02 0.74931656071E+01 0.49718191544E+01 0.39917254954E+01
 0.33569351628E+01 0.30556755770E+01 0.30556669644E+01 0.33569340263E+01 0.39917798898E+01
 0.49719167547E+01 0.74931536726E+01 0.14803090645E+02 0.29522739225E+02 0.52276527180E+02
 0.81037895577E+02 0.11121508213E+03 0.13660393772E+03 0.16739451876E+03 0.15914995522E+03
 0.13660393772E+03 0.10541149958E+03 0.72527707194E+02 0.43956807206E+02 0.23297479633E+02
 0.11282426972E+02 0.61353640510E+01 0.45553645395E+01 0.37177376431E+01 0.32299983890E+01
 0.30736934530E+01 0.32299983890E+01 0.37177376431E+01 0.45553645395E+01 0.61353640510E+01
 0.11282426972E+02 0.23297479633E+02 0.43956807206E+02 0.72527707194E+02 0.10541149958E+03
 0.13660393772E+03 0.15914995522E+03 0.14362174442E+03 0.12299845939E+03 0.94551509822E+02
 0.64715026262E+02 0.38998176201E+02 0.20629828263E+02 0.10152838050E+02 0.57951016448E+01
 0.44243337701E+01 0.36289144898E+01 0.31711105253E+01 0.30251560241E+01 0.31711375275E+01
 0.36288807901E+01 0.44241858180E+01 0.57950228299E+01 0.10153263902E+02 0.20631001137E+02
 0.38999534963E+02 0.64715268624E+02 0.94549690683E+02 0.12299520981E+03 0.14361916727E+03
 0.15117267161E+03 0.12299845939E+03 0.99466130081E+02 0.71830806721E+02 0.45904297949E+02
 0.25775197856E+02 0.13040121958E+02 0.68918154405E+01 0.48106112666E+01 0.38983589723E+01
 0.33055687588E+01 0.30258734403E+01 0.30259039885E+01 0.33055950104E+01 0.38982398134E+01
 0.48103302278E+01 0.68917085513E+01 0.13040727721E+02 0.25776585595E+02 0.45905540920E+02
 0.71830509005E+02 0.99463845842E+02 0.12299553849E+03 0.13660260163E+03 0.13660393772E+03
 0.94551509822E+02 0.71830806721E+02 0.48430742539E+02 0.28785717388E+02 0.15272728135E+02
 0.79845375549E+01 0.51658667693E+01 0.41301929981E+01 0.34382544490E+01 0.30499251543E+01
 0.29274800784E+01 0.30499886474E+01 0.34382772732E+01 0.41299950590E+01 0.51653785546E+01
 0.79840291927E+01 0.15272707926E+02 0.28786432471E+02 0.48431810124E+02 0.71831516865E+02
 0.94551549844E+02 0.11121483028E+03 0.11735118802E+03 0.11121508213E+03 0.64715026262E+02
 0.45904297949E+02 0.28785717388E+02 0.16111474190E+02 0.86699042330E+01 0.54522790337E+01
 0.42970830198E+01 0.35481539660E+01 0.30837302792E+01 0.28703320454E+01 0.28703667056E+01
 0.30838351164E+01 0.35482553419E+01 0.42969472286E+01 0.54516504366E+01 0.86688416200E+01
 0.16110546969E+02 0.28785751591E+02 0.45905760033E+02 0.64717525091E+02 0.81040262522E+02
 0.90574322029E+02 0.90573352247E+02 0.81037895577E+02 0.38998176201E+02 0.25775197856E+02
 0.15272728135E+02 0.86699042330E+01 0.55649250291E+01 0.43834962192E+01 0.36196527457E+01
 0.31138495501E+01 0.28423918589E+01 0.27584707954E+01 0.28424134595E+01 0.31139872648E+01
 0.36199173003E+01 0.43836376185E+01 0.55645259055E+01 0.86688222636E+01 0.15271515075E+02
 0.25774914143E+02 0.38999503127E+02 0.52278929898E+02 0.62205490250E+02 0.65891747902E+02
 0.62203592503E+02 0.52276527180E+02 0.20629828263E+02 0.13040121958E+02 0.79845375549E+01
 0.54522790337E+01 0.43834962192E+01 0.36443123030E+01 0.31310293920E+01 0.28312816553E+01
 0.26978097893E+01 0.26977592944E+01 0.28311961806E+01 0.31310762091E+01 0.36446237820E+01
 0.43839605697E+01 0.54525091435E+01 0.79842023012E+01 0.13039363258E+02 0.20629230136E+02
 0.29522755473E+02 0.37534709471E+02 0.42306863667E+02 0.42306600710E+02 0.37534260143E+02
 0.29522739225E+02 0.10152838050E+02 0.68918154405E+01 0.51658667693E+01 0.42970830198E+01
 0.36196527457E+01 0.31310293920E+01 0.28285467946E+01 0.26722707434E+01 0.26248343657E+01
 0.26721488967E+01 0.28282978460E+01 0.31307762564E+01 0.36196643496E+01 0.42975477612E+01
 0.51666322570E+01 0.68924150432E+01 0.10152833344E+02 0.14802423853E+02 0.19839543050E+02
 0.23769505489E+02 0.25257773628E+02 0.23770175886E+02 0.19840491922E+02 0.14803090645E+02
 0.57951016448E+01 0.48106112666E+01 0.41301929981E+01 0.35481539660E+01 0.31138495501E+01
 0.28312816553E+01 0.26722707434E+01 0.26031120421E+01 0.26031455032E+01 0.26722536859E+01
 0.28309968847E+01 0.31132676281E+01 0.35475908517E+01 0.41301263535E+01 0.48112519381E+01
 0.57961232584E+01 0.74939148948E+01 0.97888486833E+01 0.12052697986E+02 0.13468060103E+02
 0.13468268238E+02 0.12053027990E+02 0.97887390723E+01 0.74931536726E+01 0.44243337701E+01
 0.38983589723E+01 0.34382544490E+01 0.30837302792E+01 0.28423918589E+01 0.26978097893E+01
 0.26248343657E+01 0.26031455032E+01 0.26251004021E+01 0.26981259895E+01 0.28424034907E+01
 0.30831806596E+01 0.34372774001E+01 0.38975073020E+01 0.44242005923E+01 0.49726588353E+01
 0.56680153839E+01 0.65110624214E+01 0.72357369950E+01 0.75234746799E+01 0.72350914931E+01
 0.65099189980E+01 0.56667804856E+01 0.49719167547E+01 0.36289144898E+01 0.33055687588E+01
 0.30499251543E+01 0.28703320454E+01 0.27584707954E+01 0.26977592944E+01 0.26721488967E+01
 0.26722536859E+01 0.26981259895E+01 0.27590950363E+01 0.28709116174E+01 0.30499512231E+01
 0.33047769683E+01 0.36276474559E+01 0.39908319760E+01 0.43514741911E+01 0.46639433692E+01
 0.49101864772E+01 0.50600583214E+01 0.50595428525E+01 0.49090219332E+01 0.46629964477E+01
 0.43514578469E+01 0.39917798898E+01 0.31711105253E+01 0.30258734403E+01 0.29274800784E+01
 0.28703667056E+01 0.28424134595E+01 0.28311961806E+01 0.28282978460E+01 0.28309968847E+01
 0.28424034907E+01 0.28709116174E+01 0.29284714081E+01 0.30266889446E+01 0.31711001218E+01
 0.33560229788E+01 0.35631120945E+01 0.37650715759E+01 0.39329095523E+01 0.40430224324E+01
 0.40811022414E+01 0.40427438963E+01 0.39328988681E+01 0.37657755300E+01 0.35643045266E+01
 0.33569340263E+01 0.30251560241E+01 0.30259039885E+01 0.30499886474E+01 0.30838351164E+01
 0.31139872648E+01 0.31310762091E+01 0.31307762564E+01 0.31132676281E+01 0.30831806596E+01
 0.30499512231E+01 0.30266889446E+01 0.30263581203E+01 0.30565164988E+01 0.31154892531E+01
 0.31922665625E+01 0.32702339231E+01 0.33326538389E+01 0.33670933917E+01 0.33673073791E+01
 0.33332991229E+01 0.32711664627E+01 0.31930205863E+01 0.31155069881E+01 0.30556669644E+01
 0.31711375275E+01 0.33055950104E+01 0.34382772732E+01 0.35482553419E+01 0.36199173003E+01
 0.36446237820E+01 0.36196643496E+01 0.35475908517E+01 0.34372774001E+01 0.33047769683E+01
 0.31711001218E+01 0.30565164988E+01 0.29741836634E+01 0.29267410494E+01 0.29075311772E+01
 0.29052097088E+01 0.29088341723E+01 0.29110801450E+01 0.29093048359E+01 0.29057311820E+01
 0.29075456221E+01 0.29259950579E+01 0.29730177297E+01 0.30556755770E+01 0.36288807901E+01
 0.38982398134E+01 0.41299950590E+01 0.42969472286E+01 0.43836376185E+01 0.43839605697E+01
 0.42975477612E+01 0.41301263535E+01 0.38975073020E+01 0.36276474559E+01 0.33560229788E+01
 0.31154892531E+01 0.29267410494E+01 0.27948834167E+01 0.27128340298E+01 0.26681286213E+01
 0.26491854466E+01 0.26492225219E+01 0.26680524758E+01 0.27123325285E+01 0.27939911152E+01
 0.29259896890E+01 0.31155069881E+01 0.33569351628E+01 0.44241858180E+01 0.48103302278E+01
 0.51653785546E+01 0.54516504366E+01 0.55645259055E+01 0.54525091435E+01 0.51666322570E+01
 0.48112519381E+01 0.44242005923E+01 0.39908319760E+01 0.35631120945E+01 0.31922665625E+01
 0.29075311772E+01 0.27128340298E+01 0.25947191897E+01 0.25340621129E+01 0.25156453309E+01
 0.25337771485E+01 0.25941954091E+01 0.27123389211E+01 0.29075254688E+01 0.31930127452E+01
 0.35643045266E+01 0.39917254954E+01 0.57950228299E+01 0.68917085513E+01 0.79840291927E+01
 0.86688416200E+01 0.86688222636E+01 0.79842023012E+01 0.68924150432E+01 0.57961232584E+01
 0.49726588353E+01 0.43514741911E+01 0.37650715759E+01 0.32702339231E+01 0.29052097088E+01
 0.26681286213E+01 0.25340621129E+01 0.24753289787E+01 0.24752141344E+01 0.25338450806E+01
 0.26681258309E+01 0.29056947204E+01 0.32711140046E+01 0.37658029786E+01 0.43514578469E+01
 0.49718191544E+01 0.10153263902E+02 0.13040727721E+02 0.15272707926E+02 0.16110546969E+02
 0.15271515075E+02 0.13039363258E+02 0.10152833344E+02 0.74939148948E+01 0.56680153839E+01
 0.46639433692E+01 0.39329095523E+01 0.33326538389E+01 0.29088341723E+01 0.26491854466E+01
 0.25156453309E+01 0.24752141344E+01 0.25156853317E+01 0.26494175599E+01 0.29093208600E+01
 0.33331339345E+01 0.39328834876E+01 0.46631276682E+01 0.56667804856E+01 0.74931656071E+01
 0.20631001137E+02 0.25776585595E+02 0.28786432471E+02 0.28785751591E+02 0.25774914143E+02
 0.20629230136E+02 0.14802423853E+02 0.97888486833E+01 0.65110624214E+01 0.49101864772E+01
 0.40430224324E+01 0.33670933917E+01 0.29110801450E+01 0.26492225219E+01 0.25337771485E+01
 0.25338450806E+01 0.26494175599E+01 0.29113029413E+01 0.33670846797E+01 0.40425189823E+01
 0.49092426266E+01 0.65101902992E+01 0.97887390723E+01 0.14803421990E+02 0.38999534963E+02
 0.45905540920E+02 0.48431810124E+02 0.45905760033E+02 0.38999503127E+02 0.29522755473E+02
 0.19839543050E+02 0.12052697986E+02 0.72357369950E+01 0.50600583214E+01 0.40811022414E+01
 0.33673073791E+01 0.29093048359E+01 0.26680524758E+01 0.25941954091E+01 0.26681258309E+01
 0.29093208600E+01 0.33670846797E+01 0.40806079137E+01 0.50595778007E+01 0.72357301893E+01
 0.12053352227E+02 0.19840491922E+02 0.29523375077E+02 0.64715268624E+02 0.71830509005E+02
 0.71831516865E+02 0.64717525091E+02 0.52278929898E+02 0.37534709471E+02 0.23769505489E+02
 0.13468060103E+02 0.75234746799E+01 0.50595428525E+01 0.40427438963E+01 0.33332991229E+01
 0.29057311820E+01 0.27123325285E+01 0.27123389211E+01 0.29056947204E+01 0.33331339345E+01
 0.40425189823E+01 0.50595778007E+01 0.75241133538E+01 0.13469189524E+02 0.23770330278E+02