   1   1   0   0
  0.1266325E+02  0.2616295E-09  0.2616295E-09  0.2616295E-09  0.5000000E-15
  1.000000000000000E-004
  CAR 
 fcc Ni                                  
     50.60662469     -3.00783090  301      7.39620964      1.00000000
     -3.008  0.0000E+00  0.0000E+00  0.0000E+00  0.0000E+00
     -2.829  0.0000E+00  0.0000E+00  0.0000E+00  0.0000E+00
     -2.650  0.0000E+00  0.0000E+00  0.0000E+00  0.0000E+00
     -2.472  0.0000E+00  0.0000E+00  0.0000E+00  0.0000E+00
     -2.293 -0.1947E-35 -0.1710E-33 -0.3479E-36 -0.3057E-34
     -2.114 -0.6022E-29 -0.3327E-27 -0.1076E-29 -0.5945E-28
     -1.936 -0.3725E-23 -0.1293E-21 -0.6657E-24 -0.2310E-22
     -1.757 -0.4592E-18 -0.9999E-17 -0.8206E-19 -0.1787E-17
     -1.578 -0.1083E-13 -0.1471E-12 -0.1935E-14 -0.2630E-13
     -1.399 -0.5125E-10 -0.4334E-09 -0.9161E-11 -0.7749E-10
     -1.221 -0.4642E-07 -0.2420E-06 -0.8305E-08 -0.4332E-07
     -1.042 -0.7663E-05 -0.2398E-04 -0.1378E-05 -0.4328E-05
     -0.863 -0.1963E-03 -0.3258E-03 -0.3646E-04 -0.6255E-04
     -0.685 -0.3941E-04  0.8214E-03 -0.4350E-04  0.8426E-04
     -0.506  0.5274E-02  0.7788E-02  0.8990E-03  0.1476E-02
     -0.327  0.1647E-01  0.2052E-01  0.3843E-02  0.5143E-02
     -0.148  0.2627E-01  0.2645E-01  0.8537E-02  0.9870E-02
      0.030  0.2702E-01  0.2797E-01  0.1337E-01  0.1487E-01
      0.209  0.3377E-01  0.3699E-01  0.1940E-01  0.2148E-01
      0.388  0.4792E-01  0.5025E-01  0.2797E-01  0.3046E-01
      0.566  0.4361E-01  0.3751E-01  0.3576E-01  0.3716E-01
      0.745  0.3337E-01  0.3744E-01  0.4172E-01  0.4385E-01
      0.924  0.5978E-01  0.6640E-01  0.5241E-01  0.5572E-01
      1.103  0.7869E-01  0.7401E-01  0.6647E-01  0.6895E-01
      1.281  0.4602E-01  0.3964E-01  0.7469E-01  0.7603E-01
      1.460  0.5455E-01  0.6025E-01  0.8444E-01  0.8680E-01
      1.639  0.8554E-01  0.8509E-01  0.9973E-01  0.1020E+00
      1.817  0.7707E-01  0.7296E-01  0.1135E+00  0.1150E+00
      1.996  0.8532E-01  0.8193E-01  0.1288E+00  0.1297E+00
      2.175  0.9772E-01  0.9450E-01  0.1462E+00  0.1466E+00
      2.354  0.9858E-01  0.8875E-01  0.1638E+00  0.1624E+00
      2.532  0.8563E-01  0.7747E-01  0.1791E+00  0.1763E+00
      2.711  0.1392E+00  0.1187E+00  0.2040E+00  0.1975E+00
      2.890  0.1685E+00  0.1474E+00  0.2341E+00  0.2238E+00
      3.068  0.1456E+00  0.1263E+00  0.2602E+00  0.2464E+00
      3.247  0.2109E+00  0.1169E+00  0.2979E+00  0.2673E+00
      3.426  0.3741E+00  0.1746E+00  0.3647E+00  0.2985E+00
      3.605  0.4543E+00  0.2515E+00  0.4459E+00  0.3435E+00
      3.783  0.6201E+00  0.2502E+00  0.5567E+00  0.3882E+00
      3.962  0.7562E+00  0.4082E+00  0.6919E+00  0.4611E+00
      4.141  0.1004E+01  0.5441E+00  0.8712E+00  0.5584E+00
      4.319  0.1187E+01  0.5339E+00  0.1083E+01  0.6538E+00
      4.498  0.1107E+01  0.5691E+00  0.1281E+01  0.7555E+00
      4.677  0.1032E+01  0.7657E+00  0.1466E+01  0.8923E+00
      4.856  0.1147E+01  0.1002E+01  0.1671E+01  0.1071E+01
      5.034  0.1423E+01  0.1033E+01  0.1925E+01  0.1256E+01
      5.213  0.1585E+01  0.9863E+00  0.2208E+01  0.1432E+01
      5.392  0.1951E+01  0.9810E+00  0.2557E+01  0.1608E+01
      5.570  0.2082E+01  0.1186E+01  0.2929E+01  0.1820E+01
      5.749  0.1488E+01  0.1449E+01  0.3195E+01  0.2078E+01
      5.928  0.1225E+01  0.1600E+01  0.3414E+01  0.2364E+01
      6.107  0.1575E+01  0.1786E+01  0.3695E+01  0.2684E+01
      6.285  0.1785E+01  0.1776E+01  0.4014E+01  0.3001E+01
      6.464  0.1710E+01  0.1464E+01  0.4320E+01  0.3263E+01
      6.643  0.2164E+01  0.1328E+01  0.4706E+01  0.3500E+01
      6.821  0.2353E+01  0.1552E+01  0.5127E+01  0.3777E+01
      7.000  0.7740E+00  0.1603E+01  0.5265E+01  0.4064E+01
      7.179  0.1872E+00  0.1397E+01  0.5299E+01  0.4314E+01
      7.358  0.1097E+00  0.1593E+01  0.5318E+01  0.4598E+01
      7.536  0.2176E+00  0.2136E+01  0.5357E+01  0.4980E+01
      7.715  0.1904E+00  0.1501E+01  0.5391E+01  0.5248E+01
      7.894  0.1354E+00  0.4066E+00  0.5415E+01  0.5321E+01
      8.072  0.1995E+00  0.1481E+00  0.5451E+01  0.5347E+01
      8.251  0.1639E+00  0.2618E+00  0.5480E+01  0.5394E+01
      8.430  0.1363E+00  0.1937E+00  0.5505E+01  0.5429E+01
      8.609  0.1163E+00  0.1489E+00  0.5525E+01  0.5455E+01
      8.787  0.1352E+00  0.2115E+00  0.5550E+01  0.5493E+01
      8.966  0.2022E+00  0.1772E+00  0.5586E+01  0.5525E+01
      9.145  0.2000E+00  0.1425E+00  0.5621E+01  0.5550E+01
      9.323  0.1018E+00  0.1790E+00  0.5640E+01  0.5582E+01
      9.502  0.7768E-01  0.2230E+00  0.5654E+01  0.5622E+01
      9.681  0.1130E+00  0.1080E+00  0.5674E+01  0.5641E+01
      9.860  0.1545E+00  0.1224E+00  0.5701E+01  0.5663E+01
     10.038  0.1808E+00  0.1293E+00  0.5734E+01  0.5686E+01
     10.217  0.1118E+00  0.1512E+00  0.5754E+01  0.5713E+01
     10.396  0.2072E+00  0.1890E+00  0.5791E+01  0.5747E+01
     10.574  0.6830E-01  0.1642E+00  0.5803E+01  0.5776E+01
     10.753  0.3157E-01  0.1328E+00  0.5809E+01  0.5800E+01
     10.932  0.1016E+00  0.3864E-01  0.5827E+01  0.5807E+01
     11.111  0.1235E+00  0.7701E-01  0.5849E+01  0.5821E+01
     11.289  0.1718E+00  0.1258E+00  0.5879E+01  0.5843E+01
     11.468  0.1106E+00  0.1627E+00  0.5899E+01  0.5872E+01
     11.647  0.5076E-01  0.1379E+00  0.5908E+01  0.5897E+01
     11.826  0.5838E-01  0.6650E-01  0.5919E+01  0.5909E+01
     12.004  0.7213E-01  0.3684E-01  0.5932E+01  0.5916E+01
     12.183  0.8199E-01  0.8292E-01  0.5946E+01  0.5930E+01
     12.362  0.1607E+00  0.5929E-01  0.5975E+01  0.5941E+01
     12.540  0.1715E+00  0.9689E-01  0.6006E+01  0.5958E+01
     12.719  0.1400E+00  0.1826E+00  0.6031E+01  0.5991E+01
     12.898  0.1433E+00  0.1476E+00  0.6056E+01  0.6017E+01
     13.077  0.1733E+00  0.1392E+00  0.6087E+01  0.6042E+01
     13.255  0.1502E+00  0.1687E+00  0.6114E+01  0.6072E+01
     13.434  0.1451E+00  0.1952E+00  0.6140E+01  0.6107E+01
     13.613  0.1481E+00  0.1678E+00  0.6167E+01  0.6137E+01
     13.791  0.1311E+00  0.1257E+00  0.6190E+01  0.6160E+01
     13.970  0.1372E+00  0.1393E+00  0.6214E+01  0.6185E+01
     14.149  0.1157E+00  0.1418E+00  0.6235E+01  0.6210E+01
     14.328  0.1552E+00  0.1376E+00  0.6263E+01  0.6234E+01
     14.506  0.1341E+00  0.1547E+00  0.6287E+01  0.6262E+01
     14.685  0.1261E+00  0.1397E+00  0.6309E+01  0.6287E+01
     14.864  0.8821E-01  0.1276E+00  0.6325E+01  0.6310E+01
     15.042  0.1611E+00  0.8530E-01  0.6354E+01  0.6325E+01
     15.221  0.1321E+00  0.1600E+00  0.6378E+01  0.6354E+01
     15.400  0.4694E-01  0.1289E+00  0.6386E+01  0.6377E+01
     15.579  0.1571E+00  0.6457E-01  0.6414E+01  0.6388E+01
     15.757  0.1730E+00  0.1485E+00  0.6445E+01  0.6415E+01
     15.936  0.1967E+00  0.1673E+00  0.6480E+01  0.6445E+01
     16.115  0.1670E+00  0.2168E+00  0.6510E+01  0.6484E+01
     16.293  0.2223E+00  0.1600E+00  0.6550E+01  0.6512E+01
     16.472  0.2071E+00  0.2382E+00  0.6587E+01  0.6555E+01
     16.651  0.1415E+00  0.1977E+00  0.6612E+01  0.6590E+01
     16.830  0.1775E+00  0.1498E+00  0.6644E+01  0.6617E+01
     17.008  0.9186E-01  0.1783E+00  0.6660E+01  0.6649E+01
     17.187  0.1362E+00  0.8242E-01  0.6684E+01  0.6663E+01
     17.366  0.2541E+00  0.1780E+00  0.6730E+01  0.6695E+01
     17.544  0.2421E+00  0.2664E+00  0.6773E+01  0.6743E+01
     17.723  0.2538E+00  0.2460E+00  0.6818E+01  0.6787E+01
     17.902  0.2072E+00  0.2461E+00  0.6855E+01  0.6831E+01
     18.081  0.1574E+00  0.1830E+00  0.6884E+01  0.6863E+01
     18.259  0.2209E+00  0.1915E+00  0.6923E+01  0.6898E+01
     18.438  0.1370E+00  0.1995E+00  0.6948E+01  0.6933E+01
     18.617  0.1469E+00  0.1292E+00  0.6974E+01  0.6956E+01
     18.795  0.2263E+00  0.1887E+00  0.7014E+01  0.6990E+01
     18.974  0.2239E+00  0.2476E+00  0.7054E+01  0.7034E+01
     19.153  0.1842E+00  0.1980E+00  0.7087E+01  0.7070E+01
     19.332  0.1638E+00  0.1810E+00  0.7116E+01  0.7102E+01
     19.510  0.1575E+00  0.1428E+00  0.7145E+01  0.7128E+01
     19.689  0.2554E+00  0.2167E+00  0.7190E+01  0.7166E+01
     19.868  0.3139E+00  0.2830E+00  0.7246E+01  0.7217E+01
     20.046  0.2363E+00  0.3083E+00  0.7289E+01  0.7272E+01
     20.225  0.9834E-01  0.1505E+00  0.7306E+01  0.7299E+01
     20.404  0.1324E+00  0.1042E+00  0.7330E+01  0.7318E+01
     20.583  0.3172E+00  0.2350E+00  0.7386E+01  0.7360E+01
     20.761  0.3000E+00  0.3479E+00  0.7440E+01  0.7422E+01
     20.940  0.2417E+00  0.2519E+00  0.7483E+01  0.7467E+01
     21.119  0.2356E+00  0.2456E+00  0.7525E+01  0.7511E+01
     21.297  0.1572E+00  0.1845E+00  0.7553E+01  0.7544E+01
     21.476  0.1987E+00  0.1808E+00  0.7589E+01  0.7576E+01
     21.655  0.2196E+00  0.2256E+00  0.7628E+01  0.7616E+01
     21.834  0.2184E+00  0.2156E+00  0.7667E+01  0.7655E+01
     22.012  0.2360E+00  0.2265E+00  0.7709E+01  0.7695E+01
     22.191  0.2514E+00  0.2485E+00  0.7754E+01  0.7740E+01
     22.370  0.2300E+00  0.2281E+00  0.7795E+01  0.7780E+01
     22.548  0.1785E+00  0.1994E+00  0.7827E+01  0.7816E+01
     22.727  0.2263E+00  0.2008E+00  0.7868E+01  0.7852E+01
     22.906  0.2000E+00  0.2362E+00  0.7904E+01  0.7894E+01
     23.085  0.2223E+00  0.1916E+00  0.7943E+01  0.7928E+01
     23.263  0.3217E+00  0.3085E+00  0.8001E+01  0.7984E+01
     23.442  0.1790E+00  0.2349E+00  0.8033E+01  0.8026E+01
     23.621  0.1352E+00  0.1382E+00  0.8057E+01  0.8050E+01
     23.799  0.1317E+00  0.1276E+00  0.8080E+01  0.8073E+01
     23.978  0.2002E+00  0.1687E+00  0.8116E+01  0.8103E+01
     24.157  0.2162E+00  0.2430E+00  0.8155E+01  0.8147E+01
     24.336  0.1186E+00  0.1278E+00  0.8176E+01  0.8169E+01
     24.514  0.1585E+00  0.1376E+00  0.8204E+01  0.8194E+01
     24.693  0.1916E+00  0.1939E+00  0.8239E+01  0.8229E+01
     24.872  0.1876E+00  0.2095E+00  0.8272E+01  0.8266E+01
     25.050  0.1463E+00  0.1463E+00  0.8298E+01  0.8292E+01
     25.229  0.2133E+00  0.1986E+00  0.8336E+01  0.8328E+01
     25.408  0.1809E+00  0.1889E+00  0.8369E+01  0.8362E+01
     25.587  0.1555E+00  0.1616E+00  0.8397E+01  0.8390E+01
     25.765  0.1571E+00  0.1497E+00  0.8425E+01  0.8417E+01
     25.944  0.1912E+00  0.1663E+00  0.8459E+01  0.8447E+01
     26.123  0.2040E+00  0.2187E+00  0.8495E+01  0.8486E+01
     26.301  0.1389E+00  0.1703E+00  0.8520E+01  0.8516E+01
     26.480  0.1523E+00  0.1434E+00  0.8547E+01  0.8542E+01
     26.659  0.1864E+00  0.1830E+00  0.8581E+01  0.8575E+01
     26.838  0.1760E+00  0.1590E+00  0.8612E+01  0.8603E+01
     27.016  0.2624E+00  0.2374E+00  0.8659E+01  0.8646E+01
     27.195  0.2898E+00  0.3062E+00  0.8711E+01  0.8700E+01
     27.374  0.1974E+00  0.2389E+00  0.8746E+01  0.8743E+01
     27.552  0.2312E+00  0.2032E+00  0.8787E+01  0.8779E+01
     27.731  0.3267E+00  0.3453E+00  0.8846E+01  0.8841E+01
     27.910  0.2582E+00  0.2763E+00  0.8892E+01  0.8890E+01
     28.089  0.1324E+00  0.1342E+00  0.8916E+01  0.8914E+01
     28.267  0.2420E+00  0.2441E+00  0.8959E+01  0.8958E+01
     28.446  0.4057E+00  0.3908E+00  0.9031E+01  0.9028E+01
     28.625  0.2716E+00  0.2764E+00  0.9080E+01  0.9077E+01
     28.803  0.1777E+00  0.1795E+00  0.9112E+01  0.9109E+01
     28.982  0.3980E+00  0.3754E+00  0.9183E+01  0.9176E+01
     29.161  0.3312E+00  0.3578E+00  0.9242E+01  0.9240E+01
     29.340  0.3301E+00  0.3462E+00  0.9301E+01  0.9302E+01
     29.518  0.2886E+00  0.2682E+00  0.9353E+01  0.9350E+01
     29.697  0.2808E+00  0.2632E+00  0.9403E+01  0.9397E+01
     29.876  0.3939E+00  0.3486E+00  0.9473E+01  0.9460E+01
     30.054  0.3075E+00  0.3570E+00  0.9528E+01  0.9523E+01
     30.233  0.2068E+00  0.2167E+00  0.9565E+01  0.9562E+01
     30.412  0.2945E+00  0.3054E+00  0.9618E+01  0.9617E+01
     30.591  0.3206E+00  0.3008E+00  0.9675E+01  0.9670E+01
     30.769  0.1786E+00  0.1880E+00  0.9707E+01  0.9704E+01
     30.948  0.1231E+00  0.1699E+00  0.9729E+01  0.9734E+01
     31.127  0.1972E+00  0.1861E+00  0.9764E+01  0.9768E+01
     31.305  0.3451E+00  0.2911E+00  0.9826E+01  0.9820E+01
     31.484  0.1948E+00  0.2266E+00  0.9861E+01  0.9860E+01
     31.663  0.1992E+00  0.1873E+00  0.9896E+01  0.9894E+01
     31.842  0.1517E+00  0.1505E+00  0.9923E+01  0.9920E+01
     32.020  0.2132E+00  0.1624E+00  0.9961E+01  0.9950E+01
     32.199  0.3639E+00  0.3414E+00  0.1003E+02  0.1001E+02
     32.378  0.3269E+00  0.3842E+00  0.1008E+02  0.1008E+02
     32.556  0.1120E+00  0.1289E+00  0.1010E+02  0.1010E+02
     32.735  0.9612E-01  0.8338E-01  0.1012E+02  0.1012E+02
     32.914  0.1695E+00  0.1898E+00  0.1015E+02  0.1015E+02
     33.093  0.1039E+00  0.9323E-01  0.1017E+02  0.1017E+02
     33.271  0.6786E-01  0.6348E-01  0.1018E+02  0.1018E+02
     33.450  0.1022E+00  0.9172E-01  0.1020E+02  0.1020E+02
     33.629  0.1376E+00  0.1472E+00  0.1023E+02  0.1022E+02
     33.807  0.2541E+00  0.2442E+00  0.1027E+02  0.1027E+02
     33.986  0.3581E+00  0.3708E+00  0.1034E+02  0.1033E+02
     34.165  0.3209E+00  0.3370E+00  0.1039E+02  0.1039E+02
     34.344  0.3591E+00  0.3208E+00  0.1046E+02  0.1045E+02
     34.522  0.3044E+00  0.3060E+00  0.1051E+02  0.1050E+02
     34.701  0.2819E+00  0.3042E+00  0.1056E+02  0.1056E+02
     34.880  0.2425E+00  0.2570E+00  0.1060E+02  0.1060E+02
     35.058  0.2147E+00  0.2328E+00  0.1064E+02  0.1065E+02
     35.237  0.2736E+00  0.2670E+00  0.1069E+02  0.1069E+02
     35.416  0.3032E+00  0.2876E+00  0.1075E+02  0.1074E+02
     35.595  0.3210E+00  0.3449E+00  0.1080E+02  0.1081E+02
     35.773  0.3749E+00  0.3799E+00  0.1087E+02  0.1087E+02
     35.952  0.1987E+00  0.1878E+00  0.1091E+02  0.1091E+02
     36.131  0.1467E+00  0.1368E+00  0.1093E+02  0.1093E+02
     36.309  0.2600E+00  0.2400E+00  0.1098E+02  0.1098E+02
     36.488  0.2152E+00  0.2484E+00  0.1102E+02  0.1102E+02
     36.667  0.1106E+00  0.1052E+00  0.1104E+02  0.1104E+02
     36.846  0.2079E+00  0.2063E+00  0.1107E+02  0.1108E+02
     37.024  0.2688E+00  0.2719E+00  0.1112E+02  0.1112E+02
     37.203  0.1574E+00  0.1679E+00  0.1115E+02  0.1115E+02
     37.382  0.2603E+00  0.2418E+00  0.1120E+02  0.1120E+02
     37.560  0.2657E+00  0.2682E+00  0.1124E+02  0.1125E+02
     37.739  0.1530E+00  0.1715E+00  0.1127E+02  0.1128E+02
     37.918  0.1239E+00  0.1313E+00  0.1129E+02  0.1130E+02
     38.097  0.2115E+00  0.2053E+00  0.1133E+02  0.1134E+02
     38.275  0.2694E+00  0.2455E+00  0.1138E+02  0.1138E+02
     38.454  0.1707E+00  0.1819E+00  0.1141E+02  0.1141E+02
     38.633  0.1140E+00  0.9696E-01  0.1143E+02  0.1143E+02
     38.811  0.1468E+00  0.1291E+00  0.1146E+02  0.1145E+02
     38.990  0.1764E+00  0.2065E+00  0.1149E+02  0.1149E+02
     39.169  0.1338E+00  0.1222E+00  0.1151E+02  0.1151E+02
     39.348  0.1770E+00  0.2168E+00  0.1154E+02  0.1155E+02
     39.526  0.2597E+00  0.2647E+00  0.1159E+02  0.1160E+02
     39.705  0.2477E+00  0.2194E+00  0.1163E+02  0.1164E+02
     39.884  0.1507E+00  0.1637E+00  0.1166E+02  0.1167E+02
     40.062  0.6887E-01  0.4963E-01  0.1167E+02  0.1167E+02
     40.241  0.6720E-01  0.6344E-01  0.1169E+02  0.1169E+02
     40.420  0.1337E+00  0.1607E+00  0.1171E+02  0.1171E+02
     40.599  0.1349E+00  0.1337E+00  0.1173E+02  0.1174E+02
     40.777  0.1714E+00  0.1601E+00  0.1176E+02  0.1177E+02
     40.956  0.1295E+00  0.1302E+00  0.1179E+02  0.1179E+02
     41.135  0.4377E-01  0.3198E-01  0.1180E+02  0.1180E+02
     41.313 -0.4763E-03 -0.3971E-02  0.1180E+02  0.1180E+02
     41.492  0.2942E-01  0.5859E-01  0.1180E+02  0.1181E+02
     41.671  0.1236E+00  0.1133E+00  0.1182E+02  0.1183E+02
     41.850  0.1031E+00  0.9508E-01  0.1184E+02  0.1184E+02
     42.028  0.8970E-01  0.9800E-01  0.1186E+02  0.1186E+02
     42.207  0.6088E-01  0.4812E-01  0.1187E+02  0.1187E+02
     42.386  0.4918E-01  0.5788E-01  0.1188E+02  0.1188E+02
     42.564  0.4899E-01  0.3506E-01  0.1189E+02  0.1189E+02
     42.743 -0.1356E-04  0.2184E-02  0.1189E+02  0.1189E+02
     42.922  0.3132E-01  0.5711E-01  0.1189E+02  0.1190E+02
     43.101  0.9119E-01  0.8797E-01  0.1191E+02  0.1191E+02
     43.279  0.4864E-01  0.2241E-01  0.1192E+02  0.1192E+02
     43.458 -0.7366E-03 -0.6987E-03  0.1192E+02  0.1192E+02
     43.637  0.2636E-01  0.3977E-01  0.1192E+02  0.1192E+02
     43.815  0.6876E-01  0.7179E-01  0.1193E+02  0.1194E+02
     43.994  0.4020E-01  0.2411E-01  0.1194E+02  0.1194E+02
     44.173 -0.1108E-02 -0.2691E-02  0.1194E+02  0.1194E+02
     44.352 -0.1195E-02 -0.7671E-03  0.1194E+02  0.1194E+02
     44.530 -0.1053E-02 -0.9519E-03  0.1194E+02  0.1194E+02
     44.709  0.6033E-02  0.1020E-01  0.1194E+02  0.1194E+02
     44.888  0.2084E-01  0.2150E-01  0.1194E+02  0.1195E+02
     45.066  0.2656E-01  0.3541E-01  0.1195E+02  0.1195E+02
     45.245  0.4208E-01  0.3499E-01  0.1196E+02  0.1196E+02
     45.424  0.1833E-01  0.1892E-01  0.1196E+02  0.1196E+02
     45.603  0.2655E-01  0.2861E-01  0.1196E+02  0.1197E+02
     45.781  0.2287E-01  0.1735E-01  0.1197E+02  0.1197E+02
     45.960  0.1460E-01  0.2627E-01  0.1197E+02  0.1197E+02
     46.139  0.4415E-01  0.4059E-01  0.1198E+02  0.1198E+02
     46.317  0.1634E-01  0.3551E-02  0.1198E+02  0.1198E+02
     46.496 -0.3079E-02 -0.2113E-02  0.1198E+02  0.1198E+02
     46.675  0.7939E-02  0.1337E-01  0.1198E+02  0.1198E+02
     46.854  0.2259E-01  0.2020E-01  0.1199E+02  0.1199E+02
     47.032  0.4949E-02  0.1634E-02  0.1199E+02  0.1199E+02
     47.211 -0.1024E-02 -0.8581E-03  0.1199E+02  0.1199E+02
     47.390 -0.9816E-03 -0.1052E-02  0.1199E+02  0.1199E+02
     47.568  0.3925E-02  0.8791E-02  0.1199E+02  0.1199E+02
     47.747  0.2204E-01  0.2202E-01  0.1199E+02  0.1199E+02
     47.926  0.8570E-02  0.4414E-02  0.1199E+02  0.1199E+02
     48.105  0.8267E-02  0.1537E-01  0.1200E+02  0.1200E+02
     48.283  0.2214E-01  0.1785E-01  0.1200E+02  0.1200E+02
     48.462  0.4155E-02  0.4404E-03  0.1200E+02  0.1200E+02
     48.641 -0.9114E-03 -0.5305E-03  0.1200E+02  0.1200E+02
     48.819 -0.7153E-04 -0.1981E-04  0.1200E+02  0.1200E+02
     48.998 -0.7255E-06 -0.1133E-06  0.1200E+02  0.1200E+02
     49.177 -0.1300E-08 -0.1181E-09  0.1200E+02  0.1200E+02
     49.356 -0.4414E-12 -0.2359E-13  0.1200E+02  0.1200E+02
     49.534 -0.2982E-16  0.0000E+00  0.1200E+02  0.1200E+02
     49.713  0.0000E+00  0.0000E+00  0.1200E+02  0.1200E+02
     49.892  0.0000E+00  0.0000E+00  0.1200E+02  0.1200E+02
     50.070  0.0000E+00  0.0000E+00  0.1200E+02  0.1200E+02
     50.249  0.0000E+00  0.0000E+00  0.1200E+02  0.1200E+02
     50.428  0.0000E+00  0.0000E+00  0.1200E+02  0.1200E+02
     50.607  0.0000E+00  0.0000E+00  0.1200E+02  0.1200E+02
