    1    1    1    2
  0.1266325E+02  0.2616295E-09  0.2616295E-09  0.2616295E-09  0.5000000E-15
  1.000000000000000E-004
  CAR 
 fcc Ni                                  
     10    110     12
 
  0.5000000E-01  0.5000000E-01  0.5000000E-01  0.2000000E-02
    1       -0.519260     -0.570810   1.000000   1.000000
    2        5.278959      6.036113   1.000000   1.000000
    3        5.313686      6.074979   1.000000   1.000000
    4        5.313686      6.074979   1.000000   1.000000
    5        6.231030      6.873983   1.000000   1.000695
    6        6.231030      6.873983   1.000000   1.000695
    7       29.442540     29.296135   0.000000   0.000000
    8       31.342344     31.322062   0.000000   0.000000
    9       32.265770     32.274492   0.000000   0.000000
   10       32.265770     32.274492   0.000000   0.000000
   11       35.574196     35.614459   0.000000   0.000000
   12       35.574196     35.614462   0.000000   0.000000
 
  0.1500000E+00  0.5000000E-01  0.5000000E-01  0.6000000E-02
    1       -0.058925     -0.109506   1.000000   1.000000
    2        5.177159      5.919232   1.000000   1.000000
    3        5.394836      6.160335   1.000000   1.000000
    4        5.409105      6.168162   1.000000   1.000000
    5        6.157230      6.794666   1.000000   1.000089
    6        6.254894      6.902643   1.000000   1.001335
    7       26.878640     26.886856   0.000000   0.000000
    8       28.975294     28.968594   0.000000   0.000000
    9       31.549771     31.478293   0.000000   0.000000
   10       32.890997     32.907256   0.000000   0.000000
   11       35.680200     35.608644   0.000000   0.000000
   12       35.837154     35.862189   0.000000   0.000000
 
  0.2500000E+00  0.5000000E-01  0.5000000E-01  0.6000000E-02
    1        1.024493      0.985794   1.000000   1.000000
    2        5.034365      5.732152   1.000000   1.000000
    3        5.489124      6.216098   1.000000   1.000000
    4        5.508039      6.248645   1.000000   1.000000
    5        6.142252      6.808333   1.000000   1.000131
    6        6.343793      7.026577   1.000000   1.012650
    7       21.990614     22.076243   0.000000   0.000000
    8       27.971671     27.980669   0.000000   0.000000
    9       31.084596     31.000995   0.000000   0.000000
   10       32.184362     32.252749   0.000000   0.000000
   11       35.272841     35.214874   0.000000   0.000000
   12       35.376082     35.383247   0.000000   0.000000
 
  0.3500000E+00  0.5000000E-01  0.5000000E-01  0.6000000E-02
    1        2.413553      2.469024   1.000000   1.000000
    2        5.175787      5.732706   1.000000   1.000000
    3        5.435016      6.113767   1.000000   1.000000
    4        5.470341      6.154222   1.000000   1.000000
    5        6.352634      7.084463   1.000000   1.024976
    6        6.600762      7.326339   1.000000   0.776594
    7       17.447064     17.602580   0.000000   0.000000
    8       27.437806     27.443393   0.000000   0.000000
    9       30.025340     29.944931   0.000000   0.000000
   10       31.262632     31.365862   0.000000   0.000000
   11       33.377429     33.375486   0.000000   0.000000
   12       34.952792     34.945386   0.000000   0.000000
 
  0.4500000E+00  0.5000000E-01  0.5000000E-01  0.6000000E-02
    1        3.231852      3.573175   1.000000   1.000000
    2        5.332352      5.982965   1.000000   1.000000
    3        5.381035      6.040298   1.000000   1.000000
    4        6.099145      6.410829   1.000000   1.000000
    5        6.625468      7.392726   1.000000   0.514738
    6        7.104928      7.707264   1.029544  -0.025135
    7       13.660022     13.935106   0.000000   0.000000
    8       27.388952     27.358480   0.000000   0.000000
    9       29.156482     29.108291   0.000000   0.000000
   10       29.907138     29.991426   0.000000   0.000000
   11       32.889049     32.904221   0.000000   0.000000
   12       34.161065     34.163465   0.000000   0.000000
 
 -0.4500000E+00  0.5000000E-01  0.5000000E-01  0.6000000E-02
    1        3.355239      3.793096   1.000000   1.000000
    2        5.295288      5.937269   1.000000   1.000000
    3        5.355611      6.011752   1.000000   1.000000
    4        6.406781      6.850718   1.000000   1.000395
    5        6.754949      7.531707   1.000028   0.048233
    6        7.740797      8.008474  -0.017559  -0.000066
    7       12.163419     12.553104  -0.000000  -0.000000
    8       27.783653     27.674204   0.000000   0.000000
    9       28.828857     28.900137   0.000000   0.000000
   10       28.978022     29.016760   0.000000   0.000000
   11       33.380985     33.404351   0.000000   0.000000
   12       33.554374     33.551097   0.000000   0.000000
 
 -0.3500000E+00  0.5000000E-01  0.5000000E-01  0.6000000E-02
    1        3.065878      3.310668   1.000000   1.000000
    2        5.353274      5.987489   1.000000   1.000000
    3        5.414999      6.085149   1.000000   1.000000
    4        5.722109      6.108297   1.000000   1.000000
    5        6.669670      7.429852   1.000002   0.359856
    6        6.772965      7.454249   1.000048   0.265506
    7       14.800027     15.025017   0.000000   0.000000
    8       28.292643     28.153919   0.000000   0.000000
    9       28.402148     28.473825   0.000000   0.000000
   10       29.868681     29.960468   0.000000   0.000000
   11       33.491335     33.473075   0.000000   0.000000
   12       34.599553     34.616163   0.000000   0.000000
 
 -0.2500000E+00  0.5000000E-01  0.5000000E-01  0.6000000E-02
    1        1.960160      1.963704   1.000000   1.000000
    2        5.052337      5.677533   1.000000   1.000000
    3        5.463807      6.152363   1.000000   1.000000
    4        5.499212      6.203868   1.000000   1.000000
    5        6.318324      7.029140   1.000000   1.013110
    6        6.450143      7.167556   1.000000   1.034318
    7       18.899109     19.028517   0.000000   0.000000
    8       28.619092     28.691175   0.000000   0.000000
    9       28.875793     28.767953   0.000000   0.000000
   10       31.567461     31.646118   0.000000   0.000000
   11       33.883242     33.846081   0.000000   0.000000
   12       36.417957     36.418297   0.000000   0.000000
 
 -0.1500000E+00  0.5000000E-01  0.5000000E-01  0.6000000E-02
    1        0.604689      0.558950   1.000000   1.000000
    2        5.065856      5.783537   1.000000   1.000000
    3        5.481615      6.229516   1.000000   1.000000
    4        5.486501      6.237198   1.000000   1.000000
    5        6.129586      6.781685   1.000000   1.000062
    6        6.293356      6.955852   1.000000   1.003949
    7       23.608369     23.672856   0.000000   0.000000
    8       29.390502     29.434670   0.000000   0.000000
    9       29.529382     29.453678   0.000000   0.000000
   10       32.998609     33.004410   0.000000   0.000000
   11       34.476940     34.444678   0.000000   0.000000
   12       37.630372     37.699482   0.000000   0.000000
 
 -0.5000000E-01  0.5000000E-01  0.5000000E-01  0.6000000E-02
    1       -0.287423     -0.338686   1.000000   1.000000
    2        5.213141      5.963203   1.000000   1.000000
    3        5.367511      6.130386   1.000000   1.000000
    4        5.370638      6.133224   1.000000   1.000000
    5        6.169734      6.807752   1.000000   1.000128
    6        6.260252      6.905103   1.000000   1.001409
    7       28.393777     28.341133   0.000000   0.000000
    8       30.306833     30.248673   0.000000   0.000000
    9       30.668340     30.710127   0.000000   0.000000
   10       32.334685     32.312596   0.000000   0.000000
   11       35.731546     35.746415   0.000000   0.000000
   12       37.258750     37.231703   0.000000   0.000000
 
  0.1500000E+00  0.1500000E+00  0.5000000E-01  0.6000000E-02
    1        0.167809      0.117733   1.000000   1.000000
    2        5.082097      5.819022   1.000000   1.000000
    3        5.475888      6.240927   1.000000   1.000000
    4        5.478740      6.244592   1.000000   1.000000
    5        6.054524      6.684426   1.000000   1.000003
    6        6.314926      6.963594   1.000000   1.004558
    7       27.053683     27.064290   0.000000   0.000000
    8       28.886718     28.943989   0.000000   0.000000
    9       29.205610     29.147559   0.000000   0.000000
   10       31.262286     31.213515   0.000000   0.000000
   11       35.346937     35.493715   0.000000   0.000000
   12       37.512578     37.502983   0.000000   0.000000
 
  0.2500000E+00  0.1500000E+00  0.5000000E-01  0.1200000E-01
    1        1.035164      0.992658   1.000000   1.000000
    2        4.907285      5.620527   1.000000   1.000000
    3        5.548635      6.262431   1.000000   1.000000
    4        5.633671      6.401478   1.000000   1.000000
    5        6.005511      6.659078   1.000000   1.000001
    6        6.413508      7.085971   1.000000   1.025323
    7       23.942481     24.005450   0.000000   0.000000
    8       25.975104     26.015896   0.000000   0.000000
    9       29.731967     29.687424   0.000000   0.000000
   10       30.992323     30.957271   0.000000   0.000000
   11       33.446453     33.614744   0.000000   0.000000
   12       37.849237     37.789127   0.000000   0.000000
 
  0.3500000E+00  0.1500000E+00  0.5000000E-01  0.1200000E-01
    1        2.340080      2.351924   1.000000   1.000000
    2        4.831098      5.482546   1.000000   1.000000
    3        5.400754      6.055734   1.000000   1.000000
    4        5.668834      6.379981   1.000000   1.000000
    5        6.317981      7.023163   1.000000   1.012053
    6        6.686392      7.399443   1.000003   0.486318
    7       19.251041     19.370515   0.000000   0.000000
    8       25.245744     25.289761   0.000000   0.000000
    9       28.273616     28.248541   0.000000   0.000000
   10       29.965542     30.027991   0.000000   0.000000
   11       35.611112     35.646125   0.000000   0.000000
   12       36.503552     36.450538   0.000000   0.000000
 
  0.4500000E+00  0.1500000E+00  0.5000000E-01  0.1200000E-01
    1        3.371693      3.635907   1.000000   1.000000
    2        5.146061      5.617972   1.000000   1.000000
    3        5.284091      5.931622   1.000000   1.000000
    4        5.592511      6.265097   1.000000   1.000000
    5        6.659765      7.414290   1.000001   0.423840
    6        7.481576      8.055700   0.172691  -0.000016
    7       15.112980     15.315379   0.000000   0.000000
    8       25.125487     25.153027   0.000000   0.000000
    9       26.448598     26.484887   0.000000   0.000000
   10       29.359131     29.373934   0.000000   0.000000
   11       35.307229     35.297168   0.000000   0.000000
   12       37.529721     37.495036   0.000000   0.000000
 
 -0.4500000E+00  0.1500000E+00  0.5000000E-01  0.1200000E-01
    1        3.621761      4.084273   1.000000   1.000000
    2        5.121534      5.674843   1.000000   1.000000
    3        5.524829      6.182474   1.000000   1.000000
    4        5.715933      6.237900   1.000000   1.000000
    5        6.730426      7.511000   1.000013   0.092017
    6        8.900775      9.163596  -0.000000  -0.000000
    7       12.304763     12.663929  -0.000000  -0.000000
    8       24.824815     24.839128   0.000000   0.000000
    9       25.899835     25.963238   0.000000   0.000000
   10       29.354481     29.337326   0.000000   0.000000
   11       34.562499     34.576190   0.000000   0.000000
   12       37.212157     37.176470   0.000000   0.000000
 
 -0.3500000E+00  0.1500000E+00  0.5000000E-01  0.1200000E-01
    1        3.524541      3.887987   1.000000   1.000000
    2        5.179209      5.729234   1.000000   1.000000
    3        5.473088      6.004583   1.000000   1.000000
    4        5.564523      6.211157   1.000000   1.000000
    5        6.582642      7.350651   1.000000   0.687339
    6        8.016472      8.501406  -0.000052  -0.000000
    7       13.945480     14.193167   0.000000   0.000000
    8       24.072083     24.113835   0.000000   0.000000
    9       27.122373     27.154364   0.000000   0.000000
   10       30.013169     29.997852   0.000000   0.000000
   11       34.226240     34.242307   0.000000   0.000000
   12       36.903172     36.870861   0.000000   0.000000
 
 -0.2500000E+00  0.1500000E+00  0.5000000E-01  0.1200000E-01
    1        2.778540      2.843712   1.000000   1.000000
    2        4.936713      5.544895   1.000000   1.000000
    3        5.335816      5.982589   1.000000   1.000000
    4        5.637600      6.319560   1.000000   1.000000
    5        6.259003      6.990425   1.000000   1.007273
    6        7.000439      7.697765   1.008555  -0.027303
    7       17.804299     17.948179   0.000000   0.000000
    8       23.932555     23.985563   0.000000   0.000000
    9       28.960305     28.956882   0.000000   0.000000
   10       31.290509     31.313086   0.000000   0.000000
   11       34.318862     34.308797   0.000000   0.000000
   12       36.180390     36.153297   0.000000   0.000000
 
 -0.1500000E+00  0.1500000E+00  0.5000000E-01  0.1200000E-01
    1        1.442135      1.408273   1.000000   1.000000
    2        4.903327      5.603928   1.000000   1.000000
    3        5.486863      6.178790   1.000000   1.000000
    4        5.657993      6.419764   1.000000   1.000000
    5        6.006757      6.655373   1.000000   1.000001
    6        6.532067      7.231609   1.000000   0.995701
    7       22.339322     22.422265   0.000000   0.000000
    8       24.440038     24.491423   0.000000   0.000000
    9       31.143884     31.092633   0.000000   0.000000
   10       32.350387     32.331727   0.000000   0.000000
   11       34.512596     34.616773   0.000000   0.000000
   12       35.547048     35.498135   0.000000   0.000000
 
 -0.5000000E-01  0.1500000E+00  0.5000000E-01  0.1200000E-01
    1        0.389230      0.340760   1.000000   1.000000
    2        5.068888      5.798398   1.000000   1.000000
    3        5.480481      6.230151   1.000000   1.000000
    4        5.488388      6.255930   1.000000   1.000000
    5        6.073573      6.708472   1.000000   1.000007
    6        6.314866      6.972695   1.000000   1.005369
    7       25.359309     25.400469   0.000000   0.000000
    8       27.440597     27.461335   0.000000   0.000000
    9       30.919125     30.866419   0.000000   0.000000
   10       32.849351     32.789961   0.000000   0.000000
   11       34.804147     34.877517   0.000000   0.000000
   12       36.821045     36.884973   0.000000   0.000000
 
  0.2500000E+00  0.2500000E+00  0.5000000E-01  0.6000000E-02
    1        1.638778      1.606993   1.000000   1.000000
    2        4.694141      5.394544   1.000000   1.000000
    3        5.679652      6.307968   1.000000   1.000000
    4        5.830812      6.608780   1.000000   1.000000
    5        5.969017      6.701955   1.000000   1.000005
    6        6.478854      7.141056   1.000000   1.035084
    7       24.338196     24.396086   0.000000   0.000000
    8       25.581212     25.639673   0.000000   0.000000
    9       27.129007     27.087851   0.000000   0.000000
   10       27.867142     27.875258   0.000000   0.000000
   11       30.744870     30.912556   0.000000   0.000000
   12       41.634423     41.537642   0.000000   0.000000
 
  0.3500000E+00  0.2500000E+00  0.5000000E-01  0.1200000E-01
    1        2.668145      2.692059   1.000000   1.000000
    2        4.517823      5.193831   1.000000   1.000000
    3        5.503890      6.108081   1.000000   1.000000
    4        6.030557      6.787401   1.000000   1.000073
    5        6.351126      7.038143   1.000000   1.014806
    6        6.704154      7.409024   1.000006   0.445900
    7       21.500629     21.580263   0.000000   0.000000
    8       23.380135     23.430662   0.000000   0.000000
    9       25.052738     25.095024   0.000000   0.000000
   10       28.333397     28.357037   0.000000   0.000000
   11       31.236212     31.331643   0.000000   0.000000
   12       41.010304     40.948566   0.000000   0.000000
 
  0.4500000E+00  0.2500000E+00  0.5000000E-01  0.1200000E-01
    1        3.636955      3.852906   1.000000   1.000000
    2        4.523280      5.124858   1.000000   1.000000
    3        5.293349      5.899959   1.000000   1.000000
    4        5.991304      6.690208   1.000000   1.000004
    5        6.703194      7.456705   1.000005   0.256544
    6        7.766770      8.310170  -0.012486  -0.000000
    7       17.192463     17.323760   0.000000   0.000000
    8       22.681838     22.730754   0.000000   0.000000
    9       23.197219     23.267610   0.000000   0.000000
   10       28.319818     28.350499   0.000000   0.000000
   11       34.636222     34.683970   0.000000   0.000000
   12       39.430739     39.401512   0.000000   0.000000
 
 -0.4500000E+00  0.2500000E+00  0.5000000E-01  0.1200000E-01
    1        4.016363      4.500655   1.000000   1.000000
    2        4.704993      5.163773   1.000000   1.000000
    3        5.259298      5.887118   1.000000   1.000000
    4        5.898087      6.566522   1.000000   1.000000
    5        6.741628      7.531954   1.000019   0.047776
    6        9.840096     10.143702  -0.000000  -0.000000
    7       13.545893     13.774054   0.000000   0.000000
    8       21.025113     21.104296   0.000000   0.000000
    9       23.607427     23.662947   0.000000   0.000000
   10       28.497118     28.510291   0.000000   0.000000
   11       37.494186     37.480713   0.000000   0.000000
   12       39.633511     39.666482   0.000000   0.000000
 
 -0.3500000E+00  0.2500000E+00  0.5000000E-01  0.1200000E-01
    1        4.096596      4.579817   1.000000   1.000000
    2        4.826158      5.290305   1.000000   1.000000
    3        5.172561      5.786663   1.000000   1.000000
    4        5.854992      6.504449   1.000000   1.000000
    5        6.547628      7.343666   1.000000   0.714050
    6        9.939513     10.254901  -0.000000  -0.000000
    7       13.557784     13.796401   0.000000   0.000000
    8       19.927788     20.018254   0.000000   0.000000
    9       24.830889     24.885310   0.000000   0.000000
   10       29.199493     29.196773   0.000000   0.000000
   11       36.799075     36.777206   0.000000   0.000000
   12       40.384574     40.333141   0.000000   0.000000
 
 -0.2500000E+00  0.2500000E+00  0.5000000E-01  0.1200000E-01
    1        3.780873      3.977984   1.000000   1.000000
    2        4.807835      5.435041   1.000000   1.000000
    3        5.057373      5.643961   1.000000   1.000000
    4        5.906678      6.535055   1.000000   1.000000
    5        6.204037      6.999408   1.000000   1.008416
    6        8.102675      8.672763  -0.000004  -0.000000
    7       17.197654     17.345846   0.000000   0.000000
    8       19.550086     19.645248   0.000000   0.000000
    9       26.664669     26.709150   0.000000   0.000000
   10       30.565299     30.561236   0.000000   0.000000
   11       35.740308     35.687066   0.000000   0.000000
   12       39.087364     39.096762   0.000000   0.000000
 
 -0.1500000E+00  0.2500000E+00  0.5000000E-01  0.1200000E-01
    1        2.699556      2.724517   1.000000   1.000000
    2        4.792837      5.460311   1.000000   1.000000
    3        5.322276      5.958665   1.000000   1.000000
    4        5.819034      6.498444   1.000000   1.000000
    5        6.034861      6.767855   1.000000   1.000041
    6        7.060628      7.759655   1.019520  -0.013778
    7       19.606513     19.723113   0.000000   0.000000
    8       21.776648     21.851368   0.000000   0.000000
    9       28.924353     28.939375   0.000000   0.000000
   10       32.264487     32.275370   0.000000   0.000000
   11       34.085684     34.032779   0.000000   0.000000
   12       36.904431     36.932994   0.000000   0.000000
 
 -0.5000000E-01  0.2500000E+00  0.5000000E-01  0.1200000E-01
    1        1.621487      1.598530   1.000000   1.000000
    2        4.952925      5.628750   1.000000   1.000000
    3        5.480264      6.172794   1.000000   1.000000
    4        5.567451      6.290282   1.000000   1.000000
    5        6.156253      6.846840   1.000000   1.000358
    6        6.488459      7.192314   1.000000   1.027032
    7       20.536521     20.641178   0.000000   0.000000
    8       26.553830     26.584766   0.000000   0.000000
    9       30.105304     30.043450   0.000000   0.000000
   10       32.058211     32.141273   0.000000   0.000000
   11       34.366687     34.320883   0.000000   0.000000
   12       35.854711     35.851879   0.000000   0.000000
 
  0.3500000E+00  0.3500000E+00  0.5000000E-01  0.6000000E-02
    1        3.180719      3.309286   1.000000   1.000000
    2        4.280153      4.943801   1.000000   1.000000
    3        5.981636      6.482474   1.000000   1.000000
    4        6.290924      7.077190   1.000000   1.023293
    5        6.611860      7.290038   1.000000   0.886572
    6        6.662591      7.354546   1.000001   0.672124
    7       21.912253     21.961936   0.000000   0.000000
    8       22.177200     22.251079   0.000000   0.000000
    9       22.967416     23.002168   0.000000   0.000000
   10       26.425731     26.484543   0.000000   0.000000
   11       29.029750     29.136173   0.000000   0.000000
   12       45.463342     45.409093   0.000000   0.000000
 
  0.4500000E+00  0.3500000E+00  0.5000000E-01  0.1200000E-01
    1        3.631137      3.915759   1.000000   1.000000
    2        4.172319      4.818136   1.000000   1.000000
    3        5.940156      6.535937   1.000000   1.000000
    4        6.470448      7.199712   1.000000   1.023213
    5        6.717451      7.468026   1.000009   0.216751
    6        7.953484      8.377620  -0.000293  -0.000000
    7       19.553899     19.642175   0.000000   0.000000
    8       19.789838     19.880411   0.000000   0.000000
    9       21.505969     21.545642   0.000000   0.000000
   10       27.292410     27.342545   0.000000   0.000000
   11       30.157033     30.242806   0.000000   0.000000
   12       43.813321     43.768209   0.000000   0.000000
 
 -0.4500000E+00  0.3500000E+00  0.5000000E-01  0.1200000E-01
    1        3.969830      4.384281   1.000000   1.000000
    2        4.252648      4.850631   1.000000   1.000000
    3        5.653089      6.276779   1.000000   1.000000
    4        6.352084      7.027499   1.000000   1.012814
    5        6.773362      7.586805   1.000049  -0.019534
    6       10.260261     10.517549  -0.000000  -0.000000
    7       15.901633     16.021298   0.000000   0.000000
    8       17.791409     17.930894   0.000000   0.000000
    9       21.770424     21.810935   0.000000   0.000000
   10       27.670776     27.716760   0.000000   0.000000
   11       33.963276     34.018787   0.000000   0.000000
   12       42.056425     42.012306   0.000000   0.000000
 
 -0.3500000E+00  0.3500000E+00  0.5000000E-01  0.1200000E-01
    1        4.262309      4.801901   1.000000   1.000000
    2        4.456706      4.933470   1.000000   1.000000
    3        5.280086      5.910247   1.000000   1.000000
    4        6.213357      6.847768   1.000000   1.000367
    5        6.606044      7.441635   1.000000   0.313179
    6       12.438288     12.628717  -0.000000  -0.000000
    7       13.289610     13.478392   0.000000   0.000000
    8       16.721863     16.878303   0.000000   0.000000
    9       22.872881     22.923899   0.000000   0.000000
   10       28.205972     28.231816   0.000000   0.000000
   11       38.710916     38.748809   0.000000   0.000000
   12       40.389184     40.330269   0.000000   0.000000
 
 -0.2500000E+00  0.3500000E+00  0.5000000E-01  0.1200000E-01
    1        4.295204      4.737058   1.000000   1.000000
    2        4.745264      5.233070   1.000000   1.000000
    3        4.968845      5.599872   1.000000   1.000000
    4        6.018834      6.644250   1.000000   1.000001
    5        6.416912      7.237333   1.000000   0.988596
    6        9.945516     10.297807  -0.000000  -0.000000
    7       15.087900     15.261625   0.000000   0.000000
    8       17.855094     17.975806   0.000000   0.000000
    9       24.629290     24.685038   0.000000   0.000000
   10       29.173119     29.176633   0.000000   0.000000
   11       37.871075     37.814694   0.000000   0.000000
   12       41.516482     41.468917   0.000000   0.000000
 
 -0.1500000E+00  0.3500000E+00  0.5000000E-01  0.1200000E-01
    1        3.664094      3.945120   1.000000   1.000000
    2        5.061904      5.547926   1.000000   1.000000
    3        5.109033      5.759600   1.000000   1.000000
    4        5.719736      6.374624   1.000000   1.000000
    5        6.400611      7.170161   1.000000   1.033898
    6        8.078491      8.622549  -0.000008  -0.000000
    7       15.462801     15.650186   0.000000   0.000000
    8       21.705716     21.777143   0.000000   0.000000
    9       26.814533     26.854362   0.000000   0.000000
   10       30.386698     30.374920   0.000000   0.000000
   11       34.981434     34.973069   0.000000   0.000000
   12       38.149168     38.111642   0.000000   0.000000
 
 -0.5000000E-01  0.3500000E+00  0.5000000E-01  0.1200000E-01
    1        2.910682      3.054319   1.000000   1.000000
    2        5.247657      5.741519   1.000000   1.000000
    3        5.351898      6.014224   1.000000   1.000000
    4        5.499757      6.175822   1.000000   1.000000
    5        6.483270      7.220632   1.000000   1.007378
    6        6.885203      7.582128   1.000902  -0.016193
    7       16.185237     16.366013   0.000000   0.000000
    8       26.221799     26.244741   0.000000   0.000000
    9       28.908055     28.862375   0.000000   0.000000
   10       30.263900     30.337784   0.000000   0.000000
   11       34.070283     34.056342   0.000000   0.000000
   12       35.630200     35.622156   0.000000   0.000000
 
  0.4500000E+00  0.4500000E+00  0.5000000E-01  0.6000000E-02
    1        3.580069      3.937851   1.000000   1.000000
    2        3.993424      4.632962   1.000000   1.000000
    3        6.611297      7.381616   1.000000   0.561568
    4        6.679061      7.392811   1.000002   0.514379
    5        6.800798      7.602175   1.000106  -0.027952
    6        8.655774      8.781767  -0.000000  -0.000000
    7       17.182289     17.348148   0.000000   0.000000
    8       20.564135     20.588757   0.000000   0.000000
    9       21.346087     21.350619   0.000000   0.000000
   10       25.860500     25.951259   0.000000   0.000000
   11       28.435241     28.540517   0.000000   0.000000
   12       47.684838     47.637350   0.000000   0.000000
 
 -0.4500000E+00  0.4500000E+00  0.5000000E-01  0.1200000E-01
    1        3.692150      4.088389   1.000000   1.000000
    2        3.999934      4.631921   1.000000   1.000000
    3        6.380026      7.100073   1.000000   1.028504
    4        6.690760      7.355735   1.000004   0.667434
    5        6.828732      7.682336   1.000225  -0.030600
    6       10.299018     10.387258  -0.000000  -0.000000
    7       15.703951     15.923359   0.000000   0.000000
    8       18.869860     18.921517   0.000000   0.000000
    9       20.587699     20.607055   0.000000   0.000000
   10       26.894352     26.959879   0.000000   0.000000
   11       29.785178     29.875202   0.000000   0.000000
   12       46.065478     45.995911   0.000000   0.000000
 
 -0.3500000E+00  0.4500000E+00  0.5000000E-01  0.1200000E-01
    1        3.966201      4.397231   1.000000   1.000000
    2        4.194538      4.798537   1.000000   1.000000
    3        5.785838      6.435728   1.000000   1.000000
    4        6.464567      7.115055   1.000000   1.031559
    5        6.749115      7.594641   1.000024  -0.024294
    6       11.555163     11.714117  -0.000000  -0.000000
    7       15.534514     15.656276   0.000000   0.000000
    8       16.123320     16.307588   0.000000   0.000000
    9       21.486578     21.522535   0.000000   0.000000
   10       27.556965     27.607286   0.000000   0.000000
   11       33.839568     33.897126   0.000000   0.000000
   12       43.095726     43.028038   0.000000   0.000000
 
 -0.2500000E+00  0.4500000E+00  0.5000000E-01  0.1200000E-01
    1        4.186838      4.726242   1.000000   1.000000
    2        4.540023      4.994698   1.000000   1.000000
    3        5.267662      5.895821   1.000000   1.000000
    4        6.074955      6.732076   1.000000   1.000014
    5        6.682673      7.492007   1.000003   0.141660
    6       11.364493     11.579558  -0.000000  -0.000000
    7       13.111926     13.343551   0.000000   0.000000
    8       18.630718     18.744549   0.000000   0.000000
    9       23.118744     23.171163   0.000000   0.000000
   10       28.298108     28.318963   0.000000   0.000000
   11       38.403572     38.409158   0.000000   0.000000
   12       39.780353     39.780532   0.000000   0.000000
 
 -0.1500000E+00  0.4500000E+00  0.5000000E-01  0.1200000E-01
    1        3.854138      4.340896   1.000000   1.000000
    2        4.967147      5.459317   1.000000   1.000000
    3        5.435547      6.013910   1.000000   1.000000
    4        5.675840      6.333409   1.000000   1.000000
    5        6.667585      7.453692   1.000002   0.267552
    6        9.691248      9.943238  -0.000000  -0.000000
    7       12.475729     12.805244  -0.000000  -0.000000
    8       22.333677     22.393898   0.000000   0.000000
    9       25.241006     25.293807   0.000000   0.000000
   10       29.261762     29.249344   0.000000   0.000000
   11       35.603778     35.604120   0.000000   0.000000
   12       38.917370     38.873422   0.000000   0.000000
 
 -0.5000000E-01  0.4500000E+00  0.5000000E-01  0.1200000E-01
    1        3.414591      3.829333   1.000000   1.000000
    2        5.250469      5.865257   1.000000   1.000000