       N       E                     dE             d eps       ncg     rms          rms(c)
DAV:   1     0.190346551085E+02    0.19035E+02   -0.29880E+03  5852   0.611E+02
DAV:   2    -0.530865324846E+01   -0.24343E+02   -0.22658E+02  5708   0.118E+02
DAV:   3    -0.579038937076E+01   -0.48174E+00   -0.47888E+00  6136   0.188E+01
DAV:   4    -0.579305298394E+01   -0.26636E-02   -0.26634E-02  5988   0.124E+00
DAV:   5    -0.579309355282E+01   -0.40569E-04   -0.40569E-04  6076   0.146E-01    0.126E+01
DAV:   6    -0.599045949627E+01   -0.19737E+00   -0.17084E+01  6336   0.511E+01    0.808E+00
DAV:   7    -0.534112271719E+01    0.64934E+00   -0.46402E+00  6332   0.220E+01    0.131E+00
DAV:   8    -0.533825665158E+01    0.28661E-02   -0.13107E-02  6040   0.829E-01    0.752E-01
DAV:   9    -0.533606996605E+01    0.21867E-02   -0.10099E-03  5880   0.207E-01    0.321E-01
DAV:  10    -0.533494907477E+01    0.11209E-02   -0.23506E-03  6112   0.332E-01    0.561E-02
DAV:  11    -0.533496912250E+01   -0.20048E-04   -0.28962E-05  3020   0.451E-02
   1 F= -.53349691E+01 E0= -.53336137E+01  d E =-.406623E-02  mag=     0.6506
