 vasp.5.4.4.18Apr17-6-g9f103f2a35 (build Jul 01 2019 03:25:34) complex          
  
 executed on             LinuxIFC date 2020.07.09  19:35:48
 running on    4 total cores
 distrk:  each k-point on    4 cores,    1 groups
 distr:  one band on NCORES_PER_BAND=   1 cores,    4 groups


--------------------------------------------------------------------------------------------------------


 INCAR:
 POTCAR:    PAW_PBE Ni 02Aug2007                  
 POTCAR:    PAW_PBE Ni 02Aug2007                  
   VRHFIN =Ni:                                                                  
   LEXCH  = PE                                                                  
   EATOM  =  1077.6739 eV,   79.2068 Ry                                         
                                                                                
   TITEL  = PAW_PBE Ni 02Aug2007                                                
   LULTRA =        F    use ultrasoft PP ?                                      
   IUNSCR =        1    unscreen: 0-lin 1-nonlin 2-no                           
   RPACOR =    2.000    partial core radius                                     
   POMASS =   58.690; ZVAL   =   10.000    mass and valenz                      
   RCORE  =    2.300    outmost cutoff radius                                   
   RWIGS  =    2.430; RWIGS  =    1.286    wigner-seitz radius (au A)           
   ENMAX  =  269.532; ENMIN  =  202.149 eV                                      
   RCLOC  =    1.201    cutoff for local pot                                    
   LCOR   =        T    correct aug charges                                     
   LPAW   =        T    paw PP                                                  
   EAUG   =  544.565                                                            
   DEXC   =    0.000                                                            
   RMAX   =    2.357    core radius for proj-oper                               
   RAUG   =    1.300    factor for augmentation sphere                          
   RDEP   =    2.390    radius for radial grids                                 
   RDEPT  =    1.838    core radius for aug-charge                              
                                                                                
   Atomic configuration                                                         
    9 entries                                                                   
     n  l   j            E        occ.                                          
     1  0  0.50     -8206.4253   2.0000                                         
     2  0  0.50      -976.1748   2.0000                                         
     2  1  1.50      -839.0571   6.0000                                         
     3  0  0.50      -105.9991   2.0000                                         
     3  1  1.50       -66.4603   6.0000                                         
     3  2  2.50        -4.6458   9.0000                                         
     4  0  0.50        -4.4926   1.0000                                         
     4  1  1.50        -4.0817   0.0000                                         
     4  3  2.50        -1.3606   0.0000                                         
   Description                                                                  
     l       E           TYP  RCUT    TYP  RCUT                                 
     2     -4.6457903     23  2.300                                             
     2     -6.0063729     23  2.300                                             
     0     -4.4925590     23  2.300                                             
     0      5.0102601     23  2.300                                             
     1     -2.7211652     23  2.300                                             
     1     16.5183231     23  2.300                                             
  local pseudopotential read in
  partial core-charges read in
  partial kinetic energy density read in
  atomic valenz-charges read in
  non local Contribution for L=           2  read in
    real space projection operators read in
  non local Contribution for L=           2  read in
    real space projection operators read in
  non local Contribution for L=           0  read in
    real space projection operators read in
  non local Contribution for L=           0  read in
    real space projection operators read in
  non local Contribution for L=           1  read in
    real space projection operators read in
  non local Contribution for L=           1  read in
    real space projection operators read in
    PAW grid and wavefunctions read in
 
   number of l-projection  operators is LMAX  =           6
   number of lm-projection operators is LMMAX =          18
 
  PAW_PBE Ni 02Aug2007                  :
 energy of atom  1       EATOM=-1077.6739
 kinetic energy error for atom=    0.0378 (will be added to EATOM!!)
 
 
 POSCAR: FCC Ni Bulk                             
  positions in direct lattice
  No initial velocities read in
 exchange correlation table for  LEXCH =        8
   RHO(1)=    0.500       N(1)  =     2000
   RHO(2)=  100.500       N(2)  =     4000
 


--------------------------------------------------------------------------------------------------------


 ion  position               nearest neighbor table
   1  0.000  0.000  0.000-
 
  LATTYP: Found a face centered cubic cell.
 ALAT       =     3.7000000000
  
  Lattice vectors:
  
 A1 = (   0.0000000000,   1.8500000000,   1.8500000000)
 A2 = (   1.8500000000,   0.0000000000,   1.8500000000)
 A3 = (   1.8500000000,   1.8500000000,   0.0000000000)


Analysis of symmetry for initial positions (statically):
=====================================================================
 Subroutine PRICEL returns:
 Original cell was already a primitive cell.
 

 Routine SETGRP: Setting up the symmetry group for a 
 face centered cubic supercell.


 Subroutine GETGRP returns: Found 48 space group operations
 (whereof 48 operations were pure point group operations)
 out of a pool of 48 trial point group operations.


The static configuration has the point symmetry O_h .


Analysis of symmetry for dynamics (positions and initial velocities):
=====================================================================
 Subroutine PRICEL returns:
 Original cell was already a primitive cell.
 

 Routine SETGRP: Setting up the symmetry group for a 
 face centered cubic supercell.


 Subroutine GETGRP returns: Found 48 space group operations
 (whereof 48 operations were pure point group operations)
 out of a pool of 48 trial point group operations.


The dynamic configuration has the point symmetry O_h .


Analysis of structural, dynamic, and magnetic symmetry:
=====================================================================
 Subroutine PRICEL returns:
 Original cell was already a primitive cell.
 

 Routine SETGRP: Setting up the symmetry group for a 
 face centered cubic supercell.


 Subroutine GETGRP returns: Found 48 space group operations
 (whereof 48 operations were pure point group operations)
 out of a pool of 48 trial point group operations.


The magnetic configuration has the point symmetry O_h .


 Subroutine INISYM returns: Found 48 space group operations
 (whereof 48 operations are pure point group operations),
 and found     1 'primitive' translations

 
 
 KPOINTS: 10x10x10                                

Automatic generation of k-mesh.
Space group operators:
 irot       det(A)        alpha          n_x          n_y          n_z        tau_x        tau_y        tau_z
    1     1.000000     0.000000     1.000000     0.000000     0.000000     0.000000     0.000000     0.000000
    2    -1.000000     0.000000     1.000000     0.000000     0.000000     0.000000     0.000000     0.000000
    3     1.000000   120.000000    -0.577350    -0.577350    -0.577350     0.000000     0.000000     0.000000
    4    -1.000000   120.000000    -0.577350    -0.577350    -0.577350     0.000000     0.000000     0.000000
    5     1.000000   120.000000     0.577350     0.577350     0.577350     0.000000     0.000000     0.000000
    6    -1.000000   120.000000     0.577350     0.577350     0.577350     0.000000     0.000000     0.000000
    7     1.000000    90.000000     0.000000     0.000000    -1.000000     0.000000     0.000000     0.000000
    8    -1.000000    90.000000     0.000000     0.000000    -1.000000     0.000000     0.000000     0.000000
    9     1.000000   180.000000     0.000000     0.707107     0.707107     0.000000     0.000000     0.000000
   10    -1.000000   180.000000     0.000000     0.707107     0.707107     0.000000     0.000000     0.000000
   11     1.000000    90.000000     0.000000     1.000000     0.000000     0.000000     0.000000     0.000000
   12    -1.000000    90.000000     0.000000     1.000000     0.000000     0.000000     0.000000     0.000000
   13     1.000000   180.000000     0.000000     0.000000     1.000000     0.000000     0.000000     0.000000
   14    -1.000000   180.000000     0.000000     0.000000     1.000000     0.000000     0.000000     0.000000
   15     1.000000   120.000000    -0.577350     0.577350     0.577350     0.000000     0.000000     0.000000
   16    -1.000000   120.000000    -0.577350     0.577350     0.577350     0.000000     0.000000     0.000000
   17     1.000000   120.000000    -0.577350     0.577350    -0.577350     0.000000     0.000000     0.000000
   18    -1.000000   120.000000    -0.577350     0.577350    -0.577350     0.000000     0.000000     0.000000
   19     1.000000    90.000000     0.000000     0.000000     1.000000     0.000000     0.000000     0.000000
   20    -1.000000    90.000000     0.000000     0.000000     1.000000     0.000000     0.000000     0.000000
   21     1.000000    90.000000    -1.000000     0.000000     0.000000     0.000000     0.000000     0.000000
   22    -1.000000    90.000000    -1.000000     0.000000     0.000000     0.000000     0.000000     0.000000
   23     1.000000   180.000000     0.707107     0.000000     0.707107     0.000000     0.000000     0.000000
   24    -1.000000   180.000000     0.707107     0.000000     0.707107     0.000000     0.000000     0.000000
   25     1.000000   120.000000     0.577350    -0.577350     0.577350     0.000000     0.000000     0.000000
   26    -1.000000   120.000000     0.577350    -0.577350     0.577350     0.000000     0.000000     0.000000
   27     1.000000   120.000000    -0.577350    -0.577350     0.577350     0.000000     0.000000     0.000000
   28    -1.000000   120.000000    -0.577350    -0.577350     0.577350     0.000000     0.000000     0.000000
   29     1.000000   180.000000     1.000000     0.000000     0.000000     0.000000     0.000000     0.000000
   30    -1.000000   180.000000     1.000000     0.000000     0.000000     0.000000     0.000000     0.000000
   31     1.000000    90.000000     0.000000    -1.000000     0.000000     0.000000     0.000000     0.000000
   32    -1.000000    90.000000     0.000000    -1.000000     0.000000     0.000000     0.000000     0.000000
   33     1.000000   180.000000     0.707107     0.707107     0.000000     0.000000     0.000000     0.000000
   34    -1.000000   180.000000     0.707107     0.707107     0.000000     0.000000     0.000000     0.000000
   35     1.000000    90.000000     1.000000     0.000000     0.000000     0.000000     0.000000     0.000000
   36    -1.000000    90.000000     1.000000     0.000000     0.000000     0.000000     0.000000     0.000000
   37     1.000000   120.000000     0.577350    -0.577350    -0.577350     0.000000     0.000000     0.000000
   38    -1.000000   120.000000     0.577350    -0.577350    -0.577350     0.000000     0.000000     0.000000
   39     1.000000   180.000000     0.000000     1.000000     0.000000     0.000000     0.000000     0.000000
   40    -1.000000   180.000000     0.000000     1.000000     0.000000     0.000000     0.000000     0.000000
   41     1.000000   120.000000     0.577350     0.577350    -0.577350     0.000000     0.000000     0.000000
   42    -1.000000   120.000000     0.577350     0.577350    -0.577350     0.000000     0.000000     0.000000
   43     1.000000   180.000000     0.000000    -0.707107     0.707107     0.000000     0.000000     0.000000
   44    -1.000000   180.000000     0.000000    -0.707107     0.707107     0.000000     0.000000     0.000000
   45     1.000000   180.000000     0.707107    -0.707107     0.000000     0.000000     0.000000     0.000000
   46    -1.000000   180.000000     0.707107    -0.707107     0.000000     0.000000     0.000000     0.000000
   47     1.000000   180.000000     0.707107     0.000000    -0.707107     0.000000     0.000000     0.000000
   48    -1.000000   180.000000     0.707107     0.000000    -0.707107     0.000000     0.000000     0.000000
 
 Subroutine IBZKPT returns following result:
 ===========================================
 
 Found    110 irreducible k-points:
 
 Following reciprocal coordinates:
            Coordinates               Weight
  0.050000  0.050000  0.050000     96.000000
  0.150000  0.050000  0.050000    288.000000
  0.250000  0.050000  0.050000    288.000000
  0.350000  0.050000  0.050000    288.000000
  0.450000  0.050000  0.050000    288.000000
 -0.450000  0.050000  0.050000    288.000000
 -0.350000  0.050000  0.050000    288.000000
 -0.250000  0.050000  0.050000    288.000000
 -0.150000  0.050000  0.050000    288.000000
 -0.050000  0.050000  0.050000    288.000000
  0.150000  0.150000  0.050000    288.000000
  0.250000  0.150000  0.050000    576.000000
  0.350000  0.150000  0.050000    576.000000
  0.450000  0.150000  0.050000    576.000000
 -0.450000  0.150000  0.050000    576.000000
 -0.350000  0.150000  0.050000    576.000000
 -0.250000  0.150000  0.050000    576.000000
 -0.150000  0.150000  0.050000    576.000000
 -0.050000  0.150000  0.050000    576.000000
  0.250000  0.250000  0.050000    288.000000
  0.350000  0.250000  0.050000    576.000000
  0.450000  0.250000  0.050000    576.000000
 -0.450000  0.250000  0.050000    576.000000
 -0.350000  0.250000  0.050000    576.000000
 -0.250000  0.250000  0.050000    576.000000
 -0.150000  0.250000  0.050000    576.000000
 -0.050000  0.250000  0.050000    576.000000
  0.350000  0.350000  0.050000    288.000000
  0.450000  0.350000  0.050000    576.000000
 -0.450000  0.350000  0.050000    576.000000
 -0.350000  0.350000  0.050000    576.000000
 -0.250000  0.350000  0.050000    576.000000
 -0.150000  0.350000  0.050000    576.000000
 -0.050000  0.350000  0.050000    576.000000
  0.450000  0.450000  0.050000    288.000000
 -0.450000  0.450000  0.050000    576.000000
 -0.350000  0.450000  0.050000    576.000000
 -0.250000  0.450000  0.050000    576.000000
 -0.150000  0.450000  0.050000    576.000000
 -0.050000  0.450000  0.050000    576.000000
 -0.450000 -0.450000  0.050000    288.000000
 -0.350000 -0.450000  0.050000    576.000000
 -0.250000 -0.450000  0.050000    576.000000
 -0.150000 -0.450000  0.050000    576.000000
 -0.350000 -0.350000  0.050000    288.000000
 -0.250000 -0.350000  0.050000    576.000000
 -0.150000 -0.350000  0.050000    576.000000
 -0.250000 -0.250000  0.050000    288.000000
 -0.150000 -0.250000  0.050000    576.000000
 -0.150000 -0.150000  0.050000    288.000000
  0.150000  0.150000  0.150000     96.000000
  0.250000  0.150000  0.150000    288.000000
  0.350000  0.150000  0.150000    288.000000
  0.450000  0.150000  0.150000    288.000000
 -0.450000  0.150000  0.150000    288.000000
 -0.350000  0.150000  0.150000    288.000000
 -0.250000  0.150000  0.150000    288.000000
 -0.150000  0.150000  0.150000    288.000000
  0.250000  0.250000  0.150000    288.000000
  0.350000  0.250000  0.150000    576.000000
  0.450000  0.250000  0.150000    576.000000
 -0.450000  0.250000  0.150000    576.000000
 -0.350000  0.250000  0.150000    576.000000
 -0.250000  0.250000  0.150000    576.000000
 -0.150000  0.250000  0.150000    576.000000
  0.350000  0.350000  0.150000    288.000000
  0.450000  0.350000  0.150000    576.000000
 -0.450000  0.350000  0.150000    576.000000
 -0.350000  0.350000  0.150000    576.000000
 -0.250000  0.350000  0.150000    576.000000
 -0.150000  0.350000  0.150000    576.000000
  0.450000  0.450000  0.150000    288.000000
 -0.450000  0.450000  0.150000    576.000000
 -0.350000  0.450000  0.150000    576.000000
 -0.250000  0.450000  0.150000    576.000000
 -0.150000  0.450000  0.150000    576.000000
 -0.450000 -0.450000  0.150000    288.000000
 -0.350000 -0.450000  0.150000    576.000000
 -0.250000 -0.450000  0.150000    576.000000
 -0.350000 -0.350000  0.150000    288.000000
 -0.250000 -0.350000  0.150000    576.000000
 -0.250000 -0.250000  0.150000    288.000000
  0.250000  0.250000  0.250000     96.000000
  0.350000  0.250000  0.250000    288.000000
  0.450000  0.250000  0.250000    288.000000
 -0.450000  0.250000  0.250000    288.000000
 -0.350000  0.250000  0.250000    288.000000
 -0.250000  0.250000  0.250000    288.000000
  0.350000  0.350000  0.250000    288.000000
  0.450000  0.350000  0.250000    576.000000
 -0.450000  0.350000  0.250000    576.000000
 -0.350000  0.350000  0.250000    576.000000
 -0.250000  0.350000  0.250000    576.000000
  0.450000  0.450000  0.250000    288.000000
 -0.450000  0.450000  0.250000    576.000000
 -0.350000  0.450000  0.250000    576.000000
 -0.250000  0.450000  0.250000    576.000000
 -0.450000 -0.450000  0.250000    288.000000
 -0.350000 -0.450000  0.250000    576.000000
 -0.350000 -0.350000  0.250000    288.000000
  0.350000  0.350000  0.350000     96.000000
  0.450000  0.350000  0.350000    288.000000
 -0.450000  0.350000  0.350000    288.000000
 -0.350000  0.350000  0.350000    288.000000
  0.450000  0.450000  0.350000    288.000000
 -0.450000  0.450000  0.350000    576.000000
 -0.350000  0.450000  0.350000    576.000000
 -0.450000 -0.450000  0.350000    288.000000
  0.450000  0.450000  0.450000     96.000000
 -0.450000  0.450000  0.450000    288.000000
 
 Following cartesian coordinates:
            Coordinates               Weight
  0.050000  0.050000  0.050000     96.000000
 -0.050000  0.150000  0.150000    288.000000
 -0.150000  0.250000  0.250000    288.000000
 -0.250000  0.350000  0.350000    288.000000
 -0.350000  0.450000  0.450000    288.000000
  0.550000 -0.450000 -0.450000    288.000000
  0.450000 -0.350000 -0.350000    288.000000
  0.350000 -0.250000 -0.250000    288.000000
  0.250000 -0.150000 -0.150000    288.000000
  0.150000 -0.050000 -0.050000    288.000000
  0.050000  0.050000  0.250000    288.000000
 -0.050000  0.150000  0.350000    576.000000
 -0.150000  0.250000  0.450000    576.000000
 -0.250000  0.350000  0.550000    576.000000
  0.650000 -0.550000 -0.350000    576.000000
  0.550000 -0.450000 -0.250000    576.000000
  0.450000 -0.350000 -0.150000    576.000000
  0.350000 -0.250000 -0.050000    576.000000
  0.250000 -0.150000  0.050000    576.000000
  0.050000  0.050000  0.450000    288.000000
 -0.050000  0.150000  0.550000    576.000000
 -0.150000  0.250000  0.650000    576.000000
  0.750000 -0.650000 -0.250000    576.000000
  0.650000 -0.550000 -0.150000    576.000000
  0.550000 -0.450000 -0.050000    576.000000
  0.450000 -0.350000  0.050000    576.000000
  0.350000 -0.250000  0.150000    576.000000
  0.050000  0.050000  0.650000    288.000000
 -0.050000  0.150000  0.750000    576.000000
  0.850000 -0.750000 -0.150000    576.000000
  0.750000 -0.650000 -0.050000    576.000000
  0.650000 -0.550000  0.050000    576.000000
  0.550000 -0.450000  0.150000    576.000000
  0.450000 -0.350000  0.250000    576.000000
  0.050000  0.050000  0.850000    288.000000
  0.950000 -0.850000 -0.050000    576.000000
  0.850000 -0.750000  0.050000    576.000000
  0.750000 -0.650000  0.150000    576.000000
  0.650000 -0.550000  0.250000    576.000000
  0.550000 -0.450000  0.350000    576.000000
  0.050000  0.050000 -0.950000    288.000000
 -0.050000  0.150000 -0.850000    576.000000
 -0.150000  0.250000 -0.750000    576.000000
 -0.250000  0.350000 -0.650000    576.000000
  0.050000  0.050000 -0.750000    288.000000
 -0.050000  0.150000 -0.650000    576.000000
 -0.150000  0.250000 -0.550000    576.000000
  0.050000  0.050000 -0.550000    288.000000
 -0.050000  0.150000 -0.450000    576.000000
  0.050000  0.050000 -0.350000    288.000000
  0.150000  0.150000  0.150000     96.000000
  0.050000  0.250000  0.250000    288.000000
 -0.050000  0.350000  0.350000    288.000000
 -0.150000  0.450000  0.450000    288.000000
  0.750000 -0.450000 -0.450000    288.000000
  0.650000 -0.350000 -0.350000    288.000000
  0.550000 -0.250000 -0.250000    288.000000
  0.450000 -0.150000 -0.150000    288.000000
  0.150000  0.150000  0.350000    288.000000
  0.050000  0.250000  0.450000    576.000000
 -0.050000  0.350000  0.550000    576.000000
  0.850000 -0.550000 -0.350000    576.000000
  0.750000 -0.450000 -0.250000    576.000000
  0.650000 -0.350000 -0.150000    576.000000
  0.550000 -0.250000 -0.050000    576.000000
  0.150000  0.150000  0.550000    288.000000
  0.050000  0.250000  0.650000    576.000000
  0.950000 -0.650000 -0.250000    576.000000
  0.850000 -0.550000 -0.150000    576.000000
  0.750000 -0.450000 -0.050000    576.000000
  0.650000 -0.350000  0.050000    576.000000
  0.150000  0.150000  0.750000    288.000000
  1.050000 -0.750000 -0.150000    576.000000
  0.950000 -0.650000 -0.050000    576.000000
  0.850000 -0.550000  0.050000    576.000000
  0.750000 -0.450000  0.150000    576.000000
  0.150000  0.150000 -1.050000    288.000000
  0.050000  0.250000 -0.950000    576.000000
 -0.050000  0.350000 -0.850000    576.000000
  0.150000  0.150000 -0.850000    288.000000
  0.050000  0.250000 -0.750000    576.000000
  0.150000  0.150000 -0.650000    288.000000
  0.250000  0.250000  0.250000     96.000000
  0.150000  0.350000  0.350000    288.000000
  0.050000  0.450000  0.450000    288.000000
  0.950000 -0.450000 -0.450000    288.000000
  0.850000 -0.350000 -0.350000    288.000000
  0.750000 -0.250000 -0.250000    288.000000
  0.250000  0.250000  0.450000    288.000000
  0.150000  0.350000  0.550000    576.000000
  1.050000 -0.550000 -0.350000    576.000000
  0.950000 -0.450000 -0.250000    576.000000
  0.850000 -0.350000 -0.150000    576.000000
  0.250000  0.250000  0.650000    288.000000
  1.150000 -0.650000 -0.250000    576.000000
  1.050000 -0.550000 -0.150000    576.000000
  0.950000 -0.450000 -0.050000    576.000000
  0.250000  0.250000 -1.150000    288.000000
  0.150000  0.350000 -1.050000    576.000000
  0.250000  0.250000 -0.950000    288.000000
  0.350000  0.350000  0.350000     96.000000
  0.250000  0.450000  0.450000    288.000000
  1.150000 -0.450000 -0.450000    288.000000
  1.050000 -0.350000 -0.350000    288.000000
  0.350000  0.350000  0.550000    288.000000
  1.250000 -0.550000 -0.350000    576.000000
  1.150000 -0.450000 -0.250000    576.000000
  0.350000  0.350000 -1.250000    288.000000
  0.450000  0.450000  0.450000     96.000000
  1.350000 -0.450000 -0.450000    288.000000
 


--------------------------------------------------------------------------------------------------------




 Dimension of arrays:
   k-points           NKPTS =    110   k-points in BZ     NKDIM =    110   number of bands    NBANDS=     12
   number of dos      NEDOS =    301   number of ions     NIONS =      1
   non local maximal  LDIM  =      6   non local SUM 2l+1 LMDIM =     18
   total plane-waves  NPLWV =   1728
   max r-space proj   IRMAX =      1   max aug-charges    IRDMAX=   4622
   dimension x,y,z NGX =    12 NGY =   12 NGZ =   12
   dimension x,y,z NGXF=    24 NGYF=   24 NGZF=   24
   support grid    NGXF=    24 NGYF=   24 NGZF=   24
   ions per type =               1
   NGX,Y,Z   is equivalent  to a cutoff of   7.63,  7.63,  7.63 a.u.
   NGXF,Y,Z  is equivalent  to a cutoff of  15.25, 15.25, 15.25 a.u.

 SYSTEM =  fcc Ni                                  
 POSCAR =  FCC Ni Bulk                             

 Startparameter for this run:
   NWRITE =      2    write-flag & timer
   PREC   = normal    normal or accurate (medium, high low for compatibility)
   ISTART =      0    job   : 0-new  1-cont  2-samecut
   ICHARG =      2    charge: 1-file 2-atom 10-const
   ISPIN  =      2    spin polarized calculation?
   LNONCOLLINEAR =      F non collinear calculations
   LSORBIT =      F    spin-orbit coupling
   INIWAV =      1    electr: 0-lowe 1-rand  2-diag
   LASPH  =      F    aspherical Exc in radial PAW
   METAGGA=      F    non-selfconsistent MetaGGA calc.

 Electronic Relaxation 1
   ENCUT  =  270.0 eV  19.84 Ry    4.45 a.u.   3.51  3.51  3.51*2*pi/ulx,y,z
   ENINI  =  270.0     initial cutoff
   ENAUG  =  544.6 eV  augmentation charge cutoff
   NELM   =     60;   NELMIN=  2; NELMDL= -5     # of ELM steps 
   EDIFF  = 0.1E-03   stopping-criterion for ELM
   LREAL  =      F    real-space projection
   NLSPLINE    = F    spline interpolate recip. space projectors
   LCOMPAT=      F    compatible to vasp.4.4
   GGA_COMPAT  = T    GGA compatible to vasp.4.4-vasp.4.6
   LMAXPAW     = -100 max onsite density
   LMAXMIX     =    2 max onsite mixed and CHGCAR
   VOSKOWN=      0    Vosko Wilk Nusair interpolation
   ROPT   =    0.00000
 Ionic relaxation
   EDIFFG = 0.1E-02   stopping-criterion for IOM
   NSW    =      0    number of steps for IOM
   NBLOCK =      1;   KBLOCK =      1    inner block; outer block 
   IBRION =     -1    ionic relax: 0-MD 1-quasi-New 2-CG
   NFREE  =      0    steps in history (QN), initial steepest desc. (CG)
   ISIF   =      2    stress and relaxation
   IWAVPR =     10    prediction:  0-non 1-charg 2-wave 3-comb
   ISYM   =      2    0-nonsym 1-usesym 2-fastsym
   LCORR  =      T    Harris-Foulkes like correction to forces

   POTIM  = 0.5000    time-step for ionic-motion
   TEIN   =    0.0    initial temperature
   TEBEG  =    0.0;   TEEND  =   0.0 temperature during run
   SMASS  =  -3.00    Nose mass-parameter (am)
   estimated Nose-frequenzy (Omega)   =  0.10E-29 period in steps =****** mass=  -0.156E-27a.u.
   SCALEE = 1.0000    scale energy and forces
   NPACO  =    256;   APACO  = 16.0  distance and # of slots for P.C.
   PSTRESS=    0.0 pullay stress

  Mass of Ions in am
   POMASS =  58.69
  Ionic Valenz
   ZVAL   =  10.00
  Atomic Wigner-Seitz radii
   RWIGS  =  -1.00
  virtual crystal weights 
   VCA    =   1.00
   NELECT =      10.0000    total number of electrons
   NUPDOWN=      -1.0000    fix difference up-down

 DOS related values:
   EMIN   =  10.00;   EMAX   =-10.00  energy-range for DOS
   EFERMI =   0.00
   ISMEAR =     1;   SIGMA  =   0.20  broadening in eV -4-tet -1-fermi 0-gaus

 Electronic relaxation 2 (details)
   IALGO  =     38    algorithm
   LDIAG  =      T    sub-space diagonalisation (order eigenvalues)
   LSUBROT=      F    optimize rotation matrix (better conditioning)
   TURBO    =      0    0=normal 1=particle mesh
   IRESTART =      0    0=no restart 2=restart with 2 vectors
   NREBOOT  =      0    no. of reboots
   NMIN     =      0    reboot dimension
   EREF     =   0.00    reference energy to select bands
   IMIX   =      4    mixing-type and parameters
     AMIX     =   0.40;   BMIX     =  1.00
     AMIX_MAG =   1.60;   BMIX_MAG =  1.00
     AMIN     =   0.10
     WC   =   100.;   INIMIX=   1;  MIXPRE=   1;  MAXMIX= -45

 Intra band minimization:
   WEIMIN = 0.0000     energy-eigenvalue tresh-hold
   EBREAK =  0.21E-05  absolut break condition
   DEPER  =   0.30     relativ break condition  

   TIME   =   0.40     timestep for ELM

  volume/ion in A,a.u.               =      12.66        85.46
  Fermi-wavevector in a.u.,A,eV,Ry     =   1.513189  2.859512 31.153807  2.289740
  Thomas-Fermi vector in A             =   2.623013
 
 Write flags
   LWAVE        =      T    write WAVECAR
   LDOWNSAMPLE  =      F    k-point downsampling of WAVECAR
   LCHARG       =      T    write CHGCAR
   LVTOT        =      F    write LOCPOT, total local potential
   LVHAR        =      F    write LOCPOT, Hartree potential only
   LELF         =      F    write electronic localiz. function (ELF)
   LORBIT       =      0    0 simple, 1 ext, 2 COOP (PROOUT), +10 PAW based schemes


 Dipole corrections
   LMONO  =      F    monopole corrections only (constant potential shift)
   LDIPOL =      F    correct potential (dipole corrections)
   IDIPOL =      0    1-x, 2-y, 3-z, 4-all directions 
   EPSILON=  1.0000000 bulk dielectric constant

 Exchange correlation treatment:
   GGA     =    --    GGA type
   LEXCH   =     8    internal setting for exchange type
   VOSKOWN=      0    Vosko Wilk Nusair interpolation
   LHFCALC =     F    Hartree Fock is set to
   LHFONE  =     F    Hartree Fock one center treatment
   AEXX    =    0.0000 exact exchange contribution

 Linear response parameters
   LEPSILON=     F    determine dielectric tensor
   LRPA    =     F    only Hartree local field effects (RPA)
   LNABLA  =     F    use nabla operator in PAW spheres
   LVEL    =     F    velocity operator in full k-point grid
   LINTERFAST=   F  fast interpolation
   KINTER  =     0    interpolate to denser k-point grid
   CSHIFT  =0.1000    complex shift for real part using Kramers Kronig
   OMEGAMAX=  -1.0    maximum frequency
   DEG_THRESHOLD= 0.2000000E-02 threshold for treating states as degnerate
   RTIME   =   -0.100 relaxation time in fs
  (WPLASMAI=    0.000 imaginary part of plasma frequency in eV, 0.658/RTIME)
   DFIELD  = 0.0000000 0.0000000 0.0000000 field for delta impulse in time
 
 Orbital magnetization related:
   ORBITALMAG=     F  switch on orbital magnetization
   LCHIMAG   =     F  perturbation theory with respect to B field
   DQ        =  0.001000  dq finite difference perturbation B field
   LLRAUG    =     F  two centre corrections for induced B field



--------------------------------------------------------------------------------------------------------


 Static calculation
 charge density and potential will be updated during run
 spin polarized calculation
 Variant of blocked Davidson
 Davidson routine will perform the subspace rotation
 perform sub-space diagonalisation
    after iterative eigenvector-optimisation
 modified Broyden-mixing scheme, WC =      100.0
 initial mixing is a Kerker type mixing with AMIX =  0.4000 and BMIX =      1.0000
 Hartree-type preconditioning will be used
 using additional bands            7
 reciprocal scheme for non local part
 use partial core corrections
 calculate Harris-corrections to forces 
   (improved forces if not selfconsistent)
 use gradient corrections 
 use of overlap-Matrix (Vanderbilt PP)
 Methfessel and Paxton  Order N= 1 SIGMA  =   0.20


--------------------------------------------------------------------------------------------------------


  energy-cutoff  :      270.00
  volume of cell :       12.66
      direct lattice vectors                 reciprocal lattice vectors
     0.000000000  1.850000000  1.850000000    -0.270270270  0.270270270  0.270270270
     1.850000000  0.000000000  1.850000000     0.270270270 -0.270270270  0.270270270
     1.850000000  1.850000000  0.000000000     0.270270270  0.270270270 -0.270270270

  length of vectors
     2.616295090  2.616295090  2.616295090     0.468121840  0.468121840  0.468121840


 
 k-points in units of 2pi/SCALE and weight: 10x10x10                                
   0.05000000  0.05000000  0.05000000       0.002
  -0.05000000  0.15000000  0.15000000       0.006
  -0.15000000  0.25000000  0.25000000       0.006
  -0.25000000  0.35000000  0.35000000       0.006
  -0.35000000  0.45000000  0.45000000       0.006
   0.55000000 -0.45000000 -0.45000000       0.006
   0.45000000 -0.35000000 -0.35000000       0.006
   0.35000000 -0.25000000 -0.25000000       0.006
   0.25000000 -0.15000000 -0.15000000       0.006
   0.15000000 -0.05000000 -0.05000000       0.006
   0.05000000  0.05000000  0.25000000       0.006
  -0.05000000  0.15000000  0.35000000       0.012
  -0.15000000  0.25000000  0.45000000       0.012
  -0.25000000  0.35000000  0.55000000       0.012
   0.65000000 -0.55000000 -0.35000000       0.012
   0.55000000 -0.45000000 -0.25000000       0.012
   0.45000000 -0.35000000 -0.15000000       0.012
   0.35000000 -0.25000000 -0.05000000       0.012
   0.25000000 -0.15000000  0.05000000       0.012
   0.05000000  0.05000000  0.45000000       0.006
  -0.05000000  0.15000000  0.55000000       0.012
  -0.15000000  0.25000000  0.65000000       0.012
   0.75000000 -0.65000000 -0.25000000       0.012
   0.65000000 -0.55000000 -0.15000000       0.012
   0.55000000 -0.45000000 -0.05000000       0.012
   0.45000000 -0.35000000  0.05000000       0.012
   0.35000000 -0.25000000  0.15000000       0.012
   0.05000000  0.05000000  0.65000000       0.006
  -0.05000000  0.15000000  0.75000000       0.012
   0.85000000 -0.75000000 -0.15000000       0.012
   0.75000000 -0.65000000 -0.05000000       0.012
   0.65000000 -0.55000000  0.05000000       0.012
   0.55000000 -0.45000000  0.15000000       0.012
   0.45000000 -0.35000000  0.25000000       0.012
   0.05000000  0.05000000  0.85000000       0.006
   0.95000000 -0.85000000 -0.05000000       0.012
   0.85000000 -0.75000000  0.05000000       0.012
   0.75000000 -0.65000000  0.15000000       0.012
   0.65000000 -0.55000000  0.25000000       0.012
   0.55000000 -0.45000000  0.35000000       0.012
   0.05000000  0.05000000 -0.95000000       0.006
  -0.05000000  0.15000000 -0.85000000       0.012
  -0.15000000  0.25000000 -0.75000000       0.012
  -0.25000000  0.35000000 -0.65000000       0.012
   0.05000000  0.05000000 -0.75000000       0.006
  -0.05000000  0.15000000 -0.65000000       0.012
  -0.15000000  0.25000000 -0.55000000       0.012
   0.05000000  0.05000000 -0.55000000       0.006
  -0.05000000  0.15000000 -0.45000000       0.012
   0.05000000  0.05000000 -0.35000000       0.006
   0.15000000  0.15000000  0.15000000       0.002
   0.05000000  0.25000000  0.25000000       0.006
  -0.05000000  0.35000000  0.35000000       0.006
  -0.15000000  0.45000000  0.45000000       0.006
   0.75000000 -0.45000000 -0.45000000       0.006
   0.65000000 -0.35000000 -0.35000000       0.006
   0.55000000 -0.25000000 -0.25000000       0.006
   0.45000000 -0.15000000 -0.15000000       0.006
   0.15000000  0.15000000  0.35000000       0.006
   0.05000000  0.25000000  0.45000000       0.012
  -0.05000000  0.35000000  0.55000000       0.012
   0.85000000 -0.55000000 -0.35000000       0.012
   0.75000000 -0.45000000 -0.25000000       0.012
   0.65000000 -0.35000000 -0.15000000       0.012
   0.55000000 -0.25000000 -0.05000000       0.012
   0.15000000  0.15000000  0.55000000       0.006
   0.05000000  0.25000000  0.65000000       0.012
   0.95000000 -0.65000000 -0.25000000       0.012
   0.85000000 -0.55000000 -0.15000000       0.012
   0.75000000 -0.45000000 -0.05000000       0.012
   0.65000000 -0.35000000  0.05000000       0.012
   0.15000000  0.15000000  0.75000000       0.006
   1.05000000 -0.75000000 -0.15000000       0.012
   0.95000000 -0.65000000 -0.05000000       0.012
   0.85000000 -0.55000000  0.05000000       0.012
   0.75000000 -0.45000000  0.15000000       0.012
   0.15000000  0.15000000 -1.05000000       0.006
   0.05000000  0.25000000 -0.95000000       0.012
  -0.05000000  0.35000000 -0.85000000       0.012
   0.15000000  0.15000000 -0.85000000       0.006
   0.05000000  0.25000000 -0.75000000       0.012
   0.15000000  0.15000000 -0.65000000       0.006
   0.25000000  0.25000000  0.25000000       0.002
   0.15000000  0.35000000  0.35000000       0.006
   0.05000000  0.45000000  0.45000000       0.006
   0.95000000 -0.45000000 -0.45000000       0.006
   0.85000000 -0.35000000 -0.35000000       0.006
   0.75000000 -0.25000000 -0.25000000       0.006
   0.25000000  0.25000000  0.45000000       0.006
   0.15000000  0.35000000  0.55000000       0.012
   1.05000000 -0.55000000 -0.35000000       0.012
   0.95000000 -0.45000000 -0.25000000       0.012
   0.85000000 -0.35000000 -0.15000000       0.012
   0.25000000  0.25000000  0.65000000       0.006
   1.15000000 -0.65000000 -0.25000000       0.012
   1.05000000 -0.55000000 -0.15000000       0.012
   0.95000000 -0.45000000 -0.05000000       0.012
   0.25000000  0.25000000 -1.15000000       0.006
   0.15000000  0.35000000 -1.05000000       0.012
   0.25000000  0.25000000 -0.95000000       0.006
   0.35000000  0.35000000  0.35000000       0.002
   0.25000000  0.45000000  0.45000000       0.006
   1.15000000 -0.45000000 -0.45000000       0.006
   1.05000000 -0.35000000 -0.35000000       0.006
   0.35000000  0.35000000  0.55000000       0.006
   1.25000000 -0.55000000 -0.35000000       0.012
   1.15000000 -0.45000000 -0.25000000       0.012
   0.35000000  0.35000000 -1.25000000       0.006
   0.45000000  0.45000000  0.45000000       0.002
   1.35000000 -0.45000000 -0.45000000       0.006
 
 k-points in reciprocal lattice and weights: 10x10x10                                
   0.05000000  0.05000000  0.05000000       0.002
   0.15000000  0.05000000  0.05000000       0.006
   0.25000000  0.05000000  0.05000000       0.006
   0.35000000  0.05000000  0.05000000       0.006
   0.45000000  0.05000000  0.05000000       0.006
  -0.45000000  0.05000000  0.05000000       0.006
  -0.35000000  0.05000000  0.05000000       0.006
  -0.25000000  0.05000000  0.05000000       0.006
  -0.15000000  0.05000000  0.05000000       0.006
  -0.05000000  0.05000000  0.05000000       0.006
   0.15000000  0.15000000  0.05000000       0.006
   0.25000000  0.15000000  0.05000000       0.012
   0.35000000  0.15000000  0.05000000       0.012
   0.45000000  0.15000000  0.05000000       0.012
  -0.45000000  0.15000000  0.05000000       0.012
  -0.35000000  0.15000000  0.05000000       0.012
  -0.25000000  0.15000000  0.05000000       0.012
  -0.15000000  0.15000000  0.05000000       0.012
  -0.05000000  0.15000000  0.05000000       0.012
   0.25000000  0.25000000  0.05000000       0.006
   0.35000000  0.25000000  0.05000000       0.012
   0.45000000  0.25000000  0.05000000       0.012
  -0.45000000  0.25000000  0.05000000       0.012
  -0.35000000  0.25000000  0.05000000       0.012
  -0.25000000  0.25000000  0.05000000       0.012
  -0.15000000  0.25000000  0.05000000       0.012
  -0.05000000  0.25000000  0.05000000       0.012
   0.35000000  0.35000000  0.05000000       0.006
   0.45000000  0.35000000  0.05000000       0.012
  -0.45000000  0.35000000  0.05000000       0.012
  -0.35000000  0.35000000  0.05000000       0.012
  -0.25000000  0.35000000  0.05000000       0.012
  -0.15000000  0.35000000  0.05000000       0.012
  -0.05000000  0.35000000  0.05000000       0.012
   0.45000000  0.45000000  0.05000000       0.006
  -0.45000000  0.45000000  0.05000000       0.012
  -0.35000000  0.45000000  0.05000000       0.012
  -0.25000000  0.45000000  0.05000000       0.012
  -0.15000000  0.45000000  0.05000000       0.012
  -0.05000000  0.45000000  0.05000000       0.012
  -0.45000000 -0.45000000  0.05000000       0.006
  -0.35000000 -0.45000000  0.05000000       0.012
  -0.25000000 -0.45000000  0.05000000       0.012
  -0.15000000 -0.45000000  0.05000000       0.012
  -0.35000000 -0.35000000  0.05000000       0.006
  -0.25000000 -0.35000000  0.05000000       0.012
  -0.15000000 -0.35000000  0.05000000       0.012
  -0.25000000 -0.25000000  0.05000000       0.006
  -0.15000000 -0.25000000  0.05000000       0.012
  -0.15000000 -0.15000000  0.05000000       0.006
   0.15000000  0.15000000  0.15000000       0.002
   0.25000000  0.15000000  0.15000000       0.006
   0.35000000  0.15000000  0.15000000       0.006
   0.45000000  0.15000000  0.15000000       0.006
  -0.45000000  0.15000000  0.15000000       0.006
  -0.35000000  0.15000000  0.15000000       0.006
  -0.25000000  0.15000000  0.15000000       0.006
  -0.15000000  0.15000000  0.15000000       0.006
   0.25000000  0.25000000  0.15000000       0.006
   0.35000000  0.25000000  0.15000000       0.012
   0.45000000  0.25000000  0.15000000       0.012
  -0.45000000  0.25000000  0.15000000       0.012
  -0.35000000  0.25000000  0.15000000       0.012
  -0.25000000  0.25000000  0.15000000       0.012
  -0.15000000  0.25000000  0.15000000       0.012
   0.35000000  0.35000000  0.15000000       0.006
   0.45000000  0.35000000  0.15000000       0.012
  -0.45000000  0.35000000  0.15000000       0.012
  -0.35000000  0.35000000  0.15000000       0.012
  -0.25000000  0.35000000  0.15000000       0.012
  -0.15000000  0.35000000  0.15000000       0.012
   0.45000000  0.45000000  0.15000000       0.006
  -0.45000000  0.45000000  0.15000000       0.012
  -0.35000000  0.45000000  0.15000000       0.012
  -0.25000000  0.45000000  0.15000000       0.012
  -0.15000000  0.45000000  0.15000000       0.012
  -0.45000000 -0.45000000  0.15000000       0.006
  -0.35000000 -0.45000000  0.15000000       0.012
  -0.25000000 -0.45000000  0.15000000       0.012
  -0.35000000 -0.35000000  0.15000000       0.006
  -0.25000000 -0.35000000  0.15000000       0.012
  -0.25000000 -0.25000000  0.15000000       0.006
   0.25000000  0.25000000  0.25000000       0.002
   0.35000000  0.25000000  0.25000000       0.006
   0.45000000  0.25000000  0.25000000       0.006
  -0.45000000  0.25000000  0.25000000       0.006
  -0.35000000  0.25000000  0.25000000       0.006
  -0.25000000  0.25000000  0.25000000       0.006
   0.35000000  0.35000000  0.25000000       0.006
   0.45000000  0.35000000  0.25000000       0.012
  -0.45000000  0.35000000  0.25000000       0.012
  -0.35000000  0.35000000  0.25000000       0.012
  -0.25000000  0.35000000  0.25000000       0.012
   0.45000000  0.45000000  0.25000000       0.006
  -0.45000000  0.45000000  0.25000000       0.012
  -0.35000000  0.45000000  0.25000000       0.012
  -0.25000000  0.45000000  0.25000000       0.012
  -0.45000000 -0.45000000  0.25000000       0.006
  -0.35000000 -0.45000000  0.25000000       0.012
  -0.35000000 -0.35000000  0.25000000       0.006
   0.35000000  0.35000000  0.35000000       0.002
   0.45000000  0.35000000  0.35000000       0.006
  -0.45000000  0.35000000  0.35000000       0.006
  -0.35000000  0.35000000  0.35000000       0.006
   0.45000000  0.45000000  0.35000000       0.006
  -0.45000000  0.45000000  0.35000000       0.012
  -0.35000000  0.45000000  0.35000000       0.012
  -0.45000000 -0.45000000  0.35000000       0.006
   0.45000000  0.45000000  0.45000000       0.002
  -0.45000000  0.45000000  0.45000000       0.006
 
 position of ions in fractional coordinates (direct lattice) 
   0.00000000  0.00000000  0.00000000
 
 position of ions in cartesian coordinates  (Angst):
   0.00000000  0.00000000  0.00000000
 


--------------------------------------------------------------------------------------------------------


 k-point  1 :   0.0500 0.0500 0.0500  plane waves:     134
 k-point  2 :   0.1500 0.0500 0.0500  plane waves:     129
 k-point  3 :   0.2500 0.0500 0.0500  plane waves:     132
 k-point  4 :   0.3500 0.0500 0.0500  plane waves:     133
 k-point  5 :   0.4500 0.0500 0.0500  plane waves:     127
 k-point  6 :  -0.4500 0.0500 0.0500  plane waves:     127
 k-point  7 :  -0.3500 0.0500 0.0500  plane waves:     128
 k-point  8 :  -0.2500 0.0500 0.0500  plane waves:     133
 k-point  9 :  -0.1500 0.0500 0.0500  plane waves:     129
 k-point 10 :  -0.0500 0.0500 0.0500  plane waves:     129
 k-point 11 :   0.1500 0.1500 0.0500  plane waves:     130
 k-point 12 :   0.2500 0.1500 0.0500  plane waves:     134
 k-point 13 :   0.3500 0.1500 0.0500  plane waves:     133
 k-point 14 :   0.4500 0.1500 0.0500  plane waves:     128
 k-point 15 :  -0.4500 0.1500 0.0500  plane waves:     127
 k-point 16 :  -0.3500 0.1500 0.0500  plane waves:     127
 k-point 17 :  -0.2500 0.1500 0.0500  plane waves:     133
 k-point 18 :  -0.1500 0.1500 0.0500  plane waves:     134
 k-point 19 :  -0.0500 0.1500 0.0500  plane waves:     131
 k-point 20 :   0.2500 0.2500 0.0500  plane waves:     132
 k-point 21 :   0.3500 0.2500 0.0500  plane waves:     129
 k-point 22 :   0.4500 0.2500 0.0500  plane waves:     128
 k-point 23 :  -0.4500 0.2500 0.0500  plane waves:     126
 k-point 24 :  -0.3500 0.2500 0.0500  plane waves:     128
 k-point 25 :  -0.2500 0.2500 0.0500  plane waves:     131
 k-point 26 :  -0.1500 0.2500 0.0500  plane waves:     132
 k-point 27 :  -0.0500 0.2500 0.0500  plane waves:     135
 k-point 28 :   0.3500 0.3500 0.0500  plane waves:     129
 k-point 29 :   0.4500 0.3500 0.0500  plane waves:     126
 k-point 30 :  -0.4500 0.3500 0.0500  plane waves:     126
 k-point 31 :  -0.3500 0.3500 0.0500  plane waves:     124
 k-point 32 :  -0.2500 0.3500 0.0500  plane waves:     125
 k-point 33 :  -0.1500 0.3500 0.0500  plane waves:     130
 k-point 34 :  -0.0500 0.3500 0.0500  plane waves:     132
 k-point 35 :   0.4500 0.4500 0.0500  plane waves:     123
 k-point 36 :  -0.4500 0.4500 0.0500  plane waves:     121
 k-point 37 :  -0.3500 0.4500 0.0500  plane waves:     125
 k-point 38 :  -0.2500 0.4500 0.0500  plane waves:     125
 k-point 39 :  -0.1500 0.4500 0.0500  plane waves:     126
 k-point 40 :  -0.0500 0.4500 0.0500  plane waves:     126
 k-point 41 :  -0.4500-0.4500 0.0500  plane waves:     119
 k-point 42 :  -0.3500-0.4500 0.0500  plane waves:     124
 k-point 43 :  -0.2500-0.4500 0.0500  plane waves:     126
 k-point 44 :  -0.1500-0.4500 0.0500  plane waves:     128
 k-point 45 :  -0.3500-0.3500 0.0500  plane waves:     129
 k-point 46 :  -0.2500-0.3500 0.0500  plane waves:     129
 k-point 47 :  -0.1500-0.3500 0.0500  plane waves:     132
 k-point 48 :  -0.2500-0.2500 0.0500  plane waves:     130
 k-point 49 :  -0.1500-0.2500 0.0500  plane waves:     131
 k-point 50 :  -0.1500-0.1500 0.0500  plane waves:     130
 k-point 51 :   0.1500 0.1500 0.1500  plane waves:     129
 k-point 52 :   0.2500 0.1500 0.1500  plane waves:     133
 k-point 53 :   0.3500 0.1500 0.1500  plane waves:     135
 k-point 54 :   0.4500 0.1500 0.1500  plane waves:     131
 k-point 55 :  -0.4500 0.1500 0.1500  plane waves:     127
 k-point 56 :  -0.3500 0.1500 0.1500  plane waves:     125
 k-point 57 :  -0.2500 0.1500 0.1500  plane waves:     130
 k-point 58 :  -0.1500 0.1500 0.1500  plane waves:     136
 k-point 59 :   0.2500 0.2500 0.1500  plane waves:     132
 k-point 60 :   0.3500 0.2500 0.1500  plane waves:     133
 k-point 61 :   0.4500 0.2500 0.1500  plane waves:     127
 k-point 62 :  -0.4500 0.2500 0.1500  plane waves:     128
 k-point 63 :  -0.3500 0.2500 0.1500  plane waves:     124
 k-point 64 :  -0.2500 0.2500 0.1500  plane waves:     129
 k-point 65 :  -0.1500 0.2500 0.1500  plane waves:     132
 k-point 66 :   0.3500 0.3500 0.1500  plane waves:     132
 k-point 67 :   0.4500 0.3500 0.1500  plane waves:     126
 k-point 68 :  -0.4500 0.3500 0.1500  plane waves:     124
 k-point 69 :  -0.3500 0.3500 0.1500  plane waves:     123
 k-point 70 :  -0.2500 0.3500 0.1500  plane waves:     125
 k-point 71 :  -0.1500 0.3500 0.1500  plane waves:     129
 k-point 72 :   0.4500 0.4500 0.1500  plane waves:     124
 k-point 73 :  -0.4500 0.4500 0.1500  plane waves:     125
 k-point 74 :  -0.3500 0.4500 0.1500  plane waves:     124
 k-point 75 :  -0.2500 0.4500 0.1500  plane waves:     124
 k-point 76 :  -0.1500 0.4500 0.1500  plane waves:     123
 k-point 77 :  -0.4500-0.4500 0.1500  plane waves:     125
 k-point 78 :  -0.3500-0.4500 0.1500  plane waves:     124
 k-point 79 :  -0.2500-0.4500 0.1500  plane waves:     125
 k-point 80 :  -0.3500-0.3500 0.1500  plane waves:     125
 k-point 81 :  -0.2500-0.3500 0.1500  plane waves:     126
 k-point 82 :  -0.2500-0.2500 0.1500  plane waves:     130
 k-point 83 :   0.2500 0.2500 0.2500  plane waves:     132
 k-point 84 :   0.3500 0.2500 0.2500  plane waves:     134
 k-point 85 :   0.4500 0.2500 0.2500  plane waves:     131
 k-point 86 :  -0.4500 0.2500 0.2500  plane waves:     128
 k-point 87 :  -0.3500 0.2500 0.2500  plane waves:     125
 k-point 88 :  -0.2500 0.2500 0.2500  plane waves:     124
 k-point 89 :   0.3500 0.3500 0.2500  plane waves:     132
 k-point 90 :   0.4500 0.3500 0.2500  plane waves:     131
 k-point 91 :  -0.4500 0.3500 0.2500  plane waves:     129
 k-point 92 :  -0.3500 0.3500 0.2500  plane waves:     124
 k-point 93 :  -0.2500 0.3500 0.2500  plane waves:     124
 k-point 94 :   0.4500 0.4500 0.2500  plane waves:     128
 k-point 95 :  -0.4500 0.4500 0.2500  plane waves:     127
 k-point 96 :  -0.3500 0.4500 0.2500  plane waves:     121
 k-point 97 :  -0.2500 0.4500 0.2500  plane waves:     119
 k-point 98 :  -0.4500-0.4500 0.2500  plane waves:     128
 k-point 99 :  -0.3500-0.4500 0.2500  plane waves:     124
 k-point ** :  -0.3500-0.3500 0.2500  plane waves:     126
 k-point ** :   0.3500 0.3500 0.3500  plane waves:     138
 k-point ** :   0.4500 0.3500 0.3500  plane waves:     131
 k-point ** :  -0.4500 0.3500 0.3500  plane waves:     129
 k-point ** :  -0.3500 0.3500 0.3500  plane waves:     124
 k-point ** :   0.4500 0.4500 0.3500  plane waves:     129
 k-point ** :  -0.4500 0.4500 0.3500  plane waves:     125
 k-point ** :  -0.3500 0.4500 0.3500  plane waves:     124
 k-point ** :  -0.4500-0.4500 0.3500  plane waves:     125
 k-point ** :   0.4500 0.4500 0.4500  plane waves:     123
 k-point ** :  -0.4500 0.4500 0.4500  plane waves:     129

 maximum and minimum number of plane-waves per node :       138      119

 maximum number of plane-waves:       138
 maximum index in each direction: 
   IXMAX=    3   IYMAX=    3   IZMAX=    3
   IXMIN=   -3   IYMIN=   -3   IZMIN=   -3


 serial   3D FFT for wavefunctions
 parallel 3D FFT for charge:
    minimum data exchange during FFTs selected (reduces bandwidth)


 total amount of memory used by VASP MPI-rank0    34729. kBytes
=======================================================================

   base      :      30000. kBytes
   nonl-proj :       2219. kBytes
   fftplans  :        238. kBytes
   grid      :        552. kBytes
   one-center:         31. kBytes
   wavefun   :       1689. kBytes
 
     INWAV:  cpu time    0.0001: real time    0.0002
 Broyden mixing: mesh for mixing (old mesh)
   NGX =  7   NGY =  7   NGZ =  7
  (NGX  = 24   NGY  = 24   NGZ  = 24)
  gives a total of    343 points

 initial charge density was supplied:
 charge density of overlapping atoms calculated
 number of electron      10.0000000 magnetization       3.0000000
 keeping initial charge density in first step


--------------------------------------------------------------------------------------------------------


 Maximum index for augmentation-charges         1081 (set IRDMAX)


--------------------------------------------------------------------------------------------------------


 First call to EWALD:  gamma=   0.760
 Maximum number of real-space cells 3x 3x 3
 Maximum number of reciprocal cells 3x 3x 3

    FEWALD:  cpu time    0.0010: real time    0.0010


--------------------------------------- Iteration      1(   1)  ---------------------------------------


    POTLOK:  cpu time    0.0046: real time    0.0064
    SETDIJ:  cpu time    0.0035: real time    0.0037
     EDDAV:  cpu time    0.3201: real time    0.3269
       DOS:  cpu time    0.0020: real time    0.0020
    --------------------------------------------
      LOOP:  cpu time    0.3302: real time    0.3390

 eigenvalue-minimisations  :  5852
 total energy-change (2. order) : 0.1903466E+02  (-0.2988044E+03)
 number of electron      10.0000000 magnetization       3.0000000
 augmentation part       10.0000000 magnetization       3.0000000

 Free energy of the ion-electron system (eV)
  ---------------------------------------------------
  alpha Z        PSCENC =        40.27354826
  Ewald energy   TEWEN  =      -892.17618983
  -Hartree energ DENC   =      -267.84949076
  -exchange      EXHF   =         0.00000000
  -V(xc)+E(xc)   XCENC  =        32.28511189
  PAW double counting   =       961.92645289    -1028.66799202
  entropy T*S    EENTRO =         0.00002965
  eigenvalues    EBANDS =        95.60711036
  atomic energy  EATOM  =      1077.63607467
  Solvation  Ediel_sol  =         0.00000000
  ---------------------------------------------------
  free energy    TOTEN  =        19.03465511 eV

  energy without entropy =       19.03462546  energy(sigma->0) =       19.03464522


--------------------------------------------------------------------------------------------------------




--------------------------------------- Iteration      1(   2)  ---------------------------------------


     EDDAV:  cpu time    0.3056: real time    0.3122
       DOS:  cpu time    0.0020: real time    0.0020
    --------------------------------------------
      LOOP:  cpu time    0.3076: real time    0.3142

 eigenvalue-minimisations  :  5708
 total energy-change (2. order) :-0.2434331E+02  (-0.2265761E+02)
 number of electron      10.0000000 magnetization       3.0000000
 augmentation part       10.0000000 magnetization       3.0000000

 Free energy of the ion-electron system (eV)
  ---------------------------------------------------
  alpha Z        PSCENC =        40.27354826
  Ewald energy   TEWEN  =      -892.17618983
  -Hartree energ DENC   =      -267.84949076
  -exchange      EXHF   =         0.00000000
  -V(xc)+E(xc)   XCENC  =        32.28511189
  PAW double counting   =       961.92645289    -1028.66799202
  entropy T*S    EENTRO =         0.00143926
  eigenvalues    EBANDS =        71.26239239
  atomic energy  EATOM  =      1077.63607467
  Solvation  Ediel_sol  =         0.00000000
  ---------------------------------------------------
  free energy    TOTEN  =        -5.30865325 eV

  energy without entropy =       -5.31009251  energy(sigma->0) =       -5.30913300


--------------------------------------------------------------------------------------------------------




--------------------------------------- Iteration      1(   3)  ---------------------------------------


     EDDAV:  cpu time    0.3201: real time    0.3270
       DOS:  cpu time    0.0020: real time    0.0020
    --------------------------------------------
      LOOP:  cpu time    0.3221: real time    0.3289

 eigenvalue-minimisations  :  6136
 total energy-change (2. order) :-0.4817361E+00  (-0.4788777E+00)
 number of electron      10.0000000 magnetization       3.0000000
 augmentation part       10.0000000 magnetization       3.0000000

 Free energy of the ion-electron system (eV)
  ---------------------------------------------------
  alpha Z        PSCENC =        40.27354826
  Ewald energy   TEWEN  =      -892.17618983
  -Hartree energ DENC   =      -267.84949076
  -exchange      EXHF   =         0.00000000
  -V(xc)+E(xc)   XCENC  =        32.28511189
  PAW double counting   =       961.92645289    -1028.66799202
  entropy T*S    EENTRO =         0.00042169
  eigenvalues    EBANDS =        70.78167384
  atomic energy  EATOM  =      1077.63607467
  Solvation  Ediel_sol  =         0.00000000
  ---------------------------------------------------
  free energy    TOTEN  =        -5.79038937 eV

  energy without entropy =       -5.79081106  energy(sigma->0) =       -5.79052993


--------------------------------------------------------------------------------------------------------




--------------------------------------- Iteration      1(   4)  ---------------------------------------


     EDDAV:  cpu time    0.3166: real time    0.3235
       DOS:  cpu time    0.0020: real time    0.0020
    --------------------------------------------
      LOOP:  cpu time    0.3186: real time    0.3255

 eigenvalue-minimisations  :  5988
 total energy-change (2. order) :-0.2663613E-02  (-0.2663383E-02)
 number of electron      10.0000000 magnetization       3.0000000
 augmentation part       10.0000000 magnetization       3.0000000

 Free energy of the ion-electron system (eV)
  ---------------------------------------------------
  alpha Z        PSCENC =        40.27354826
  Ewald energy   TEWEN  =      -892.17618983
  -Hartree energ DENC   =      -267.84949076
  -exchange      EXHF   =         0.00000000
  -V(xc)+E(xc)   XCENC  =        32.28511189
  PAW double counting   =       961.92645289    -1028.66799202
  entropy T*S    EENTRO =         0.00042499
  eigenvalues    EBANDS =        70.77900693
  atomic energy  EATOM  =      1077.63607467
  Solvation  Ediel_sol  =         0.00000000
  ---------------------------------------------------
  free energy    TOTEN  =        -5.79305298 eV

  energy without entropy =       -5.79347797  energy(sigma->0) =       -5.79319465


--------------------------------------------------------------------------------------------------------




--------------------------------------- Iteration      1(   5)  ---------------------------------------


     EDDAV:  cpu time    0.3194: real time    0.3262
       DOS:  cpu time    0.0021: real time    0.0021
    CHARGE:  cpu time    0.0058: real time    0.0059
    MIXING:  cpu time    0.0003: real time    0.0003
    --------------------------------------------
      LOOP:  cpu time    0.3276: real time    0.3345

 eigenvalue-minimisations  :  6076
 total energy-change (2. order) :-0.4056888E-04  (-0.4056919E-04)
 number of electron       9.9999959 magnetization       0.7305785
 augmentation part        5.5422094 magnetization       0.4931000

 Broyden mixing:
  rms(total) = 0.12614E+01    rms(broyden)= 0.12612E+01
  rms(prec ) = 0.34708E+01
  weight for this iteration     100.00

 Free energy of the ion-electron system (eV)
  ---------------------------------------------------
  alpha Z        PSCENC =        40.27354826
  Ewald energy   TEWEN  =      -892.17618983
  -Hartree energ DENC   =      -267.84949076
  -exchange      EXHF   =         0.00000000
  -V(xc)+E(xc)   XCENC  =        32.28511189
  PAW double counting   =       961.92645289    -1028.66799202
  entropy T*S    EENTRO =         0.00042502
  eigenvalues    EBANDS =        70.77896632
  atomic energy  EATOM  =      1077.63607467
  Solvation  Ediel_sol  =         0.00000000
  ---------------------------------------------------
  free energy    TOTEN  =        -5.79309355 eV

  energy without entropy =       -5.79351857  energy(sigma->0) =       -5.79323523


--------------------------------------------------------------------------------------------------------




--------------------------------------- Iteration      1(   6)  ---------------------------------------


    POTLOK:  cpu time    0.0045: real time    0.0046
    SETDIJ:  cpu time    0.0033: real time    0.0034
     EDDAV:  cpu time    0.3295: real time    0.3362
       DOS:  cpu time    0.0021: real time    0.0021
    CHARGE:  cpu time    0.0054: real time    0.0054
    MIXING:  cpu time    0.0003: real time    0.0004
    --------------------------------------------
      LOOP:  cpu time    0.3452: real time    0.3520

 eigenvalue-minimisations  :  6336
 total energy-change (2. order) :-0.1973659E+00  (-0.1708447E+01)
 number of electron       9.9999953 magnetization       0.5820050
 augmentation part        6.6653508 magnetization       0.6286758

 Broyden mixing:
  rms(total) = 0.80783E+00    rms(broyden)= 0.80773E+00
  rms(prec ) = 0.22250E+01
  weight for this iteration     100.00

 eigenvalues of (default mixing * dielectric matrix)
  average eigenvalue GAMMA=   0.8544
  0.8544

 Free energy of the ion-electron system (eV)
  ---------------------------------------------------
  alpha Z        PSCENC =        40.27354826
  Ewald energy   TEWEN  =      -892.17618983
  -Hartree energ DENC   =      -240.01748914
  -exchange      EXHF   =         0.00000000
  -V(xc)+E(xc)   XCENC  =        29.99992579
  PAW double counting   =       988.85591244    -1050.55988547
  entropy T*S    EENTRO =        -0.00639486
  eigenvalues    EBANDS =        40.00403865
  atomic energy  EATOM  =      1077.63607467
  Solvation  Ediel_sol  =         0.00000000
  ---------------------------------------------------
  free energy    TOTEN  =        -5.99045950 eV

  energy without entropy =       -5.98406464  energy(sigma->0) =       -5.98832788


--------------------------------------------------------------------------------------------------------




--------------------------------------- Iteration      1(   7)  ---------------------------------------


    POTLOK:  cpu time    0.0046: real time    0.0047
    SETDIJ:  cpu time    0.0033: real time    0.0033
     EDDAV:  cpu time    0.3281: real time    0.3346
       DOS:  cpu time    0.0021: real time    0.0021
    CHARGE:  cpu time    0.0057: real time    0.0057
    MIXING:  cpu time    0.0003: real time    0.0003
    --------------------------------------------
      LOOP:  cpu time    0.3442: real time    0.3509

 eigenvalue-minimisations  :  6332
 total energy-change (2. order) : 0.6493368E+00  (-0.4640186E+00)
 number of electron       9.9999955 magnetization       0.6782718
 augmentation part        6.1697455 magnetization       0.6682599

 Broyden mixing:
  rms(total) = 0.13115E+00    rms(broyden)= 0.13104E+00
  rms(prec ) = 0.25136E+00
  weight for this iteration     100.00

 eigenvalues of (default mixing * dielectric matrix)
  average eigenvalue GAMMA=   0.7783
  0.9357  0.6209

 Free energy of the ion-electron system (eV)
  ---------------------------------------------------
  alpha Z        PSCENC =        40.27354826
  Ewald energy   TEWEN  =      -892.17618983
  -Hartree energ DENC   =      -250.81390937
  -exchange      EXHF   =         0.00000000
  -V(xc)+E(xc)   XCENC  =        30.48411234
  PAW double counting   =      1019.33567738    -1085.36403728
  entropy T*S    EENTRO =        -0.00402423
  eigenvalues    EBANDS =        55.28762534
  atomic energy  EATOM  =      1077.63607467
  Solvation  Ediel_sol  =         0.00000000
  ---------------------------------------------------
  free energy    TOTEN  =        -5.34112272 eV

  energy without entropy =       -5.33709849  energy(sigma->0) =       -5.33978131


--------------------------------------------------------------------------------------------------------




--------------------------------------- Iteration      1(   8)  ---------------------------------------


    POTLOK:  cpu time    0.0044: real time    0.0045
    SETDIJ:  cpu time    0.0032: real time    0.0032
     EDDAV:  cpu time    0.3302: real time    0.3373
       DOS:  cpu time    0.0021: real time    0.0021
    CHARGE:  cpu time    0.0057: real time    0.0057
    MIXING:  cpu time    0.0003: real time    0.0003
    --------------------------------------------
      LOOP:  cpu time    0.3459: real time    0.3532

 eigenvalue-minimisations  :  6040
 total energy-change (2. order) : 0.2866066E-02  (-0.1310673E-02)
 number of electron       9.9999955 magnetization       0.6548343
 augmentation part        6.1752404 magnetization       0.6238853

 Broyden mixing:
  rms(total) = 0.75203E-01    rms(broyden)= 0.75193E-01
  rms(prec ) = 0.16212E+00
  weight for this iteration     100.00

 eigenvalues of (default mixing * dielectric matrix)
  average eigenvalue GAMMA=   0.7865
  1.1186  0.5678  0.6730

 Free energy of the ion-electron system (eV)
  ---------------------------------------------------
  alpha Z        PSCENC =        40.27354826
  Ewald energy   TEWEN  =      -892.17618983
  -Hartree energ DENC   =      -249.72551452
  -exchange      EXHF   =         0.00000000
  -V(xc)+E(xc)   XCENC  =        30.43854529
  PAW double counting   =      1039.87532563    -1106.70059624
  entropy T*S    EENTRO =        -0.00417252
  eigenvalues    EBANDS =        55.04472261
  atomic energy  EATOM  =      1077.63607467
  Solvation  Ediel_sol  =         0.00000000
  ---------------------------------------------------
  free energy    TOTEN  =        -5.33825665 eV

  energy without entropy =       -5.33408414  energy(sigma->0) =       -5.33686581


--------------------------------------------------------------------------------------------------------




--------------------------------------- Iteration      1(   9)  ---------------------------------------


    POTLOK:  cpu time    0.0044: real time    0.0045
    SETDIJ:  cpu time    0.0033: real time    0.0033
     EDDAV:  cpu time    0.3207: real time    0.3273
       DOS:  cpu time    0.0021: real time    0.0021
    CHARGE:  cpu time    0.0057: real time    0.0057
    MIXING:  cpu time    0.0004: real time    0.0004
    --------------------------------------------
      LOOP:  cpu time    0.3365: real time    0.3433

 eigenvalue-minimisations  :  5880
 total energy-change (2. order) : 0.2186686E-02  (-0.1009870E-03)
 number of electron       9.9999955 magnetization       0.6389478
 augmentation part        6.1823955 magnetization       0.6089530

 Broyden mixing:
  rms(total) = 0.32093E-01    rms(broyden)= 0.32092E-01
  rms(prec ) = 0.92043E-01
  weight for this iteration     100.00

 eigenvalues of (default mixing * dielectric matrix)
  average eigenvalue GAMMA=   1.0542
  2.0190  0.9793  0.5806  0.6379

 Free energy of the ion-electron system (eV)
  ---------------------------------------------------
  alpha Z        PSCENC =        40.27354826
  Ewald energy   TEWEN  =      -892.17618983
  -Hartree energ DENC   =      -249.03941032
  -exchange      EXHF   =         0.00000000
  -V(xc)+E(xc)   XCENC  =        30.40253788
  PAW double counting   =      1051.99021677    -1119.23950382
  entropy T*S    EENTRO =        -0.00411128
  eigenvalues    EBANDS =        54.82076770
  atomic energy  EATOM  =      1077.63607467
  Solvation  Ediel_sol  =         0.00000000
  ---------------------------------------------------
  free energy    TOTEN  =        -5.33606997 eV

  energy without entropy =       -5.33195869  energy(sigma->0) =       -5.33469954


--------------------------------------------------------------------------------------------------------




--------------------------------------- Iteration      1(  10)  ---------------------------------------


    POTLOK:  cpu time    0.0044: real time    0.0045
    SETDIJ:  cpu time    0.0032: real time    0.0032
     EDDAV:  cpu time    0.3338: real time    0.3406
       DOS:  cpu time    0.0021: real time    0.0021
    CHARGE:  cpu time    0.0056: real time    0.0056
    MIXING:  cpu time    0.0003: real time    0.0004
    --------------------------------------------
      LOOP:  cpu time    0.3494: real time    0.3564

 eigenvalue-minimisations  :  6112
 total energy-change (2. order) : 0.1120891E-02  (-0.2350585E-03)
 number of electron       9.9999955 magnetization       0.6492360
 augmentation part        6.1937418 magnetization       0.6220744

 Broyden mixing:
  rms(total) = 0.56087E-02    rms(broyden)= 0.56044E-02
  rms(prec ) = 0.70817E-02
  weight for this iteration     100.00

 eigenvalues of (default mixing * dielectric matrix)
  average eigenvalue GAMMA=   1.1005
  2.2817  1.1308  0.8711  0.5956  0.6233

 Free energy of the ion-electron system (eV)
  ---------------------------------------------------
  alpha Z        PSCENC =        40.27354826
  Ewald energy   TEWEN  =      -892.17618983
  -Hartree energ DENC   =      -248.11872339
  -exchange      EXHF   =         0.00000000
  -V(xc)+E(xc)   XCENC  =        30.36173260
  PAW double counting   =      1068.19894540    -1135.96931660
  entropy T*S    EENTRO =        -0.00399287
  eigenvalues    EBANDS =        54.46297268
  atomic energy  EATOM  =      1077.63607467
  Solvation  Ediel_sol  =         0.00000000
  ---------------------------------------------------
  free energy    TOTEN  =        -5.33494907 eV

  energy without entropy =       -5.33095620  energy(sigma->0) =       -5.33361812


--------------------------------------------------------------------------------------------------------




--------------------------------------- Iteration      1(  11)  ---------------------------------------


    POTLOK:  cpu time    0.0044: real time    0.0045
    SETDIJ:  cpu time    0.0033: real time    0.0033
     EDDAV:  cpu time    0.2271: real time    0.2336
       DOS:  cpu time    0.0022: real time    0.0022
    --------------------------------------------
      LOOP:  cpu time    0.2370: real time    0.2435

 eigenvalue-minimisations  :  3020
 total energy-change (2. order) :-0.2004773E-04  (-0.2896219E-05)
 number of electron       9.9999955 magnetization       0.6492360
 augmentation part        6.1937418 magnetization       0.6220744

 Free energy of the ion-electron system (eV)
  ---------------------------------------------------
  alpha Z        PSCENC =        40.27354826
  Ewald energy   TEWEN  =      -892.17618983
  -Hartree energ DENC   =      -248.06790166
  -exchange      EXHF   =         0.00000000
  -V(xc)+E(xc)   XCENC  =        30.36177590
  PAW double counting   =      1070.04811411    -1137.85336707
  entropy T*S    EENTRO =        -0.00406623
  eigenvalues    EBANDS =        54.44704273
  atomic energy  EATOM  =      1077.63607467
  Solvation  Ediel_sol  =         0.00000000
  ---------------------------------------------------
  free energy    TOTEN  =        -5.33496912 eV

  energy without entropy =       -5.33090290  energy(sigma->0) =       -5.33361371


--------------------------------------------------------------------------------------------------------




 average (electrostatic) potential at core
  the test charge radii are     0.9791
  (the norm of the test charge is              1.0000)
       1 -83.7752
 
 
 
 E-fermi :   7.3962     XC(G=0): -12.3832     alpha+bet :-14.1444


 spin component 1

 k-point     1 :       0.0500    0.0500    0.0500
  band No.  band energies     occupation 
      1      -0.5193      1.00000
      2       5.2790      1.00000
      3       5.3137      1.00000
      4       5.3137      1.00000
      5       6.2310      1.00000
      6       6.2310      1.00000
      7      29.4425      0.00000
      8      31.3423      0.00000
      9      32.2658      0.00000
     10      32.2658      0.00000
     11      35.5742      0.00000
     12      35.5742      0.00000

 k-point     2 :       0.1500    0.0500    0.0500
  band No.  band energies     occupation 
      1      -0.0589      1.00000
      2       5.1772      1.00000
      3       5.3948      1.00000
      4       5.4091      1.00000
      5       6.1572      1.00000
      6       6.2549      1.00000
      7      26.8786      0.00000
      8      28.9753      0.00000
      9      31.5498      0.00000
     10      32.8910      0.00000
     11      35.6802      0.00000
     12      35.8372      0.00000

 k-point     3 :       0.2500    0.0500    0.0500
  band No.  band energies     occupation 
      1       1.0245      1.00000
      2       5.0344      1.00000
      3       5.4891      1.00000
      4       5.5080      1.00000
      5       6.1423      1.00000
      6       6.3438      1.00000
      7      21.9906      0.00000
      8      27.9717      0.00000
      9      31.0846      0.00000
     10      32.1844      0.00000
     11      35.2728      0.00000
     12      35.3761      0.00000

 k-point     4 :       0.3500    0.0500    0.0500
  band No.  band energies     occupation 
      1       2.4136      1.00000
      2       5.1758      1.00000
      3       5.4350      1.00000
      4       5.4703      1.00000
      5       6.3526      1.00000
      6       6.6008      1.00000
      7      17.4471      0.00000
      8      27.4378      0.00000
      9      30.0253      0.00000
     10      31.2626      0.00000
     11      33.3774      0.00000
     12      34.9528      0.00000

 k-point     5 :       0.4500    0.0500    0.0500
  band No.  band energies     occupation 
      1       3.2319      1.00000
      2       5.3324      1.00000
      3       5.3810      1.00000
      4       6.0991      1.00000
      5       6.6255      1.00000
      6       7.1049      1.02954
      7      13.6600      0.00000
      8      27.3890      0.00000
      9      29.1565      0.00000
     10      29.9071      0.00000
     11      32.8890      0.00000
     12      34.1611      0.00000

 k-point     6 :      -0.4500    0.0500    0.0500
  band No.  band energies     occupation 
      1       3.3552      1.00000
      2       5.2953      1.00000
      3       5.3556      1.00000
      4       6.4068      1.00000
      5       6.7549      1.00003
      6       7.7408     -0.01756
      7      12.1634     -0.00000
      8      27.7837      0.00000
      9      28.8289      0.00000
     10      28.9780      0.00000
     11      33.3810      0.00000
     12      33.5544      0.00000

 k-point     7 :      -0.3500    0.0500    0.0500
  band No.  band energies     occupation 
      1       3.0659      1.00000
      2       5.3533      1.00000
      3       5.4150      1.00000
      4       5.7221      1.00000
      5       6.6697      1.00000
      6       6.7730      1.00005
      7      14.8000      0.00000
      8      28.2926      0.00000
      9      28.4021      0.00000
     10      29.8687      0.00000
     11      33.4913      0.00000
     12      34.5996      0.00000

 k-point     8 :      -0.2500    0.0500    0.0500
  band No.  band energies     occupation 
      1       1.9602      1.00000
      2       5.0523      1.00000
      3       5.4638      1.00000
      4       5.4992      1.00000
      5       6.3183      1.00000
      6       6.4501      1.00000
      7      18.8991      0.00000
      8      28.6191      0.00000
      9      28.8758      0.00000
     10      31.5675      0.00000
     11      33.8832      0.00000
     12      36.4180      0.00000

 k-point     9 :      -0.1500    0.0500    0.0500
  band No.  band energies     occupation 
      1       0.6047      1.00000
      2       5.0659      1.00000
      3       5.4816      1.00000
      4       5.4865      1.00000
      5       6.1296      1.00000
      6       6.2934      1.00000
      7      23.6084      0.00000
      8      29.3905      0.00000
      9      29.5294      0.00000
     10      32.9986      0.00000
     11      34.4769      0.00000
     12      37.6304      0.00000

 k-point    10 :      -0.0500    0.0500    0.0500
  band No.  band energies     occupation 
      1      -0.2874      1.00000
      2       5.2131      1.00000
      3       5.3675      1.00000
      4       5.3706      1.00000
      5       6.1697      1.00000
      6       6.2603      1.00000
      7      28.3938      0.00000
      8      30.3068      0.00000
      9      30.6683      0.00000
     10      32.3347      0.00000
     11      35.7315      0.00000
     12      37.2587      0.00000

 k-point    11 :       0.1500    0.1500    0.0500
  band No.  band energies     occupation 
      1       0.1678      1.00000
      2       5.0821      1.00000
      3       5.4759      1.00000
      4       5.4787      1.00000
      5       6.0545      1.00000
      6       6.3149      1.00000
      7      27.0537      0.00000
      8      28.8867      0.00000
      9      29.2056      0.00000
     10      31.2623      0.00000
     11      35.3469      0.00000
     12      37.5126      0.00000

 k-point    12 :       0.2500    0.1500    0.0500
  band No.  band energies     occupation 
      1       1.0352      1.00000
      2       4.9073      1.00000
      3       5.5486      1.00000
      4       5.6337      1.00000
      5       6.0055      1.00000
      6       6.4135      1.00000
      7      23.9425      0.00000
      8      25.9751      0.00000
      9      29.7320      0.00000
     10      30.9923      0.00000
     11      33.4465      0.00000
     12      37.8492      0.00000

 k-point    13 :       0.3500    0.1500    0.0500
  band No.  band energies     occupation 
      1       2.3401      1.00000
      2       4.8311      1.00000
      3       5.4008      1.00000
      4       5.6688      1.00000
      5       6.3180      1.00000
      6       6.6864      1.00000
      7      19.2510      0.00000
      8      25.2457      0.00000
      9      28.2736      0.00000
     10      29.9655      0.00000
     11      35.6111      0.00000
     12      36.5036      0.00000

 k-point    14 :       0.4500    0.1500    0.0500
  band No.  band energies     occupation 
      1       3.3717      1.00000
      2       5.1461      1.00000
      3       5.2841      1.00000
      4       5.5925      1.00000
      5       6.6598      1.00000
      6       7.4816      0.17269
      7      15.1130      0.00000
      8      25.1255      0.00000
      9      26.4486      0.00000
     10      29.3591      0.00000
     11      35.3072      0.00000
     12      37.5297      0.00000

 k-point    15 :      -0.4500    0.1500    0.0500
  band No.  band energies     occupation 
      1       3.6218      1.00000
      2       5.1215      1.00000
      3       5.5248      1.00000
      4       5.7159      1.00000
      5       6.7304      1.00001
      6       8.9008     -0.00000
      7      12.3048     -0.00000
      8      24.8248      0.00000
      9      25.8998      0.00000
     10      29.3545      0.00000
     11      34.5625      0.00000
     12      37.2122      0.00000

 k-point    16 :      -0.3500    0.1500    0.0500
  band No.  band energies     occupation 
      1       3.5245      1.00000
      2       5.1792      1.00000
      3       5.4731      1.00000
      4       5.5645      1.00000
      5       6.5826      1.00000
      6       8.0165     -0.00005
      7      13.9455      0.00000
      8      24.0721      0.00000
      9      27.1224      0.00000
     10      30.0132      0.00000
     11      34.2262      0.00000
     12      36.9032      0.00000

 k-point    17 :      -0.2500    0.1500    0.0500
  band No.  band energies     occupation 
      1       2.7785      1.00000
      2       4.9367      1.00000
      3       5.3358      1.00000
      4       5.6376      1.00000
      5       6.2590      1.00000
      6       7.0004      1.00855
      7      17.8043      0.00000
      8      23.9326      0.00000
      9      28.9603      0.00000
     10      31.2905      0.00000
     11      34.3189      0.00000
     12      36.1804      0.00000

 k-point    18 :      -0.1500    0.1500    0.0500
  band No.  band energies     occupation 
      1       1.4421      1.00000
      2       4.9033      1.00000
      3       5.4869      1.00000
      4       5.6580      1.00000
      5       6.0068      1.00000
      6       6.5321      1.00000
      7      22.3393      0.00000
      8      24.4400      0.00000
      9      31.1439      0.00000
     10      32.3504      0.00000
     11      34.5126      0.00000
     12      35.5470      0.00000

 k-point    19 :      -0.0500    0.1500    0.0500
  band No.  band energies     occupation 
      1       0.3892      1.00000
      2       5.0689      1.00000
      3       5.4805      1.00000
      4       5.4884      1.00000
      5       6.0736      1.00000
      6       6.3149      1.00000
      7      25.3593      0.00000
      8      27.4406      0.00000
      9      30.9191      0.00000
     10      32.8494      0.00000
     11      34.8041      0.00000
     12      36.8210      0.00000

 k-point    20 :       0.2500    0.2500    0.0500
  band No.  band energies     occupation 
      1       1.6388      1.00000
      2       4.6941      1.00000
      3       5.6797      1.00000
      4       5.8308      1.00000
      5       5.9690      1.00000
      6       6.4789      1.00000
      7      24.3382      0.00000
      8      25.5812      0.00000
      9      27.1290      0.00000
     10      27.8671      0.00000
     11      30.7449      0.00000
     12      41.6344      0.00000

 k-point    21 :       0.3500    0.2500    0.0500
  band No.  band energies     occupation 
      1       2.6681      1.00000
      2       4.5178      1.00000
      3       5.5039      1.00000
      4       6.0306      1.00000
      5       6.3511      1.00000
      6       6.7042      1.00001
      7      21.5006      0.00000
      8      23.3801      0.00000
      9      25.0527      0.00000
     10      28.3334      0.00000
     11      31.2362      0.00000
     12      41.0103      0.00000

[...]
      4       6.0869      1.00000
      5       7.2764      0.91964
      6       7.2764      0.91964
      7      16.2020      0.00000
      8      28.8192      0.00000
      9      29.8681      0.00000
     10      29.8681      0.00000
     11      33.8317      0.00000
     12      33.8317      0.00000

 k-point   102 :       0.4500    0.3500    0.3500
  band No.  band energies     occupation 
      1       3.4836      1.00000
      2       5.8666      1.00000
      3       5.9798      1.00000
      4       6.1454      1.00000
      5       7.2305      0.99704
      6       7.9328     -0.00049
      7      15.1733      0.00000
      8      25.1084      0.00000
      9      29.3425      0.00000
     10      29.8604      0.00000
     11      33.9177      0.00000
     12      35.1734      0.00000

 k-point   103 :      -0.4500    0.3500    0.3500
  band No.  band energies     occupation 
      1       4.2935      1.00000
      2       5.4924      1.00000
      3       5.7735      1.00000
      4       6.3949      1.00000
      5       7.2300      0.99756
      6       9.3051     -0.00000
      7      14.6268      0.00000
      8      20.8012      0.00000
      9      27.1528      0.00000
     10      28.4759      0.00000
     11      37.3418      0.00000
     12      37.5215      0.00000

 k-point   104 :      -0.3500    0.3500    0.3500
  band No.  band energies     occupation 
      1       4.8515      1.00000
      2       5.0408      1.00000
      3       5.7693      1.00000
      4       6.7278      1.00001
      5       7.3186      0.80250
      6      11.3597     -0.00000
      7      14.2605      0.00000
      8      17.3292      0.00000
      9      24.7576      0.00000
     10      27.5873      0.00000
     11      40.7550      0.00000
     12      40.7640      0.00000

 k-point   105 :       0.4500    0.4500    0.3500
  band No.  band energies     occupation 
      1       3.7309      1.00000
      2       5.8082      1.00000
      3       6.1397      1.00000
      4       6.1433      1.00000
      5       7.5205      0.07061
      6       8.0604     -0.00001
      7      14.0530      0.00000
      8      26.6395      0.00000
      9      27.2620      0.00000
     10      28.5664      0.00000
     11      35.2721      0.00000
     12      35.5888      0.00000

 k-point   106 :      -0.4500    0.4500    0.3500
  band No.  band energies     occupation 
      1       4.2453      1.00000
      2       5.4922      1.00000
      3       5.9630      1.00000
      4       6.3362      1.00000
      5       7.4553      0.26180
      6       9.4157     -0.00000
      7      13.4286      0.00000
      8      23.2761      0.00000
      9      24.5044      0.00000
     10      30.3080      0.00000
     11      34.5205      0.00000
     12      39.3495      0.00000

 k-point   107 :      -0.3500    0.4500    0.3500
  band No.  band energies     occupation 
      1       4.8228      1.00000
      2       5.0712      1.00000
      3       5.7398      1.00000
      4       6.6451      1.00000
      5       7.4531      0.26972
      6      11.4211     -0.00000
      7      13.2445      0.00000
      8      19.4371      0.00000
      9      22.3287      0.00000
     10      30.5215      0.00000
     11      36.2277      0.00000
     12      41.7284      0.00000

 k-point   108 :      -0.4500   -0.4500    0.3500
  band No.  band energies     occupation 
      1       4.4306      1.00000
      2       5.3232      1.00000
      3       5.9745      1.00000
      4       6.4178      1.00000
      5       7.5035      0.11057
      6      10.2423     -0.00000
      7      12.8688      0.00000
      8      21.6564      0.00000
      9      25.5206      0.00000
     10      27.7632      0.00000
     11      38.0953      0.00000
     12      38.4204      0.00000

 k-point   109 :       0.4500    0.4500    0.4500
  band No.  band energies     occupation 
      1       3.6725      1.00000
      2       5.9953      1.00000
      3       5.9953      1.00000
      4       6.9771      1.00580
      5       7.4969      0.12792
      6       7.4969      0.12792
      7      13.0391      0.00000
      8      28.3048      0.00000
      9      29.6367      0.00000
     10      29.6367      0.00000
     11      32.7771      0.00000
     12      32.7771      0.00000

 k-point   110 :      -0.4500    0.4500    0.4500
  band No.  band energies     occupation 
      1       3.9437      1.00000
      2       5.8152      1.00000
      3       6.0933      1.00000
      4       6.4507      1.00000
      5       7.4875      0.15467
      6       8.6999     -0.00000
      7      12.6067     -0.00000
      8      25.6046      0.00000
      9      28.1585      0.00000
     10      28.5672      0.00000
     11      34.4792      0.00000
     12      35.2165      0.00000


--------------------------------------------------------------------------------------------------------


 soft charge-density along one line, spin component           1
         0         1         2         3         4         5         6         7         8         9
 total charge-density along one line
 
 soft charge-density along one line, spin component           2
         0         1         2         3         4         5         6         7         8         9
 total charge-density along one line
 
 pseudopotential strength for first ion, spin component:           1
 -1.875   0.000   0.000   0.000   0.000   0.000   0.000   0.000  -0.000   0.000  -2.498   0.000   0.000   0.000   0.000   0.000
  0.000   0.000  -1.875   0.000  -0.000   0.000   0.000   0.000   0.000   0.000   0.000   0.000  -2.498   0.000  -0.000   0.000
  0.000   0.000  -0.000   0.000  -1.770   0.000  -0.000   0.000  -0.000   0.000   0.000   0.000  -0.000   0.000  -2.397   0.000
  0.000   0.000   0.000   0.000  -0.000   0.000  -1.875   0.000  -0.000   0.000   0.000   0.000   0.000   0.000  -0.000   0.000
 -0.000   0.000   0.000   0.000  -0.000   0.000  -0.000   0.000  -1.770   0.000  -0.000   0.000   0.000   0.000  -0.000   0.000
 -2.498   0.000   0.000   0.000   0.000   0.000   0.000   0.000  -0.000   0.000  -3.052   0.000   0.000   0.000   0.000   0.000
  0.000   0.000  -2.498   0.000  -0.000   0.000   0.000   0.000   0.000   0.000   0.000   0.000  -3.052   0.000  -0.000   0.000
  0.000   0.000  -0.000   0.000  -2.397   0.000  -0.000   0.000  -0.000   0.000   0.000   0.000  -0.000   0.000  -2.956   0.000
  0.000   0.000   0.000   0.000  -0.000   0.000  -2.498   0.000  -0.000   0.000   0.000   0.000   0.000   0.000  -0.000   0.000
 -0.000   0.000   0.000   0.000  -0.000   0.000  -0.000   0.000  -2.397   0.000  -0.000   0.000   0.000   0.000  -0.000   0.000
  0.000   0.000   0.000   0.000   0.000   0.000   0.000   0.000  -0.000   0.000   0.000   0.000   0.000   0.000   0.000   0.000
  0.000   0.000   0.000   0.000   0.000   0.000   0.000   0.000  -0.000   0.000   0.000   0.000   0.000   0.000   0.000   0.000
  0.000   0.000   0.000   0.000  -0.000   0.000   0.000   0.000  -0.000   0.000   0.000   0.000   0.000   0.000  -0.000   0.000
  0.000   0.000   0.000   0.000   0.000   0.000   0.000   0.000  -0.000   0.000   0.000   0.000   0.000   0.000   0.000   0.000
 -0.000   0.000   0.000   0.000  -0.000   0.000   0.000   0.000   0.000   0.000  -0.000   0.000   0.000   0.000  -0.000   0.000
  0.000   0.000   0.000   0.000  -0.000   0.000   0.000   0.000  -0.000   0.000   0.000   0.000   0.000   0.000  -0.000   0.000
  0.000   0.000   0.000   0.000   0.000   0.000   0.000   0.000  -0.000   0.000   0.000   0.000   0.000   0.000   0.000   0.000
  0.000   0.000   0.000   0.000  -0.000   0.000   0.000   0.000   0.000   0.000   0.000   0.000   0.000   0.000  -0.000   0.000
 pseudopotential strength for first ion, spin component:           2
 -1.224   0.000   0.000   0.000   0.000   0.000   0.000   0.000   0.000   0.000  -1.877   0.000   0.000   0.000   0.000   0.000
  0.000   0.000  -1.224   0.000  -0.000   0.000   0.000   0.000   0.000   0.000   0.000   0.000  -1.877   0.000  -0.000   0.000
  0.000   0.000  -0.000   0.000  -1.254   0.000  -0.000   0.000  -0.000   0.000   0.000   0.000  -0.000   0.000  -1.906   0.000
  0.000   0.000   0.000   0.000  -0.000   0.000  -1.224   0.000  -0.000   0.000   0.000   0.000   0.000   0.000  -0.000   0.000
  0.000   0.000   0.000   0.000  -0.000   0.000  -0.000   0.000  -1.254   0.000   0.000   0.000   0.000   0.000  -0.000   0.000
 -1.877   0.000   0.000   0.000   0.000   0.000   0.000   0.000   0.000   0.000  -2.459   0.000   0.000   0.000   0.000   0.000
  0.000   0.000  -1.877   0.000  -0.000   0.000   0.000   0.000   0.000   0.000   0.000   0.000  -2.459   0.000  -0.000   0.000
  0.000   0.000  -0.000   0.000  -1.906   0.000  -0.000   0.000  -0.000   0.000   0.000   0.000  -0.000   0.000  -2.488   0.000
  0.000   0.000   0.000   0.000  -0.000   0.000  -1.877   0.000  -0.000   0.000   0.000   0.000   0.000   0.000  -0.000   0.000
  0.000   0.000   0.000   0.000  -0.000   0.000  -0.000   0.000  -1.906   0.000   0.000   0.000   0.000   0.000  -0.000   0.000
  0.000   0.000   0.000   0.000   0.000   0.000   0.000   0.000  -0.000   0.000   0.000   0.000   0.000   0.000   0.000   0.000
  0.000   0.000   0.000   0.000   0.000   0.000   0.000   0.000  -0.000   0.000   0.000   0.000   0.000   0.000   0.000   0.000
  0.000   0.000   0.000   0.000   0.000   0.000   0.000   0.000   0.000   0.000   0.000   0.000   0.000   0.000   0.000   0.000
  0.000   0.000  -0.000   0.000   0.000   0.000   0.000   0.000  -0.000   0.000   0.000   0.000  -0.000   0.000   0.000   0.000
 -0.000   0.000   0.000   0.000  -0.000   0.000  -0.000   0.000   0.000   0.000  -0.000   0.000   0.000   0.000  -0.000   0.000
  0.000   0.000  -0.000   0.000   0.000   0.000   0.000   0.000   0.000   0.000   0.000   0.000  -0.000   0.000   0.000   0.000
  0.000   0.000  -0.000   0.000   0.000   0.000   0.000   0.000  -0.000   0.000   0.000   0.000  -0.000   0.000   0.000   0.000
 -0.000   0.000   0.000   0.000  -0.000   0.000  -0.000   0.000   0.000   0.000  -0.000   0.000   0.000   0.000  -0.000   0.000
 total augmentation occupancy for first ion, spin component:           1
  2.485  -0.000   0.000   0.000  -0.000  -0.854  -0.000   0.000  -0.000  -0.000   0.000   0.000   0.000   0.000   0.000   0.000
  0.000   2.485  -0.000   0.000  -0.000  -0.000  -0.854  -0.000   0.000   0.000   0.000   0.000   0.000   0.000   0.000   0.000
  0.000  -0.000   3.147   0.000  -0.000   0.000   0.000  -1.139  -0.000   0.000   0.000  -0.000   0.000   0.000   0.000   0.000
 -0.000   0.000   0.000   2.485   0.000   0.000  -0.000  -0.000  -0.854  -0.000   0.000   0.000   0.000   0.000   0.000   0.000
 -0.000   0.000   0.000  -0.000   3.147  -0.000   0.000   0.000  -0.000  -1.139   0.000   0.000   0.000   0.000   0.000   0.000
 -0.854   0.000   0.000   0.000   0.000   0.923  -0.000   0.000   0.000   0.000   0.000   0.000   0.000   0.000   0.000   0.000
  0.000  -0.854   0.000   0.000   0.000  -0.000   0.923  -0.000  -0.000  -0.000  -0.000   0.000   0.000   0.000   0.000   0.000
  0.000  -0.000  -1.139   0.000   0.000   0.000   0.000   0.957   0.000   0.000   0.000   0.000   0.000   0.000   0.000   0.000
  0.000  -0.000   0.000  -0.854  -0.000   0.000   0.000  -0.000   0.923   0.000  -0.000  -0.000   0.000   0.000   0.000   0.000
 -0.000   0.000   0.000  -0.000  -1.139   0.000   0.000   0.000  -0.000   0.957   0.000   0.000   0.000   0.000   0.000   0.000
  0.000   0.000   0.000   0.000   0.000   0.000  -0.000   0.000   0.000   0.000   1.921  -0.239   0.000   0.000   0.000   0.000
  0.000   0.000  -0.000  -0.000   0.000   0.000   0.000   0.000   0.000   0.000  -0.239   0.036   0.000   0.000   0.000   0.000
  0.000   0.000   0.000   0.000   0.000   0.000   0.000   0.000   0.000   0.000   0.000   0.000   0.226  -0.000   0.000  -0.023
  0.000   0.000   0.000   0.000   0.000   0.000   0.000   0.000   0.000   0.000   0.000   0.000   0.000   0.226  -0.000  -0.000
  0.000   0.000   0.000   0.000   0.000   0.000   0.000   0.000   0.000   0.000   0.000   0.000  -0.000  -0.000   0.226   0.000
  0.000   0.000   0.000   0.000   0.000   0.000   0.000   0.000   0.000   0.000   0.000   0.000  -0.023  -0.000   0.000   0.003
  0.000   0.000   0.000   0.000   0.000   0.000   0.000   0.000   0.000   0.000   0.000   0.000   0.000  -0.023  -0.000   0.000
  0.000   0.000   0.000   0.000   0.000   0.000   0.000   0.000   0.000   0.000   0.000   0.000  -0.000   0.000  -0.023   0.000
 total augmentation occupancy for first ion, spin component:           2
  0.931   0.000  -0.000   0.000   0.000  -0.432  -0.000  -0.000   0.000   0.000  -0.000   0.000   0.000   0.000   0.000   0.000
  0.000   0.931  -0.000   0.000  -0.000   0.000  -0.432  -0.000  -0.000   0.000  -0.000   0.000   0.000   0.000   0.000   0.000
  0.000   0.000   0.544  -0.000   0.000  -0.000  -0.000  -0.257   0.000   0.000  -0.000   0.000   0.000   0.000   0.000   0.000
  0.000  -0.000   0.000   0.931   0.000   0.000   0.000   0.000  -0.432  -0.000   0.000   0.000   0.000   0.000   0.000   0.000
  0.000   0.000  -0.000   0.000   0.544   0.000  -0.000   0.000   0.000  -0.257  -0.000  -0.000   0.000   0.000   0.000   0.000
 -0.432  -0.000  -0.000   0.000   0.000   0.120   0.000   0.000  -0.000  -0.000   0.000   0.000   0.000   0.000   0.000   0.000
 -0.000  -0.432   0.000   0.000   0.000   0.000   0.120  -0.000  -0.000   0.000  -0.000   0.000   0.000   0.000   0.000   0.000
  0.000  -0.000  -0.257   0.000   0.000  -0.000   0.000   0.062  -0.000  -0.000   0.000   0.000   0.000   0.000   0.000   0.000
 -0.000   0.000  -0.000  -0.432  -0.000  -0.000   0.000   0.000   0.120  -0.000   0.000  -0.000   0.000   0.000   0.000   0.000
 -0.000   0.000   0.000  -0.000  -0.257  -0.000  -0.000   0.000   0.000   0.062   0.000   0.000   0.000   0.000   0.000   0.000
 -0.000   0.000  -0.000   0.000   0.000  -0.000   0.000   0.000  -0.000   0.000  -0.116   0.036   0.000   0.000   0.000   0.000
  0.000  -0.000   0.000  -0.000   0.000  -0.000  -0.000   0.000  -0.000   0.000   0.036  -0.007   0.000   0.000   0.000   0.000
  0.000   0.000   0.000   0.000   0.000   0.000   0.000   0.000   0.000   0.000   0.000   0.000  -0.016   0.000   0.000   0.002
  0.000   0.000   0.000   0.000   0.000   0.000   0.000   0.000   0.000   0.000   0.000   0.000   0.000  -0.016   0.000   0.000
  0.000   0.000   0.000   0.000   0.000   0.000   0.000   0.000   0.000   0.000   0.000   0.000   0.000   0.000  -0.016   0.000
  0.000   0.000   0.000   0.000   0.000   0.000   0.000   0.000   0.000   0.000   0.000   0.000   0.002   0.000   0.000  -0.000
  0.000   0.000   0.000   0.000   0.000   0.000   0.000   0.000   0.000   0.000   0.000   0.000   0.000   0.002   0.000  -0.000
  0.000   0.000   0.000   0.000   0.000   0.000   0.000   0.000   0.000   0.000   0.000   0.000   0.000   0.000   0.002   0.000


------------------------ aborting loop because EDIFF is reached ----------------------------------------


    CHARGE:  cpu time    0.0068: real time    0.0068
    FORLOC:  cpu time    0.0001: real time    0.0001
    FORNL :  cpu time    0.0135: real time    0.0135
    STRESS:  cpu time    0.0533: real time    0.0534
    FORCOR:  cpu time    0.0041: real time    0.0041
    FORHAR:  cpu time    0.0006: real time    0.0006
    MIXING:  cpu time    0.0005: real time    0.0004
    OFIELD:  cpu time    0.0000: real time    0.0000

  FORCE on cell =-STRESS in cart. coord.  units (eV):
  Direction    XX          YY          ZZ          XY          YZ          ZX
  --------------------------------------------------------------------------------------
  Alpha Z    40.27355    40.27355    40.27355
  Ewald    -297.39207  -297.39207  -297.39207     0.00000    -0.00000    -0.00000
  Hartree    82.68483    82.68483    82.68483     0.00000     0.00000     0.00000
  E(xc)     -54.65930   -54.65930   -54.65930    -0.00001    -0.00001    -0.00001
  Local     -15.70969   -15.70969   -15.70969     0.00061     0.00061     0.00061
  n-local   -10.09717    -9.65693   -11.98410     1.57327    -1.64848     0.02766
  augment   176.65692   176.65692   176.65692    -0.00053    -0.00053    -0.00053
  Kinetic    76.03076    76.28713    78.09043    -0.66684     0.62964     0.03463
  Fock        0.00000     0.00000     0.00000     0.00000     0.00000     0.00000
  -------------------------------------------------------------------------------------
  Total      -1.92239    -1.92239    -1.92239     0.00000     0.00000    -0.00000
  in kB    -243.22437  -243.22437  -243.22437     0.00000     0.00000    -0.00000
  external pressure =     -243.22 kB  Pullay stress =        0.00 kB


 VOLUME and BASIS-vectors are now :
 -----------------------------------------------------------------------------
  energy-cutoff  :      270.00
  volume of cell :       12.66
      direct lattice vectors                 reciprocal lattice vectors
     0.000000000  1.850000000  1.850000000    -0.270270270  0.270270270  0.270270270
     1.850000000  0.000000000  1.850000000     0.270270270 -0.270270270  0.270270270
     1.850000000  1.850000000  0.000000000     0.270270270  0.270270270 -0.270270270

  length of vectors
     2.616295090  2.616295090  2.616295090     0.468121840  0.468121840  0.468121840


 FORCES acting on ions
    electron-ion (+dipol)            ewald-force                    non-local-force                 convergence-correction
 -----------------------------------------------------------------------------------------------
   0.777E-14 -.427E-14 -.708E-14   -.103E-14 -.371E-15 -.204E-14   0.662E-23 -.662E-23 -.662E-23   0.571E-14 -.344E-14 0.457E-14
 -----------------------------------------------------------------------------------------------
   0.777E-14 -.427E-14 -.708E-14   -.103E-14 -.371E-15 -.204E-14   0.662E-23 -.662E-23 -.662E-23   0.571E-14 -.344E-14 0.457E-14
 
 
 POSITION                                       TOTAL-FORCE (eV/Angst)
 -----------------------------------------------------------------------------------
      0.00000      0.00000      0.00000         0.000000      0.000000     -0.000000
 -----------------------------------------------------------------------------------
    total drift:                                0.000000     -0.000000     -0.000000


--------------------------------------------------------------------------------------------------------



  FREE ENERGIE OF THE ION-ELECTRON SYSTEM (eV)
  ---------------------------------------------------
  free  energy   TOTEN  =        -5.33496912 eV

  energy  without entropy=       -5.33090290  energy(sigma->0) =       -5.33361371
 


--------------------------------------------------------------------------------------------------------


    POTLOK:  cpu time    0.0078: real time    0.0078


--------------------------------------------------------------------------------------------------------


 writing wavefunctions
     LOOP+:  cpu time    3.7749: real time    3.8552
    4ORBIT:  cpu time    0.0000: real time    0.0000

 total amount of memory used by VASP MPI-rank0    34729. kBytes
=======================================================================

   base      :      30000. kBytes
   nonl-proj :       2219. kBytes
   fftplans  :        238. kBytes
   grid      :        552. kBytes
   one-center:         31. kBytes
   wavefun   :       1689. kBytes
 
  
  
 General timing and accounting informations for this job:
 ========================================================
  
                  Total CPU time used (sec):        4.241
                            User time (sec):        3.729
                          System time (sec):        0.512
                         Elapsed time (sec):        4.385
  
                   Maximum memory used (kb):       60340.
                   Average memory used (kb):           0.
  
                          Minor page faults:        41198
                          Major page faults:            0
                 Voluntary context switches:         3902
