<?xml version="1.0" encoding="ISO-8859-1"?>
<modeling>
 <generator>
  <i name="program" type="string">vasp </i>
  <i name="version" type="string">5.4.4.18Apr17-6-g9f103f2a35  </i>
  <i name="subversion" type="string">(build Jul 01 2019 03:25:34) complex            parallel </i>
  <i name="platform" type="string">LinuxIFC </i>
  <i name="date" type="string">2020 07 09 </i>
  <i name="time" type="string">19:35:48 </i>
 </generator>
 <incar>
  <i type="string" name="SYSTEM"> fcc Ni</i>
  <i type="string" name="PREC">normal</i>
  <i type="int" name="ISPIN">     2</i>
  <i name="EDIFF">      0.00010000</i>
  <i name="ENCUT">    270.00000000</i>
  <v name="MAGMOM">      3.00000000</v>
  <v type="int" name="KPOINT_BSE">    -1     0     0     0</v>
 </incar>
 <structure name="primitive_cell" >
  <crystal>
   <varray name="basis" >
    <v>       0.00000000       1.85000000       1.85000000 </v>
    <v>       1.85000000       0.00000000       1.85000000 </v>
    <v>       1.85000000       1.85000000       0.00000000 </v>
   </varray>
   <i name="volume">     12.66325000 </i>
   <varray name="rec_basis" >
    <v>      -0.27027027       0.27027027       0.27027027 </v>
    <v>       0.27027027      -0.27027027       0.27027027 </v>
    <v>       0.27027027       0.27027027      -0.27027027 </v>
   </varray>
  </crystal>
  <varray name="positions" >
   <v>       0.00000000       0.00000000       0.00000000 </v>
  </varray>
 </structure>
 <varray name="primitive_index" >
  <v type="int" >        1 </v>
 </varray>
 <kpoints>
  <generation param="Monkhorst-Pack">
   <v type="int" name="divisions">      10       10       10 </v>
   <v name="usershift">      0.00000000       0.00000000       0.00000000 </v>
   <v name="genvec1">      0.10000000       0.00000000       0.00000000 </v>
   <v name="genvec2">      0.00000000       0.10000000       0.00000000 </v>
   <v name="genvec3">      0.00000000       0.00000000       0.10000000 </v>
   <v name="shift">      0.50000000       0.50000000       0.50000000 </v>
  </generation>
  <varray name="kpointlist" >
   <v>       0.05000000       0.05000000       0.05000000 </v>
   <v>       0.15000000       0.05000000       0.05000000 </v>
   <v>       0.25000000       0.05000000       0.05000000 </v>
   <v>       0.35000000       0.05000000       0.05000000 </v>
   <v>       0.45000000       0.05000000       0.05000000 </v>
   <v>      -0.45000000       0.05000000       0.05000000 </v>
   <v>      -0.35000000       0.05000000       0.05000000 </v>
   <v>      -0.25000000       0.05000000       0.05000000 </v>
   <v>      -0.15000000       0.05000000       0.05000000 </v>
   <v>      -0.05000000       0.05000000       0.05000000 </v>
   <v>       0.15000000       0.15000000       0.05000000 </v>
   <v>       0.25000000       0.15000000       0.05000000 </v>
   <v>       0.35000000       0.15000000       0.05000000 </v>
   <v>       0.45000000       0.15000000       0.05000000 </v>
   <v>      -0.45000000       0.15000000       0.05000000 </v>
   <v>      -0.35000000       0.15000000       0.05000000 </v>
   <v>      -0.25000000       0.15000000       0.05000000 </v>
   <v>      -0.15000000       0.15000000       0.05000000 </v>
   <v>      -0.05000000       0.15000000       0.05000000 </v>
   <v>       0.25000000       0.25000000       0.05000000 </v>
   <v>       0.35000000       0.25000000       0.05000000 </v>
   <v>       0.45000000       0.25000000       0.05000000 </v>
   <v>      -0.45000000       0.25000000       0.05000000 </v>
   <v>      -0.35000000       0.25000000       0.05000000 </v>
   <v>      -0.25000000       0.25000000       0.05000000 </v>
   <v>      -0.15000000       0.25000000       0.05000000 </v>
   <v>      -0.05000000       0.25000000       0.05000000 </v>
   <v>       0.35000000       0.35000000       0.05000000 </v>
   <v>       0.45000000       0.35000000       0.05000000 </v>
   <v>      -0.45000000       0.35000000       0.05000000 </v>
   <v>      -0.35000000       0.35000000       0.05000000 </v>
   <v>      -0.25000000       0.35000000       0.05000000 </v>
   <v>      -0.15000000       0.35000000       0.05000000 </v>
   <v>      -0.05000000       0.35000000       0.05000000 </v>
   <v>       0.45000000       0.45000000       0.05000000 </v>
   <v>      -0.45000000       0.45000000       0.05000000 </v>
   <v>      -0.35000000       0.45000000       0.05000000 </v>
   <v>      -0.25000000       0.45000000       0.05000000 </v>
   <v>      -0.15000000       0.45000000       0.05000000 </v>
   <v>      -0.05000000       0.45000000       0.05000000 </v>
   <v>      -0.45000000      -0.45000000       0.05000000 </v>
   <v>      -0.35000000      -0.45000000       0.05000000 </v>
   <v>      -0.25000000      -0.45000000       0.05000000 </v>
   <v>      -0.15000000      -0.45000000       0.05000000 </v>
   <v>      -0.35000000      -0.35000000       0.05000000 </v>
   <v>      -0.25000000      -0.35000000       0.05000000 </v>
   <v>      -0.15000000      -0.35000000       0.05000000 </v>
   <v>      -0.25000000      -0.25000000       0.05000000 </v>
   <v>      -0.15000000      -0.25000000       0.05000000 </v>
   <v>      -0.15000000      -0.15000000       0.05000000 </v>
   <v>       0.15000000       0.15000000       0.15000000 </v>
   <v>       0.25000000       0.15000000       0.15000000 </v>
   <v>       0.35000000       0.15000000       0.15000000 </v>
   <v>       0.45000000       0.15000000       0.15000000 </v>
   <v>      -0.45000000       0.15000000       0.15000000 </v>
   <v>      -0.35000000       0.15000000       0.15000000 </v>
   <v>      -0.25000000       0.15000000       0.15000000 </v>
   <v>      -0.15000000       0.15000000       0.15000000 </v>
   <v>       0.25000000       0.25000000       0.15000000 </v>
   <v>       0.35000000       0.25000000       0.15000000 </v>
   <v>       0.45000000       0.25000000       0.15000000 </v>
   <v>      -0.45000000       0.25000000       0.15000000 </v>
   <v>      -0.35000000       0.25000000       0.15000000 </v>
   <v>      -0.25000000       0.25000000       0.15000000 </v>
   <v>      -0.15000000       0.25000000       0.15000000 </v>
   <v>       0.35000000       0.35000000       0.15000000 </v>
   <v>       0.45000000       0.35000000       0.15000000 </v>
   <v>      -0.45000000       0.35000000       0.15000000 </v>
   <v>      -0.35000000       0.35000000       0.15000000 </v>
   <v>      -0.25000000       0.35000000       0.15000000 </v>
   <v>      -0.15000000       0.35000000       0.15000000 </v>
   <v>       0.45000000       0.45000000       0.15000000 </v>
   <v>      -0.45000000       0.45000000       0.15000000 </v>
   <v>      -0.35000000       0.45000000       0.15000000 </v>
   <v>      -0.25000000       0.45000000       0.15000000 </v>
   <v>      -0.15000000       0.45000000       0.15000000 </v>
   <v>      -0.45000000      -0.45000000       0.15000000 </v>
   <v>      -0.35000000      -0.45000000       0.15000000 </v>
   <v>      -0.25000000      -0.45000000       0.15000000 </v>
   <v>      -0.35000000      -0.35000000       0.15000000 </v>
   <v>      -0.25000000      -0.35000000       0.15000000 </v>
   <v>      -0.25000000      -0.25000000       0.15000000 </v>
   <v>       0.25000000       0.25000000       0.25000000 </v>
   <v>       0.35000000       0.25000000       0.25000000 </v>
   <v>       0.45000000       0.25000000       0.25000000 </v>
   <v>      -0.45000000       0.25000000       0.25000000 </v>
   <v>      -0.35000000       0.25000000       0.25000000 </v>
   <v>      -0.25000000       0.25000000       0.25000000 </v>
   <v>       0.35000000       0.35000000       0.25000000 </v>
   <v>       0.45000000       0.35000000       0.25000000 </v>
   <v>      -0.45000000       0.35000000       0.25000000 </v>
   <v>      -0.35000000       0.35000000       0.25000000 </v>
   <v>      -0.25000000       0.35000000       0.25000000 </v>
   <v>       0.45000000       0.45000000       0.25000000 </v>
   <v>      -0.45000000       0.45000000       0.25000000 </v>
   <v>      -0.35000000       0.45000000       0.25000000 </v>
   <v>      -0.25000000       0.45000000       0.25000000 </v>
   <v>      -0.45000000      -0.45000000       0.25000000 </v>
   <v>      -0.35000000      -0.45000000       0.25000000 </v>
   <v>      -0.35000000      -0.35000000       0.25000000 </v>
   <v>       0.35000000       0.35000000       0.35000000 </v>
   <v>       0.45000000       0.35000000       0.35000000 </v>
   <v>      -0.45000000       0.35000000       0.35000000 </v>
   <v>      -0.35000000       0.35000000       0.35000000 </v>
   <v>       0.45000000       0.45000000       0.35000000 </v>
   <v>      -0.45000000       0.45000000       0.35000000 </v>
   <v>      -0.35000000       0.45000000       0.35000000 </v>
   <v>      -0.45000000      -0.45000000       0.35000000 </v>
   <v>       0.45000000       0.45000000       0.45000000 </v>
   <v>      -0.45000000       0.45000000       0.45000000 </v>
  </varray>
  <varray name="weights" >
   <v>       0.00200000 </v>
   <v>       0.00600000 </v>
   <v>       0.00600000 </v>
   <v>       0.00600000 </v>
   <v>       0.00600000 </v>
   <v>       0.00600000 </v>
   <v>       0.00600000 </v>
   <v>       0.00600000 </v>
   <v>       0.00600000 </v>
   <v>       0.00600000 </v>
   <v>       0.00600000 </v>
   <v>       0.01200000 </v>
   <v>       0.01200000 </v>
   <v>       0.01200000 </v>
   <v>       0.01200000 </v>
   <v>       0.01200000 </v>
   <v>       0.01200000 </v>
   <v>       0.01200000 </v>
   <v>       0.01200000 </v>
   <v>       0.00600000 </v>
   <v>       0.01200000 </v>
   <v>       0.01200000 </v>
   <v>       0.01200000 </v>
   <v>       0.01200000 </v>
   <v>       0.01200000 </v>
   <v>       0.01200000 </v>
   <v>       0.01200000 </v>
   <v>       0.00600000 </v>
   <v>       0.01200000 </v>
   <v>       0.01200000 </v>
   <v>       0.01200000 </v>
   <v>       0.01200000 </v>
   <v>       0.01200000 </v>
   <v>       0.01200000 </v>
   <v>       0.00600000 </v>
   <v>       0.01200000 </v>
   <v>       0.01200000 </v>
   <v>       0.01200000 </v>
   <v>       0.01200000 </v>
   <v>       0.01200000 </v>
   <v>       0.00600000 </v>
   <v>       0.01200000 </v>
   <v>       0.01200000 </v>
   <v>       0.01200000 </v>
   <v>       0.00600000 </v>
   <v>       0.01200000 </v>
   <v>       0.01200000 </v>
   <v>       0.00600000 </v>
   <v>       0.01200000 </v>
   <v>       0.00600000 </v>
   <v>       0.00200000 </v>
   <v>       0.00600000 </v>
   <v>       0.00600000 </v>
   <v>       0.00600000 </v>
   <v>       0.00600000 </v>
   <v>       0.00600000 </v>
   <v>       0.00600000 </v>
   <v>       0.00600000 </v>
   <v>       0.00600000 </v>
   <v>       0.01200000 </v>
   <v>       0.01200000 </v>
   <v>       0.01200000 </v>
   <v>       0.01200000 </v>
   <v>       0.01200000 </v>
   <v>       0.01200000 </v>
   <v>       0.00600000 </v>
   <v>       0.01200000 </v>
   <v>       0.01200000 </v>
   <v>       0.01200000 </v>
   <v>       0.01200000 </v>
   <v>       0.01200000 </v>
   <v>       0.00600000 </v>
   <v>       0.01200000 </v>
   <v>       0.01200000 </v>
   <v>       0.01200000 </v>
   <v>       0.01200000 </v>
   <v>       0.00600000 </v>
   <v>       0.01200000 </v>
   <v>       0.01200000 </v>
   <v>       0.00600000 </v>
   <v>       0.01200000 </v>
   <v>       0.00600000 </v>
   <v>       0.00200000 </v>
   <v>       0.00600000 </v>
   <v>       0.00600000 </v>
   <v>       0.00600000 </v>
   <v>       0.00600000 </v>
   <v>       0.00600000 </v>
   <v>       0.00600000 </v>
   <v>       0.01200000 </v>
   <v>       0.01200000 </v>
   <v>       0.01200000 </v>
   <v>       0.01200000 </v>
   <v>       0.00600000 </v>
   <v>       0.01200000 </v>
   <v>       0.01200000 </v>
   <v>       0.01200000 </v>
   <v>       0.00600000 </v>
   <v>       0.01200000 </v>
   <v>       0.00600000 </v>
   <v>       0.00200000 </v>
   <v>       0.00600000 </v>
   <v>       0.00600000 </v>
   <v>       0.00600000 </v>
   <v>       0.00600000 </v>
   <v>       0.01200000 </v>
   <v>       0.01200000 </v>
   <v>       0.00600000 </v>
   <v>       0.00200000 </v>
   <v>       0.00600000 </v>
  </varray>
 </kpoints>
 <parameters>
  <separator name="general" >
   <i type="string" name="SYSTEM">fcc Ni</i>
   <i type="logical" name="LCOMPAT"> F  </i>
  </separator>
  <separator name="electronic" >
   <i type="string" name="PREC">normal</i>
   <i name="ENMAX">    270.00000000</i>
   <i name="ENAUG">    544.56500000</i>
   <i name="EDIFF">      0.00010000</i>
   <i type="int" name="IALGO">    38</i>
   <i type="int" name="IWAVPR">    10</i>
   <i type="int" name="NBANDS">    12</i>
   <i name="NELECT">     10.00000000</i>
   <i type="int" name="TURBO">     0</i>
   <i type="int" name="IRESTART">     0</i>
   <i type="int" name="NREBOOT">     0</i>
   <i type="int" name="NMIN">     0</i>
   <i name="EREF">      0.00000000</i>
   <separator name="electronic smearing" >
    <i type="int" name="ISMEAR">     1</i>
    <i name="SIGMA">      0.20000000</i>
    <i name="KSPACING">      0.50000000</i>
    <i type="logical" name="KGAMMA"> T  </i>
   </separator>
   <separator name="electronic projectors" >
    <i type="logical" name="LREAL"> F  </i>
    <v name="ROPT">      0.00000000</v>
    <i type="int" name="LMAXPAW">  -100</i>
    <i type="int" name="LMAXMIX">     2</i>
    <i type="logical" name="NLSPLINE"> F  </i>
   </separator>
   <separator name="electronic startup" >
    <i type="int" name="ISTART">     0</i>
    <i type="int" name="ICHARG">     2</i>
    <i type="int" name="INIWAV">     1</i>
   </separator>
   <separator name="electronic spin" >
    <i type="int" name="ISPIN">     2</i>
    <i type="logical" name="LNONCOLLINEAR"> F  </i>
    <v name="MAGMOM">      3.00000000</v>
    <i name="NUPDOWN">     -1.00000000</i>
    <i type="logical" name="LSORBIT"> F  </i>
    <v name="SAXIS">      0.00000000      0.00000000      1.00000000</v>
    <i type="logical" name="LSPIRAL"> F  </i>
    <v name="QSPIRAL">      0.00000000      0.00000000      0.00000000</v>
    <i type="logical" name="LZEROZ"> F  </i>
   </separator>
   <separator name="electronic exchange-correlation" >
    <i type="logical" name="LASPH"> F  </i>
    <i type="logical" name="LMETAGGA"> F  </i>
   </separator>
   <separator name="electronic convergence" >
    <i type="int" name="NELM">    60</i>
    <i type="int" name="NELMDL">    -5</i>
    <i type="int" name="NELMIN">     2</i>
    <i name="ENINI">    270.00000000</i>
    <separator name="electronic convergence detail" >
     <i type="logical" name="LDIAG"> T  </i>
     <i type="logical" name="LSUBROT"> F  </i>
     <i name="WEIMIN">      0.00000000</i>
     <i name="EBREAK">      0.00000208</i>
     <i name="DEPER">      0.30000000</i>
     <i type="int" name="NRMM">     4</i>
     <i name="TIME">      0.40000000</i>
    </separator>
   </separator>
   <separator name="electronic mixer" >
    <i name="AMIX">      0.40000000</i>
    <i name="BMIX">      1.00000000</i>
    <i name="AMIN">      0.10000000</i>
    <i name="AMIX_MAG">      1.60000000</i>
    <i name="BMIX_MAG">      1.00000000</i>
    <separator name="electronic mixer details" >
     <i type="int" name="IMIX">     4</i>
     <i type="logical" name="MIXFIRST"> F  </i>
     <i type="int" name="MAXMIX">   -45</i>
     <i name="WC">    100.00000000</i>
     <i type="int" name="INIMIX">     1</i>
     <i type="int" name="MIXPRE">     1</i>
     <i type="int" name="MREMOVE">     5</i>
    </separator>
   </separator>
   <separator name="electronic dipolcorrection" >
    <i type="logical" name="LDIPOL"> F  </i>
    <i type="logical" name="LMONO"> F  </i>
    <i type="int" name="IDIPOL">     0</i>
    <i name="EPSILON">      1.00000000</i>
    <v name="DIPOL">   -100.00000000   -100.00000000   -100.00000000</v>
    <i name="EFIELD">      0.00000000</i>
   </separator>
  </separator>
  <separator name="grids" >
   <i type="int" name="NGX">    12</i>
   <i type="int" name="NGY">    12</i>
   <i type="int" name="NGZ">    12</i>
   <i type="int" name="NGXF">    24</i>
   <i type="int" name="NGYF">    24</i>
   <i type="int" name="NGZF">    24</i>
   <i type="logical" name="ADDGRID"> F  </i>
  </separator>
  <separator name="ionic" >
   <i type="int" name="NSW">     0</i>
   <i type="int" name="IBRION">    -1</i>
   <i type="int" name="MDALGO">     0</i>
   <i type="int" name="ISIF">     2</i>
   <i name="PSTRESS">      0.00000000</i>
   <i name="EDIFFG">      0.00100000</i>
   <i type="int" name="NFREE">     0</i>
   <i name="POTIM">      0.50000000</i>
   <i name="SMASS">     -3.00000000</i>
   <i name="SCALEE">      1.00000000</i>
  </separator>
  <separator name="ionic md" >
   <i name="TEBEG">      0.00010000</i>
   <i name="TEEND">      0.00010000</i>
   <i type="int" name="NBLOCK">     1</i>
   <i type="int" name="KBLOCK">     1</i>
   <i type="int" name="NPACO">   256</i>
   <i name="APACO">     16.00000000</i>
  </separator>
  <separator name="symmetry" >
   <i type="int" name="ISYM">     2</i>
   <i name="SYMPREC">      0.00001000</i>
  </separator>
  <separator name="dos" >
   <i type="int" name="LORBIT">     0</i>
   <v name="RWIGS">     -1.00000000</v>
   <i type="int" name="NEDOS">   301</i>
   <i name="EMIN">     10.00000000</i>
   <i name="EMAX">    -10.00000000</i>
   <i name="EFERMI">      0.00000000</i>
  </separator>
  <separator name="writing" >
   <i type="int" name="NWRITE">     2</i>
   <i type="logical" name="LWAVE"> T  </i>
   <i type="logical" name="LDOWNSAMPLE"> F  </i>
   <i type="logical" name="LCHARG"> T  </i>
   <i type="logical" name="LPARD"> F  </i>
   <i type="logical" name="LVTOT"> F  </i>
   <i type="logical" name="LVHAR"> F  </i>
   <i type="logical" name="LELF"> F  </i>
   <i type="logical" name="LOPTICS"> F  </i>
   <v name="STM">      0.00000000      0.00000000      0.00000000      0.00000000      0.00000000      0.00000000      0.00000000</v>
  </separator>
  <separator name="performance" >
   <i type="int" name="NPAR">     4</i>
   <i type="int" name="NSIM">     4</i>
   <i type="int" name="NBLK">    -1</i>
   <i type="logical" name="LPLANE"> T  </i>
   <i type="logical" name="LSCALAPACK"> T  </i>
   <i type="logical" name="LSCAAWARE"> F  </i>
   <i type="logical" name="LSCALU"> F  </i>
   <i type="logical" name="LASYNC"> F  </i>
   <i type="logical" name="LORBITALREAL"> F  </i>
  </separator>
  <separator name="miscellaneous" >
   <i type="int" name="IDIOT">     3</i>
   <i type="int" name="ISPECIAL">     0</i>
   <i type="logical" name="LMUSIC"> F  </i>
   <v name="POMASS">     58.69000000</v>
   <v name="DARWINR">      0.00000000</v>
   <v name="DARWINV">      1.00000000</v>
   <i type="logical" name="LCORR"> T  </i>
  </separator>
  <i type="logical" name="GGA_COMPAT"> T  </i>
  <i type="logical" name="LBERRY"> F  </i>
  <i type="int" name="ICORELEVEL">     0</i>
  <i type="logical" name="LDAU"> F  </i>
  <i type="int" name="I_CONSTRAINED_M">     0</i>
  <separator name="electronic exchange-correlation" >
   <i type="string" name="GGA">--</i>
   <i type="int" name="VOSKOWN">     0</i>
   <i type="logical" name="LHFCALC"> F  </i>
   <i type="string" name="PRECFOCK"></i>
   <i type="logical" name="LSYMGRAD"> F  </i>
   <i type="logical" name="LHFONE"> F  </i>
   <i type="logical" name="LRHFCALC"> F  </i>
   <i type="logical" name="LTHOMAS"> F  </i>
   <i type="logical" name="LMODELHF"> F  </i>
   <i name="ENCUT4O">     -1.00000000</i>
   <i type="int" name="EXXOEP">     0</i>
   <i type="int" name="FOURORBIT">     0</i>
   <i name="AEXX">      0.00000000</i>
   <i name="HFALPHA">      0.00000000</i>
   <i name="MCALPHA">      0.00000000</i>
   <i name="ALDAX">      1.00000000</i>
   <i name="AGGAX">      1.00000000</i>
   <i name="ALDAC">      1.00000000</i>
   <i name="AGGAC">      1.00000000</i>
   <i type="int" name="NKREDX">     1</i>
   <i type="int" name="NKREDY">     1</i>
   <i type="int" name="NKREDZ">     1</i>
   <i type="logical" name="SHIFTRED"> F  </i>
   <i type="logical" name="ODDONLY"> F  </i>
   <i type="logical" name="EVENONLY"> F  </i>
   <i type="int" name="LMAXFOCK">     0</i>
   <i type="int" name="NMAXFOCKAE">     0</i>
   <i type="logical" name="LFOCKAEDFT"> F  </i>
   <i name="HFSCREEN">      0.00000000</i>
   <i name="HFSCREENC">      0.00000000</i>
   <i type="int" name="NBANDSGWLOW">     0</i>
  </separator>
  <separator name="vdW DFT" >
   <i type="logical" name="LUSE_VDW"> F  </i>
   <i name="Zab_VDW">     -0.84910000</i>
   <i name="PARAM1">      0.12340000</i>
   <i name="PARAM2">      1.00000000</i>
   <i name="PARAM3">      0.00000000</i>
  </separator>
  <separator name="model GW" >
   <i type="int" name="MODEL_GW">     0</i>
   <i name="MODEL_EPS0">      7.59795000</i>
   <i name="MODEL_ALPHA">      1.00000000</i>
  </separator>
  <separator name="linear response parameters" >
   <i type="logical" name="LEPSILON"> F  </i>
   <i type="logical" name="LRPA"> F  </i>
   <i type="logical" name="LNABLA"> F  </i>
   <i type="logical" name="LVEL"> F  </i>
   <i type="int" name="KINTER">     0</i>
   <i name="CSHIFT">      0.10000000</i>
   <i name="OMEGAMAX">     -1.00000000</i>
   <i name="DEG_THRESHOLD">      0.00200000</i>
   <i name="RTIME">     -0.10000000</i>
   <i name="WPLASMAI">      0.00000000</i>
   <v name="DFIELD">      0.00000000      0.00000000      0.00000000</v>
   <v name="WPLASMA">      0.00000000      0.00000000      0.00000000      0.00000000      0.00000000      0.00000000      0.00000000      0.00000000      0.00000000</v>
  </separator>
  <separator name="orbital magnetization" >
   <i type="logical" name="NUCIND"> F  </i>
   <v name="MAGPOS">      0.00000000      0.00000000      0.00000000</v>
   <i type="logical" name="LNICSALL"> T  </i>
   <i type="logical" name="ORBITALMAG"> F  </i>
   <i type="logical" name="LMAGBLOCH"> F  </i>
   <i type="logical" name="LCHIMAG"> F  </i>
   <i type="logical" name="LGAUGE"> T  </i>
   <i type="int" name="MAGATOM">     0</i>
   <v name="MAGDIPOL">      0.00000000      0.00000000      0.00000000</v>
   <v name="AVECCONST">      0.00000000      0.00000000      0.00000000</v>
  </separator>
  <separator name="response functions" >
   <i type="logical" name="LADDER"> F  </i>
   <i type="logical" name="LRPAFORCE"> F  </i>
   <i type="logical" name="LFXC"> F  </i>
   <i type="logical" name="LHARTREE"> T  </i>
   <i type="int" name="IBSE">     0</i>
   <v type="int" name="KPOINT">    -1     0     0     0</v>
   <i type="logical" name="LTCTE"> F  </i>
   <i type="logical" name="LTETE"> F  </i>
   <i type="logical" name="LTRIPLET"> F  </i>
   <i type="logical" name="LFXCEPS"> F  </i>
   <i type="logical" name="LFXHEG"> F  </i>
   <i type="int" name="NATURALO">     2</i>
   <i type="logical" name="L2ORDER"> F  </i>
   <i type="logical" name="LMP2LT"> F  </i>
   <i type="logical" name="LUSEW"> F  </i>
   <i name="ENCUTGW">     -2.00000000</i>
   <i name="ENCUTGWSOFT">     -2.00000000</i>
   <i name="ENCUTLF">     -1.00000000</i>
   <i type="int" name="LMAXMP2">    -1</i>
   <i name="SCISSOR">      0.00000000</i>
   <i type="int" name="NOMEGA">     0</i>
   <i type="int" name="NOMEGAR">     0</i>
   <i type="int" name="NBANDSGW">    -1</i>
   <i type="int" name="NBANDSO">    -1</i>
   <i type="int" name="NBANDSV">    -1</i>
   <i type="int" name="NELM">     1</i>
   <i type="int" name="NELMHF">     1</i>
   <i type="int" name="DIM">     3</i>
   <i type="int" name="ANTIRES">     0</i>
   <i name="OMEGAMAX">    -30.00000000</i>
   <i name="OMEGAMIN">    -30.00000000</i>
   <i name="OMEGATL">   -200.00000000</i>
   <i type="int" name="OMEGAGRID">   140</i>
   <i name="CSHIFT">     -0.10000000</i>
   <i type="logical" name="SELFENERGY"> F  </i>
   <i type="logical" name="LSPECTRAL"> F  </i>
   <i type="logical" name="LSPECTRALGW"> F  </i>
   <i type="logical" name="LSINGLES"> F  </i>
   <i type="logical" name="LFERMIGW"> F  </i>
   <i type="logical" name="ODDONLYGW"> F  </i>
   <i type="logical" name="EVENONLYGW"> F  </i>
   <i type="int" name="NKREDLFX">     1</i>
   <i type="int" name="NKREDLFY">     1</i>
   <i type="int" name="NKREDLFZ">     1</i>
   <i type="int" name="MAXMEM">  2800</i>
   <i type="int" name="TELESCOPE">     0</i>
   <i type="int" name="TAUPAR">     1</i>
   <i type="int" name="OMEGAPAR">    -1</i>
   <i name="LAMBDA">      1.00000000</i>
  </separator>
  <separator name="External order field" >
   <i name="OFIELD_KAPPA">      0.00000000</i>
   <v name="OFIELD_K">      0.00000000      0.00000000      0.00000000</v>
   <i name="OFIELD_Q6_NEAR">      0.00000000</i>
   <i name="OFIELD_Q6_FAR">      0.00000000</i>
   <i name="OFIELD_A">      0.00000000</i>
  </separator>
 </parameters>
 <atominfo>
  <atoms>       1 </atoms>
  <types>       1 </types>
  <array name="atoms" >
   <dimension dim="1">ion</dimension>
   <field type="string">element</field>
   <field type="int">atomtype</field>
   <set>
    <rc><c>Ni</c><c>   1</c></rc>
   </set>
  </array>
  <array name="atomtypes" >
   <dimension dim="1">type</dimension>
   <field type="int">atomspertype</field>
   <field type="string">element</field>
   <field>mass</field>
   <field>valence</field>
   <field type="string">pseudopotential</field>
   <set>
    <rc><c>   1</c><c>Ni</c><c>     58.69000000</c><c>     10.00000000</c><c>  PAW_PBE Ni 02Aug2007                  </c></rc>
   </set>
  </array>
 </atominfo>
 <structure name="initialpos" >
  <crystal>
   <varray name="basis" >
    <v>       0.00000000       1.85000000       1.85000000 </v>
    <v>       1.85000000       0.00000000       1.85000000 </v>
    <v>       1.85000000       1.85000000       0.00000000 </v>
   </varray>
   <i name="volume">     12.66325000 </i>
   <varray name="rec_basis" >
    <v>      -0.27027027       0.27027027       0.27027027 </v>
    <v>       0.27027027      -0.27027027       0.27027027 </v>
    <v>       0.27027027       0.27027027      -0.27027027 </v>
   </varray>
  </crystal>
  <varray name="positions" >
   <v>       0.00000000       0.00000000       0.00000000 </v>
  </varray>
 </structure>
 <calculation>
  <scstep>
   <time name="dav">    0.32    0.33</time>
   <time name="total">    0.33    0.34</time>
   <energy>
    <i name="alphaZ">     40.27354826 </i>
    <i name="ewald">   -892.17618983 </i>
    <i name="hartreedc">   -267.84949076 </i>
    <i name="XCdc">     32.28511189 </i>
    <i name="pawpsdc">    961.92645289 </i>
    <i name="pawaedc">  -1028.66799202 </i>
    <i name="eentropy">      0.00002965 </i>
    <i name="bandstr">     95.60711036 </i>
    <i name="atom">   1077.63607467 </i>
    <i name="e_fr_energy">     19.03465511 </i>
    <i name="e_wo_entrp">     19.03462546 </i>
    <i name="e_0_energy">     19.03464522 </i>
   </energy>
  </scstep>
  <scstep>
   <time name="dav">    0.31    0.31</time>
   <time name="total">    0.31    0.31</time>
   <energy>
    <i name="e_fr_energy">     -5.30865325 </i>
    <i name="e_wo_entrp">     -5.31009251 </i>
    <i name="e_0_energy">     -5.30913300 </i>
   </energy>
  </scstep>
  <scstep>
   <time name="dav">    0.32    0.33</time>
   <time name="total">    0.32    0.33</time>
   <energy>
    <i name="e_fr_energy">     -5.79038937 </i>
    <i name="e_wo_entrp">     -5.79081106 </i>
    <i name="e_0_energy">     -5.79052993 </i>
   </energy>
  </scstep>
  <scstep>
   <time name="dav">    0.32    0.32</time>
   <time name="total">    0.32    0.33</time>
   <energy>
    <i name="e_fr_energy">     -5.79305298 </i>
    <i name="e_wo_entrp">     -5.79347797 </i>
    <i name="e_0_energy">     -5.79319465 </i>
   </energy>
  </scstep>
  <scstep>
   <time name="dav">    0.32    0.33</time>
   <time name="total">    0.33    0.33</time>
   <energy>
    <i name="e_fr_energy">     -5.79309355 </i>
    <i name="e_wo_entrp">     -5.79351857 </i>
    <i name="e_0_energy">     -5.79323523 </i>
   </energy>
  </scstep>
  <scstep>
   <time name="dav">    0.33    0.34</time>
   <time name="total">    0.35    0.35</time>
   <energy>
    <i name="e_fr_energy">     -5.99045950 </i>
    <i name="e_wo_entrp">     -5.98406464 </i>
    <i name="e_0_energy">     -5.98832788 </i>
   </energy>
  </scstep>
  <scstep>
   <time name="dav">    0.33    0.33</time>
   <time name="total">    0.34    0.35</time>
   <energy>
    <i name="e_fr_energy">     -5.34112272 </i>
    <i name="e_wo_entrp">     -5.33709849 </i>
    <i name="e_0_energy">     -5.33978131 </i>
   </energy>
  </scstep>
  <scstep>
   <time name="dav">    0.33    0.34</time>
   <time name="total">    0.35    0.35</time>
   <energy>
    <i name="e_fr_energy">     -5.33825665 </i>
    <i name="e_wo_entrp">     -5.33408414 </i>
    <i name="e_0_energy">     -5.33686581 </i>
   </energy>
  </scstep>
  <scstep>
   <time name="dav">    0.32    0.33</time>
   <time name="total">    0.34    0.34</time>
   <energy>
    <i name="e_fr_energy">     -5.33606997 </i>
    <i name="e_wo_entrp">     -5.33195869 </i>
    <i name="e_0_energy">     -5.33469954 </i>
   </energy>
  </scstep>
  <scstep>
   <time name="dav">    0.33    0.34</time>
   <time name="total">    0.35    0.36</time>
   <energy>
    <i name="e_fr_energy">     -5.33494907 </i>
    <i name="e_wo_entrp">     -5.33095620 </i>
    <i name="e_0_energy">     -5.33361812 </i>
   </energy>
  </scstep>
  <scstep>
   <time name="dav">    0.23    0.23</time>
   <time name="total">    0.24    0.24</time>
   <energy>
    <i name="alphaZ">     40.27354826 </i>
    <i name="ewald">   -892.17618983 </i>
    <i name="hartreedc">   -248.06790166 </i>
    <i name="XCdc">     30.36177590 </i>
    <i name="pawpsdc">   1070.04811411 </i>
    <i name="pawaedc">  -1137.85336707 </i>
    <i name="eentropy">     -0.00406623 </i>
    <i name="bandstr">     54.44704273 </i>
    <i name="atom">   1077.63607467 </i>
    <i name="e_fr_energy">     -5.33496912 </i>
    <i name="e_wo_entrp">     -5.33090290 </i>
    <i name="e_0_energy">     -5.33361371 </i>
   </energy>
  </scstep>
  <structure>
   <crystal>
    <varray name="basis" >
     <v>       0.00000000       1.85000000       1.85000000 </v>
     <v>       1.85000000       0.00000000       1.85000000 </v>
     <v>       1.85000000       1.85000000       0.00000000 </v>
    </varray>
    <i name="volume">     12.66325000 </i>
    <varray name="rec_basis" >
     <v>      -0.27027027       0.27027027       0.27027027 </v>
     <v>       0.27027027      -0.27027027       0.27027027 </v>
     <v>       0.27027027       0.27027027      -0.27027027 </v>
    </varray>
   </crystal>
   <varray name="positions" >
    <v>       0.00000000       0.00000000       0.00000000 </v>
   </varray>
  </structure>
  <varray name="forces" >
   <v>       0.00000000       0.00000000      -0.00000000 </v>
  </varray>
  <varray name="stress" >
   <v>    -243.22436557       0.00000000      -0.00000000 </v>
   <v>       0.00000000    -243.22436557       0.00000000 </v>
   <v>       0.00000000       0.00000000    -243.22436557 </v>
  </varray>
  <energy>
   <i name="e_fr_energy">     -5.33496912 </i>
   <i name="e_wo_entrp">     -5.33361371 </i>
   <i name="e_0_energy">     -0.00406623 </i>
  </energy>
  <time name="totalsc">    3.77    3.86</time>
  <eigenvalues>
   <array>
    <dimension dim="1">band</dimension>
    <dimension dim="2">kpoint</dimension>
    <dimension dim="3">spin</dimension>
    <field>eigene</field>
    <field>occ</field>
    <set>
     <set comment="spin 1">
      <set comment="kpoint 1">
       <r>   -0.5193    1.0000 </r>
       <r>    5.2790    1.0000 </r>
       <r>    5.3137    1.0000 </r>
       <r>    5.3137    1.0000 </r>
       <r>    6.2310    1.0000 </r>
       <r>    6.2310    1.0000 </r>
       <r>   29.4425    0.0000 </r>
       <r>   31.3423    0.0000 </r>
       <r>   32.2658    0.0000 </r>
       <r>   32.2658    0.0000 </r>
       <r>   35.5742    0.0000 </r>
       <r>   35.5742    0.0000 </r>
      </set>
      <set comment="kpoint 2">
       <r>   -0.0589    1.0000 </r>
       <r>    5.1772    1.0000 </r>
       <r>    5.3948    1.0000 </r>
       <r>    5.4091    1.0000 </r>
       <r>    6.1572    1.0000 </r>
       <r>    6.2549    1.0000 </r>
       <r>   26.8786    0.0000 </r>
       <r>   28.9753    0.0000 </r>
       <r>   31.5498    0.0000 </r>
       <r>   32.8910    0.0000 </r>
       <r>   35.6802    0.0000 </r>
       <r>   35.8372    0.0000 </r>
      </set>
      <set comment="kpoint 3">
       <r>    1.0245    1.0000 </r>
       <r>    5.0344    1.0000 </r>
       <r>    5.4891    1.0000 </r>
       <r>    5.5080    1.0000 </r>
       <r>    6.1423    1.0000 </r>
       <r>    6.3438    1.0000 </r>
       <r>   21.9906    0.0000 </r>
       <r>   27.9717    0.0000 </r>
       <r>   31.0846    0.0000 </r>
       <r>   32.1844    0.0000 </r>
       <r>   35.2728    0.0000 </r>
       <r>   35.3761    0.0000 </r>
      </set>
      <set comment="kpoint 4">
       <r>    2.4136    1.0000 </r>
       <r>    5.1758    1.0000 </r>
       <r>    5.4350    1.0000 </r>
       <r>    5.4703    1.0000 </r>
       <r>    6.3526    1.0000 </r>
       <r>    6.6008    1.0000 </r>
       <r>   17.4471    0.0000 </r>
       <r>   27.4378    0.0000 </r>
       <r>   30.0253    0.0000 </r>
       <r>   31.2626    0.0000 </r>
       <r>   33.3774    0.0000 </r>
       <r>   34.9528    0.0000 </r>
      </set>
      <set comment="kpoint 5">
       <r>    3.2319    1.0000 </r>
       <r>    5.3324    1.0000 </r>
       <r>    5.3810    1.0000 </r>
       <r>    6.0991    1.0000 </r>
       <r>    6.6255    1.0000 </r>
       <r>    7.1049    1.0295 </r>
       <r>   13.6600    0.0000 </r>
       <r>   27.3890    0.0000 </r>
       <r>   29.1565    0.0000 </r>
       <r>   29.9071    0.0000 </r>
       <r>   32.8890    0.0000 </r>
       <r>   34.1611    0.0000 </r>
      </set>
      <set comment="kpoint 6">
       <r>    3.3552    1.0000 </r>
       <r>    5.2953    1.0000 </r>
       <r>    5.3556    1.0000 </r>
       <r>    6.4068    1.0000 </r>
       <r>    6.7549    1.0000 </r>
       <r>    7.7408   -0.0176 </r>
       <r>   12.1634   -0.0000 </r>
       <r>   27.7837    0.0000 </r>
       <r>   28.8289    0.0000 </r>
       <r>   28.9780    0.0000 </r>
       <r>   33.3810    0.0000 </r>
       <r>   33.5544    0.0000 </r>
      </set>
      <set comment="kpoint 7">
       <r>    3.0659    1.0000 </r>
       <r>    5.3533    1.0000 </r>
       <r>    5.4150    1.0000 </r>
       <r>    5.7221    1.0000 </r>
       <r>    6.6697    1.0000 </r>
       <r>    6.7730    1.0000 </r>
       <r>   14.8000    0.0000 </r>
       <r>   28.2926    0.0000 </r>
       <r>   28.4021    0.0000 </r>
       <r>   29.8687    0.0000 </r>
       <r>   33.4913    0.0000 </r>
       <r>   34.5996    0.0000 </r>
      </set>
      <set comment="kpoint 8">
       <r>    1.9602    1.0000 </r>
       <r>    5.0523    1.0000 </r>
       <r>    5.4638    1.0000 </r>
       <r>    5.4992    1.0000 </r>
       <r>    6.3183    1.0000 </r>
       <r>    6.4501    1.0000 </r>
       <r>   18.8991    0.0000 </r>
       <r>   28.6191    0.0000 </r>
       <r>   28.8758    0.0000 </r>
       <r>   31.5675    0.0000 </r>
       <r>   33.8832    0.0000 </r>
       <r>   36.4180    0.0000 </r>
      </set>
      <set comment="kpoint 9">
       <r>    0.6047    1.0000 </r>
       <r>    5.0659    1.0000 </r>
       <r>    5.4816    1.0000 </r>
       <r>    5.4865    1.0000 </r>
       <r>    6.1296    1.0000 </r>
       <r>    6.2934    1.0000 </r>
       <r>   23.6084    0.0000 </r>
       <r>   29.3905    0.0000 </r>
       <r>   29.5294    0.0000 </r>
       <r>   32.9986    0.0000 </r>
       <r>   34.4769    0.0000 </r>
       <r>   37.6304    0.0000 </r>
      </set>
      <set comment="kpoint 10">
       <r>   -0.2874    1.0000 </r>
       <r>    5.2131    1.0000 </r>
       <r>    5.3675    1.0000 </r>
       <r>    5.3706    1.0000 </r>
       <r>    6.1697    1.0000 </r>
       <r>    6.2603    1.0000 </r>
       <r>   28.3938    0.0000 </r>
       <r>   30.3068    0.0000 </r>
       <r>   30.6683    0.0000 </r>
       <r>   32.3347    0.0000 </r>
       <r>   35.7315    0.0000 </r>
       <r>   37.2587    0.0000 </r>
      </set>
      <set comment="kpoint 11">
       <r>    0.1678    1.0000 </r>
       <r>    5.0821    1.0000 </r>
       <r>    5.4759    1.0000 </r>
       <r>    5.4787    1.0000 </r>
       <r>    6.0545    1.0000 </r>
       <r>    6.3149    1.0000 </r>
       <r>   27.0537    0.0000 </r>
       <r>   28.8867    0.0000 </r>
       <r>   29.2056    0.0000 </r>
       <r>   31.2623    0.0000 </r>
       <r>   35.3469    0.0000 </r>
       <r>   37.5126    0.0000 </r>
      </set>
      <set comment="kpoint 12">
       <r>    1.0352    1.0000 </r>
       <r>    4.9073    1.0000 </r>
       <r>    5.5486    1.0000 </r>
       <r>    5.6337    1.0000 </r>
       <r>    6.0055    1.0000 </r>
       <r>    6.4135    1.0000 </r>
       <r>   23.9425    0.0000 </r>
       <r>   25.9751    0.0000 </r>
       <r>   29.7320    0.0000 </r>
       <r>   30.9923    0.0000 </r>
       <r>   33.4465    0.0000 </r>
       <r>   37.8492    0.0000 </r>
      </set>
      <set comment="kpoint 13">
       <r>    2.3401    1.0000 </r>
       <r>    4.8311    1.0000 </r>
       <r>    5.4008    1.0000 </r>
       <r>    5.6688    1.0000 </r>
       <r>    6.3180    1.0000 </r>
       <r>    6.6864    1.0000 </r>
       <r>   19.2510    0.0000 </r>
       <r>   25.2457    0.0000 </r>
       <r>   28.2736    0.0000 </r>
       <r>   29.9655    0.0000 </r>
       <r>   35.6111    0.0000 </r>
       <r>   36.5036    0.0000 </r>
      </set>
      <set comment="kpoint 14">
       <r>    3.3717    1.0000 </r>
       <r>    5.1461    1.0000 </r>
       <r>    5.2841    1.0000 </r>
       <r>    5.5925    1.0000 </r>
       <r>    6.6598    1.0000 </r>
       <r>    7.4816    0.1727 </r>
       <r>   15.1130    0.0000 </r>
       <r>   25.1255    0.0000 </r>
       <r>   26.4486    0.0000 </r>
       <r>   29.3591    0.0000 </r>
       <r>   35.3072    0.0000 </r>
       <r>   37.5297    0.0000 </r>
      </set>
      <set comment="kpoint 15">
       <r>    3.6218    1.0000 </r>
       <r>    5.1215    1.0000 </r>
       <r>    5.5248    1.0000 </r>
       <r>    5.7159    1.0000 </r>
       <r>    6.7304    1.0000 </r>
       <r>    8.9008   -0.0000 </r>
       <r>   12.3048   -0.0000 </r>
       <r>   24.8248    0.0000 </r>
       <r>   25.8998    0.0000 </r>
       <r>   29.3545    0.0000 </r>
       <r>   34.5625    0.0000 </r>
       <r>   37.2122    0.0000 </r>
      </set>
      <set comment="kpoint 16">
       <r>    3.5245    1.0000 </r>
       <r>    5.1792    1.0000 </r>
       <r>    5.4731    1.0000 </r>
       <r>    5.5645    1.0000 </r>
       <r>    6.5826    1.0000 </r>
       <r>    8.0165   -0.0001 </r>
       <r>   13.9455    0.0000 </r>
       <r>   24.0721    0.0000 </r>
       <r>   27.1224    0.0000 </r>
       <r>   30.0132    0.0000 </r>
       <r>   34.2262    0.0000 </r>
       <r>   36.9032    0.0000 </r>
      </set>
      <set comment="kpoint 17">
       <r>    2.7785    1.0000 </r>
       <r>    4.9367    1.0000 </r>
       <r>    5.3358    1.0000 </r>
       <r>    5.6376    1.0000 </r>
       <r>    6.2590    1.0000 </r>
       <r>    7.0004    1.0086 </r>
       <r>   17.8043    0.0000 </r>
       <r>   23.9326    0.0000 </r>
       <r>   28.9603    0.0000 </r>
       <r>   31.2905    0.0000 </r>
       <r>   34.3189    0.0000 </r>
       <r>   36.1804    0.0000 </r>
      </set>
      <set comment="kpoint 18">
       <r>    1.4421    1.0000 </r>
       <r>    4.9033    1.0000 </r>
       <r>    5.4869    1.0000 </r>
       <r>    5.6580    1.0000 </r>
       <r>    6.0068    1.0000 </r>
       <r>    6.5321    1.0000 </r>
       <r>   22.3393    0.0000 </r>
       <r>   24.4400    0.0000 </r>
       <r>   31.1439    0.0000 </r>
       <r>   32.3504    0.0000 </r>
       <r>   34.5126    0.0000 </r>
       <r>   35.5470    0.0000 </r>
      </set>
      <set comment="kpoint 19">
       <r>    0.3892    1.0000 </r>
       <r>    5.0689    1.0000 </r>
       <r>    5.4805    1.0000 </r>
       <r>    5.4884    1.0000 </r>
       <r>    6.0736    1.0000 </r>
       <r>    6.3149    1.0000 </r>
       <r>   25.3593    0.0000 </r>
       <r>   27.4406    0.0000 </r>
       <r>   30.9191    0.0000 </r>
       <r>   32.8494    0.0000 </r>
       <r>   34.8041    0.0000 </r>
       <r>   36.8210    0.0000 </r>
      </set>
      <set comment="kpoint 20">
       <r>    1.6388    1.0000 </r>
       <r>    4.6941    1.0000 </r>
       <r>    5.6797    1.0000 </r>
       <r>    5.8308    1.0000 </r>
       <r>    5.9690    1.0000 </r>
       <r>    6.4789    1.0000 </r>
       <r>   24.3382    0.0000 </r>
       <r>   25.5812    0.0000 </r>
       <r>   27.1290    0.0000 </r>
       <r>   27.8671    0.0000 </r>
       <r>   30.7449    0.0000 </r>
       <r>   41.6344    0.0000 </r>
      </set>
      <set comment="kpoint 21">
       <r>    2.6681    1.0000 </r>
       <r>    4.5178    1.0000 </r>
       <r>    5.5039    1.0000 </r>
       <r>    6.0306    1.0000 </r>
       <r>    6.3511    1.0000 </r>
       <r>    6.7042    1.0000 </r>
       <r>   21.5006    0.0000 </r>
       <r>   23.3801    0.0000 </r>
       <r>   25.0527    0.0000 </r>
       <r>   28.3334    0.0000 </r>
       <r>   31.2362    0.0000 </r>
       <r>   41.0103    0.0000 </r>
      </set>
      <set comment="kpoint 22">
       <r>    3.6370    1.0000 </r>
       <r>    4.5233    1.0000 </r>
       <r>    5.2933    1.0000 </r>
       <r>    5.9913    1.0000 </r>
       <r>    6.7032    1.0000 </r>
       <r>    7.7668   -0.0125 </r>
       <r>   17.1925    0.0000 </r>
       <r>   22.6818    0.0000 </r>
       <r>   23.1972    0.0000 </r>
       <r>   28.3198    0.0000 </r>
       <r>   34.6362    0.0000 </r>
       <r>   39.4307    0.0000 </r>
      </set>
      <set comment="kpoint 23">
       <r>    4.0164    1.0000 </r>
       <r>    4.7050    1.0000 </r>
       <r>    5.2593    1.0000 </r>
       <r>    5.8981    1.0000 </r>
       <r>    6.7416    1.0000 </r>
       <r>    9.8401   -0.0000 </r>
       <r>   13.5459    0.0000 </r>
       <r>   21.0251    0.0000 </r>
       <r>   23.6074    0.0000 </r>
       <r>   28.4971    0.0000 </r>
       <r>   37.4942    0.0000 </r>
       <r>   39.6335    0.0000 </r>
      </set>
      <set comment="kpoint 24">
       <r>    4.0966    1.0000 </r>
       <r>    4.8262    1.0000 </r>
       <r>    5.1726    1.0000 </r>
       <r>    5.8550    1.0000 </r>
       <r>    6.5476    1.0000 </r>
       <r>    9.9395   -0.0000 </r>
       <r>   13.5578    0.0000 </r>
       <r>   19.9278    0.0000 </r>
       <r>   24.8309    0.0000 </r>
       <r>   29.1995    0.0000 </r>
       <r>   36.7991    0.0000 </r>
       <r>   40.3846    0.0000 </r>
      </set>
      <set comment="kpoint 25">
       <r>    3.7809    1.0000 </r>
       <r>    4.8078    1.0000 </r>
       <r>    5.0574    1.0000 </r>
       <r>    5.9067    1.0000 </r>
       <r>    6.2040    1.0000 </r>
       <r>    8.1027   -0.0000 </r>
       <r>   17.1977    0.0000 </r>
       <r>   19.5501    0.0000 </r>
       <r>   26.6647    0.0000 </r>
       <r>   30.5653    0.0000 </r>
       <r>   35.7403    0.0000 </r>
       <r>   39.0874    0.0000 </r>
      </set>
      <set comment="kpoint 26">
       <r>    2.6996    1.0000 </r>
       <r>    4.7928    1.0000 </r>
       <r>    5.3223    1.0000 </r>
       <r>    5.8190    1.0000 </r>
       <r>    6.0349    1.0000 </r>
       <r>    7.0606    1.0195 </r>
       <r>   19.6065    0.0000 </r>
       <r>   21.7766    0.0000 </r>
       <r>   28.9244    0.0000 </r>
       <r>   32.2645    0.0000 </r>
       <r>   34.0857    0.0000 </r>
       <r>   36.9044    0.0000 </r>
      </set>
      <set comment="kpoint 27">
       <r>    1.6215    1.0000 </r>
       <r>    4.9529    1.0000 </r>
       <r>    5.4803    1.0000 </r>
       <r>    5.5675    1.0000 </r>
       <r>    6.1563    1.0000 </r>
       <r>    6.4885    1.0000 </r>
       <r>   20.5365    0.0000 </r>
       <r>   26.5538    0.0000 </r>
       <r>   30.1053    0.0000 </r>
       <r>   32.0582    0.0000 </r>
       <r>   34.3667    0.0000 </r>
       <r>   35.8547    0.0000 </r>
      </set>
      <set comment="kpoint 28">
       <r>    3.1807    1.0000 </r>
       <r>    4.2802    1.0000 </r>
       <r>    5.9816    1.0000 </r>
       <r>    6.2909    1.0000 </r>
       <r>    6.6119    1.0000 </r>
       <r>    6.6626    1.0000 </r>
       <r>   21.9123    0.0000 </r>
       <r>   22.1772    0.0000 </r>
       <r>   22.9674    0.0000 </r>
       <r>   26.4257    0.0000 </r>
       <r>   29.0297    0.0000 </r>
       <r>   45.4633    0.0000 </r>
      </set>
      <set comment="kpoint 29">
       <r>    3.6311    1.0000 </r>
       <r>    4.1723    1.0000 </r>
       <r>    5.9402    1.0000 </r>
       <r>    6.4704    1.0000 </r>
       <r>    6.7175    1.0000 </r>
       <r>    7.9535   -0.0003 </r>
       <r>   19.5539    0.0000 </r>
       <r>   19.7898    0.0000 </r>
       <r>   21.5060    0.0000 </r>
       <r>   27.2924    0.0000 </r>
       <r>   30.1570    0.0000 </r>
       <r>   43.8133    0.0000 </r>
      </set>
      <set comment="kpoint 30">
       <r>    3.9698    1.0000 </r>
       <r>    4.2526    1.0000 </r>
       <r>    5.6531    1.0000 </r>
       <r>    6.3521    1.0000 </r>
       <r>    6.7734    1.0000 </r>
       <r>   10.2603   -0.0000 </r>
       <r>   15.9016    0.0000 </r>
       <r>   17.7914    0.0000 </r>
       <r>   21.7704    0.0000 </r>
       <r>   27.6708    0.0000 </r>
       <r>   33.9633    0.0000 </r>
       <r>   42.0564    0.0000 </r>
      </set>
      <set comment="kpoint 31">
       <r>    4.2623    1.0000 </r>
       <r>    4.4567    1.0000 </r>
       <r>    5.2801    1.0000 </r>
       <r>    6.2134    1.0000 </r>
       <r>    6.6060    1.0000 </r>
       <r>   12.4383   -0.0000 </r>
       <r>   13.2896    0.0000 </r>
       <r>   16.7219    0.0000 </r>
       <r>   22.8729    0.0000 </r>
       <r>   28.2060    0.0000 </r>
       <r>   38.7109    0.0000 </r>
       <r>   40.3892    0.0000 </r>
      </set>
      <set comment="kpoint 32">
       <r>    4.2952    1.0000 </r>
       <r>    4.7453    1.0000 </r>
       <r>    4.9688    1.0000 </r>
       <r>    6.0188    1.0000 </r>
       <r>    6.4169    1.0000 </r>
       <r>    9.9455   -0.0000 </r>
       <r>   15.0879    0.0000 </r>
       <r>   17.8551    0.0000 </r>
       <r>   24.6293    0.0000 </r>
       <r>   29.1731    0.0000 </r>
       <r>   37.8711    0.0000 </r>
       <r>   41.5165    0.0000 </r>
      </set>
      <set comment="kpoint 33">
       <r>    3.6641    1.0000 </r>
       <r>    5.0619    1.0000 </r>
       <r>    5.1090    1.0000 </r>
       <r>    5.7197    1.0000 </r>
       <r>    6.4006    1.0000 </r>
       <r>    8.0785   -0.0000 </r>
       <r>   15.4628    0.0000 </r>
       <r>   21.7057    0.0000 </r>
       <r>   26.8145    0.0000 </r>
       <r>   30.3867    0.0000 </r>
       <r>   34.9814    0.0000 </r>
       <r>   38.1492    0.0000 </r>
      </set>
      <set comment="kpoint 34">
       <r>    2.9107    1.0000 </r>
       <r>    5.2477    1.0000 </r>
       <r>    5.3519    1.0000 </r>
       <r>    5.4998    1.0000 </r>
       <r>    6.4833    1.0000 </r>
       <r>    6.8852    1.0009 </r>
       <r>   16.1852    0.0000 </r>
       <r>   26.2218    0.0000 </r>
       <r>   28.9081    0.0000 </r>
       <r>   30.2639    0.0000 </r>
       <r>   34.0703    0.0000 </r>
       <r>   35.6302    0.0000 </r>
      </set>
      <set comment="kpoint 35">
       <r>    3.5801    1.0000 </r>
       <r>    3.9934    1.0000 </r>
       <r>    6.6113    1.0000 </r>
       <r>    6.6791    1.0000 </r>
       <r>    6.8008    1.0001 </r>
       <r>    8.6558   -0.0000 </r>
       <r>   17.1823    0.0000 </r>
       <r>   20.5641    0.0000 </r>
       <r>   21.3461    0.0000 </r>
       <r>   25.8605    0.0000 </r>
       <r>   28.4352    0.0000 </r>
       <r>   47.6848    0.0000 </r>
      </set>
      <set comment="kpoint 36">
       <r>    3.6922    1.0000 </r>
       <r>    3.9999    1.0000 </r>
       <r>    6.3800    1.0000 </r>
       <r>    6.6908    1.0000 </r>
       <r>    6.8287    1.0002 </r>
       <r>   10.2990   -0.0000 </r>
       <r>   15.7040    0.0000 </r>
       <r>   18.8699    0.0000 </r>
       <r>   20.5877    0.0000 </r>
       <r>   26.8944    0.0000 </r>
       <r>   29.7852    0.0000 </r>
       <r>   46.0655    0.0000 </r>
      </set>
      <set comment="kpoint 37">
       <r>    3.9662    1.0000 </r>
       <r>    4.1945    1.0000 </r>
       <r>    5.7858    1.0000 </r>
       <r>    6.4646    1.0000 </r>
       <r>    6.7491    1.0000 </r>
       <r>   11.5552   -0.0000 </r>
       <r>   15.5345    0.0000 </r>
       <r>   16.1233    0.0000 </r>
       <r>   21.4866    0.0000 </r>
       <r>   27.5570    0.0000 </r>
       <r>   33.8396    0.0000 </r>
       <r>   43.0957    0.0000 </r>
      </set>
      <set comment="kpoint 38">
       <r>    4.1868    1.0000 </r>
       <r>    4.5400    1.0000 </r>
       <r>    5.2677    1.0000 </r>
       <r>    6.0750    1.0000 </r>
       <r>    6.6827    1.0000 </r>
       <r>   11.3645   -0.0000 </r>
       <r>   13.1119    0.0000 </r>
       <r>   18.6307    0.0000 </r>
       <r>   23.1187    0.0000 </r>
       <r>   28.2981    0.0000 </r>
       <r>   38.4036    0.0000 </r>
       <r>   39.7804    0.0000 </r>
      </set>
      <set comment="kpoint 39">
       <r>    3.8541    1.0000 </r>
       <r>    4.9671    1.0000 </r>
       <r>    5.4355    1.0000 </r>
       <r>    5.6758    1.0000 </r>
       <r>    6.6676    1.0000 </r>
       <r>    9.6912   -0.0000 </r>
       <r>   12.4757   -0.0000 </r>
       <r>   22.3337    0.0000 </r>
       <r>   25.2410    0.0000 </r>
       <r>   29.2618    0.0000 </r>
       <r>   35.6038    0.0000 </r>
       <r>   38.9174    0.0000 </r>
      </set>
      <set comment="kpoint 40">
       <r>    3.4146    1.0000 </r>
       <r>    5.2505    1.0000 </r>
       <r>    5.4235    1.0000 </r>
       <r>    5.9852    1.0000 </r>
       <r>    6.7110    1.0000 </r>
       <r>    7.8949   -0.0012 </r>
       <r>   12.7982   -0.0000 </r>
       <r>   26.4360    0.0000 </r>
       <r>   27.6185    0.0000 </r>
       <r>   29.4772    0.0000 </r>
       <r>   33.7288    0.0000 </r>
       <r>   35.2941    0.0000 </r>
      </set>
      <set comment="kpoint 41">
       <r>    3.5833    1.0000 </r>
       <r>    3.9309    1.0000 </r>
       <r>    6.7334    1.0000 </r>
       <r>    6.7687    1.0000 </r>
       <r>    6.8372    1.0003 </r>
       <r>    9.7522   -0.0000 </r>
       <r>   15.6096    0.0000 </r>
       <r>   20.2418    0.0000 </r>
       <r>   21.0017    0.0000 </r>
       <r>   25.7542    0.0000 </r>
       <r>   28.3413    0.0000 </r>
       <r>   48.1696    0.0000 </r>
      </set>
      <set comment="kpoint 42">
       <r>    3.6954    1.0000 </r>
       <r>    4.0590    1.0000 </r>
       <r>    6.2188    1.0000 </r>
       <r>    6.6295    1.0000 </r>
       <r>    6.7835    1.0001 </r>
       <r>    9.1786   -0.0000 </r>
       <r>   17.3210    0.0000 </r>
       <r>   19.1652    0.0000 </r>
       <r>   20.8996    0.0000 </r>
       <r>   27.0230    0.0000 </r>
       <r>   29.9012    0.0000 </r>
       <r>   45.1243    0.0000 </r>
      </set>
      <set comment="kpoint 43">
       <r>    3.9078    1.0000 </r>
       <r>    4.3691    1.0000 </r>
       <r>    5.4473    1.0000 </r>
       <r>    6.1812    1.0000 </r>
       <r>    6.7674    1.0000 </r>
       <r>    8.8747   -0.0000 </r>
       <r>   16.4409    0.0000 </r>
       <r>   20.1340    0.0000 </r>
       <r>   22.3279    0.0000 </r>
       <r>   27.9168    0.0000 </r>
       <r>   34.2307    0.0000 </r>
       <r>   40.7451    0.0000 </r>
      </set>
      <set comment="kpoint 44">
       <r>    3.7447    1.0000 </r>
       <r>    4.9224    1.0000 </r>
       <r>    5.2667    1.0000 </r>
       <r>    5.7295    1.0000 </r>
       <r>    6.7399    1.0000 </r>
       <r>    8.4997   -0.0000 </r>
       <r>   14.2269    0.0000 </r>
       <r>   23.5735    0.0000 </r>
       <r>   24.3760    0.0000 </r>
       <r>   28.8331    0.0000 </r>
       <r>   36.3855    0.0000 </r>
       <r>   39.5980    0.0000 </r>
      </set>
      <set comment="kpoint 45">
       <r>    3.5020    1.0000 </r>
       <r>    4.1131    1.0000 </r>
       <r>    6.3639    1.0000 </r>
       <r>    6.5076    1.0000 </r>
       <r>    6.7400    1.0000 </r>
       <r>    7.4213    0.3949 </r>
       <r>   19.4488    0.0000 </r>
       <r>   21.1847    0.0000 </r>
       <r>   22.0127    0.0000 </r>
       <r>   26.0779    0.0000 </r>
       <r>   28.6458    0.0000 </r>
       <r>   46.7486    0.0000 </r>
      </set>
      <set comment="kpoint 46">
       <r>    3.3279    1.0000 </r>
       <r>    4.3301    1.0000 </r>
       <r>    5.6376    1.0000 </r>
       <r>    6.2565    1.0000 </r>
       <r>    6.5953    1.0000 </r>
       <r>    7.0936    1.0271 </r>
       <r>   20.5091    0.0000 </r>
       <r>   22.1183    0.0000 </r>
       <r>   22.4808    0.0000 </r>
       <r>   27.7188    0.0000 </r>
       <r>   30.5873    0.0000 </r>
       <r>   42.4149    0.0000 </r>
      </set>
      <set comment="kpoint 47">
       <r>    3.0709    1.0000 </r>
       <r>    4.6837    1.0000 </r>
       <r>    5.2976    1.0000 </r>
       <r>    5.8129    1.0000 </r>
       <r>    6.5563    1.0000 </r>
       <r>    7.0433    1.0158 </r>
       <r>   18.1332    0.0000 </r>
       <r>   24.0654    0.0000 </r>
       <r>   25.5808    0.0000 </r>
       <r>   28.9356    0.0000 </r>
       <r>   35.1547    0.0000 </r>
       <r>   38.0927    0.0000 </r>
      </set>
      <set comment="kpoint 48">
       <r>    2.4987    1.0000 </r>
       <r>    4.4803    1.0000 </r>
       <r>    5.7131    1.0000 </r>
       <r>    6.0565    1.0000 </r>
       <r>    6.2151    1.0000 </r>
       <r>    6.5728    1.0000 </r>
       <r>   23.1060    0.0000 </r>
       <r>   24.1698    0.0000 </r>
       <r>   24.7646    0.0000 </r>
       <r>   26.9358    0.0000 </r>
       <r>   29.6638    0.0000 </r>
       <r>   43.7335    0.0000 </r>
      </set>
      <set comment="kpoint 49">
       <r>    1.8311    1.0000 </r>
       <r>    4.7168    1.0000 </r>
       <r>    5.5331    1.0000 </r>
       <r>    5.8183    1.0000 </r>
       <r>    6.0984    1.0000 </r>
       <r>    6.5372    1.0000 </r>
       <r>   22.6524    0.0000 </r>
       <r>   24.6159    0.0000 </r>
       <r>   27.8057    0.0000 </r>
       <r>   29.2292    0.0000 </r>
       <r>   32.1578    0.0000 </r>
       <r>   39.5216    0.0000 </r>
      </set>
      <set comment="kpoint 50">
       <r>    0.8254    1.0000 </r>
       <r>    4.9024    1.0000 </r>
       <r>    5.6173    1.0000 </r>
       <r>    5.6352    1.0000 </r>
       <r>    5.9345    1.0000 </r>
       <r>    6.3904    1.0000 </r>
       <r>   25.6712    0.0000 </r>
       <r>   27.1683    0.0000 </r>
       <r>   28.2111    0.0000 </r>
       <r>   29.7508    0.0000 </r>
       <r>   32.6836    0.0000 </r>
       <r>   39.4677    0.0000 </r>
      </set>
      <set comment="kpoint 51">
       <r>    0.1654    1.0000 </r>
       <r>    5.1495    1.0000 </r>
       <r>    5.4248    1.0000 </r>
       <r>    5.4248    1.0000 </r>
       <r>    6.2055    1.0000 </r>
       <r>    6.2055    1.0000 </r>
       <r>   25.1944    0.0000 </r>
       <r>   30.3831    0.0000 </r>
       <r>   31.2048    0.0000 </r>
       <r>   31.2048    0.0000 </r>
       <r>   36.5996    0.0000 </r>
       <r>   37.2634    0.0000 </r>
      </set>
      <set comment="kpoint 52">
       <r>    0.8221    1.0000 </r>
       <r>    5.0137    1.0000 </r>
       <r>    5.4934    1.0000 </r>
       <r>    5.5428    1.0000 </r>
       <r>    6.0431    1.0000 </r>
       <r>    6.3834    1.0000 </r>
       <r>   23.7769    0.0000 </r>
       <r>   25.8771    0.0000 </r>
       <r>   32.2789    0.0000 </r>
       <r>   34.0336    0.0000 </r>
       <r>   34.0507    0.0000 </r>
       <r>   35.2497    0.0000 </r>
      </set>
      <set comment="kpoint 53">
       <r>    2.0166    1.0000 </r>
       <r>    4.8674    1.0000 </r>
       <r>    5.4306    1.0000 </r>
       <r>    5.7197    1.0000 </r>
       <r>    5.9683    1.0000 </r>
       <r>    6.7529    1.0000 </r>
       <r>   20.8910    0.0000 </r>
       <r>   23.0252    0.0000 </r>
       <r>   31.5300    0.0000 </r>
       <r>   32.2241    0.0000 </r>
       <r>   34.2011    0.0000 </r>
       <r>   35.5594    0.0000 </r>
      </set>
      <set comment="kpoint 54">
       <r>    3.2463    1.0000 </r>
       <r>    5.0338    1.0000 </r>
       <r>    5.2567    1.0000 </r>
       <r>    5.6371    1.0000 </r>
       <r>    6.2761    1.0000 </r>
       <r>    7.4297    0.3606 </r>
       <r>   16.5422    0.0000 </r>
       <r>   22.7339    0.0000 </r>
       <r>   29.5492    0.0000 </r>
       <r>   29.6823    0.0000 </r>
       <r>   35.4092    0.0000 </r>
       <r>   35.7242    0.0000 </r>
      </set>
      <set comment="kpoint 55">
       <r>    3.6809    1.0000 </r>
       <r>    5.1041    1.0000 </r>
       <r>    5.5558    1.0000 </r>
       <r>    5.5722    1.0000 </r>
       <r>    6.6018    1.0000 </r>
       <r>    8.7760   -0.0000 </r>
       <r>   13.0327    0.0000 </r>
       <r>   23.1141    0.0000 </r>
       <r>   27.4958    0.0000 </r>
       <r>   28.5230    0.0000 </r>
       <r>   35.7992    0.0000 </r>
       <r>   36.5610    0.0000 </r>
      </set>
      <set comment="kpoint 56">
       <r>    3.6659    1.0000 </r>
       <r>    5.0630    1.0000 </r>
       <r>    5.5051    1.0000 </r>
       <r>    5.5940    1.0000 </r>
       <r>    6.7685    1.0000 </r>
       <r>    8.7144   -0.0000 </r>
       <r>   13.0168    0.0000 </r>
       <r>   24.1513    0.0000 </r>
       <r>   26.2171    0.0000 </r>
       <r>   28.0188    0.0000 </r>
       <r>   36.7518    0.0000 </r>
       <r>   37.0463    0.0000 </r>
      </set>
      <set comment="kpoint 57">
       <r>    3.2148    1.0000 </r>
       <r>    4.8843    1.0000 </r>
       <r>    5.2816    1.0000 </r>
       <r>    5.6714    1.0000 </r>
       <r>    6.7132    1.0000 </r>
       <r>    7.1376    1.0348 </r>
       <r>   16.5161    0.0000 </r>
       <r>   25.7466    0.0000 </r>
       <r>   25.7594    0.0000 </r>
       <r>   28.1141    0.0000 </r>
       <r>   37.3416    0.0000 </r>
       <r>   37.7661    0.0000 </r>
      </set>
      <set comment="kpoint 58">
       <r>    2.0079    1.0000 </r>
       <r>    4.7542    1.0000 </r>
       <r>    5.4786    1.0000 </r>
       <r>    5.7207    1.0000 </r>
       <r>    6.2788    1.0000 </r>
       <r>    6.5269    1.0000 </r>
       <r>   20.8761    0.0000 </r>
       <r>   26.1010    0.0000 </r>
       <r>   27.3710    0.0000 </r>
       <r>   29.0114    0.0000 </r>
       <r>   33.8421    0.0000 </r>
       <r>   38.5453    0.0000 </r>
      </set>
      <set comment="kpoint 59">
       <r>    1.2355    1.0000 </r>
       <r>    4.9274    1.0000 </r>
       <r>    5.5251    1.0000 </r>
       <r>    5.5859    1.0000 </r>
       <r>    6.1087    1.0000 </r>
       <r>    6.4063    1.0000 </r>
       <r>   22.1681    0.0000 </r>
       <r>   27.6733    0.0000 </r>
       <r>   28.5439    0.0000 </r>
       <r>   31.6377    0.0000 </r>
       <r>   34.2631    0.0000 </r>
       <r>   37.0464    0.0000 </r>
      </set>
      <set comment="kpoint 60">
       <r>    2.1982    1.0000 </r>
       <r>    4.7541    1.0000 </r>
       <r>    5.4082    1.0000 </r>
       <r>    5.8172    1.0000 </r>
       <r>    6.0935    1.0000 </r>
       <r>    6.7413    1.0000 </r>
       <r>   21.0534    0.0000 </r>
       <r>   23.1521    0.0000 </r>
       <r>   28.3567    0.0000 </r>
       <r>   31.2548    0.0000 </r>
       <r>   33.8609    0.0000 </r>
       <r>   36.9195    0.0000 </r>
      </set>
      <set comment="kpoint 61">
       <r>    3.3845    1.0000 </r>
       <r>    4.6919    1.0000 </r>
       <r>    5.1597    1.0000 </r>
       <r>    5.9725    1.0000 </r>
       <r>    6.2128    1.0000 </r>
       <r>    7.5242    0.0628 </r>
       <r>   18.4888    0.0000 </r>
       <r>   20.7064    0.0000 </r>
       <r>   25.9804    0.0000 </r>
       <r>   32.3318    0.0000 </r>
       <r>   33.8289    0.0000 </r>
       <r>   37.3616    0.0000 </r>
      </set>
      <set comment="kpoint 62">
       <r>    3.9971    1.0000 </r>
       <r>    4.8717    1.0000 </r>
       <r>    5.0716    1.0000 </r>
       <r>    5.8633    1.0000 </r>
       <r>    6.5448    1.0000 </r>
       <r>    9.0611   -0.0000 </r>
       <r>   14.5665    0.0000 </r>
       <r>   20.8687    0.0000 </r>
       <r>   24.0369    0.0000 </r>
       <r>   31.1671    0.0000 </r>
       <r>   34.6952    0.0000 </r>
       <r>   40.3958    0.0000 </r>
      </set>
      <set comment="kpoint 63">
       <r>    4.0482    1.0000 </r>
       <r>    4.7990    1.0000 </r>
       <r>    5.2501    1.0000 </r>
       <r>    5.8321    1.0000 </r>
       <r>    6.6898    1.0000 </r>
       <r>   10.3300   -0.0000 </r>
       <r>   12.6687   -0.0000 </r>
       <r>   21.7340    0.0000 </r>
       <r>   22.7091    0.0000 </r>
       <r>   30.4809    0.0000 </r>
       <r>   35.1941    0.0000 </r>
       <r>   41.6484    0.0000 </r>
      </set>
      <set comment="kpoint 64">
       <r>    3.8399    1.0000 </r>
       <r>    4.7224    1.0000 </r>
       <r>    5.1169    1.0000 </r>
       <r>    5.9241    1.0000 </r>
       <r>    6.6120    1.0000 </r>
       <r>    8.3477   -0.0000 </r>
       <r>   15.7812    0.0000 </r>
       <r>   21.9544    0.0000 </r>
       <r>   23.3432    0.0000 </r>
       <r>   30.3325    0.0000 </r>
       <r>   35.4811    0.0000 </r>
       <r>   38.2569    0.0000 </r>
      </set>
      <set comment="kpoint 65">
       <r>    2.9823    1.0000 </r>
       <r>    4.5896    1.0000 </r>
       <r>    5.3038    1.0000 </r>
       <r>    6.0115    1.0000 </r>
       <r>    6.2941    1.0000 </r>
       <r>    7.0597    1.0193 </r>
       <r>   19.9278    0.0000 </r>
       <r>   22.0232    0.0000 </r>
       <r>   25.4364    0.0000 </r>
       <r>   30.4207    0.0000 </r>
       <r>   33.1862    0.0000 </r>
       <r>   38.1209    0.0000 </r>
      </set>
      <set comment="kpoint 66">
       <r>    2.8130    1.0000 </r>
       <r>    4.5699    1.0000 </r>
       <r>    5.4197    1.0000 </r>
       <r>    5.8909    1.0000 </r>
       <r>    6.6438    1.0000 </r>
       <r>    6.6673    1.0000 </r>
       <r>   19.7443    0.0000 </r>
       <r>   24.7172    0.0000 </r>
       <r>   25.1043    0.0000 </r>
       <r>   27.7195    0.0000 </r>
       <r>   33.0774    0.0000 </r>
       <r>   40.5997    0.0000 </r>
      </set>
      <set comment="kpoint 67">
       <r>    3.5941    1.0000 </r>
       <r>    4.4301    1.0000 </r>
       <r>    5.3081    1.0000 </r>
       <r>    6.2253    1.0000 </r>
       <r>    6.4968    1.0000 </r>
       <r>    7.6498   -0.0352 </r>
       <r>   18.9735    0.0000 </r>
       <r>   21.0678    0.0000 </r>
       <r>   22.6320    0.0000 </r>
       <r>   29.7725    0.0000 </r>
       <r>   32.6508    0.0000 </r>
       <r>   39.3380    0.0000 </r>
      </set>
      <set comment="kpoint 68">
       <r>    4.1455    1.0000 </r>
       <r>    4.4694    1.0000 </r>
       <r>    5.1043    1.0000 </r>
       <r>    6.2937    1.0000 </r>
       <r>    6.5873    1.0000 </r>
       <r>    9.4089   -0.0000 </r>
       <r>   16.7896    0.0000 </r>
       <r>   19.1434    0.0000 </r>
       <r>   20.5074    0.0000 </r>
       <r>   31.6170    0.0000 </r>
       <r>   34.1984    0.0000 </r>
       <r>   38.1337    0.0000 </r>
      </set>
      <set comment="kpoint 69">
       <r>    4.4030    1.0000 </r>
       <r>    4.5227    1.0000 </r>
       <r>    5.0128    1.0000 </r>
       <r>    6.1317    1.0000 </r>
       <r>    6.7027    1.0000 </r>
       <r>   11.9027   -0.0000 </r>
       <r>   13.4152    0.0000 </r>
       <r>   18.9410    0.0000 </r>
       <r>   19.8371    0.0000 </r>
       <r>   32.0410    0.0000 </r>
       <r>   35.7344    0.0000 </r>
       <r>   39.6159    0.0000 </r>
      </set>
      <set comment="kpoint 70">
       <r>    4.3914    1.0000 </r>
       <r>    4.6476    1.0000 </r>
       <r>    4.8310    1.0000 </r>
       <r>    6.1621    1.0000 </r>
       <r>    6.5703    1.0000 </r>
       <r>   10.2844   -0.0000 </r>
       <r>   15.4804    0.0000 </r>
       <r>   18.1270    0.0000 </r>
       <r>   21.1997    0.0000 </r>
       <r>   32.8006    0.0000 </r>
       <r>   34.7176    0.0000 </r>
       <r>   38.7998    0.0000 </r>
      </set>
      <set comment="kpoint 71">
       <r>    3.9132    1.0000 </r>
       <r>    4.5791    1.0000 </r>
       <r>    5.0449    1.0000 </r>
       <r>    6.1515    1.0000 </r>
       <r>    6.4110    1.0000 </r>
       <r>    8.2764   -0.0000 </r>
       <r>   17.5416    0.0000 </r>
       <r>   19.8245    0.0000 </r>
       <r>   23.1492    0.0000 </r>
       <r>   32.0000    0.0000 </r>
       <r>   33.9830    0.0000 </r>
       <r>   37.5711    0.0000 </r>
      </set>
      <set comment="kpoint 72">
       <r>    3.7344    1.0000 </r>
       <r>    4.2365    1.0000 </r>
       <r>    5.7544    1.0000 </r>
       <r>    6.2813    1.0000 </r>
       <r>    6.8020    1.0001 </r>
       <r>    8.3051   -0.0000 </r>
       <r>   18.0143    0.0000 </r>
       <r>   19.7975    0.0000 </r>
       <r>   22.6324    0.0000 </r>
       <r>   26.8158    0.0000 </r>
       <r>   31.9799    0.0000 </r>
       <r>   43.5887    0.0000 </r>
      </set>
      <set comment="kpoint 73">
       <r>    3.9026    1.0000 </r>
       <r>    4.1910    1.0000 </r>
       <r>    5.7352    1.0000 </r>
       <r>    6.5190    1.0000 </r>
       <r>    6.7501    1.0000 </r>
       <r>    9.9439   -0.0000 </r>
       <r>   17.5515    0.0000 </r>
       <r>   17.7436    0.0000 </r>
       <r>   19.8237    0.0000 </r>
       <r>   28.9834    0.0000 </r>
       <r>   32.0323    0.0000 </r>
       <r>   41.9107    0.0000 </r>
      </set>
      <set comment="kpoint 74">
       <r>    4.1154    1.0000 </r>
       <r>    4.3476    1.0000 </r>
       <r>    5.4121    1.0000 </r>
       <r>    6.3554    1.0000 </r>
       <r>    6.8246    1.0002 </r>
       <r>   12.2062   -0.0000 </r>
       <r>   15.9195    0.0000 </r>
       <r>   16.3092    0.0000 </r>
       <r>   18.4675    0.0000 </r>
       <r>   31.1722    0.0000 </r>
       <r>   34.3492    0.0000 </r>
       <r>   39.8076    0.0000 </r>
      </set>
      <set comment="kpoint 75">
       <r>    4.3750    1.0000 </r>
       <r>    4.5596    1.0000 </r>
       <r>    4.9949    1.0000 </r>
       <r>    6.1917    1.0000 </r>
       <r>    6.7273    1.0000 </r>
       <r>   12.8748    0.0000 </r>
       <r>   13.7473    0.0000 </r>
       <r>   16.9670    0.0000 </r>
       <r>   19.6134    0.0000 </r>
       <r>   32.1037    0.0000 </r>
       <r>   36.8520    0.0000 </r>
       <r>   38.8016    0.0000 </r>
      </set>
      <set comment="kpoint 76">
       <r>    4.2502    1.0000 </r>
       <r>    4.6605    1.0000 </r>
       <r>    5.0422    1.0000 </r>
       <r>    6.0144    1.0000 </r>
       <r>    6.6452    1.0000 </r>
       <r>   10.3759   -0.0000 </r>
       <r>   13.8702    0.0000 </r>
       <r>   20.2289    0.0000 </r>
       <r>   21.4062    0.0000 </r>
       <r>   31.7743    0.0000 </r>
       <r>   34.9180    0.0000 </r>
       <r>   40.1826    0.0000 </r>
      </set>
      <set comment="kpoint 77">
       <r>    3.7903    1.0000 </r>
       <r>    4.0649    1.0000 </r>
       <r>    6.1638    1.0000 </r>
       <r>    6.5963    1.0000 </r>
       <r>    6.7846    1.0001 </r>
       <r>   10.7668   -0.0000 </r>
       <r>   15.7913    0.0000 </r>
       <r>   17.2089    0.0000 </r>
       <r>   21.6721    0.0000 </r>
       <r>   26.5099    0.0000 </r>
       <r>   31.5530    0.0000 </r>
       <r>   45.6822    0.0000 </r>
      </set>
      <set comment="kpoint 78">
       <r>    3.8863    1.0000 </r>
       <r>    4.1387    1.0000 </r>
       <r>    5.8934    1.0000 </r>
       <r>    6.5398    1.0000 </r>
       <r>    6.8252    1.0002 </r>
       <r>   11.1644   -0.0000 </r>
       <r>   15.9009    0.0000 </r>
       <r>   17.4030    0.0000 </r>
       <r>   19.5519    0.0000 </r>
       <r>   28.8318    0.0000 </r>
       <r>   31.9222    0.0000 </r>
       <r>   42.9346    0.0000 </r>
      </set>
      <set comment="kpoint 79">
       <r>    4.1516    1.0000 </r>
       <r>    4.3874    1.0000 </r>
       <r>    5.2813    1.0000 </r>
       <r>    6.3512    1.0000 </r>
       <r>    6.7341    1.0000 </r>
       <r>   10.8339   -0.0000 </r>
       <r>   16.2521    0.0000 </r>
       <r>   18.0781    0.0000 </r>
       <r>   18.7184    0.0000 </r>
       <r>   31.3225    0.0000 </r>
       <r>   34.3064    0.0000 </r>
       <r>   38.9900    0.0000 </r>
      </set>
      <set comment="kpoint 80">
       <r>    3.7950    1.0000 </r>
       <r>    4.1232    1.0000 </r>
       <r>    6.0163    1.0000 </r>
       <r>    6.4625    1.0000 </r>
       <r>    6.8142    1.0002 </r>
       <r>    9.5910   -0.0000 </r>
       <r>   17.3581    0.0000 </r>
       <r>   17.5923    0.0000 </r>
       <r>   21.9974    0.0000 </r>
       <r>   26.6071    0.0000 </r>
       <r>   31.6884    0.0000 </r>
       <r>   44.7991    0.0000 </r>
      </set>
      <set comment="kpoint 81">
       <r>    3.8636    1.0000 </r>
       <r>    4.2918    1.0000 </r>
       <r>    5.4934    1.0000 </r>
       <r>    6.4145    1.0000 </r>
       <r>    6.6380    1.0000 </r>
       <r>    8.6372   -0.0000 </r>
       <r>   18.2091    0.0000 </r>
       <r>   19.9223    0.0000 </r>
       <r>   20.3925    0.0000 </r>
       <r>   29.2953    0.0000 </r>
       <r>   32.2672    0.0000 </r>
       <r>   40.6150    0.0000 </r>
      </set>
      <set comment="kpoint 82">
       <r>    3.4436    1.0000 </r>
       <r>    4.3913    1.0000 </r>
       <r>    5.4996    1.0000 </r>
       <r>    6.0834    1.0000 </r>
       <r>    6.7381    1.0000 </r>
       <r>    7.3104    0.8287 </r>
       <r>   18.7839    0.0000 </r>
       <r>   22.3977    0.0000 </r>
       <r>   23.5499    0.0000 </r>
       <r>   27.1560    0.0000 </r>
       <r>   32.4376    0.0000 </r>
       <r>   42.3398    0.0000 </r>
      </set>
      <set comment="kpoint 83">
       <r>    1.4150    1.0000 </r>
       <r>    5.0570    1.0000 </r>
       <r>    5.4843    1.0000 </r>
       <r>    5.4843    1.0000 </r>
       <r>    6.2922    1.0000 </r>
       <r>    6.2922    1.0000 </r>
       <r>   20.3544    0.0000 </r>
       <r>   29.7715    0.0000 </r>
       <r>   30.3254    0.0000 </r>
       <r>   30.3254    0.0000 </r>
       <r>   35.7963    0.0000 </r>
       <r>   35.7963    0.0000 </r>
      </set>
      <set comment="kpoint 84">
       <r>    2.1579    1.0000 </r>
       <r>    4.9635    1.0000 </r>
       <r>    5.4352    1.0000 </r>
       <r>    5.5797    1.0000 </r>
       <r>    6.1557    1.0000 </r>
       <r>    6.6966    1.0000 </r>
       <r>   19.0832    0.0000 </r>
       <r>   25.1744    0.0000 </r>
       <r>   30.8598    0.0000 </r>
       <r>   32.1816    0.0000 </r>
       <r>   33.8561    0.0000 </r>
       <r>   34.6684    0.0000 </r>
      </set>
      <set comment="kpoint 85">
       <r>    3.2611    1.0000 </r>
       <r>    4.8146    1.0000 </r>
       <r>    5.2248    1.0000 </r>
       <r>    5.8220    1.0000 </r>
       <r>    6.0675    1.0000 </r>
       <r>    7.4900    0.1475 </r>
       <r>   18.3200    0.0000 </r>
       <r>   20.5669    0.0000 </r>
       <r>   29.4012    0.0000 </r>
       <r>   29.8426    0.0000 </r>
       <r>   36.0205    0.0000 </r>
       <r>   37.1584    0.0000 </r>
      </set>
      <set comment="kpoint 86">
       <r>    4.0868    1.0000 </r>
       <r>    4.9075    1.0000 </r>
       <r>    4.9326    1.0000 </r>
       <r>    5.9174    1.0000 </r>
       <r>    6.2816    1.0000 </r>
       <r>    8.8852   -0.0000 </r>
       <r>   16.0619    0.0000 </r>
       <r>   18.5972    0.0000 </r>
       <r>   26.8854    0.0000 </r>
       <r>   28.5044    0.0000 </r>
       <r>   38.3058    0.0000 </r>
       <r>   38.8469    0.0000 </r>
      </set>
      <set comment="kpoint 87">
       <r>    4.1549    1.0000 </r>
       <r>    4.7021    1.0000 </r>
       <r>    5.2314    1.0000 </r>
       <r>    5.9369    1.0000 </r>
       <r>    6.6113    1.0000 </r>
       <r>   10.9273   -0.0000 </r>
       <r>   12.8510   -0.0000 </r>
       <r>   19.1796    0.0000 </r>
       <r>   24.9606    0.0000 </r>
       <r>   27.6269    0.0000 </r>
       <r>   39.5233    0.0000 </r>
       <r>   39.7649    0.0000 </r>
      </set>
      <set comment="kpoint 88">
       <r>    3.9658    1.0000 </r>
       <r>    4.5257    1.0000 </r>
       <r>    5.3531    1.0000 </r>
       <r>    6.0067    1.0000 </r>
       <r>    6.7902    1.0001 </r>
       <r>    9.3038   -0.0000 </r>
       <r>   14.8561    0.0000 </r>
       <r>   20.4874    0.0000 </r>
       <r>   23.8125    0.0000 </r>
       <r>   27.2220    0.0000 </r>
       <r>   36.5685    0.0000 </r>
       <r>   40.6873    0.0000 </r>
      </set>
      <set comment="kpoint 89">
       <r>    2.5952    1.0000 </r>
       <r>    4.9983    1.0000 </r>
       <r>    5.3810    1.0000 </r>
       <r>    5.5617    1.0000 </r>
       <r>    6.5717    1.0000 </r>
       <r>    6.5971    1.0000 </r>
       <r>   17.6181    0.0000 </r>
       <r>   27.0878    0.0000 </r>
       <r>   27.8003    0.0000 </r>
       <r>   29.5476    0.0000 </r>
       <r>   35.5373    0.0000 </r>
       <r>   37.2378    0.0000 </r>
      </set>
      <set comment="kpoint 90">
       <r>    3.3783    1.0000 </r>
       <r>    4.8622    1.0000 </r>
       <r>    5.1923    1.0000 </r>
       <r>    5.7590    1.0000 </r>
       <r>    6.4531    1.0000 </r>
       <r>    7.4989    0.1226 </r>
       <r>   16.7022    0.0000 </r>
       <r>   22.8573    0.0000 </r>
       <r>   26.1285    0.0000 </r>
       <r>   30.7785    0.0000 </r>
       <r>   34.8223    0.0000 </r>
       <r>   37.9679    0.0000 </r>
      </set>
      <set comment="kpoint 91">
       <r>    4.1775    1.0000 </r>
       <r>    4.7617    1.0000 </r>
       <r>    4.8732    1.0000 </r>
       <r>    6.0480    1.0000 </r>
       <r>    6.3867    1.0000 </r>
       <r>    9.0218   -0.0000 </r>
       <r>   16.2454    0.0000 </r>
       <r>   18.7352    0.0000 </r>
       <r>   23.8504    0.0000 </r>
       <r>   31.6297    0.0000 </r>
       <r>   35.1203    0.0000 </r>
       <r>   39.2204    0.0000 </r>
      </set>
      <set comment="kpoint 92">
       <r>    4.4436    1.0000 </r>
       <r>    4.5436    1.0000 </r>
       <r>    4.9937    1.0000 </r>
       <r>    6.1267    1.0000 </r>
       <r>    6.5761    1.0000 </r>
       <r>   11.2988   -0.0000 </r>
       <r>   14.2938    0.0000 </r>
       <r>   17.3176    0.0000 </r>
       <r>   22.0484    0.0000 </r>
       <r>   30.5258    0.0000 </r>
       <r>   37.3044    0.0000 </r>
       <r>   40.7805    0.0000 </r>
      </set>
      <set comment="kpoint 93">
       <r>    4.1834    1.0000 </r>
       <r>    4.4225    1.0000 </r>
       <r>    5.2821    1.0000 </r>
       <r>    6.2339    1.0000 </r>
       <r>    6.7273    1.0000 </r>
       <r>   11.0699   -0.0000 </r>
       <r>   14.5252    0.0000 </r>
       <r>   18.2732    0.0000 </r>
       <r>   20.8284    0.0000 </r>
       <r>   29.7586    0.0000 </r>
       <r>   36.2660    0.0000 </r>
       <r>   39.2130    0.0000 </r>
      </set>
      <set comment="kpoint 94">
       <r>    3.6934    1.0000 </r>
       <r>    4.7113    1.0000 </r>
       <r>    5.2651    1.0000 </r>
       <r>    5.8249    1.0000 </r>
       <r>    6.7788    1.0001 </r>
       <r>    8.0508   -0.0000 </r>
       <r>   15.5910    0.0000 </r>
       <r>   23.0926    0.0000 </r>
       <r>   24.6612    0.0000 </r>
       <r>   27.5406    0.0000 </r>
       <r>   36.9239    0.0000 </r>
       <r>   39.3968    0.0000 </r>
      </set>
      <set comment="kpoint 95">
       <r>    4.0977    1.0000 </r>
       <r>    4.5514    1.0000 </r>
       <r>    5.1654    1.0000 </r>
       <r>    6.0952    1.0000 </r>
       <r>    6.6953    1.0000 </r>
       <r>    9.5731   -0.0000 </r>
       <r>   15.0493    0.0000 </r>
       <r>   20.6368    0.0000 </r>
       <r>   21.3323    0.0000 </r>
       <r>   29.9873    0.0000 </r>
       <r>   36.0227    0.0000 </r>
       <r>   38.4936    0.0000 </r>
      </set>
      <set comment="kpoint 96">
       <r>    4.3548    1.0000 </r>
       <r>    4.6292    1.0000 </r>
       <r>    4.9057    1.0000 </r>
       <r>    6.2110    1.0000 </r>
       <r>    6.7291    1.0000 </r>
       <r>   11.8203   -0.0000 </r>
       <r>   14.9369    0.0000 </r>
       <r>   17.7121    0.0000 </r>
       <r>   18.7776    0.0000 </r>
       <r>   33.6260    0.0000 </r>
       <r>   34.9724    0.0000 </r>
       <r>   38.2442    0.0000 </r>
      </set>
      <set comment="kpoint 97">
       <r>    4.2856    1.0000 </r>
       <r>    4.6268    1.0000 </r>
       <r>    4.9869    1.0000 </r>
       <r>    6.2187    1.0000 </r>
       <r>    6.8255    1.0002 </r>
       <r>   13.3642    0.0000 </r>
       <r>   14.6355    0.0000 </r>
       <r>   16.7612    0.0000 </r>
       <r>   17.5576    0.0000 </r>
       <r>   33.7261    0.0000 </r>
       <r>   36.1335    0.0000 </r>
       <r>   37.3977    0.0000 </r>
      </set>
      <set comment="kpoint 98">
       <r>    4.0734    1.0000 </r>
       <r>    4.3814    1.0000 </r>
       <r>    5.4793    1.0000 </r>
       <r>    6.1930    1.0000 </r>
       <r>    6.7405    1.0000 </r>
       <r>   10.7970   -0.0000 </r>
       <r>   14.3248    0.0000 </r>
       <r>   18.1175    0.0000 </r>
       <r>   23.2319    0.0000 </r>
       <r>   27.0357    0.0000 </r>
       <r>   36.3132    0.0000 </r>
       <r>   42.0044    0.0000 </r>
      </set>
      <set comment="kpoint 99">
       <r>    4.1846    1.0000 </r>
       <r>    4.3695    1.0000 </r>
       <r>    5.3712    1.0000 </r>
       <r>    6.3068    1.0000 </r>
       <r>    6.7329    1.0000 </r>
       <r>   12.5296   -0.0000 </r>
       <r>   14.2041    0.0000 </r>
       <r>   16.4298    0.0000 </r>
       <r>   20.5848    0.0000 </r>
       <r>   29.6470    0.0000 </r>
       <r>   36.3233    0.0000 </r>
       <r>   40.0064    0.0000 </r>
      </set>
      <set comment="kpoint 100">
       <r>    4.0987    1.0000 </r>
       <r>    4.3104    1.0000 </r>
       <r>    5.5663    1.0000 </r>
       <r>    6.3444    1.0000 </r>
       <r>    6.6659    1.0000 </r>
       <r>   12.2329   -0.0000 </r>
       <r>   13.9874    0.0000 </r>
       <r>   16.3189    0.0000 </r>
       <r>   22.9381    0.0000 </r>
       <r>   26.9534    0.0000 </r>
       <r>   36.1988    0.0000 </r>
       <r>   43.0830    0.0000 </r>
      </set>
      <set comment="kpoint 101">
       <r>    2.7336    1.0000 </r>
       <r>    5.4113    1.0000 </r>
       <r>    5.4113    1.0000 </r>
       <r>    5.4987    1.0000 </r>
       <r>    6.5290    1.0000 </r>
       <r>    6.5290    1.0000 </r>
       <r>   16.0125    0.0000 </r>
       <r>   28.9866    0.0000 </r>
       <r>   29.7854    0.0000 </r>
       <r>   29.7854    0.0000 </r>
       <r>   33.8178    0.0000 </r>
       <r>   33.8178    0.0000 </r>
      </set>
      <set comment="kpoint 102">
       <r>    3.2297    1.0000 </r>
       <r>    5.2945    1.0000 </r>
       <r>    5.4754    1.0000 </r>
       <r>    5.4831    1.0000 </r>
       <r>    6.4698    1.0000 </r>
       <r>    7.3059    0.8423 </r>
       <r>   14.9585    0.0000 </r>
       <r>   25.0754    0.0000 </r>
       <r>   29.4159    0.0000 </r>
[...]
       <r>    34.7010     0.2819    10.5616 </r>
       <r>    34.8797     0.2425    10.6050 </r>
       <r>    35.0584     0.2147    10.6433 </r>
       <r>    35.2371     0.2736    10.6922 </r>
       <r>    35.4159     0.3032    10.7464 </r>
       <r>    35.5946     0.3210    10.8038 </r>
       <r>    35.7733     0.3749    10.8708 </r>
       <r>    35.9520     0.1987    10.9063 </r>
       <r>    36.1307     0.1467    10.9325 </r>
       <r>    36.3094     0.2600    10.9790 </r>
       <r>    36.4882     0.2152    11.0174 </r>
       <r>    36.6669     0.1106    11.0372 </r>
       <r>    36.8456     0.2079    11.0743 </r>
       <r>    37.0243     0.2688    11.1224 </r>
       <r>    37.2030     0.1574    11.1505 </r>
       <r>    37.3817     0.2603    11.1970 </r>
       <r>    37.5604     0.2657    11.2445 </r>
       <r>    37.7392     0.1530    11.2718 </r>
       <r>    37.9179     0.1239    11.2940 </r>
       <r>    38.0966     0.2115    11.3318 </r>
       <r>    38.2753     0.2694    11.3799 </r>
       <r>    38.4540     0.1707    11.4104 </r>
       <r>    38.6327     0.1140    11.4308 </r>
       <r>    38.8114     0.1468    11.4570 </r>
       <r>    38.9902     0.1764    11.4886 </r>
       <r>    39.1689     0.1338    11.5125 </r>
       <r>    39.3476     0.1770    11.5441 </r>
       <r>    39.5263     0.2597    11.5905 </r>
       <r>    39.7050     0.2477    11.6348 </r>
       <r>    39.8837     0.1507    11.6617 </r>
       <r>    40.0624     0.0689    11.6740 </r>
       <r>    40.2412     0.0672    11.6860 </r>
       <r>    40.4199     0.1337    11.7099 </r>
       <r>    40.5986     0.1349    11.7340 </r>
       <r>    40.7773     0.1714    11.7647 </r>
       <r>    40.9560     0.1295    11.7878 </r>
       <r>    41.1347     0.0438    11.7956 </r>
       <r>    41.3135    -0.0005    11.7955 </r>
       <r>    41.4922     0.0294    11.8008 </r>
       <r>    41.6709     0.1236    11.8229 </r>
       <r>    41.8496     0.1031    11.8413 </r>
       <r>    42.0283     0.0897    11.8573 </r>
       <r>    42.2070     0.0609    11.8682 </r>
       <r>    42.3857     0.0492    11.8770 </r>
       <r>    42.5645     0.0490    11.8858 </r>
       <r>    42.7432    -0.0000    11.8858 </r>
       <r>    42.9219     0.0313    11.8914 </r>
       <r>    43.1006     0.0912    11.9077 </r>
       <r>    43.2793     0.0486    11.9163 </r>
       <r>    43.4580    -0.0007    11.9162 </r>
       <r>    43.6367     0.0264    11.9209 </r>
       <r>    43.8155     0.0688    11.9332 </r>
       <r>    43.9942     0.0402    11.9404 </r>
       <r>    44.1729    -0.0011    11.9402 </r>
       <r>    44.3516    -0.0012    11.9400 </r>
       <r>    44.5303    -0.0011    11.9398 </r>
       <r>    44.7090     0.0060    11.9409 </r>
       <r>    44.8877     0.0208    11.9446 </r>
       <r>    45.0665     0.0266    11.9493 </r>
       <r>    45.2452     0.0421    11.9569 </r>
       <r>    45.4239     0.0183    11.9601 </r>
       <r>    45.6026     0.0266    11.9649 </r>
       <r>    45.7813     0.0229    11.9690 </r>
       <r>    45.9600     0.0146    11.9716 </r>
       <r>    46.1388     0.0442    11.9795 </r>
       <r>    46.3175     0.0163    11.9824 </r>
       <r>    46.4962    -0.0031    11.9818 </r>
       <r>    46.6749     0.0079    11.9833 </r>
       <r>    46.8536     0.0226    11.9873 </r>
       <r>    47.0323     0.0049    11.9882 </r>
       <r>    47.2110    -0.0010    11.9880 </r>
       <r>    47.3898    -0.0010    11.9878 </r>
       <r>    47.5685     0.0039    11.9885 </r>
       <r>    47.7472     0.0220    11.9925 </r>
       <r>    47.9259     0.0086    11.9940 </r>
       <r>    48.1046     0.0083    11.9955 </r>
       <r>    48.2833     0.0221    11.9994 </r>
       <r>    48.4620     0.0042    12.0002 </r>
       <r>    48.6408    -0.0009    12.0000 </r>
       <r>    48.8195    -0.0001    12.0000 </r>
       <r>    48.9982    -0.0000    12.0000 </r>
       <r>    49.1769    -0.0000    12.0000 </r>
       <r>    49.3556    -0.0000    12.0000 </r>
       <r>    49.5343    -0.0000    12.0000 </r>
       <r>    49.7131     0.0000    12.0000 </r>
       <r>    49.8918     0.0000    12.0000 </r>
       <r>    50.0705     0.0000    12.0000 </r>
       <r>    50.2492     0.0000    12.0000 </r>
       <r>    50.4279     0.0000    12.0000 </r>
       <r>    50.6066     0.0000    12.0000 </r>
      </set>
      <set comment="spin 2">
       <r>    -3.0078     0.0000     0.0000 </r>
       <r>    -2.8291     0.0000     0.0000 </r>
       <r>    -2.6504     0.0000     0.0000 </r>
       <r>    -2.4717     0.0000     0.0000 </r>
       <r>    -2.2930    -0.0000    -0.0000 </r>
       <r>    -2.1143    -0.0000    -0.0000 </r>
       <r>    -1.9355    -0.0000    -0.0000 </r>
       <r>    -1.7568    -0.0000    -0.0000 </r>
       <r>    -1.5781    -0.0000    -0.0000 </r>
       <r>    -1.3994    -0.0000    -0.0000 </r>
       <r>    -1.2207    -0.0000    -0.0000 </r>
       <r>    -1.0420    -0.0000    -0.0000 </r>
       <r>    -0.8633    -0.0003    -0.0001 </r>
       <r>    -0.6845     0.0008     0.0001 </r>
       <r>    -0.5058     0.0078     0.0015 </r>
       <r>    -0.3271     0.0205     0.0051 </r>
       <r>    -0.1484     0.0265     0.0099 </r>
       <r>     0.0303     0.0280     0.0149 </r>
       <r>     0.2090     0.0370     0.0215 </r>
       <r>     0.3878     0.0503     0.0305 </r>
       <r>     0.5665     0.0375     0.0372 </r>
       <r>     0.7452     0.0374     0.0439 </r>
       <r>     0.9239     0.0664     0.0557 </r>
       <r>     1.1026     0.0740     0.0689 </r>
       <r>     1.2813     0.0396     0.0760 </r>
       <r>     1.4600     0.0603     0.0868 </r>
       <r>     1.6388     0.0851     0.1020 </r>
       <r>     1.8175     0.0730     0.1150 </r>
       <r>     1.9962     0.0819     0.1297 </r>
       <r>     2.1749     0.0945     0.1466 </r>
       <r>     2.3536     0.0888     0.1624 </r>
       <r>     2.5323     0.0775     0.1763 </r>
       <r>     2.7110     0.1187     0.1975 </r>
       <r>     2.8898     0.1474     0.2238 </r>
       <r>     3.0685     0.1263     0.2464 </r>
       <r>     3.2472     0.1169     0.2673 </r>
       <r>     3.4259     0.1746     0.2985 </r>
       <r>     3.6046     0.2515     0.3435 </r>
       <r>     3.7833     0.2502     0.3882 </r>
       <r>     3.9620     0.4082     0.4611 </r>
       <r>     4.1408     0.5441     0.5584 </r>
       <r>     4.3195     0.5339     0.6538 </r>
       <r>     4.4982     0.5691     0.7555 </r>
       <r>     4.6769     0.7657     0.8923 </r>
       <r>     4.8556     1.0018     1.0714 </r>
       <r>     5.0343     1.0330     1.2560 </r>
       <r>     5.2131     0.9863     1.4323 </r>
       <r>     5.3918     0.9810     1.6076 </r>
       <r>     5.5705     1.1862     1.8196 </r>
       <r>     5.7492     1.4485     2.0785 </r>
       <r>     5.9279     1.6003     2.3644 </r>
       <r>     6.1066     1.7865     2.6837 </r>
       <r>     6.2853     1.7756     3.0010 </r>
       <r>     6.4641     1.4640     3.2627 </r>
       <r>     6.6428     1.3278     3.5000 </r>
       <r>     6.8215     1.5524     3.7774 </r>
       <r>     7.0002     1.6029     4.0639 </r>
       <r>     7.1789     1.3974     4.3136 </r>
       <r>     7.3576     1.5925     4.5982 </r>
       <r>     7.5363     2.1360     4.9800 </r>
       <r>     7.7151     1.5007     5.2482 </r>
       <r>     7.8938     0.4066     5.3208 </r>
       <r>     8.0725     0.1481     5.3473 </r>
       <r>     8.2512     0.2618     5.3941 </r>
       <r>     8.4299     0.1937     5.4287 </r>
       <r>     8.6086     0.1489     5.4553 </r>
       <r>     8.7873     0.2115     5.4931 </r>
       <r>     8.9661     0.1772     5.5248 </r>
       <r>     9.1448     0.1425     5.5502 </r>
       <r>     9.3235     0.1790     5.5822 </r>
       <r>     9.5022     0.2230     5.6221 </r>
       <r>     9.6809     0.1080     5.6414 </r>
       <r>     9.8596     0.1224     5.6632 </r>
       <r>    10.0384     0.1293     5.6863 </r>
       <r>    10.2171     0.1512     5.7134 </r>
       <r>    10.3958     0.1890     5.7471 </r>
       <r>    10.5745     0.1642     5.7765 </r>
       <r>    10.7532     0.1328     5.8002 </r>
       <r>    10.9319     0.0386     5.8071 </r>
       <r>    11.1106     0.0770     5.8209 </r>
       <r>    11.2894     0.1258     5.8434 </r>
       <r>    11.4681     0.1627     5.8724 </r>
       <r>    11.6468     0.1379     5.8971 </r>
       <r>    11.8255     0.0665     5.9090 </r>
       <r>    12.0042     0.0368     5.9156 </r>
       <r>    12.1829     0.0829     5.9304 </r>
       <r>    12.3616     0.0593     5.9410 </r>
       <r>    12.5404     0.0969     5.9583 </r>
       <r>    12.7191     0.1826     5.9909 </r>
       <r>    12.8978     0.1476     6.0173 </r>
       <r>    13.0765     0.1392     6.0422 </r>
       <r>    13.2552     0.1687     6.0723 </r>
       <r>    13.4339     0.1952     6.1072 </r>
       <r>    13.6127     0.1678     6.1372 </r>
       <r>    13.7914     0.1257     6.1597 </r>
       <r>    13.9701     0.1393     6.1846 </r>
       <r>    14.1488     0.1418     6.2099 </r>
       <r>    14.3275     0.1376     6.2345 </r>
       <r>    14.5062     0.1547     6.2621 </r>
       <r>    14.6849     0.1397     6.2871 </r>
       <r>    14.8637     0.1276     6.3099 </r>
       <r>    15.0424     0.0853     6.3252 </r>
       <r>    15.2211     0.1600     6.3538 </r>
       <r>    15.3998     0.1289     6.3768 </r>
       <r>    15.5785     0.0646     6.3883 </r>
       <r>    15.7572     0.1485     6.4149 </r>
       <r>    15.9359     0.1673     6.4448 </r>
       <r>    16.1147     0.2168     6.4835 </r>
       <r>    16.2934     0.1600     6.5121 </r>
       <r>    16.4721     0.2382     6.5547 </r>
       <r>    16.6508     0.1977     6.5900 </r>
       <r>    16.8295     0.1498     6.6168 </r>
       <r>    17.0082     0.1783     6.6487 </r>
       <r>    17.1869     0.0824     6.6634 </r>
       <r>    17.3657     0.1780     6.6952 </r>
       <r>    17.5444     0.2664     6.7428 </r>
       <r>    17.7231     0.2460     6.7868 </r>
       <r>    17.9018     0.2461     6.8308 </r>
       <r>    18.0805     0.1830     6.8635 </r>
       <r>    18.2592     0.1915     6.8977 </r>
       <r>    18.4380     0.1995     6.9334 </r>
       <r>    18.6167     0.1292     6.9564 </r>
       <r>    18.7954     0.1887     6.9902 </r>
       <r>    18.9741     0.2476     7.0344 </r>
       <r>    19.1528     0.1980     7.0698 </r>
       <r>    19.3315     0.1810     7.1021 </r>
       <r>    19.5102     0.1428     7.1277 </r>
       <r>    19.6890     0.2167     7.1664 </r>
       <r>    19.8677     0.2830     7.2170 </r>
       <r>    20.0464     0.3083     7.2721 </r>
       <r>    20.2251     0.1505     7.2989 </r>
       <r>    20.4038     0.1042     7.3176 </r>
       <r>    20.5825     0.2350     7.3596 </r>
       <r>    20.7612     0.3479     7.4217 </r>
       <r>    20.9400     0.2519     7.4667 </r>
       <r>    21.1187     0.2456     7.5106 </r>
       <r>    21.2974     0.1845     7.5436 </r>
       <r>    21.4761     0.1808     7.5759 </r>
       <r>    21.6548     0.2256     7.6162 </r>
       <r>    21.8335     0.2156     7.6548 </r>
       <r>    22.0122     0.2265     7.6952 </r>
       <r>    22.1910     0.2485     7.7397 </r>
       <r>    22.3697     0.2281     7.7804 </r>
       <r>    22.5484     0.1994     7.8161 </r>
       <r>    22.7271     0.2008     7.8519 </r>
       <r>    22.9058     0.2362     7.8942 </r>
       <r>    23.0845     0.1916     7.9284 </r>
       <r>    23.2633     0.3085     7.9835 </r>
       <r>    23.4420     0.2349     8.0255 </r>
       <r>    23.6207     0.1382     8.0502 </r>
       <r>    23.7994     0.1276     8.0730 </r>
       <r>    23.9781     0.1687     8.1032 </r>
       <r>    24.1568     0.2430     8.1466 </r>
       <r>    24.3355     0.1278     8.1694 </r>
       <r>    24.5143     0.1376     8.1940 </r>
       <r>    24.6930     0.1939     8.2287 </r>
       <r>    24.8717     0.2095     8.2661 </r>
       <r>    25.0504     0.1463     8.2923 </r>
       <r>    25.2291     0.1986     8.3278 </r>
       <r>    25.4078     0.1889     8.3615 </r>
       <r>    25.5865     0.1616     8.3904 </r>
       <r>    25.7653     0.1497     8.4172 </r>
       <r>    25.9440     0.1663     8.4469 </r>
       <r>    26.1227     0.2187     8.4860 </r>
       <r>    26.3014     0.1703     8.5164 </r>
       <r>    26.4801     0.1434     8.5420 </r>
       <r>    26.6588     0.1830     8.5747 </r>
       <r>    26.8375     0.1590     8.6031 </r>
       <r>    27.0163     0.2374     8.6456 </r>
       <r>    27.1950     0.3062     8.7003 </r>
       <r>    27.3737     0.2389     8.7430 </r>
       <r>    27.5524     0.2032     8.7793 </r>
       <r>    27.7311     0.3453     8.8410 </r>
       <r>    27.9098     0.2763     8.8904 </r>
       <r>    28.0886     0.1342     8.9144 </r>
       <r>    28.2673     0.2441     8.9580 </r>
       <r>    28.4460     0.3908     9.0279 </r>
       <r>    28.6247     0.2764     9.0772 </r>
       <r>    28.8034     0.1795     9.1093 </r>
       <r>    28.9821     0.3754     9.1764 </r>
       <r>    29.1608     0.3578     9.2404 </r>
       <r>    29.3396     0.3462     9.3022 </r>
       <r>    29.5183     0.2682     9.3502 </r>
       <r>    29.6970     0.2632     9.3972 </r>
       <r>    29.8757     0.3486     9.4595 </r>
       <r>    30.0544     0.3570     9.5233 </r>
       <r>    30.2331     0.2167     9.5620 </r>
       <r>    30.4118     0.3054     9.6166 </r>
       <r>    30.5906     0.3008     9.6704 </r>
       <r>    30.7693     0.1880     9.7040 </r>
       <r>    30.9480     0.1699     9.7343 </r>
       <r>    31.1267     0.1861     9.7676 </r>
       <r>    31.3054     0.2911     9.8196 </r>
       <r>    31.4841     0.2266     9.8601 </r>
       <r>    31.6629     0.1873     9.8936 </r>
       <r>    31.8416     0.1505     9.9205 </r>
       <r>    32.0203     0.1624     9.9495 </r>
       <r>    32.1990     0.3414    10.0105 </r>
       <r>    32.3777     0.3842    10.0792 </r>
       <r>    32.5564     0.1289    10.1022 </r>
       <r>    32.7351     0.0834    10.1171 </r>
       <r>    32.9139     0.1898    10.1510 </r>
       <r>    33.0926     0.0932    10.1677 </r>
       <r>    33.2713     0.0635    10.1791 </r>
       <r>    33.4500     0.0917    10.1954 </r>
       <r>    33.6287     0.1472    10.2217 </r>
       <r>    33.8074     0.2442    10.2654 </r>
       <r>    33.9861     0.3708    10.3317 </r>
       <r>    34.1649     0.3370    10.3919 </r>
       <r>    34.3436     0.3208    10.4492 </r>
       <r>    34.5223     0.3060    10.5039 </r>
       <r>    34.7010     0.3042    10.5583 </r>
       <r>    34.8797     0.2570    10.6042 </r>
       <r>    35.0584     0.2328    10.6458 </r>
       <r>    35.2371     0.2670    10.6935 </r>
       <r>    35.4159     0.2876    10.7449 </r>
       <r>    35.5946     0.3449    10.8065 </r>
       <r>    35.7733     0.3799    10.8744 </r>
       <r>    35.9520     0.1878    10.9080 </r>
       <r>    36.1307     0.1368    10.9324 </r>
       <r>    36.3094     0.2400    10.9753 </r>
       <r>    36.4882     0.2484    11.0197 </r>
       <r>    36.6669     0.1052    11.0385 </r>
       <r>    36.8456     0.2063    11.0754 </r>
       <r>    37.0243     0.2719    11.1240 </r>
       <r>    37.2030     0.1679    11.1540 </r>
       <r>    37.3817     0.2418    11.1972 </r>
       <r>    37.5604     0.2682    11.2451 </r>
       <r>    37.7392     0.1715    11.2758 </r>
       <r>    37.9179     0.1313    11.2992 </r>
       <r>    38.0966     0.2053    11.3359 </r>
       <r>    38.2753     0.2455    11.3798 </r>
       <r>    38.4540     0.1819    11.4123 </r>
       <r>    38.6327     0.0970    11.4296 </r>
       <r>    38.8114     0.1291    11.4527 </r>
       <r>    38.9902     0.2065    11.4896 </r>
       <r>    39.1689     0.1222    11.5115 </r>
       <r>    39.3476     0.2168    11.5502 </r>
       <r>    39.5263     0.2647    11.5975 </r>
       <r>    39.7050     0.2194    11.6367 </r>
       <r>    39.8837     0.1637    11.6660 </r>
       <r>    40.0624     0.0496    11.6749 </r>
       <r>    40.2412     0.0634    11.6862 </r>
       <r>    40.4199     0.1607    11.7149 </r>
       <r>    40.5986     0.1337    11.7388 </r>
       <r>    40.7773     0.1601    11.7674 </r>
       <r>    40.9560     0.1302    11.7907 </r>
       <r>    41.1347     0.0320    11.7964 </r>
       <r>    41.3135    -0.0040    11.7957 </r>
       <r>    41.4922     0.0586    11.8062 </r>
       <r>    41.6709     0.1133    11.8264 </r>
       <r>    41.8496     0.0951    11.8434 </r>
       <r>    42.0283     0.0980    11.8609 </r>
       <r>    42.2070     0.0481    11.8695 </r>
       <r>    42.3857     0.0579    11.8799 </r>
       <r>    42.5645     0.0351    11.8861 </r>
       <r>    42.7432     0.0022    11.8865 </r>
       <r>    42.9219     0.0571    11.8967 </r>
       <r>    43.1006     0.0880    11.9125 </r>
       <r>    43.2793     0.0224    11.9165 </r>
       <r>    43.4580    -0.0007    11.9163 </r>
       <r>    43.6367     0.0398    11.9234 </r>
       <r>    43.8155     0.0718    11.9363 </r>
       <r>    43.9942     0.0241    11.9406 </r>
       <r>    44.1729    -0.0027    11.9401 </r>
       <r>    44.3516    -0.0008    11.9400 </r>
       <r>    44.5303    -0.0010    11.9398 </r>
       <r>    44.7090     0.0102    11.9416 </r>
       <r>    44.8877     0.0215    11.9455 </r>
       <r>    45.0665     0.0354    11.9518 </r>
       <r>    45.2452     0.0350    11.9580 </r>
       <r>    45.4239     0.0189    11.9614 </r>
       <r>    45.6026     0.0286    11.9665 </r>
       <r>    45.7813     0.0174    11.9696 </r>
       <r>    45.9600     0.0263    11.9743 </r>
       <r>    46.1388     0.0406    11.9816 </r>
       <r>    46.3175     0.0036    11.9822 </r>
       <r>    46.4962    -0.0021    11.9818 </r>
       <r>    46.6749     0.0134    11.9842 </r>
       <r>    46.8536     0.0202    11.9878 </r>
       <r>    47.0323     0.0016    11.9881 </r>
       <r>    47.2110    -0.0009    11.9880 </r>
       <r>    47.3898    -0.0011    11.9878 </r>
       <r>    47.5685     0.0088    11.9894 </r>
       <r>    47.7472     0.0220    11.9933 </r>
       <r>    47.9259     0.0044    11.9941 </r>
       <r>    48.1046     0.0154    11.9968 </r>
       <r>    48.2833     0.0179    12.0000 </r>
       <r>    48.4620     0.0004    12.0001 </r>
       <r>    48.6408    -0.0005    12.0000 </r>
       <r>    48.8195    -0.0000    12.0000 </r>
       <r>    48.9982    -0.0000    12.0000 </r>
       <r>    49.1769    -0.0000    12.0000 </r>
       <r>    49.3556    -0.0000    12.0000 </r>
       <r>    49.5343     0.0000    12.0000 </r>
       <r>    49.7131     0.0000    12.0000 </r>
       <r>    49.8918     0.0000    12.0000 </r>
       <r>    50.0705     0.0000    12.0000 </r>
       <r>    50.2492     0.0000    12.0000 </r>
       <r>    50.4279     0.0000    12.0000 </r>
       <r>    50.6066     0.0000    12.0000 </r>
      </set>
     </set>
    </array>
   </total>
  </dos>
 </calculation>
 <structure name="finalpos" >
  <crystal>
   <varray name="basis" >
    <v>       0.00000000       1.85000000       1.85000000 </v>
    <v>       1.85000000       0.00000000       1.85000000 </v>
    <v>       1.85000000       1.85000000       0.00000000 </v>
   </varray>
   <i name="volume">     12.66325000 </i>
   <varray name="rec_basis" >
    <v>      -0.27027027       0.27027027       0.27027027 </v>
    <v>       0.27027027      -0.27027027       0.27027027 </v>
    <v>       0.27027027       0.27027027      -0.27027027 </v>
   </varray>
  </crystal>
  <varray name="positions" >
   <v>       0.00000000       0.00000000       0.00000000 </v>
  </varray>
 </structure>
</modeling>
