FCC Au                                  
   4.10000000000000     
     0.000000    0.500000    0.500000
     0.500000    0.000000    0.500000
     0.500000    0.500000    0.000000
   Au
     1
Direct
  0.000000  0.000000  0.000000
 
   24   24   24
  83.448      80.242      71.971      61.476      50.858      40.593      30.550      21.254      13.845      9.0344    
  6.4365      5.0958      4.6733      5.0958      6.4365      9.0344      13.845      21.254      30.550      40.593    
  50.858      61.476      71.971      80.242      80.242      74.530      65.282      54.995      44.838      34.841    
  25.197      16.867      10.889      7.4013      5.5671      4.7233      4.7233      5.5671      7.4012      10.889    
  16.868      25.199      34.845      44.840      54.991      65.273      74.519      80.237      71.971      65.282    
  56.492      47.118      37.605      28.133      19.461      12.703      8.4062      6.0777      4.8567      4.4747    
  4.8567      6.0777      8.4058      12.703      19.462      28.136      37.609      47.119      56.486      65.271    
  71.962      74.519      61.476      54.995      47.118      38.559      29.690      21.199      14.152      9.3166    
  6.5514      5.0314      4.3385      4.3386      5.0315      6.5514      9.3161      14.151      21.199      29.691    
  38.561      47.119      54.993      61.473      65.271      65.273      50.858      44.838      37.605      29.690    
  21.809      14.955      9.9579      6.9218      5.1973      4.2808      3.9986      4.2809      5.1977      6.9222    
  9.9579      14.954      21.807      29.689      37.605      44.840      50.860      54.993      56.486      54.991    
  40.593      34.841      28.133      21.199      14.955      10.189      7.1279      5.3132      4.2639      3.7974    
  3.7973      4.2639      5.3137      7.1291      10.191      14.956      21.198      28.130      34.839      40.592    
  44.840      47.119      47.119      44.840      30.550      25.197      19.461      14.152      9.9579      7.1279    
  5.3544      4.2616      3.6947      3.5220      3.6943      4.2610      5.3543      7.1292      9.9607      14.155    
  19.462      25.194      30.545      34.839      37.605      38.561      37.609      34.845      21.254      16.867    
  12.703      9.3166      6.9218      5.3132      4.2616      3.6635      3.3999      3.3998      3.6629      4.2603    
  5.3117      6.9216      9.3191      12.708      16.871      21.253      25.194      28.130      29.689      29.691    
  28.136      25.199      13.845      10.889      8.4062      6.5514      5.1973      4.2639      3.6947      3.3999    
  3.3102      3.4003      3.6947      4.2625      5.1945      6.5488      8.4062      10.892      13.849      16.871    
  19.462      21.198      21.807      21.199      19.462      16.868      9.0344      7.4013      6.0777      5.0314    
  4.2808      3.7974      3.5220      3.3998      3.4003      3.5233      3.7989      4.2808      5.0289      6.0735    
  7.3979      9.0344      10.892      12.708      14.155      14.956      14.954      14.151      12.703      10.889    
  6.4365      5.5671      4.8567      4.3385      3.9986      3.7973      3.6943      3.6629      3.6947      3.7989    
  4.0014      4.3411      4.8567      5.5638      6.4316      7.3979      8.4062      9.3191      9.9607      10.191    
  9.9579      9.3161      8.4058      7.4012      5.0958      4.7233      4.4747      4.3386      4.2809      4.2639    
  4.2610      4.2603      4.2625      4.2808      4.3411      4.4789      4.7266      5.0958      5.5638      6.0735    
  6.5488      6.9216      7.1292      7.1291      6.9222      6.5514      6.0777      5.5671      4.6733      4.7233    
  4.8567      5.0315      5.1977      5.3137      5.3543      5.3117      5.1945      5.0289      4.8567      4.7266    
  4.6782      4.7266      4.8567      5.0289      5.1945      5.3117      5.3543      5.3137      5.1977      5.0315    
  4.8567      4.7233      5.0958      5.5671      6.0777      6.5514      6.9222      7.1291      7.1292      6.9216    
  6.5488      6.0735      5.5638      5.0958      4.7266      4.4789      4.3411      4.2808      4.2625      4.2603    
  4.2610      4.2639      4.2809      4.3386      4.4747      4.7233      6.4365      7.4012      8.4058      9.3161    
  9.9579      10.191      9.9607      9.3191      8.4062      7.3979      6.4316      5.5638      4.8567      4.3411    
  4.0014      3.7989      3.6947      3.6629      3.6943      3.7973      3.9986      4.3385      4.8567      5.5671    
  9.0344      10.889      12.703      14.151      14.954      14.956      14.155      12.708      10.892      9.0344    
  7.3979      6.0735      5.0289      4.2808      3.7989      3.5233      3.4003      3.3998      3.5220      3.7974    
  4.2808      5.0314      6.0777      7.4013      13.845      16.868      19.462      21.199      21.807      21.198    
  19.462      16.871      13.849      10.892      8.4062      6.5488      5.1945      4.2625      3.6947      3.4003    
  3.3102      3.3999      3.6947      4.2639      5.1973      6.5514      8.4062      10.889      21.254      25.199    
  28.136      29.691      29.689      28.130      25.194      21.253      16.871      12.708      9.3191      6.9216    
  5.3117      4.2603      3.6629      3.3998      3.3999      3.6635      4.2616      5.3132      6.9218      9.3166    
  12.703      16.867      30.550      34.845      37.609      38.561      37.605      34.839      30.545      25.194    
  19.462      14.155      9.9607      7.1292      5.3543      4.2610      3.6943      3.5220      3.6947      4.2616    
  5.3544      7.1279      9.9579      14.152      19.461      25.197      40.593      44.840      47.119      47.119    
  44.840      40.592      34.839      28.130      21.198      14.956      10.191      7.1291      5.3137      4.2639    
  3.7973      3.7974      4.2639      5.3132      7.1279      10.189      14.955      21.199      28.133      34.841    
  50.858      54.991      56.486      54.993      50.860      44.840      37.605      29.689      21.807      14.954    
  9.9579      6.9222      5.1977      4.2809      3.9986      4.2808      5.1973      6.9218      9.9579      14.955    
  21.809      29.690      37.605      44.838      61.476      65.273      65.271      61.473      54.993      47.119    
  38.561      29.691      21.199      14.151      9.3161      6.5514      5.0315      4.3386      4.3385      5.0314    
  6.5514      9.3166      14.152      21.199      29.690      38.559      47.118      54.995      71.971      74.519    
  71.962      65.271      56.486      47.119      37.609      28.136      19.462      12.703      8.4058      6.0777    
  4.8567      4.4747      4.8567      6.0777      8.4062      12.703      19.461      28.133      37.605      47.118    
  56.492      65.282      80.242      80.237      74.519      65.273      54.991      44.840      34.845      25.199    
  16.868      10.889      7.4012      5.5671      4.7233      4.7233      5.5671      7.4013      10.889      16.867    
  25.197      34.841      44.838      54.995      65.282      74.530      80.242      74.530      65.282      54.995    
  44.838      34.841      25.197      16.867      10.889      7.4013      5.5671      4.7233      4.7233      5.5671    
  7.4012      10.889      16.868      25.199      34.845      44.840      54.991      65.273      74.519      80.237    
  74.530      67.331      57.993      48.228      38.493      28.862      20.012      13.061      8.6078      6.1976    
  4.9391      4.5444      4.9391      6.1976      8.6074      13.061      20.014      28.867      38.498      48.228    
  57.983      67.315      74.517      77.288      65.282      57.993      49.419      40.406      31.219      22.395    
  14.970      9.7955      6.8196      5.2068      4.4681      4.4682      5.2069      6.8194      9.7947      14.969    
  22.397      31.224      40.410      49.418      57.985      65.272      69.636      69.640      54.995      48.228    
  40.406      32.030      23.670      16.271      10.757      7.3625      5.4715      4.4650      4.1536      4.4651    
  5.4717      7.3624      10.756      16.270      23.670      32.031      40.409      48.230      54.996      59.815    
  61.593      59.815      44.838      38.493      31.219      23.670      16.732      11.296      7.7407      5.6797    
  4.4952      3.9651      3.9651      4.4954      5.6802      7.7412      11.295      16.731      23.668      31.218    
  38.494      44.842      49.677      52.343      52.341      49.672      34.841      28.862      22.395      16.271    
  11.296      7.8770      5.7932      4.5258      3.8640      3.6620      3.8638      4.5258      5.7938      7.8784    
  11.297      16.272      22.393      28.859      34.840      39.667      42.821      43.922      42.821      39.667    
  25.197      20.012      14.970      10.757      7.7407      5.7932      4.5379      3.8208      3.5048      3.5046    
  3.8203      4.5371      5.7931      7.7422      10.760      14.973      20.013      25.194      29.785      33.186    
  34.992      34.993      33.191      29.790      16.867      13.061      9.7955      7.3625      5.6797      4.5258    
  3.8208      3.4567      3.3458      3.4565      3.8201      4.5241      5.6778      7.3623      9.7980      13.065    
  16.870      20.671      23.873      25.995      26.737      25.998      23.876      20.671      10.889      8.6078    
  6.8196      5.4715      4.4952      3.8640      3.5048      3.3458      3.3461      3.5055      3.8640      4.4935    
  5.4682      6.8167      8.6076      10.892      13.465      15.937      17.877      18.940      18.940      17.875    
  15.933      13.460      7.4013      6.1976      5.2068      4.4650      3.9651      3.6620      3.5046      3.4565    
  3.5055      3.6638      3.9668      4.4650      5.2041      6.1932      7.3978      8.8156      10.330      11.698    
  12.654      12.996      12.651      11.694      10.326      8.8156      5.5671      4.9391      4.4681      4.1536    
  3.9651      3.8638      3.8203      3.8201      3.8640      3.9668      4.1569      4.4709      4.9391      5.5638    
  6.3037      7.0859      7.8419      8.4567      8.8034      8.8022      8.4546      7.8416      7.0888      6.3084    
  4.7233      4.5444      4.4682      4.4651      4.4954      4.5258      4.5371      4.5241      4.4935      4.4650    
  4.4709      4.5488      4.7266      5.0072      5.3611      5.7329      6.0572      6.2769      6.3550      6.2778    
  6.0597      5.7367      5.3641      5.0072      4.7233      4.9391      5.2069      5.4717      5.6802      5.7938    
  5.7931      5.6778      5.4682      5.2041      4.9391      4.7266      4.6029      4.5753      4.6227      4.7066    
  4.7872      4.8353      4.8363      4.7896      4.7088      4.6227      4.5723      4.5982      5.5671      6.1976    
  6.8194      7.3624      7.7412      7.8784      7.7422      7.3623      6.8167      6.1932      5.5638      5.0072    
  4.5753      4.2802      4.1017      4.0058      3.9615      3.9492      3.9622      4.0058      4.0996      4.2765    
  4.5723      5.0072      7.4012      8.6074      9.7947      10.756      11.295      11.297      10.760      9.7980    
  8.6076      7.3978      6.3037      5.3611      4.6227      4.1017      3.7682      3.5775      3.4922      3.4919    
  3.5763      3.7659      4.0996      4.6227      5.3642      6.3084      10.889      13.061      14.969      16.270    
  16.731      16.272      14.973      13.065      10.892      8.8156      7.0859      5.7329      4.7066      4.0058    
  3.5775      3.3537      3.2847      3.3529      3.5765      4.0058      4.7086      5.7366      7.0889      8.8156    
  16.868      20.014      22.397      23.670      23.668      22.393      20.013      16.870      13.465      10.330    
  7.8419      6.0572      4.7872      3.9615      3.4922      3.2847      3.2845      3.4922      3.9625      4.7894    
  6.0594      7.8418      10.326      13.460      25.199      28.867      31.224      32.031      31.218      28.859    
  25.194      20.671      15.937      11.698      8.4567      6.2769      4.8353      3.9492      3.4919      3.3529    
  3.4922      3.9501      4.8363      6.2770      8.4546      11.694      15.933      20.671      34.845      38.498    
  40.410      40.409      38.494      34.840      29.785      23.873      17.877      12.654      8.8034      6.3550    
  4.8363      3.9622      3.5763      3.5765      3.9625      4.8363      6.3539      8.8011      12.651      17.876    
  23.875      29.790      44.840      48.228      49.418      48.230      44.842      39.667      33.186      25.995    
  18.940      12.996      8.8022      6.2778      4.7896      4.0058      3.7659      4.0058      4.7894      6.2770    
  8.8011      12.995      18.942      25.998      33.189      39.667      54.991      57.983      57.985      54.996    
  49.677      42.821      34.992      26.737      18.940      12.651      8.4546      6.0597      4.7088      4.0996    
  4.0996      4.7086      6.0594      8.4546      12.651      18.942      26.739      34.992      42.819      49.672    
  65.273      67.315      65.272      59.815      52.343      43.922      34.993      25.998      17.875      11.694    
  7.8416      5.7367      4.6227      4.2765      4.6227      5.7366      7.8418      11.694      17.876      25.998    
  34.992      43.920      52.342      59.815      74.519      74.517      69.636      61.593      52.341      42.821    
  33.191      23.876      15.933      10.326      7.0888      5.3641      4.5723      4.5723      5.3642      7.0889    
  10.326      15.933      23.875      33.189      42.819      52.342      61.597      69.640      80.237      77.288    
  69.640      59.815      49.672      39.667      29.790      20.671      13.460      8.8156      6.3084      5.0072    
  4.5982      5.0072      6.3084      8.8156      13.460      20.671      29.790      39.667      49.672      59.815    
  69.640      77.288      71.971      65.282      56.492      47.118      37.605      28.133      19.461      12.703    
  8.4062      6.0777      4.8567      4.4747      4.8567      6.0777      8.4058      12.703      19.462      28.136    
  37.609      47.119      56.486      65.271      71.962      74.519      65.282      57.993      49.419      40.406    
  31.219      22.395      14.970      9.7955      6.8196      5.2068      4.4681      4.4682      5.2069      6.8194    
  9.7947      14.969      22.397      31.224      40.410      49.418      57.985      65.272      69.636      69.640    
  56.492      49.419      41.366      32.826      24.311      16.733      11.042      7.5198      5.5682      4.5299    
  4.2082      4.5300      5.5682      7.5194      11.040      16.732      24.311      32.829      41.369      49.421    
  56.492      61.596      63.492      61.597      47.118      40.406      32.826      24.974      17.693      11.908    
  8.0820      5.8791      4.6213      4.0559      4.0559      4.6215      5.8794      8.0818      11.906      17.690    
  24.972      32.827      40.411      47.126      52.350      55.279      55.276      52.342      37.605      31.219    
  24.311      17.693      12.218      8.3979      6.0876      4.7038      3.9772      3.7550      3.9772      4.7041    
  6.0883      8.3984      12.217      17.690      24.308      31.218      37.609      42.827      46.291      47.511    
  46.285      42.819      28.133      22.395      16.733      11.908      8.3979      6.1608      4.7512      3.9417    
  3.5843      3.5842      3.9415      4.7512      6.1617      8.3994      11.909      16.732      22.392      28.131    
  33.189      36.946      38.951      38.950      36.945      33.189      19.461      14.970      11.042      8.0820    
  6.0876      4.7512      3.9318      3.5086      3.3797      3.5082      3.9310      4.7503      6.0876      8.0836    
  11.044      14.972      19.461      23.873      27.554      29.981      30.828      29.983      27.557      23.875    
  12.703      9.7955      7.5198      5.8791      4.7038      3.9417      3.5086      3.3171      3.3172      3.5085    
  3.9408      4.7019      5.8772      7.5195      9.7977      12.707      15.936      18.990      21.359      22.648    
  22.649      21.360      18.990      15.933      8.4062      6.8196      5.5682      4.6213      3.9772      3.5843    
  3.3797      3.3172      3.3805      3.5853      3.9772      4.6194      5.5648      6.8167      8.4058      10.329    
  12.377      14.210      15.478      15.930      15.476      14.206      12.373      10.326      6.0777      5.2068    
  4.5299      4.0559      3.7550      3.5842      3.5082      3.5085      3.5853      3.7570      4.0578      4.5300    
  5.2041      6.0734      7.0857      8.2031      9.3130      10.221      10.732      10.731      10.217      9.3101    
  8.2032      7.0889      4.8567      4.4681      4.2082      4.0559      3.9772      3.9415      3.9310      3.9408    
  3.9772      4.0578      4.2116      4.4709      4.8567      5.3611      5.9394      6.5176      7.0223      7.3747    
  7.5014      7.3738      7.0224      6.5200      5.9435      5.3642      4.4747      4.4682      4.5300      4.6215    
  4.7041      4.7512      4.7503      4.7019      4.6194      4.5300      4.4709      4.4789      4.5753      4.7553    
  4.9875      5.2236      5.4133      5.5185      5.5191      5.4153      5.2266      4.9901      4.7553      4.5723    
  4.8567      5.2069      5.5682      5.8794      6.0883      6.1617      6.0876      5.8772      5.5648      5.2041    
  4.8567      4.5753      4.3887      4.2960      4.2729      4.2859      4.3059      4.3151      4.3074      4.2876    
  4.2729      4.2934      4.3846      4.5723      6.0777      6.8194      7.5194      8.0818      8.3984      8.3994    
  8.0836      7.5195      6.8167      6.0734      5.3611      4.7553      4.2960      3.9821      3.7870      3.6779    
  3.6300      3.6301      3.6778      3.7854      3.9792      4.2934      4.7553      5.3641      8.4058      9.7947    
  11.040      11.906      12.217      11.909      11.044      9.7977      8.4058      7.0857      5.9394      4.9875    
  4.2729      3.7870      3.4877      3.3294      3.2802      3.3286      3.4862      3.7854      4.2729      4.9901    
  5.9435      7.0888      12.703      14.969      16.732      17.690      17.690      16.732      14.972      12.707    
  10.329      8.2031      6.5176      5.2236      4.2859      3.6779      3.3294      3.1737      3.1734      3.3288    
  3.6779      4.2874      5.2265      6.5201      8.2032      10.326      19.462      22.397      24.311      24.972    
  24.308      22.392      19.461      15.936      12.377      9.3130      7.0223      5.4133      4.3059      3.6300    
  3.2802      3.1734      3.2802      3.6306      4.3074      5.4149      7.0224      9.3105      12.373      15.933    
  28.136      31.224      32.829      32.827      31.218      28.131      23.873      18.990      14.210      10.221    
  7.3747      5.5185      4.3151      3.6301      3.3286      3.3288      3.6306      4.3158      5.5185      7.3732    
  10.218      14.207      18.990      23.876      37.609      40.410      41.369      40.411      37.609      33.189    
  27.554      21.359      15.478      10.732      7.5014      5.5191      4.3074      3.6778      3.4862      3.6779    
  4.3074      5.5185      7.4999      10.731      15.478      21.361      27.557      33.191      47.119      49.418    
  49.421      47.126      42.827      36.946      29.981      22.648      15.930      10.731      7.3738      5.4153    
  4.2876      3.7854      3.7854      4.2874      5.4149      7.3732      10.731      15.932      22.652      29.984    
  36.945      42.821      56.486      57.985      56.492      52.350      46.291      38.951      30.828      22.649    
  15.476      10.217      7.0224      5.2266      4.2729      3.9792      4.2729      5.2265      7.0224      10.218    
  15.478      22.652      30.829      38.949      46.285      52.341      65.271      65.272      61.596      55.279    
  47.511      38.950      29.983      21.360      14.206      9.3101      6.5200      4.9901      4.2934      4.2934    
  4.9901      6.5201      9.3105      14.207      21.361      29.984      38.949      47.509      55.276      61.593    
  71.962      69.636      63.492      55.276      46.285      36.945      27.557      18.990      12.373      8.2032    
  5.9435      4.7553      4.3846      4.7553      5.9435      8.2032      12.373      18.990      27.557      36.945    
  46.285      55.276      63.492      69.636      74.519      69.640      61.597      52.342      42.819      33.189    
  23.875      15.933      10.326      7.0889      5.3642      4.5723      4.5723      5.3641      7.0888      10.326    
  15.933      23.876      33.191      42.821      52.341      61.593      69.636      74.517      61.476      54.995    
  47.118      38.559      29.690      21.199      14.152      9.3166      6.5514      5.0314      4.3385      4.3386    
  5.0315      6.5514      9.3161      14.151      21.199      29.691      38.561      47.119      54.993      61.473    
  65.271      65.273      54.995      48.228      40.406      32.030      23.670      16.271      10.757      7.3625    
  5.4715      4.4650      4.1536      4.4651      5.4717      7.3624      10.756      16.270      23.670      32.031    
  40.409      48.230      54.996      59.815      61.593      59.815      47.118      40.406      32.826      24.974    
  17.693      11.908      8.0820      5.8791      4.6213      4.0559      4.0559      4.6215      5.8794      8.0818    
  11.906      17.690      24.972      32.827      40.411      47.126      52.350      55.279      55.276      52.342    
  38.559      32.030      24.974      18.191      12.546      8.5849      6.1913      4.7668      4.0170      3.7876    
  4.0171      4.7672      6.1920      8.5850      12.544      18.187      24.970      32.030      38.566      43.931    
  47.517      48.785      47.509      43.920      29.690      23.670      17.693      12.546      8.7660      6.3609    
  4.8676      4.0075      3.6273      3.6272      4.0075      4.8682      6.3623      8.7670      12.545      17.689    
  23.666      29.689      34.996      38.956      41.077      41.074      38.949      34.992      21.199      16.271    
  11.908      8.5849      6.3609      4.9034      4.0072      3.5442      3.4032      3.5439      4.0069      4.9037    
  6.3624      8.5870      11.909      16.270      21.196      25.995      29.982      32.610      33.526      32.610    
  29.984      25.998      14.152      10.757      8.0820      6.1913      4.8676      4.0072      3.5186      3.3028    
  3.3027      3.5182      4.0063      4.8668      6.1916      8.0839      10.759      14.153      17.875      21.358    
  24.040      25.494      25.495      24.043      21.361      17.876      9.3166      7.3625      5.8791      4.7668    
  4.0075      3.5442      3.3028      3.2290      3.3031      3.5442      4.0065      4.7649      5.8774      7.3625    
  9.3186      11.697      14.209      16.433      17.961      18.505      17.962      16.433      14.207      11.694    
  6.5514      5.4715      4.6213      4.0170      3.6273      3.4032      3.3027      3.3031      3.4042      3.6284    
  4.0171      4.6195      5.4684      6.5488      7.8415      9.3125      10.780      11.975      12.646      12.645    
  11.972      10.776      9.3105      7.8418      5.0314      4.4650      4.0559      3.7876      3.6272      3.5439    
  3.5182      3.5442      3.6284      3.7897      4.0579      4.4651      5.0290      5.7330      6.5175      7.3146    
  8.0349      8.5448      8.7290      8.5429      8.0329      7.3147      6.5201      5.7366      4.3385      4.1536    
  4.0559      4.0171      4.0075      4.0069      4.0063      4.0065      4.0171      4.0579      4.1569      4.3411    
  4.6227      4.9875      5.3935      5.7791      6.0798      6.2448      6.2447      6.0802      5.7810      5.3967    
  4.9901      4.6227      4.3386      4.4651      4.6215      4.7672      4.8682      4.9037      4.8668      4.7649    
  4.6195      4.4651      4.3411      4.2801      4.2960      4.3786      4.4989      4.6193      4.7063      4.7381    
  4.7076      4.6215      4.5008      4.3786      4.2934      4.2765      5.0315      5.4717      5.8794      6.1920    
  6.3623      6.3624      6.1916      5.8774      5.4684      5.0290      4.6227      4.2960      4.0674      3.9287    
  3.8561      3.8233      3.8118      3.8123      3.8243      3.8561      3.9268      4.0641      4.2934      4.6227    
  6.5514      7.3624      8.0818      8.5850      8.7670      8.5870      8.0839      7.3625      6.5488      5.7330    
  4.9875      4.3786      3.9287      3.6244      3.4359      3.3350      3.3034      3.3347      3.4348      3.6223    
  3.9268      4.3786      4.9901      5.7367      9.3161      10.756      11.906      12.544      12.545      11.909    
  10.759      9.3186      7.8415      6.5175      5.3935      4.4989      3.8561      3.4359      3.1906      3.0790    
  3.0786      3.1896      3.4348      3.8561      4.5008      5.3967      6.5200      7.8416      14.151      16.270    
  17.690      18.187      17.689      16.270      14.153      11.697      9.3125      7.3146      5.7791      4.6193    
  3.8233      3.3350      3.0790      3.0000      3.0786      3.3349      3.8243      4.6214      5.7810      7.3147    
  9.3101      11.694      21.199      23.670      24.972      24.970      23.666      21.196      17.875      14.209    
  10.780      8.0349      6.0798      4.7063      3.8118      3.3034      3.0786      3.0786      3.3037      3.8127    
  4.7073      6.0798      8.0331      10.776      14.206      17.875      29.691      32.031      32.827      32.030    
  29.689      25.995      21.358      16.433      11.975      8.5448      6.2448      4.7381      3.8123      3.3347    
  3.1896      3.3349      3.8127      4.7381      6.2438      8.5429      11.973      16.433      21.360      25.998    
  38.561      40.409      40.411      38.566      34.996      29.982      24.040      17.961      12.646      8.7290    
  6.2447      4.7076      3.8243      3.4348      3.4348      3.8243      4.7073      6.2438      8.7280      12.647    
  17.963      24.043      29.983      34.993      47.119      48.230      47.126      43.931      38.956      32.610    
  25.494      18.505      12.645      8.5429      6.0802      4.6215      3.8561      3.6223      3.8561      4.6214    
  6.0798      8.5429      12.647      18.508      25.497      32.610      38.950      43.922      54.993      54.996    
  52.350      47.517      41.077      33.526      25.495      17.962      11.972      8.0329      5.7810      4.5008    
  3.9268      3.9268      4.5008      5.7810      8.0331      11.973      17.963      25.497      33.526      41.074    
  47.511      52.343      61.473      59.815      55.279      48.785      41.074      32.610      24.043      16.433    
  10.776      7.3147      5.3967      4.3786      4.0641      4.3786      5.3967      7.3147      10.776      16.433    
  24.043      32.610      41.074      48.785      55.279      59.815      65.271      61.593      55.276      47.509    
  38.949      29.984      21.361      14.207      9.3105      6.5201      4.9901      4.2934      4.2934      4.9901    
  6.5200      9.3101      14.206      21.360      29.983      38.950      47.511      55.279      61.596      65.272    
  65.273      59.815      52.342      43.920      34.992      25.998      17.876      11.694      7.8418      5.7366    
  4.6227      4.2765      4.6227      5.7367      7.8416      11.694      17.875      25.998      34.993      43.922    
  52.343      59.815      65.272      67.315      50.858      44.838      37.605      29.690      21.809      14.955    
  9.9579      6.9218      5.1973      4.2808      3.9986      4.2809      5.1977      6.9222      9.9579      14.954    
  21.807      29.689      37.605      44.840      50.860      54.993      56.486      54.991      44.838      38.493    
  31.219      23.670      16.732      11.296      7.7407      5.6797      4.4952      3.9651      3.9651      4.4954    
  5.6802      7.7412      11.295      16.731      23.668      31.218      38.494      44.842      49.677      52.343    
  52.341      49.672      37.605      31.219      24.311      17.693      12.218      8.3979      6.0876      4.7038    
  3.9772      3.7550      3.9772      4.7041      6.0883      8.3984      12.217      17.690      24.308      31.218    
  37.609      42.827      46.291      47.511      46.285      42.819      29.690      23.670      17.693      12.546    
  8.7660      6.3609      4.8676      4.0075      3.6273      3.6272      4.0075      4.8682      6.3623      8.7670    
  12.545      17.689      23.666      29.689      34.996      38.956      41.077      41.074      38.949      34.992    
  21.809      16.732      12.218      8.7660      6.4577      4.9571      4.0338      3.5567      3.4115      3.5566    
  4.0338      4.9579      6.4597      8.7680      12.218      16.729      21.804      26.736      30.829      33.527    
  34.468      33.526      30.829      26.739      14.955      11.296      8.3979      6.3609      4.9571      4.0438    
  3.5255      3.2967      3.2966      3.5251      4.0434      4.9575      6.3628      8.4007      11.297      14.954    
  18.938      22.647      25.494      27.034      27.036      25.497      22.652      18.942      9.9579      7.7407    