FCC Au                                  
   4.10000000000000     
     0.000000    0.500000    0.500000
     0.500000    0.000000    0.500000
     0.500000    0.500000    0.000000
   Au
     1
Direct
  0.000000  0.000000  0.000000
 
   24   24   24
 0.83447953027E+02 0.80241773711E+02 0.71970505937E+02 0.61475707805E+02 0.50857907216E+02
 0.40593394557E+02 0.30550327149E+02 0.21253644317E+02 0.13844500538E+02 0.90344081674E+01
 0.64364937632E+01 0.50958262722E+01 0.46733066782E+01 0.50958262722E+01 0.64364937632E+01
 0.90344081674E+01 0.13844500538E+02 0.21253644317E+02 0.30550327149E+02 0.40593394557E+02
 0.50857907216E+02 0.61475707805E+02 0.71970505937E+02 0.80241773711E+02 0.80241773711E+02
 0.74529798579E+02 0.65282286022E+02 0.54994936166E+02 0.44838217190E+02 0.34841432463E+02
 0.25196560942E+02 0.16867065063E+02 0.10888617182E+02 0.74012704327E+01 0.55671262736E+01
 0.47232957129E+01 0.47233038606E+01 0.55671146803E+01 0.74011582449E+01 0.10888545155E+02
 0.16867779761E+02 0.25198986486E+02 0.34845074901E+02 0.44840107680E+02 0.54991386127E+02
 0.65272825126E+02 0.74519221383E+02 0.80237128056E+02 0.71970505937E+02 0.65282286022E+02
 0.56492113880E+02 0.47117747481E+02 0.37605043534E+02 0.28132905938E+02 0.19460989424E+02
 0.12703227633E+02 0.84061804252E+01 0.60777400908E+01 0.48566725535E+01 0.44746633037E+01
 0.48567330927E+01 0.60776966200E+01 0.84058293259E+01 0.12702923699E+02 0.19462018903E+02
 0.28136281760E+02 0.37609264818E+02 0.47118555201E+02 0.56486079706E+02 0.65271287522E+02
 0.71961691597E+02 0.74519221383E+02 0.61475707805E+02 0.54994936166E+02 0.47117747481E+02
 0.38558929771E+02 0.29690133432E+02 0.21198916696E+02 0.14152034752E+02 0.93165872625E+01
 0.65513601282E+01 0.50313581444E+01 0.43385423684E+01 0.43386152249E+01 0.50315267660E+01
 0.65513710024E+01 0.93160848336E+01 0.14151185996E+02 0.21198723673E+02 0.29691475485E+02
 0.38561123572E+02 0.47118677150E+02 0.54993233603E+02 0.61472627913E+02 0.65271287522E+02
 0.65272825126E+02 0.50857907216E+02 0.44838217190E+02 0.37605043534E+02 0.29690133432E+02
 0.21808703242E+02 0.14955050385E+02 0.99579119744E+01 0.69217763388E+01 0.51973329896E+01
 0.42807575965E+01 0.39985701287E+01 0.42808668005E+01 0.51976814368E+01 0.69222358609E+01
 0.99579288022E+01 0.14954099333E+02 0.21806971322E+02 0.29688647558E+02 0.37604966034E+02
 0.44839880163E+02 0.50860434428E+02 0.54993233603E+02 0.56486079706E+02 0.54991386127E+02
 0.40593394557E+02 0.34841432463E+02 0.28132905938E+02 0.21198916696E+02 0.14955050385E+02
 0.10189442484E+02 0.71279200959E+01 0.53132018246E+01 0.42639409362E+01 0.37973998720E+01
 0.37973140056E+01 0.42638985550E+01 0.53136701423E+01 0.71291246783E+01 0.10190865984E+02
 0.14955525290E+02 0.21197542462E+02 0.28130030395E+02 0.34838545818E+02 0.40591828601E+02
 0.44839880163E+02 0.47118677150E+02 0.47118555201E+02 0.44840107680E+02 0.30550327149E+02
 0.25196560942E+02 0.19460989424E+02 0.14152034752E+02 0.99579119744E+01 0.71279200959E+01
 0.53543935993E+01 0.42615768353E+01 0.36946891349E+01 0.35220032335E+01 0.36943164980E+01
 0.42610441417E+01 0.53543491521E+01 0.71292181851E+01 0.99607115958E+01 0.14155074495E+02
 0.19462059186E+02 0.25194058930E+02 0.30544626695E+02 0.34838545818E+02 0.37604966034E+02
 0.38561123572E+02 0.37609264818E+02 0.34845074901E+02 0.21253644317E+02 0.16867065063E+02
 0.12703227633E+02 0.93165872625E+01 0.69217763388E+01 0.53132018246E+01 0.42615768353E+01
 0.36634629953E+01 0.33999412621E+01 0.33998498672E+01 0.36629297105E+01 0.42603002234E+01
 0.53117267177E+01 0.69216445807E+01 0.93191296364E+01 0.12707837143E+02 0.16870822561E+02
 0.21253321934E+02 0.25194058930E+02 0.28130030395E+02 0.29688647558E+02 0.29691475485E+02
 0.28136281760E+02 0.25198986486E+02 0.13844500538E+02 0.10888617182E+02 0.84061804252E+01
 0.65513601282E+01 0.51973329896E+01 0.42639409362E+01 0.36946891349E+01 0.33999412621E+01
 0.33102236103E+01 0.34003394037E+01 0.36946828595E+01 0.42625416641E+01 0.51945079710E+01
 0.65487605347E+01 0.84061874072E+01 0.10892039014E+02 0.13849322856E+02 0.16870822561E+02
 0.19462059186E+02 0.21197542462E+02 0.21806971322E+02 0.21198723673E+02 0.19462018903E+02
 0.16867779761E+02 0.90344081674E+01 0.74012704327E+01 0.60777400908E+01 0.50313581444E+01
 0.42807575965E+01 0.37973998720E+01 0.35220032335E+01 0.33998498672E+01 0.34003394037E+01
 0.35233419774E+01 0.37988506181E+01 0.42808122354E+01 0.50288676223E+01 0.60734922092E+01
 0.73979354941E+01 0.90344204453E+01 0.10892039014E+02 0.12707837143E+02 0.14155074495E+02
 0.14955525290E+02 0.14954099333E+02 0.14151185996E+02 0.12702923699E+02 0.10888545155E+02
 0.64364937632E+01 0.55671262736E+01 0.48566725535E+01 0.43385423684E+01 0.39985701287E+01
 0.37973140056E+01 0.36943164980E+01 0.36629297105E+01 0.36946828595E+01 0.37988506181E+01
 0.40014095732E+01 0.43411256548E+01 0.48567153223E+01 0.55638171277E+01 0.64316387367E+01
 0.73979354941E+01 0.84061874072E+01 0.93191296364E+01 0.99607115958E+01 0.10190865984E+02
 0.99579288022E+01 0.93160848336E+01 0.84058293259E+01 0.74011582449E+01 0.50958262722E+01
 0.47232957129E+01 0.44746633037E+01 0.43386152249E+01 0.42808668005E+01 0.42638985550E+01
 0.42610441417E+01 0.42603002234E+01 0.42625416641E+01 0.42808122354E+01 0.43411256548E+01
 0.44789180170E+01 0.47266351948E+01 0.50958442409E+01 0.55638171277E+01 0.60734922092E+01
 0.65487605347E+01 0.69216445807E+01 0.71292181851E+01 0.71291246783E+01 0.69222358609E+01
 0.65513710024E+01 0.60776966200E+01 0.55671146803E+01 0.46733066782E+01 0.47233038606E+01
 0.48567330927E+01 0.50315267660E+01 0.51976814368E+01 0.53136701423E+01 0.53543491521E+01
 0.53117267177E+01 0.51945079710E+01 0.50288676223E+01 0.48567153223E+01 0.47266351948E+01
 0.46781799792E+01 0.47266351948E+01 0.48567153223E+01 0.50288676223E+01 0.51945079710E+01
 0.53117267177E+01 0.53543491521E+01 0.53136701423E+01 0.51976814368E+01 0.50315267660E+01
 0.48567330927E+01 0.47233038606E+01 0.50958262722E+01 0.55671146803E+01 0.60776966200E+01
 0.65513710024E+01 0.69222358609E+01 0.71291246783E+01 0.71292181851E+01 0.69216445807E+01
 0.65487605347E+01 0.60734922092E+01 0.55638171277E+01 0.50958442409E+01 0.47266351948E+01
 0.44789180170E+01 0.43411256548E+01 0.42808122354E+01 0.42625416641E+01 0.42603002234E+01
 0.42610441417E+01 0.42638985550E+01 0.42808668005E+01 0.43386152249E+01 0.44746633037E+01
 0.47232957129E+01 0.64364937632E+01 0.74011582449E+01 0.84058293259E+01 0.93160848336E+01
 0.99579288022E+01 0.10190865984E+02 0.99607115958E+01 0.93191296364E+01 0.84061874072E+01
 0.73979354941E+01 0.64316387367E+01 0.55638171277E+01 0.48567153223E+01 0.43411256548E+01
 0.40014095732E+01 0.37988506181E+01 0.36946828595E+01 0.36629297105E+01 0.36943164980E+01
 0.37973140056E+01 0.39985701287E+01 0.43385423684E+01 0.48566725535E+01 0.55671262736E+01
 0.90344081674E+01 0.10888545155E+02 0.12702923699E+02 0.14151185996E+02 0.14954099333E+02
 0.14955525290E+02 0.14155074495E+02 0.12707837143E+02 0.10892039014E+02 0.90344204453E+01
 0.73979354941E+01 0.60734922092E+01 0.50288676223E+01 0.42808122354E+01 0.37988506181E+01
 0.35233419774E+01 0.34003394037E+01 0.33998498672E+01 0.35220032335E+01 0.37973998720E+01
 0.42807575965E+01 0.50313581444E+01 0.60777400908E+01 0.74012704327E+01 0.13844500538E+02
 0.16867779761E+02 0.19462018903E+02 0.21198723673E+02 0.21806971322E+02 0.21197542462E+02
 0.19462059186E+02 0.16870822561E+02 0.13849322856E+02 0.10892039014E+02 0.84061874072E+01
 0.65487605347E+01 0.51945079710E+01 0.42625416641E+01 0.36946828595E+01 0.34003394037E+01
 0.33102236103E+01 0.33999412621E+01 0.36946891349E+01 0.42639409362E+01 0.51973329896E+01
 0.65513601282E+01 0.84061804252E+01 0.10888617182E+02 0.21253644317E+02 0.25198986486E+02
 0.28136281760E+02 0.29691475485E+02 0.29688647558E+02 0.28130030395E+02 0.25194058930E+02
 0.21253321934E+02 0.16870822561E+02 0.12707837143E+02 0.93191296364E+01 0.69216445807E+01
 0.53117267177E+01 0.42603002234E+01 0.36629297105E+01 0.33998498672E+01 0.33999412621E+01
 0.36634629953E+01 0.42615768353E+01 0.53132018246E+01 0.69217763388E+01 0.93165872625E+01
 0.12703227633E+02 0.16867065063E+02 0.30550327149E+02 0.34845074901E+02 0.37609264818E+02
 0.38561123572E+02 0.37604966034E+02 0.34838545818E+02 0.30544626695E+02 0.25194058930E+02
 0.19462059186E+02 0.14155074495E+02 0.99607115958E+01 0.71292181851E+01 0.53543491521E+01
 0.42610441417E+01 0.36943164980E+01 0.35220032335E+01 0.36946891349E+01 0.42615768353E+01
 0.53543935993E+01 0.71279200959E+01 0.99579119744E+01 0.14152034752E+02 0.19460989424E+02
 0.25196560942E+02 0.40593394557E+02 0.44840107680E+02 0.47118555201E+02 0.47118677150E+02
 0.44839880163E+02 0.40591828601E+02 0.34838545818E+02 0.28130030395E+02 0.21197542462E+02
 0.14955525290E+02 0.10190865984E+02 0.71291246783E+01 0.53136701423E+01 0.42638985550E+01
 0.37973140056E+01 0.37973998720E+01 0.42639409362E+01 0.53132018246E+01 0.71279200959E+01
 0.10189442484E+02 0.14955050385E+02 0.21198916696E+02 0.28132905938E+02 0.34841432463E+02
 0.50857907216E+02 0.54991386127E+02 0.56486079706E+02 0.54993233603E+02 0.50860434428E+02
 0.44839880163E+02 0.37604966034E+02 0.29688647558E+02 0.21806971322E+02 0.14954099333E+02
 0.99579288022E+01 0.69222358609E+01 0.51976814368E+01 0.42808668005E+01 0.39985701287E+01
 0.42807575965E+01 0.51973329896E+01 0.69217763388E+01 0.99579119744E+01 0.14955050385E+02
 0.21808703242E+02 0.29690133432E+02 0.37605043534E+02 0.44838217190E+02 0.61475707805E+02
 0.65272825126E+02 0.65271287522E+02 0.61472627913E+02 0.54993233603E+02 0.47118677150E+02
 0.38561123572E+02 0.29691475485E+02 0.21198723673E+02 0.14151185996E+02 0.93160848336E+01
 0.65513710024E+01 0.50315267660E+01 0.43386152249E+01 0.43385423684E+01 0.50313581444E+01
 0.65513601282E+01 0.93165872625E+01 0.14152034752E+02 0.21198916696E+02 0.29690133432E+02
 0.38558929771E+02 0.47117747481E+02 0.54994936166E+02 0.71970505937E+02 0.74519221383E+02
 0.71961691597E+02 0.65271287522E+02 0.56486079706E+02 0.47118555201E+02 0.37609264818E+02
 0.28136281760E+02 0.19462018903E+02 0.12702923699E+02 0.84058293259E+01 0.60776966200E+01
 0.48567330927E+01 0.44746633037E+01 0.48566725535E+01 0.60777400908E+01 0.84061804252E+01
 0.12703227633E+02 0.19460989424E+02 0.28132905938E+02 0.37605043534E+02 0.47117747481E+02
 0.56492113880E+02 0.65282286022E+02 0.80241773711E+02 0.80237128056E+02 0.74519221383E+02
 0.65272825126E+02 0.54991386127E+02 0.44840107680E+02 0.34845074901E+02 0.25198986486E+02
 0.16867779761E+02 0.10888545155E+02 0.74011582449E+01 0.55671146803E+01 0.47233038606E+01
 0.47232957129E+01 0.55671262736E+01 0.74012704327E+01 0.10888617182E+02 0.16867065063E+02
 0.25196560942E+02 0.34841432463E+02 0.44838217190E+02 0.54994936166E+02 0.65282286022E+02
 0.74529798579E+02 0.80241773711E+02 0.74529798579E+02 0.65282286022E+02 0.54994936166E+02
 0.44838217190E+02 0.34841432463E+02 0.25196560942E+02 0.16867065063E+02 0.10888617182E+02
 0.74012704327E+01 0.55671262736E+01 0.47232957129E+01 0.47233038606E+01 0.55671146803E+01
 0.74011582449E+01 0.10888545155E+02 0.16867779761E+02 0.25198986486E+02 0.34845074901E+02
 0.44840107680E+02 0.54991386127E+02 0.65272825126E+02 0.74519221383E+02 0.80237128056E+02
 0.74529798579E+02 0.67330793245E+02 0.57993028822E+02 0.48227929927E+02 0.38492720196E+02
 0.28861746103E+02 0.20011826587E+02 0.13060694514E+02 0.86078000176E+01 0.61976358783E+01
 0.49390614356E+01 0.45443541007E+01 0.49391331052E+01 0.61975633812E+01 0.86074134923E+01
 0.13060629075E+02 0.20013784077E+02 0.28866727640E+02 0.38498226027E+02 0.48228046556E+02
 0.57983445464E+02 0.67314609298E+02 0.74517125073E+02 0.77288380126E+02 0.65282286022E+02
 0.57993028822E+02 0.49418625350E+02 0.40405930135E+02 0.31219287747E+02 0.22394988796E+02
 0.14969802513E+02 0.97954759695E+01 0.68196201660E+01 0.52068298690E+01 0.44680872337E+01
 0.44681636417E+01 0.52069338297E+01 0.68193757368E+01 0.97946813639E+01 0.14969323521E+02
 0.22396627986E+02 0.31223596483E+02 0.40410057977E+02 0.49417767468E+02 0.57985381460E+02
 0.65272317503E+02 0.69635882054E+02 0.69640475757E+02 0.54994936166E+02 0.48227929927E+02
 0.40405930135E+02 0.32029588331E+02 0.23670260401E+02 0.16271495527E+02 0.10756841980E+02
 0.73625026602E+01 0.54714660641E+01 0.44649708369E+01 0.41536251212E+01 0.44650975480E+01
 0.54716565472E+01 0.73623526167E+01 0.10755876530E+02 0.16270020618E+02 0.23669563346E+02
 0.32030766108E+02 0.40408558939E+02 0.48230352298E+02 0.54995987948E+02 0.59814902761E+02
 0.61592961615E+02 0.59814856320E+02 0.44838217190E+02 0.38492720196E+02 0.31219287747E+02
 0.23670260401E+02 0.16732401712E+02 0.11295623767E+02 0.77407240294E+01 0.56796548346E+01
 0.44952273103E+01 0.39650593622E+01 0.39650574424E+01 0.44953848940E+01 0.56801543450E+01
 0.77412324878E+01 0.11295288831E+02 0.16730653108E+02 0.23667749655E+02 0.31217872941E+02
 0.38494125087E+02 0.44842351578E+02 0.49677001224E+02 0.52343055757E+02 0.52341081374E+02
 0.49672446620E+02 0.34841432463E+02 0.28861746103E+02 0.22394988796E+02 0.16271495527E+02
 0.11295623767E+02 0.78770026471E+01 0.57932062390E+01 0.45257975842E+01 0.38640052520E+01
 0.36620107658E+01 0.38638087302E+01 0.45257586220E+01 0.57938256462E+01 0.78783806056E+01
 0.11296975051E+02 0.16271533083E+02 0.22393171306E+02 0.28859081207E+02 0.34839663837E+02
 0.39667027947E+02 0.42821314366E+02 0.43921948512E+02 0.42820730148E+02 0.39667160250E+02
 0.25196560942E+02 0.20011826587E+02 0.14969802513E+02 0.10756841980E+02 0.77407240294E+01
 0.57932062390E+01 0.45378835592E+01 0.38208493667E+01 0.35047523919E+01 0.35045597145E+01
 0.38202518890E+01 0.45371166654E+01 0.57930853153E+01 0.77421614093E+01 0.10759761987E+02
 0.14972664993E+02 0.20012533918E+02 0.25194087303E+02 0.29784873557E+02 0.33186305034E+02
 0.34991569316E+02 0.34993384660E+02 0.33190762837E+02 0.29789558305E+02 0.16867065063E+02
 0.13060694514E+02 0.97954759695E+01 0.73625026602E+01 0.56796548346E+01 0.45257975842E+01
 0.38208493667E+01 0.34566514948E+01 0.33457786143E+01 0.34565422019E+01 0.38200951421E+01
 0.45241195619E+01 0.56778499468E+01 0.73622699177E+01 0.97979824331E+01 0.13065047177E+02
 0.16870475435E+02 0.20670839512E+02 0.23873232100E+02 0.25994900626E+02 0.26736698298E+02
 0.25997874528E+02 0.23876221079E+02 0.20670796738E+02 0.10888617182E+02 0.86078000176E+01
 0.68196201660E+01 0.54714660641E+01 0.44952273103E+01 0.38640052520E+01 0.35047523919E+01
 0.33457786143E+01 0.33461447414E+01 0.35054638510E+01 0.38640264742E+01 0.44935301394E+01
 0.54682143743E+01 0.68167096599E+01 0.86076015825E+01 0.10891774915E+02 0.13464827103E+02
 0.15936931233E+02 0.17877108688E+02 0.18940251034E+02 0.18939905142E+02 0.17875452420E+02
 0.15933253131E+02 0.13460135088E+02 0.74012704327E+01 0.61976358783E+01 0.52068298690E+01
 0.44649708369E+01 0.39650593622E+01 0.36620107658E+01 0.35045597145E+01 0.34565422019E+01
 0.35054638510E+01 0.36637758501E+01 0.39668201236E+01 0.44650245745E+01 0.52040989259E+01
 0.61931641688E+01 0.73978434958E+01 0.88156360332E+01 0.10329590072E+02 0.11698328929E+02
 0.12653911387E+02 0.12995635583E+02 0.12650594725E+02 0.11693523025E+02 0.10326112779E+02
 0.88156499953E+01 0.55671262736E+01 0.49390614356E+01 0.44680872337E+01 0.41536251212E+01
 0.39650574424E+01 0.38638087302E+01 0.38202518890E+01 0.38200951421E+01 0.38640264742E+01
 0.39668201236E+01 0.41568705871E+01 0.44709084206E+01 0.49390972071E+01 0.55637883025E+01
 0.63037090227E+01 0.70858805699E+01 0.78418787767E+01 0.84566702676E+01 0.88033548570E+01
 0.88021855876E+01 0.84545500109E+01 0.78415873255E+01 0.70888060928E+01 0.63083848409E+01
 0.47232957129E+01 0.45443541007E+01 0.44681636417E+01 0.44650975480E+01 0.44953848940E+01
 0.45257586220E+01 0.45371166654E+01 0.45241195619E+01 0.44935301394E+01 0.44650245745E+01
 0.44709084206E+01 0.45487798207E+01 0.47266107210E+01 0.50071900908E+01 0.53611265038E+01
 0.57329475193E+01 0.60572290783E+01 0.62768987959E+01 0.63549538883E+01 0.62777834238E+01
 0.60596724816E+01 0.57366898581E+01 0.53641486034E+01 0.50071881684E+01 0.47233038606E+01
 0.49391331052E+01 0.52069338297E+01 0.54716565472E+01 0.56801543450E+01 0.57938256462E+01
 0.57930853153E+01 0.56778499468E+01 0.54682143743E+01 0.52040989259E+01 0.49390972071E+01
 0.47266107210E+01 0.46028671833E+01 0.45753120062E+01 0.46227037855E+01 0.47065734716E+01
 0.47871551827E+01 0.48352536321E+01 0.48362773797E+01 0.47896350925E+01 0.47088386283E+01
 0.46227257286E+01 0.45722515267E+01 0.45982077951E+01 0.55671146803E+01 0.61975633812E+01
 0.68193757368E+01 0.73623526167E+01 0.77412324878E+01 0.78783806056E+01 0.77421614093E+01
 0.73622699177E+01 0.68167096599E+01 0.61931641688E+01 0.55637883025E+01 0.50071900908E+01
 0.45753120062E+01 0.42802003909E+01 0.41017268086E+01 0.40058084501E+01 0.39614676012E+01
 0.39492275747E+01 0.39621564465E+01 0.40057641969E+01 0.40996262244E+01 0.42764704563E+01
 0.45722539560E+01 0.50071881684E+01 0.74011582449E+01 0.86074134923E+01 0.97946813639E+01
 0.10755876530E+02 0.11295288831E+02 0.11296975051E+02 0.10759761987E+02 0.97979824331E+01
 0.86076015825E+01 0.73978434958E+01 0.63037090227E+01 0.53611265038E+01 0.46227037855E+01
 0.41017268086E+01 0.37681948477E+01 0.35774982744E+01 0.34921817269E+01 0.34918849310E+01
 0.35763020313E+01 0.37659486811E+01 0.40995698853E+01 0.46226602770E+01 0.53641680107E+01
 0.63083848409E+01 0.10888545155E+02 0.13060629075E+02 0.14969323521E+02 0.16270020618E+02
 0.16730653108E+02 0.16271533083E+02 0.14972664993E+02 0.13065047177E+02 0.10891774915E+02
 0.88156360332E+01 0.70858805699E+01 0.57329475193E+01 0.47065734716E+01 0.40058084501E+01
 0.35774982744E+01 0.33536990189E+01 0.32846585536E+01 0.33528849227E+01 0.35764595445E+01
 0.40057735801E+01 0.47086329490E+01 0.57366463446E+01 0.70889195580E+01 0.88156499953E+01
 0.16867779761E+02 0.20013784077E+02 0.22396627986E+02 0.23669563346E+02 0.23667749655E+02
 0.22393171306E+02 0.20012533918E+02 0.16870475435E+02 0.13464827103E+02 0.10329590072E+02
 0.78418787767E+01 0.60572290783E+01 0.47871551827E+01 0.39614676012E+01 0.34921817269E+01
 0.32846585536E+01 0.32845322159E+01 0.34922158130E+01 0.39624850087E+01 0.47893566287E+01
 0.60593742118E+01 0.78418382764E+01 0.10326359729E+02 0.13460135088E+02 0.25198986486E+02
 0.28866727640E+02 0.31223596483E+02 0.32030766108E+02 0.31217872941E+02 0.28859081207E+02
 0.25194087303E+02 0.20670839512E+02 0.15936931233E+02 0.11698328929E+02 0.84566702676E+01
 0.62768987959E+01 0.48352536321E+01 0.39492275747E+01 0.34918849310E+01 0.33528849227E+01
 0.34922158130E+01 0.39500643446E+01 0.48362814896E+01 0.62769603539E+01 0.84545541126E+01
 0.11694271516E+02 0.15933293743E+02 0.20670796738E+02 0.34845074901E+02 0.38498226027E+02
 0.40410057977E+02 0.40408558939E+02 0.38494125087E+02 0.34839663837E+02 0.29784873557E+02
 0.23873232100E+02 0.17877108688E+02 0.12653911387E+02 0.88033548570E+01 0.63549538883E+01
 0.48362773797E+01 0.39621564465E+01 0.35763020313E+01 0.35764595445E+01 0.39624850087E+01
 0.48362814896E+01 0.63539386300E+01 0.88011334413E+01 0.12651485518E+02 0.17876317395E+02
 0.23875369165E+02 0.29789558305E+02 0.44840107680E+02 0.48228046556E+02 0.49417767468E+02
 0.48230352298E+02 0.44842351578E+02 0.39667027947E+02 0.33186305034E+02 0.25994900626E+02
 0.18940251034E+02 0.12995635583E+02 0.88021855876E+01 0.62777834238E+01 0.47896350925E+01
 0.40057641969E+01 0.37659486811E+01 0.40057735801E+01 0.47893566287E+01 0.62769603539E+01
 0.88011334413E+01 0.12995399507E+02 0.18941819619E+02 0.25997935049E+02 0.33188873076E+02
 0.39667160250E+02 0.54991386127E+02 0.57983445464E+02 0.57985381460E+02 0.54995987948E+02
 0.49677001224E+02 0.42821314366E+02 0.34991569316E+02 0.26736698298E+02 0.18939905142E+02
 0.12650594725E+02 0.84545500109E+01 0.60596724816E+01 0.47088386283E+01 0.40996262244E+01
 0.40995698853E+01 0.47086329490E+01 0.60593742118E+01 0.84545541126E+01 0.12651485518E+02
 0.18941819619E+02 0.26738752583E+02 0.34992102896E+02 0.42819081599E+02 0.49672446620E+02
 0.65272825126E+02 0.67314609298E+02 0.65272317503E+02 0.59814902761E+02 0.52343055757E+02
 0.43921948512E+02 0.34993384660E+02 0.25997874528E+02 0.17875452420E+02 0.11693523025E+02
 0.78415873255E+01 0.57366898581E+01 0.46227257286E+01 0.42764704563E+01 0.46226602770E+01
 0.57366463446E+01 0.78418382764E+01 0.11694271516E+02 0.17876317395E+02 0.25997935049E+02
 0.34992102896E+02 0.43919974262E+02 0.52341733043E+02 0.59814856320E+02 0.74519221383E+02
 0.74517125073E+02 0.69635882054E+02 0.61592961615E+02 0.52341081374E+02 0.42820730148E+02
 0.33190762837E+02 0.23876221079E+02 0.15933253131E+02 0.10326112779E+02 0.70888060928E+01
 0.53641486034E+01 0.45722515267E+01 0.45722539560E+01 0.53641680107E+01 0.70889195580E+01
 0.10326359729E+02 0.15933293743E+02 0.23875369165E+02 0.33188873076E+02 0.42819081599E+02
 0.52341733043E+02 0.61596611528E+02 0.69640475757E+02 0.80237128056E+02 0.77288380126E+02
 0.69640475757E+02 0.59814856320E+02 0.49672446620E+02 0.39667160250E+02 0.29789558305E+02
 0.20670796738E+02 0.13460135088E+02 0.88156499953E+01 0.63083848409E+01 0.50071881684E+01
 0.45982077951E+01 0.50071881684E+01 0.63083848409E+01 0.88156499953E+01 0.13460135088E+02
 0.20670796738E+02 0.29789558305E+02 0.39667160250E+02 0.49672446620E+02 0.59814856320E+02
 0.69640475757E+02 0.77288380126E+02 0.71970505937E+02 0.65282286022E+02 0.56492113880E+02
 0.47117747481E+02 0.37605043534E+02 0.28132905938E+02 0.19460989424E+02 0.12703227633E+02
 0.84061804252E+01 0.60777400908E+01 0.48566725535E+01 0.44746633037E+01 0.48567330927E+01
 0.60776966200E+01 0.84058293259E+01 0.12702923699E+02 0.19462018903E+02 0.28136281760E+02
 0.37609264818E+02 0.47118555201E+02 0.56486079706E+02 0.65271287522E+02 0.71961691597E+02
 0.74519221383E+02 0.65282286022E+02 0.57993028822E+02 0.49418625350E+02 0.40405930135E+02
 0.31219287747E+02 0.22394988796E+02 0.14969802513E+02 0.97954759695E+01 0.68196201660E+01
 0.52068298690E+01 0.44680872337E+01 0.44681636417E+01 0.52069338297E+01 0.68193757368E+01
 0.97946813639E+01 0.14969323521E+02 0.22396627986E+02 0.31223596483E+02 0.40410057977E+02
 0.49417767468E+02 0.57985381460E+02 0.65272317503E+02 0.69635882054E+02 0.69640475757E+02
 0.56492113880E+02 0.49418625350E+02 0.41365591200E+02 0.32826411685E+02 0.24311468980E+02
 0.16733296422E+02 0.11041783588E+02 0.75198122904E+01 0.55681677289E+01 0.45299188069E+01
 0.42081658388E+01 0.45300318430E+01 0.55682426886E+01 0.75193505527E+01 0.11040410387E+02
 0.16731732674E+02 0.24311448032E+02 0.32828930798E+02 0.41369392442E+02 0.49421145868E+02
 0.56492179816E+02 0.61595623959E+02 0.63492315697E+02 0.61596611528E+02 0.47117747481E+02
 0.40405930135E+02 0.32826411685E+02 0.24974352377E+02 0.17692760261E+02 0.11907663719E+02
 0.80820459210E+01 0.58790658110E+01 0.46212903788E+01 0.40559190208E+01 0.40559445595E+01
 0.46214724588E+01 0.58793637165E+01 0.80817951627E+01 0.11905956220E+02 0.17689648857E+02
 0.24971622722E+02 0.32826766390E+02 0.40410907957E+02 0.47126058594E+02 0.52349546580E+02
 0.55279346040E+02 0.55276154125E+02 0.52341733043E+02 0.37605043534E+02 0.31219287747E+02
 0.24311468980E+02 0.17692760261E+02 0.12217543226E+02 0.83978693495E+01 0.60875753870E+01
 0.47038252264E+01 0.39771647138E+01 0.37549671356E+01 0.39771611758E+01 0.47041300686E+01
 0.60883262960E+01 0.83984250222E+01 0.12216587029E+02 0.17689626182E+02 0.24307690646E+02
 0.31218279032E+02 0.37609230677E+02 0.42826902561E+02 0.46290859701E+02 0.47511031569E+02
 0.46284604868E+02 0.42819081599E+02 0.28132905938E+02 0.22394988796E+02 0.16733296422E+02
 0.11907663719E+02 0.83978693495E+01 0.61608437201E+01 0.47512197221E+01 0.39417304880E+01
 0.35843446396E+01 0.35842120698E+01 0.39414568038E+01 0.47512425858E+01 0.61617038698E+01
 0.83994355703E+01 0.11908704087E+02 0.16732460115E+02 0.22392468400E+02 0.28130645645E+02
 0.33188618348E+02 0.36946338222E+02 0.38950647124E+02 0.38949813519E+02 0.36945012824E+02
 0.33188873076E+02 0.19460989424E+02 0.14969802513E+02 0.11041783588E+02 0.80820459210E+01
 0.60875753870E+01 0.47512197221E+01 0.39317828228E+01 0.35085649842E+01 0.33796834851E+01
 0.35082277469E+01 0.39309994148E+01 0.47503403703E+01 0.60875534987E+01 0.80836145858E+01
 0.11044458381E+02 0.14971935363E+02 0.19461007824E+02 0.23873058504E+02 0.27553735823E+02
 0.29980831487E+02 0.30827662720E+02 0.29983164218E+02 0.27557038621E+02 0.23875369165E+02
 0.12703227633E+02 0.97954759695E+01 0.75198122904E+01 0.58790658110E+01 0.47038252264E+01
 0.39417304880E+01 0.35085649842E+01 0.33170946856E+01 0.33171973380E+01 0.35085131430E+01
 0.39408315897E+01 0.47019313949E+01 0.58771644032E+01 0.75195400921E+01 0.97976686064E+01
 0.12706835540E+02 0.15936028007E+02 0.18990257930E+02 0.21359029250E+02 0.22648366088E+02
 0.22649144655E+02 0.21360263887E+02 0.18989874788E+02 0.15933293743E+02 0.84061804252E+01
 0.68196201660E+01 0.55681677289E+01 0.46212903788E+01 0.39771647138E+01 0.35843446396E+01
 0.33796834851E+01 0.33171973380E+01 0.33804633564E+01 0.35853094645E+01 0.39771929449E+01
 0.46194426416E+01 0.55648187671E+01 0.68167010682E+01 0.84057980013E+01 0.10328986677E+02
 0.12377142889E+02 0.14209659744E+02 0.15477585731E+02 0.15929709404E+02 0.15475652063E+02
 0.14206032976E+02 0.12372994324E+02 0.10326359729E+02 0.60777400908E+01 0.52068298690E+01
 0.45299188069E+01 0.40559190208E+01 0.37549671356E+01 0.35842120698E+01 0.35082277469E+01
 0.35085131430E+01 0.35853094645E+01 0.37569739263E+01 0.40578463665E+01 0.45299967283E+01
 0.52041316494E+01 0.60734442640E+01 0.70857015625E+01 0.82031129986E+01 0.93130359784E+01
 0.10220707098E+02 0.10732430210E+02 0.10730822332E+02 0.10217065440E+02 0.93100825324E+01
 0.82031590873E+01 0.70889195580E+01 0.48566725535E+01 0.44680872337E+01 0.42081658388E+01
 0.40559445595E+01 0.39771611758E+01 0.39414568038E+01 0.39309994148E+01 0.39408315897E+01
 0.39771929449E+01 0.40578463665E+01 0.42115777406E+01 0.44709136261E+01 0.48566899849E+01
 0.53610820023E+01 0.59393807048E+01 0.65175596342E+01 0.70223323942E+01 0.73747033610E+01
 0.75013881908E+01 0.73737977972E+01 0.70223736325E+01 0.65200394501E+01 0.59434849890E+01
 0.53641680107E+01 0.44746633037E+01 0.44681636417E+01 0.45300318430E+01 0.46214724588E+01
 0.47041300686E+01 0.47512425858E+01 0.47503403703E+01 0.47019313949E+01 0.46194426416E+01
 0.45299967283E+01 0.44709136261E+01 0.44788810941E+01 0.45752617782E+01 0.47553153691E+01
 0.49875360403E+01 0.52235509858E+01 0.54133321117E+01 0.55184690064E+01 0.55191055045E+01
 0.54153449703E+01 0.52266049560E+01 0.49900709937E+01 0.47553309408E+01 0.45722539560E+01
 0.48567330927E+01 0.52069338297E+01 0.55682426886E+01 0.58793637165E+01 0.60883262960E+01
 0.61617038698E+01 0.60875534987E+01 0.58771644032E+01 0.55648187671E+01 0.52041316494E+01
 0.48566899849E+01 0.45752617782E+01 0.43886665149E+01 0.42959879886E+01 0.42729085484E+01
 0.42859083710E+01 0.43059176346E+01 0.43151254922E+01 0.43073890844E+01 0.42875609430E+01
 0.42729299907E+01 0.42934436434E+01 0.43846084911E+01 0.45722515267E+01 0.60776966200E+01
 0.68193757368E+01 0.75193505527E+01 0.80817951627E+01 0.83984250222E+01 0.83994355703E+01
 0.80836145858E+01 0.75195400921E+01 0.68167010682E+01 0.60734442640E+01 0.53610820023E+01
 0.47553153691E+01 0.42959879886E+01 0.39821110409E+01 0.37869678798E+01 0.36779251909E+01
 0.36299509224E+01 0.36301073639E+01 0.36777501407E+01 0.37853716839E+01 0.39791610341E+01
 0.42934486794E+01 0.47553309408E+01 0.53641486034E+01 0.84058293259E+01 0.97946813639E+01
 0.11040410387E+02 0.11905956220E+02 0.12216587029E+02 0.11908704087E+02 0.11044458381E+02
 0.97976686064E+01 0.84057980013E+01 0.70857015625E+01 0.59393807048E+01 0.49875360403E+01
 0.42729085484E+01 0.37869678798E+01 0.34877438211E+01 0.33294400937E+01 0.32801542785E+01
 0.33286480757E+01 0.34861609491E+01 0.37853719963E+01 0.42728846555E+01 0.49900760804E+01
 0.59434849890E+01 0.70888060928E+01 0.12702923699E+02 0.14969323521E+02 0.16731732674E+02
 0.17689648857E+02 0.17689626182E+02 0.16732460115E+02 0.14971935363E+02 0.12706835540E+02
 0.10328986677E+02 0.82031129986E+01 0.65175596342E+01 0.52235509858E+01 0.42859083710E+01
 0.36779251909E+01 0.33294400937E+01 0.31737297288E+01 0.31734015326E+01 0.33287998710E+01
 0.36779069148E+01 0.42874473136E+01 0.52264787423E+01 0.65201120703E+01 0.82031590873E+01
 0.10326112779E+02 0.19462018903E+02 0.22396627986E+02 0.24311448032E+02 0.24971622722E+02
 0.24307690646E+02 0.22392468400E+02 0.19461007824E+02 0.15936028007E+02 0.12377142889E+02
 0.93130359784E+01 0.70223323942E+01 0.54133321117E+01 0.43059176346E+01 0.36299509224E+01
 0.32801542785E+01 0.31734015326E+01 0.32802234498E+01 0.36306006770E+01 0.43074160681E+01
 0.54149111896E+01 0.70223593978E+01 0.93104506558E+01 0.12372994324E+02 0.15933253131E+02
 0.28136281760E+02 0.31223596483E+02 0.32828930798E+02 0.32826766390E+02 0.31218279032E+02
 0.28130645645E+02 0.23873058504E+02 0.18990257930E+02 0.14209659744E+02 0.10220707098E+02
 0.73747033610E+01 0.55184690064E+01 0.43151254922E+01 0.36301073639E+01 0.33286480757E+01
 0.33287998710E+01 0.36306006770E+01 0.43157674101E+01 0.55184799387E+01 0.73731811888E+01
 0.10217739882E+02 0.14206862588E+02 0.18989874788E+02 0.23876221079E+02 0.37609264818E+02
 0.40410057977E+02 0.41369392442E+02 0.40410907957E+02 0.37609230677E+02 0.33188618348E+02
 0.27553735823E+02 0.21359029250E+02 0.15477585731E+02 0.10732430210E+02 0.75013881908E+01
 0.55191055045E+01 0.43073890844E+01 0.36777501407E+01 0.34861609491E+01 0.36779069148E+01
 0.43074160681E+01 0.55184799387E+01 0.74999002686E+01 0.10730899039E+02 0.15477568188E+02
 0.21361274888E+02 0.27557038621E+02 0.33190762837E+02 0.47118555201E+02 0.49417767468E+02
 0.49421145868E+02 0.47126058594E+02 0.42826902561E+02 0.36946338222E+02 0.29980831487E+02
 0.22648366088E+02 0.15929709404E+02 0.10730822332E+02 0.73737977972E+01 0.54153449703E+01
 0.42875609430E+01 0.37853716839E+01 0.37853719963E+01 0.42874473136E+01 0.54149111896E+01
 0.73731811888E+01 0.10730899039E+02 0.15931602220E+02 0.22651910035E+02 0.29983578116E+02