   1   1   0   0
  0.1723025E+02  0.2899138E-09  0.2899138E-09  0.2899138E-09  0.5000000E-15
  1.000000000000000E-004
  CAR 
 FCC Au                                  
     36.99498351     -6.32354251  301      5.35078754      1.00000000
     -6.324  0.0000E+00  0.0000E+00
     -6.179  0.0000E+00  0.0000E+00
     -6.035 -0.1077E-32 -0.1555E-33
     -5.890 -0.1358E-27 -0.1962E-28
     -5.746 -0.5990E-23 -0.8650E-24
     -5.602 -0.9216E-19 -0.1331E-19
     -5.457 -0.4781E-15 -0.6905E-16
     -5.313 -0.8797E-12 -0.1271E-12
     -5.168 -0.5548E-09 -0.8024E-10
     -5.024 -0.1183E-06 -0.1716E-07
     -4.880 -0.8281E-05 -0.1213E-05
     -4.735 -0.1766E-03 -0.2672E-04
     -4.591 -0.8577E-03 -0.1506E-03
     -4.446  0.1725E-02  0.9851E-04
     -4.302  0.1290E-01  0.1962E-02
     -4.158  0.3203E-01  0.6587E-02
     -4.013  0.5242E-01  0.1416E-01
     -3.869  0.5477E-01  0.2206E-01
     -3.724  0.5931E-01  0.3063E-01
     -3.580  0.7822E-01  0.4192E-01
     -3.436  0.1060E+00  0.5722E-01
     -3.291  0.9619E-01  0.7111E-01
     -3.147  0.6770E-01  0.8089E-01
     -3.002  0.1130E+00  0.9721E-01
     -2.858  0.1728E+00  0.1222E+00
     -2.714  0.1449E+00  0.1431E+00
     -2.569  0.1099E+00  0.1590E+00
     -2.425  0.1772E+00  0.1845E+00
     -2.280  0.1985E+00  0.2132E+00
     -2.136  0.1974E+00  0.2417E+00
     -1.992  0.2814E+00  0.2823E+00
     -1.847  0.4392E+00  0.3458E+00
     -1.703  0.5777E+00  0.4292E+00
     -1.559  0.6598E+00  0.5244E+00
     -1.414  0.9685E+00  0.6643E+00
     -1.270  0.1246E+01  0.8443E+00
     -1.125  0.1572E+01  0.1071E+01
     -0.981  0.1827E+01  0.1335E+01
     -0.837  0.1850E+01  0.1602E+01
     -0.692  0.1768E+01  0.1857E+01
     -0.548  0.1564E+01  0.2083E+01
     -0.403  0.1571E+01  0.2310E+01
     -0.259  0.1272E+01  0.2494E+01
     -0.115  0.1249E+01  0.2674E+01
      0.030  0.1703E+01  0.2920E+01
      0.174  0.1903E+01  0.3195E+01
      0.319  0.1930E+01  0.3473E+01
      0.463  0.1892E+01  0.3747E+01
      0.607  0.2190E+01  0.4063E+01
      0.752  0.2266E+01  0.4390E+01
      0.896  0.2384E+01  0.4734E+01
      1.041  0.3021E+01  0.5171E+01
      1.185  0.3172E+01  0.5629E+01
      1.329  0.2286E+01  0.5959E+01
      1.474  0.1608E+01  0.6191E+01
      1.618  0.1493E+01  0.6406E+01
      1.763  0.1686E+01  0.6650E+01
      1.907  0.1825E+01  0.6913E+01
      2.051  0.2224E+01  0.7234E+01
      2.196  0.2136E+01  0.7543E+01
      2.340  0.1746E+01  0.7795E+01
      2.485  0.1998E+01  0.8083E+01
      2.629  0.1775E+01  0.8340E+01
      2.773  0.1420E+01  0.8545E+01
      2.918  0.1745E+01  0.8797E+01
      3.062  0.1700E+01  0.9042E+01
      3.207  0.2080E+01  0.9343E+01
      3.351  0.2679E+01  0.9729E+01
      3.495  0.2567E+01  0.1010E+02
      3.640  0.1810E+01  0.1036E+02
      3.784  0.1124E+01  0.1052E+02
      3.929  0.6024E+00  0.1061E+02
      4.073  0.1504E+00  0.1063E+02
      4.217  0.4807E-01  0.1064E+02
      4.362  0.2639E+00  0.1068E+02
      4.506  0.4761E+00  0.1075E+02
      4.650  0.3518E+00  0.1080E+02
      4.795  0.1759E+00  0.1082E+02
      4.939  0.1630E+00  0.1085E+02
      5.084  0.3841E+00  0.1090E+02
      5.228  0.4470E+00  0.1097E+02
      5.372  0.2647E+00  0.1100E+02
      5.517  0.1799E+00  0.1103E+02
      5.661  0.1987E+00  0.1106E+02
      5.806  0.2057E+00  0.1109E+02
      5.950  0.3921E+00  0.1115E+02
      6.094  0.3908E+00  0.1120E+02
      6.239  0.2675E+00  0.1124E+02
      6.383  0.3159E+00  0.1129E+02
      6.528  0.2611E+00  0.1132E+02
      6.672  0.1908E+00  0.1135E+02
      6.816  0.2014E+00  0.1138E+02
      6.961  0.2714E+00  0.1142E+02
      7.105  0.3609E+00  0.1147E+02
      7.250  0.3483E+00  0.1152E+02
      7.394  0.2539E+00  0.1156E+02
      7.538  0.1473E+00  0.1158E+02
      7.683  0.1831E+00  0.1161E+02
      7.827  0.3582E+00  0.1166E+02
      7.972  0.3018E+00  0.1170E+02
      8.116  0.2128E+00  0.1173E+02
      8.260  0.1749E+00  0.1176E+02
      8.405  0.2800E+00  0.1180E+02
      8.549  0.5734E+00  0.1188E+02
      8.694  0.5658E+00  0.1196E+02
      8.838  0.2722E+00  0.1200E+02
      8.982  0.1048E+00  0.1202E+02
      9.127  0.2521E+00  0.1205E+02
      9.271  0.4477E+00  0.1212E+02
      9.416  0.3940E+00  0.1217E+02
      9.560  0.3354E+00  0.1222E+02
      9.704  0.2468E+00  0.1226E+02
      9.849  0.1461E+00  0.1228E+02
      9.993  0.1519E+00  0.1230E+02
     10.137  0.2877E+00  0.1234E+02
     10.282  0.4728E+00  0.1241E+02
     10.426  0.4071E+00  0.1247E+02
     10.571  0.3117E+00  0.1252E+02
     10.715  0.3136E+00  0.1256E+02
     10.859  0.2974E+00  0.1260E+02
     11.004  0.3726E+00  0.1266E+02
     11.148  0.4747E+00  0.1273E+02
     11.293  0.3862E+00  0.1278E+02
     11.437  0.3525E+00  0.1283E+02
     11.581  0.2766E+00  0.1287E+02
     11.726  0.1581E+00  0.1290E+02
     11.870  0.2434E+00  0.1293E+02
     12.015  0.4771E+00  0.1300E+02
     12.159  0.4074E+00  0.1306E+02
     12.303  0.1003E+00  0.1307E+02
     12.448  0.7000E-01  0.1308E+02
     12.592  0.3317E+00  0.1313E+02
     12.737  0.4202E+00  0.1319E+02
     12.881  0.2876E+00  0.1323E+02
     13.025  0.4179E+00  0.1329E+02
     13.170  0.4454E+00  0.1336E+02
     13.314  0.4415E+00  0.1342E+02
     13.459  0.6116E+00  0.1351E+02
     13.603  0.3772E+00  0.1356E+02
     13.747  0.3121E-01  0.1357E+02
     13.892  0.2709E-01  0.1357E+02
     14.036  0.3296E+00  0.1362E+02
     14.181  0.5379E+00  0.1370E+02
     14.325  0.3603E+00  0.1375E+02
     14.469  0.2567E+00  0.1379E+02
     14.614  0.3936E+00  0.1384E+02
     14.758  0.5418E+00  0.1392E+02
     14.903  0.4454E+00  0.1399E+02
     15.047  0.4190E+00  0.1405E+02
     15.191  0.4112E+00  0.1411E+02
     15.336  0.3791E+00  0.1416E+02
     15.480  0.4525E+00  0.1423E+02
     15.625  0.4486E+00  0.1429E+02
     15.769  0.4292E+00  0.1435E+02
     15.913  0.5227E+00  0.1443E+02
     16.058  0.7172E+00  0.1453E+02
     16.202  0.5818E+00  0.1462E+02
     16.346  0.2275E+00  0.1465E+02
     16.491  0.2959E+00  0.1469E+02
     16.635  0.4082E+00  0.1475E+02
     16.780  0.5120E+00  0.1482E+02
     16.924  0.7107E+00  0.1493E+02
     17.068  0.7921E+00  0.1504E+02
     17.213  0.7662E+00  0.1515E+02
     17.357  0.4121E+00  0.1521E+02
     17.502  0.1771E+00  0.1524E+02
     17.646  0.2159E+00  0.1527E+02
     17.790  0.4654E+00  0.1534E+02
     17.935  0.5648E+00  0.1542E+02
     18.079  0.4704E+00  0.1549E+02
     18.224  0.5361E+00  0.1556E+02
     18.368  0.5397E+00  0.1564E+02
     18.512  0.4398E+00  0.1570E+02
     18.657  0.4578E+00  0.1577E+02
     18.801  0.6552E+00  0.1586E+02
     18.946  0.4600E+00  0.1593E+02
     19.090  0.3676E+00  0.1598E+02
     19.234  0.5255E+00  0.1606E+02
     19.379  0.5830E+00  0.1614E+02
     19.523  0.4259E+00  0.1621E+02
     19.668  0.4288E+00  0.1627E+02
     19.812  0.6559E+00  0.1636E+02
     19.956  0.4495E+00  0.1643E+02
     20.101  0.2702E+00  0.1647E+02
     20.245  0.4904E+00  0.1654E+02
     20.390  0.7582E+00  0.1665E+02
     20.534  0.6186E+00  0.1674E+02
     20.678  0.4873E+00  0.1681E+02
     20.823  0.5946E+00  0.1689E+02
     20.967  0.6852E+00  0.1699E+02
     21.112  0.6739E+00  0.1709E+02
     21.256  0.4858E+00  0.1716E+02
     21.400  0.4810E+00  0.1723E+02
     21.545  0.5398E+00  0.1731E+02
     21.689  0.4784E+00  0.1737E+02
     21.833  0.3768E+00  0.1743E+02
     21.978  0.3153E+00  0.1747E+02
     22.122  0.3624E+00  0.1753E+02
     22.267  0.6754E+00  0.1762E+02
     22.411  0.8922E+00  0.1775E+02
     22.555  0.9363E+00  0.1789E+02
     22.700  0.8108E+00  0.1801E+02
     22.844  0.6378E+00  0.1810E+02
     22.989  0.6407E+00  0.1819E+02
     23.133  0.7078E+00  0.1829E+02
     23.277  0.8897E+00  0.1842E+02
     23.422  0.1060E+01  0.1857E+02
     23.566  0.8138E+00  0.1869E+02
     23.711  0.7118E+00  0.1879E+02
     23.855  0.7160E+00  0.1890E+02
     23.999  0.5996E+00  0.1898E+02
     24.144  0.5356E+00  0.1906E+02
     24.288  0.5624E+00  0.1914E+02
     24.433  0.6545E+00  0.1924E+02
     24.577  0.8192E+00  0.1936E+02
     24.721  0.8799E+00  0.1948E+02
     24.866  0.6608E+00  0.1958E+02
     25.010  0.4133E+00  0.1964E+02
     25.155  0.2974E+00  0.1968E+02
     25.299  0.4723E+00  0.1975E+02
     25.443  0.6611E+00  0.1984E+02
     25.588  0.6973E+00  0.1995E+02
     25.732  0.5119E+00  0.2002E+02
     25.877  0.2818E+00  0.2006E+02
     26.021  0.2592E+00  0.2010E+02
     26.165  0.2840E+00  0.2014E+02
     26.310  0.4582E+00  0.2020E+02
     26.454  0.5465E+00  0.2028E+02
     26.599  0.4488E+00  0.2035E+02
     26.743  0.4317E+00  0.2041E+02
     26.887  0.3908E+00  0.2047E+02
     27.032  0.3448E+00  0.2052E+02
     27.176  0.2819E+00  0.2056E+02
     27.321  0.1778E+00  0.2058E+02
     27.465  0.3230E+00  0.2063E+02
     27.609  0.4700E+00  0.2070E+02
     27.754  0.4436E+00  0.2076E+02
     27.898  0.5711E+00  0.2084E+02
     28.042  0.7528E+00  0.2095E+02
     28.187  0.5009E+00  0.2103E+02
     28.331  0.3218E+00  0.2107E+02
     28.476  0.2615E+00  0.2111E+02
     28.620  0.8901E-01  0.2112E+02
     28.764  0.2526E+00  0.2116E+02
     28.909  0.6543E+00  0.2125E+02
     29.053  0.6785E+00  0.2135E+02
     29.198  0.4616E+00  0.2142E+02
     29.342  0.3689E+00  0.2147E+02
     29.486  0.5650E+00  0.2155E+02
     29.631  0.8728E+00  0.2168E+02
     29.775  0.1024E+01  0.2183E+02
     29.920  0.7939E+00  0.2194E+02
     30.064  0.7130E+00  0.2204E+02
     30.208  0.6870E+00  0.2214E+02
     30.353  0.4982E+00  0.2222E+02
     30.497  0.4590E+00  0.2228E+02
     30.642  0.6025E+00  0.2237E+02
     30.786  0.6445E+00  0.2246E+02
     30.930  0.7561E+00  0.2257E+02
     31.075  0.7223E+00  0.2268E+02
     31.219  0.7227E+00  0.2278E+02
     31.364  0.8302E+00  0.2290E+02
     31.508  0.9400E+00  0.2304E+02
     31.652  0.8088E+00  0.2315E+02
     31.797  0.5335E+00  0.2323E+02
     31.941  0.4882E+00  0.2330E+02
     32.086  0.5373E+00  0.2338E+02
     32.230  0.4475E+00  0.2344E+02
     32.374  0.3644E+00  0.2349E+02
     32.519  0.4943E+00  0.2357E+02
     32.663  0.5518E+00  0.2365E+02
     32.808  0.4948E+00  0.2372E+02
     32.952  0.3455E+00  0.2377E+02
     33.096  0.1851E+00  0.2379E+02
     33.241  0.8053E-01  0.2380E+02
     33.385  0.1090E+00  0.2382E+02
     33.530  0.1398E+00  0.2384E+02
     33.674  0.2061E+00  0.2387E+02
     33.818  0.1743E+00  0.2390E+02
     33.963  0.1888E+00  0.2392E+02
     34.107  0.2230E+00  0.2396E+02
     34.251  0.7362E-01  0.2397E+02
     34.396 -0.1064E-01  0.2396E+02
     34.540 -0.4153E-02  0.2396E+02
     34.685  0.2777E-01  0.2397E+02
     34.829  0.6562E-01  0.2398E+02
     34.973  0.9169E-01  0.2399E+02
     35.118  0.6278E-01  0.2400E+02
     35.262  0.7134E-02  0.2400E+02
     35.407 -0.3476E-02  0.2400E+02
     35.551 -0.6185E-03  0.2400E+02
     35.695 -0.2694E-04  0.2400E+02
     35.840 -0.3703E-06  0.2400E+02
     35.984 -0.1702E-08  0.2400E+02
     36.129 -0.2670E-11  0.2400E+02
     36.273 -0.1439E-14  0.2400E+02
     36.417  0.0000E+00  0.2400E+02
     36.562  0.0000E+00  0.2400E+02
     36.706  0.0000E+00  0.2400E+02
     36.851  0.0000E+00  0.2400E+02
     36.995  0.0000E+00  0.2400E+02
