    1    1    1    1
  0.1723025E+02  0.2899138E-09  0.2899138E-09  0.2899138E-09  0.5000000E-15
  1.000000000000000E-004
  CAR 
 FCC Au                                  
     11    110     12
 
  0.5000000E-01  0.5000000E-01  0.5000000E-01  0.2000000E-02
    1       -4.323543   1.000000
    2        0.723163   1.000000
    3        0.781642   1.000000
    4        0.781642   1.000000
    5        2.252491   1.000000
    6        2.252491   1.000000
    7       20.824020   0.000000
    8       23.822907   0.000000
    9       24.587432   0.000000
   10       24.587432   0.000000
   11       29.383483   0.000000
   12       32.265716   0.000000
 
  0.1500000E+00  0.5000000E-01  0.5000000E-01  0.6000000E-02
    1       -3.874134   1.000000
    2        0.574303   1.000000
    3        0.917453   1.000000
    4        0.948732   1.000000
    5        2.106705   1.000000
    6        2.301207   1.000000
    7       21.092445   0.000000
    8       21.887424   0.000000
    9       24.185464   0.000000
   10       25.494591   0.000000
   11       28.737461   0.000000
   12       31.357666   0.000000
 
  0.2500000E+00  0.5000000E-01  0.5000000E-01  0.6000000E-02
    1       -2.899541   1.000000
    2        0.462101   1.000000
    3        1.066827   1.000000
    4        1.087903   1.000000
    5        2.115592   1.000000
    6        2.508467   1.000000
    7       17.944427   0.000000
    8       21.698009   0.000000
    9       24.310026   0.000000
   10       26.674779   0.000000
   11       26.821316   0.000000
   12       29.172776   0.000000
 
  0.3500000E+00  0.5000000E-01  0.5000000E-01  0.6000000E-02
    1       -2.022339   1.000000
    2        0.892008   1.000000
    3        0.975853   1.000000
    4        1.126024   1.000000
    5        2.593879   1.000000
    6        3.067272   1.000000
    7       13.919832   0.000000
    8       21.034799   0.000000
    9       23.335325   0.000000
   10       25.496348   0.000000
   11       27.986134   0.000000
   12       29.033656   0.000000
 
  0.4500000E+00  0.5000000E-01  0.5000000E-01  0.6000000E-02
    1       -1.800236   1.000000
    2        0.743768   1.000000
    3        0.811383   1.000000
    4        2.610117   1.000000
    5        3.175230   1.000000
    6        3.951058   1.000000
    7       10.150013  -0.000000
    8       20.295576   0.000000
    9       22.425780   0.000000
   10       23.527823   0.000000
   11       29.696085   0.000000
   12       29.935945   0.000000
 
 -0.4500000E+00  0.5000000E-01  0.5000000E-01  0.6000000E-02
    1       -1.794128   1.000000
    2        0.678554   1.000000
    3        0.772922   1.000000
    4        2.999936   1.000000
    5        3.451738   1.000000
    6        4.857483   1.001343
    7        8.480571  -0.000000
    8       20.093148   0.000000
    9       22.483807   0.000000
   10       22.607385   0.000000
   11       30.160532   0.000000
   12       30.231103   0.000000
 
 -0.3500000E+00  0.5000000E-01  0.5000000E-01  0.6000000E-02
    1       -1.827361   1.000000
    2        0.773408   1.000000
    3        0.880148   1.000000
    4        2.054602   1.000000
    5        3.253240   1.000000
    6        3.395387   1.000000
    7       11.321988   0.000000
    8       20.529984   0.000000
    9       22.882215   0.000000
   10       23.701763   0.000000
   11       29.636711   0.000000
   12       29.811734   0.000000
 
 -0.2500000E+00  0.5000000E-01  0.5000000E-01  0.6000000E-02
    1       -2.244712   1.000000
    2        0.710816   1.000000
    3        0.991887   1.000000
    4        1.049533   1.000000
    5        2.507786   1.000000
    6        2.763537   1.000000
    7       15.266021   0.000000
    8       21.414465   0.000000
    9       23.811518   0.000000
   10       25.631528   0.000000
   11       27.648144   0.000000
   12       29.473642   0.000000
 
 -0.1500000E+00  0.5000000E-01  0.5000000E-01  0.6000000E-02
    1       -3.258156   1.000000
    2        0.450424   1.000000
    3        1.058365   1.000000
    4        1.071161   1.000000
    5        2.072727   1.000000
    6        2.389033   1.000000
    7       19.234991   0.000000
    8       21.818651   0.000000
    9       24.321142   0.000000
   10       25.919710   0.000000
   11       27.462593   0.000000
   12       30.094535   0.000000
 
 -0.5000000E-01  0.5000000E-01  0.5000000E-01  0.6000000E-02
    1       -4.095049   1.000000
    2        0.617919   1.000000
    3        0.874582   1.000000
    4        0.880119   1.000000
    5        2.128863   1.000000
    6        2.308683   1.000000
    7       21.048131   0.000000
    8       22.907732   0.000000
    9       24.305365   0.000000
   10       24.697444   0.000000
   11       29.900708   0.000000
   12       31.526467   0.000000
 
  0.1500000E+00  0.1500000E+00  0.5000000E-01  0.6000000E-02
    1       -3.650966   1.000000
    2        0.408169   1.000000
    3        1.070312   1.000000
    4        1.073952   1.000000
    5        1.916969   1.000000
    6        2.416780   1.000000
    7       21.383383   0.000000
    8       22.052757   0.000000
    9       23.608272   0.000000
   10       24.272645   0.000000
   11       29.037550   0.000000
   12       30.844457   0.000000
 
  0.2500000E+00  0.1500000E+00  0.5000000E-01  0.1200000E-01
    1       -2.841503   1.000000
    2        0.168727   1.000000
    3        1.168064   1.000000
    4        1.345800   1.000000
    5        1.867356   1.000000
    6        2.630542   1.000000
    7       19.485663   0.000000
    8       21.303936   0.000000
    9       23.284005   0.000000
   10       24.523284   0.000000
   11       27.004288   0.000000
   12       30.034270   0.000000
 
  0.3500000E+00  0.1500000E+00  0.5000000E-01  0.1200000E-01
    1       -1.843643   1.000000
    2        0.254281   1.000000
    3        0.875138   1.000000
    4        1.356001   1.000000
    5        2.512586   1.000000
    6        3.198637   1.000000
    7       15.495115   0.000000
    8       20.746589   0.000000
    9       22.230051   0.000000
   10       24.296203   0.000000
   11       27.906577   0.000000
   12       29.759282   0.000000
 
  0.4500000E+00  0.1500000E+00  0.5000000E-01  0.1200000E-01
    1       -1.458069   1.000000
    2        0.581662   1.000000
    3        1.108140   1.000000
    4        1.262934   1.000000
    5        3.239530   1.000000
    6        4.370316   1.000000
    7       11.524683   0.000000
    8       20.298834   0.000000
    9       20.933445   0.000000
   10       23.015832   0.000000
   11       29.755109   0.000000
   12       30.820863   0.000000
 
 -0.4500000E+00  0.1500000E+00  0.5000000E-01  0.1200000E-01
    1       -1.434215   1.000000
    2        0.456451   1.000000
    3        1.064971   1.000000
    4        1.990008   1.000000
    5        3.407174   1.000000
    6        6.259463  -0.000000
    7        8.474675  -0.000000
    8       19.848027   0.000000
    9       20.571890   0.000000
   10       22.300768   0.000000
   11       30.169447   0.000000
   12       31.241591   0.000000
 
 -0.3500000E+00  0.1500000E+00  0.5000000E-01  0.1200000E-01
    1       -1.419598   1.000000
    2        0.534587   1.000000
    3        1.089559   1.000000
    4        1.670261   1.000000
    5        3.099204   1.000000
    6        5.069880   1.031605
    7       10.387621  -0.000000
    8       19.482193   0.000000
    9       21.085831   0.000000
   10       23.195661   0.000000
   11       29.385782   0.000000
   12       30.875196   0.000000
 
 -0.2500000E+00  0.1500000E+00  0.5000000E-01  0.1200000E-01
    1       -1.603861   1.000000
    2        0.529094   1.000000
    3        0.830864   1.000000
    4        1.273833   1.000000
    5        2.425565   1.000000
    6        3.730216   1.000000
    7       14.164941   0.000000
    8       19.717262   0.000000
    9       22.193927   0.000000
   10       25.145090   0.000000
   11       27.598442   0.000000
   12       29.985808   0.000000
 
 -0.1500000E+00  0.1500000E+00  0.5000000E-01  0.1200000E-01
    1       -2.490355   1.000000
    2        0.211232   1.000000
    3        1.065993   1.000000
    4        1.368788   1.000000
    5        1.860475   1.000000
    6        2.886392   1.000000
    7       18.084129   0.000000
    8       20.347834   0.000000
    9       23.870296   0.000000
   10       24.868934   0.000000
   11       28.165205   0.000000
   12       28.826259   0.000000
 
 -0.5000000E-01  0.1500000E+00  0.5000000E-01  0.1200000E-01
    1       -3.445267   1.000000
    2        0.413464   1.000000
    3        1.073595   1.000000
    4        1.083071   1.000000
    5        1.955393   1.000000
    6        2.425839   1.000000
    7       20.494453   0.000000
    8       21.534537   0.000000
    9       23.747739   0.000000
   10       25.568783   0.000000
   11       27.825252   0.000000
   12       30.777067   0.000000
 
  0.2500000E+00  0.2500000E+00  0.5000000E-01  0.6000000E-02
    1       -2.300075   1.000000
    2       -0.178367   1.000000
    3        1.318904   1.000000
    4        1.719126   1.000000
    5        1.906732   1.000000
    6        2.753035   1.000000
    7       19.927034   0.000000
    8       21.037721   0.000000
    9       22.224354   0.000000
   10       23.079448   0.000000
   11       24.051692   0.000000
   12       31.568401   0.000000
 
  0.3500000E+00  0.2500000E+00  0.5000000E-01  0.1200000E-01
    1       -1.510139   1.000000
    2       -0.397973   1.000000
    3        1.067360   1.000000
    4        2.057903   1.000000
    5        2.550809   1.000000
    6        3.219858   1.000000
    7       17.203925   0.000000
    8       19.149723   0.000000
    9       20.787861   0.000000
   10       23.444615   0.000000
   11       24.827690   0.000000
   12       31.610414   0.000000
 
  0.4500000E+00  0.2500000E+00  0.5000000E-01  0.1200000E-01
    1       -1.047371   1.000000
    2       -0.142091   1.000000
    3        0.827887   1.000000
    4        1.930377   1.000000
    5        3.323787   1.000000
    6        4.637310   1.000003
    7       13.164680   0.000000
    8       18.459835   0.000000
    9       19.065582   0.000000
   10       23.098389   0.000000
   11       28.003151   0.000000
   12       31.523705   0.000000
 
 -0.4500000E+00  0.2500000E+00  0.5000000E-01  0.1200000E-01
    1       -0.930437   1.000000
    2        0.116660   1.000000
    3        1.030032   1.000000
    4        1.737146   1.000000
    5        3.442953   1.000000
    6        7.063962  -0.000000
    7        9.613968  -0.000000
    8       17.177410   0.000000
    9       19.133399   0.000000
   10       22.725338   0.000000
   11       30.612883   0.000000
   12       32.094590   0.000000
 
 -0.3500000E+00  0.2500000E+00  0.5000000E-01  0.1200000E-01
    1       -0.764209   1.000000
    2        0.179741   1.000000
    3        1.053943   1.000000
    4        1.635053   1.000000
    5        3.055336   1.000000
    6        6.904416  -0.000000
    7       10.129144  -0.000000
    8       16.106479   0.000000
    9       20.326218   0.000000
   10       22.905421   0.000000
   11       29.801032   0.000000
   12       32.138966   0.000000
 
 -0.2500000E+00  0.2500000E+00  0.5000000E-01  0.1200000E-01
    1       -0.688384   1.000000
    2        0.249056   1.000000
    3        0.506201   1.000000
    4        1.713914   1.000000
    5        2.383628   1.000000
    6        5.117166   1.034924
    7       13.491427   0.000000
    8       16.015757   0.000000
    9       21.610965   0.000000
   10       24.278865   0.000000
   11       27.677734   0.000000
   12       31.927587   0.000000
 
 -0.1500000E+00  0.2500000E+00  0.5000000E-01  0.1200000E-01
    1       -1.455268   1.000000
    2        0.135498   1.000000
    3        0.802858   1.000000
    4        1.592120   1.000000
    5        1.996173   1.000000
    6        3.816725   1.000000
    7       15.613334   0.000000
    8       18.241682   0.000000
    9       22.657374   0.000000
   10       25.669612   0.000000
   11       26.631683   0.000000
   12       30.494789   0.000000
 
 -0.5000000E-01  0.2500000E+00  0.5000000E-01  0.1200000E-01
    1       -2.405386   1.000000
    2        0.388159   1.000000
    3        1.038388   1.000000
    4        1.183228   1.000000
    5        2.177964   1.000000
    6        2.815658   1.000000
    7       16.701728   0.000000
    8       21.371596   0.000000
    9       23.369453   0.000000
   10       25.803333   0.000000
   11       27.455032   0.000000
   12       28.988596   0.000000
 
  0.3500000E+00  0.3500000E+00  0.5000000E-01  0.6000000E-02
    1       -1.363442   1.000000
    2       -0.767411   1.000000
    3        1.935403   1.000000
    4        2.575163   1.000000
    5        3.003620   1.000000
    6        3.153913   1.000000
    7       17.128761   0.000000
    8       18.171477   0.000000
    9       18.377026   0.000000
   10       22.323885   0.000000
   11       24.232006   0.000000
   12       34.029103   0.000000
 
  0.4500000E+00  0.3500000E+00  0.5000000E-01  0.1200000E-01
    1       -1.215281   1.000000
    2       -0.873622   1.000000
    3        1.980641   1.000000
    4        2.868339   1.000000
    5        3.338313   1.000000
    6        4.696950   1.000019
    7       14.330862   0.000000
    8       16.473635   0.000000
    9       17.104208   0.000000
   10       23.321833   0.000000
   11       25.209566   0.000000
   12       33.579237   0.000000
 
 -0.4500000E+00  0.3500000E+00  0.5000000E-01  0.1200000E-01
    1       -1.050378   1.000000
    2       -0.565333   1.000000
    3        1.632139   1.000000
    4        2.572331   1.000000
    5        3.537082   1.000000
    6        7.288539  -0.000000
    7       11.167374   0.000000
    8       14.720274   0.000000
    9       17.223648   0.000000
   10       23.543881   0.000000
   11       27.923147   0.000000
   12       32.573582   0.000000
 
 -0.3500000E+00  0.3500000E+00  0.5000000E-01  0.1200000E-01
    1       -0.765675   1.000000
    2       -0.066536   1.000000
    3        1.098634   1.000000
    4        2.250634   1.000000
    5        3.223155   1.000000
    6        8.482066  -0.000000
    7       10.605488  -0.000000
    8       13.059416   0.000000
    9       18.531918   0.000000
   10       23.337287   0.000000
   11       31.137882   0.000000
   12       31.495824   0.000000
 
 -0.2500000E+00  0.3500000E+00  0.5000000E-01  0.1200000E-01
    1       -0.492214   1.000000
    2        0.223785   1.000000
    3        0.615633   1.000000
    4        1.901844   1.000000
    5        2.820152   1.000000
    6        6.727450  -0.000000
    7       11.972246   0.000000
    8       14.060997   0.000000
    9       20.313465   0.000000
   10       23.262557   0.000000
   11       29.516071   0.000000
   12       32.401407   0.000000
 
 -0.1500000E+00  0.3500000E+00  0.5000000E-01  0.1200000E-01
    1       -1.068316   1.000000
    2        0.438001   1.000000
    3        0.929084   1.000000
    4        1.415901   1.000000
    5        2.738246   1.000000
    6        5.107780   1.035443
    7       11.907013   0.000000
    8       17.755487   0.000000
    9       21.372811   0.000000
   10       23.762873   0.000000
   11       28.454898   0.000000
   12       31.361864   0.000000
 
 -0.5000000E-01  0.3500000E+00  0.5000000E-01  0.1200000E-01
    1       -1.753726   1.000000
    2        0.776495   1.000000
    3        1.017651   1.000000
    4        1.276315   1.000000
    5        2.867369   1.000000
    6        3.560783   1.000000
    7       12.672693   0.000000
    8       20.696941   0.000000
    9       22.177657   0.000000
   10       24.379593   0.000000
   11       28.816254   0.000000
   12       29.733799   0.000000
 
  0.4500000E+00  0.4500000E+00  0.5000000E-01  0.6000000E-02
    1       -1.469670   1.000000
    2       -1.156770   1.000000
    3        3.239001   1.000000
    4        3.249372   1.000000
    5        3.564744   1.000000
    6        5.212681   0.956525
    7       12.913212   0.000000
    8       15.793218   0.000000
    9       16.131397   0.000000
   10       22.626960   0.000000
   11       24.953220   0.000000
   12       34.907202   0.000000
 
 -0.4500000E+00  0.4500000E+00  0.5000000E-01  0.1200000E-01
    1       -1.396958   1.000000
    2       -1.107373   1.000000
    3        2.879072   1.000000
    4        3.195314   1.000000
    5        3.711792   1.000000
    6        7.216302  -0.000000
    7       11.053884   0.000000
    8       14.758791   0.000000
    9       15.726418   0.000000
   10       23.548298   0.000000
   11       25.521854   0.000000
   12       34.042278   0.000000
 
 -0.3500000E+00  0.4500000E+00  0.5000000E-01  0.1200000E-01
    1       -1.102478   1.000000
    2       -0.654696   1.000000
    3        1.915928   1.000000
    4        2.736933   1.000000
    5        3.535679   1.000000
    6        8.722698  -0.000000
    7       10.264340  -0.000000
    8       13.427334   0.000000
    9       16.880602   0.000000
   10       23.717543   0.000000
   11       27.921788   0.000000
   12       32.753380   0.000000
 
 -0.2500000E+00  0.4500000E+00  0.5000000E-01  0.1200000E-01
    1       -0.800201   1.000000
    2       -0.019552   1.000000
    3        1.056497   1.000000
    4        2.033745   1.000000
    5        3.345208   1.000000
    6        8.541514  -0.000000
    7        9.157741  -0.000000
    8       15.049966   0.000000
    9       18.731913   0.000000
   10       23.083333   0.000000
   11       30.847844   0.000000
   12       31.831299   0.000000
 
 -0.1500000E+00  0.4500000E+00  0.5000000E-01  0.1200000E-01
    1       -1.118978   1.000000
    2        0.289353   1.000000
    3        1.324184   1.000000
    4        1.531099   1.000000
    5        3.284773   1.000000
    6        7.063153  -0.000000
    7        8.638071  -0.000000
    8       18.139972   0.000000
    9       20.366548   0.000000
   10       22.464828   0.000000
   11       30.090409   0.000000
   12       31.735805   0.000000
 
 -0.5000000E-01  0.4500000E+00  0.5000000E-01  0.1200000E-01
    1       -1.667153   1.000000
    2        0.622283   1.000000
    3        0.887050   1.000000
    4        2.403006   1.000000
    5        3.362829   1.000000
    6        4.981637   1.012736
    7        9.177703  -0.000000
    8       20.201330   0.000000
    9       21.619070   0.000000
   10       22.767154   0.000000
   11       30.015927   0.000000
   12       30.536009   0.000000
 
 -0.4500000E+00 -0.4500000E+00  0.5000000E-01  0.6000000E-02
    1       -1.542461   1.000000
    2       -1.239598   1.000000
    3        3.352528   1.000000
    4        3.530032   1.000000
    5        3.726586   1.000000
    6        6.441119  -0.000000
    7       11.267399   0.000000
    8       15.300455   0.000000
    9       15.669146   0.000000
   10       22.746643   0.000000
   11       25.106334   0.000000
   12       34.714860   0.000000
 
 -0.3500000E+00 -0.4500000E+00  0.5000000E-01  0.1200000E-01
    1       -1.321154   1.000000
    2       -1.027723   1.000000
    3        2.525709   1.000000
    4        3.132086   1.000000
    5        3.558261   1.000000
    6        5.973408  -0.000049
    7       12.583362   0.000000
    8       15.336730   0.000000
    9       16.181112   0.000000
   10       23.450964   0.000000
   11       25.413565   0.000000
   12       33.972072   0.000000
 
 -0.2500000E+00 -0.4500000E+00  0.5000000E-01  0.1200000E-01
    1       -0.996800   1.000000
    2       -0.386065   1.000000
    3        1.206790   1.000000
    4        2.273972   1.000000
    5        3.485623   1.000000
    6        5.858858  -0.000965
    7       12.106048   0.000000
    8       16.606271   0.000000
    9       17.905010   0.000000
   10       23.281370   0.000000
   11       27.943700   0.000000
   12       32.165586   0.000000
 
 -0.1500000E+00 -0.4500000E+00  0.5000000E-01  0.1200000E-01
    1       -1.166670   1.000000
    2        0.338802   1.000000
    3        1.061368   1.000000
    4        1.450819   1.000000
    5        3.424387   1.000000
    6        5.583727  -0.034856
    7       10.489602  -0.000000
    8       19.233472   0.000000
    9       19.709105   0.000000
   10       22.537013   0.000000
   11       30.298966   0.000000
   12       31.920765   0.000000
 
 -0.3500000E+00 -0.3500000E+00  0.5000000E-01  0.6000000E-02
    1       -1.368839   1.000000
    2       -0.995915   1.000000
    3        2.697262   1.000000
    4        2.972706   1.000000
    5        3.355145   1.000000
    6        3.915288   1.000000
    7       15.084246   0.000000
    8       16.760138   0.000000
    9       16.996181   0.000000
   10       22.449662   0.000000
   11       24.657143   0.000000
   12       34.994984   0.000000
 
 -0.2500000E+00 -0.3500000E+00  0.5000000E-01  0.1200000E-01
    1       -1.205780   1.000000
    2       -0.657810   1.000000
    3        1.394974   1.000000
    4        2.475232   1.000000
    5        3.024233   1.000000
    6        3.755949   1.000000
    7       15.864857   0.000000
    8       17.828638   0.000000
    9       18.711181   0.000000
   10       23.289779   0.000000
   11       24.951357   0.000000
   12       32.706563   0.000000
 
 -0.1500000E+00 -0.3500000E+00  0.5000000E-01  0.1200000E-01
    1       -1.336731   1.000000
    2        0.087352   1.000000
    3        0.716220   1.000000
    4        1.610391   1.000000
    5        2.987445   1.000000
    6        3.743144   1.000000
    7       14.309692   0.000000
    8       19.721778   0.000000
    9       20.845166   0.000000
   10       23.272781   0.000000
   11       28.043487   0.000000
   12       30.693728   0.000000
 
 -0.2500000E+00 -0.2500000E+00  0.5000000E-01  0.6000000E-02
    1       -1.663939   1.000000
    2       -0.487544   1.000000
    3        1.403355   1.000000
    4        2.136304   1.000000
    5        2.379894   1.000000
    6        2.950277   1.000000
    7       18.658002   0.000000
    8       19.556318   0.000000
    9       20.706431   0.000000
   10       22.427543   0.000000
   11       23.728490   0.000000
   12       32.674895   0.000000
 
 -0.1500000E+00 -0.2500000E+00  0.5000000E-01  0.1200000E-01
    1       -2.138660   1.000000
    2       -0.113277   1.000000
    3        1.088684   1.000000
    4        1.675305   1.000000
    5        2.094768   1.000000
    6        2.891827   1.000000
    7       18.404845   0.000000
    8       20.410150   0.000000
    9       22.593054   0.000000
   10       23.665985   0.000000
   11       25.496043   0.000000
   12       30.591179   0.000000
 
 -0.1500000E+00 -0.1500000E+00  0.5000000E-01  0.6000000E-02
    1       -3.025353   1.000000
    2        0.131409   1.000000
    3        1.306864   1.000000
    4        1.357472   1.000000
    5        1.721325   1.000000
    6        2.570090   1.000000
    7       20.931091   0.000000
    8       22.117837   0.000000
    9       22.458107   0.000000
   10       23.509586   0.000000
   11       26.649043   0.000000
   12       30.898540   0.000000
 
  0.1500000E+00  0.1500000E+00  0.1500000E+00  0.2000000E-02
    1       -3.664238   1.000000
    2        0.560239   1.000000
    3        0.965947   1.000000
    4        0.965947   1.000000
    5        2.203619   1.000000
    6        2.203619   1.000000
    7       20.347908   0.000000
    8       21.710195   0.000000
    9       25.157476   0.000000
   10       25.157476   0.000000
   11       28.349956   0.000000
   12       30.691462   0.000000
 
  0.2500000E+00  0.1500000E+00  0.1500000E+00  0.6000000E-02
    1       -3.047615   1.000000
    2        0.359762   1.000000
    3        1.091634   1.000000
    4        1.167880   1.000000
    5        1.900583   1.000000
    6        2.580995   1.000000
    7       19.265671   0.000000
    8       21.079677   0.000000
    9       23.913295   0.000000
   10       26.065996   0.000000
   11       27.188063   0.000000
   12       30.067260   0.000000
 
  0.3500000E+00  0.1500000E+00  0.1500000E+00  0.6000000E-02
    1       -2.007996   1.000000
    2        0.207448   1.000000
    3        0.989426   1.000000
    4        1.444843   1.000000
    5        1.815154   1.000000
    6        3.304344   1.000000
    7       16.795207   0.000000
    8       19.329303   0.000000
    9       23.584607   0.000000
   10       25.349393   0.000000
   11       27.511954   0.000000
   12       29.520935   0.000000
 
  0.4500000E+00  0.1500000E+00  0.1500000E+00  0.6000000E-02
    1       -1.341374   1.000000
    2        0.580390   1.000000
    3        0.952136   1.000000
    4        1.247002   1.000000
    5        2.471562   1.000000
    6        4.349508   1.000000
    7       12.969371   0.000000
    8       18.706600   0.000000
    9       22.036558   0.000000
   10       24.644874   0.000000
   11       27.711414   0.000000
   12       30.648147   0.000000
 
 -0.4500000E+00  0.1500000E+00  0.1500000E+00  0.6000000E-02
    1       -1.306985   1.000000
    2        0.443025   1.000000
    3        1.140777   1.000000
    4        1.772580   1.000000
    5        3.144590   1.000000
    6        5.949119  -0.000098
    7        9.423795  -0.000000
    8       18.740812   0.000000
    9       21.381252   0.000000
   10       22.363568   0.000000
   11       29.919163   0.000000
   12       30.914183   0.000000
 
 -0.3500000E+00  0.1500000E+00  0.1500000E+00  0.6000000E-02
    1       -1.344611   1.000000
    2        0.417354   1.000000
    3        1.188139   1.000000
    4        1.602094   1.000000
    5        3.483102   1.000000
    6        5.925617  -0.000186
    7        9.259629  -0.000000
    8       19.505429   0.000000
    9       21.099206   0.000000
   10       21.565857   0.000000
   11       30.919502   0.000000
   12       31.093880   0.000000
 
 -0.2500000E+00  0.1500000E+00  0.1500000E+00  0.6000000E-02
    1       -1.426279   1.000000
    2        0.518248   1.000000
    3        0.736936   1.000000
    4        1.344559   1.000000
    5        3.335984   1.000000
    6        3.838700   1.000000
    7       12.840855   0.000000
    8       20.716618   0.000000
    9       20.931901   0.000000
   10       22.462569   0.000000
   11       29.829667   0.000000
   12       30.856073   0.000000
 
 -0.1500000E+00  0.1500000E+00  0.1500000E+00  0.6000000E-02
    1       -2.033014   1.000000
    2        0.013045   1.000000
    3        0.994641   1.000000
    4        1.475241   1.000000
    5        2.441149   1.000000
    6        2.893744   1.000000
    7       16.946508   0.000000
    8       21.531039   0.000000
    9       21.910185   0.000000
   10       23.642759   0.000000
   11       26.686746   0.000000
   12       30.858315   0.000000
 
  0.2500000E+00  0.2500000E+00  0.1500000E+00  0.6000000E-02
    1       -2.689845   1.000000
    2        0.251714   1.000000
    3        1.111621   1.000000
    4        1.239429   1.000000
    5        2.084913   1.000000
    6        2.627734   1.000000
    7       18.100943   0.000000
    8       21.945890   0.000000
    9       23.019530   0.000000
   10       25.294505   0.000000
   11       26.964281   0.000000
   12       30.228367   0.000000
 
  0.3500000E+00  0.2500000E+00  0.1500000E+00  0.1200000E-01
    1       -1.839999   1.000000
    2        0.003079   1.000000
    3        0.898539   1.000000
    4        1.647195   1.000000
    5        2.067903   1.000000
    6        3.283721   1.000000
    7       16.931016   0.000000
    8       19.355556   0.000000
    9       22.672685   0.000000
   10       24.661586   0.000000
   11       27.064073   0.000000
   12       29.577735   0.000000
 
  0.4500000E+00  0.2500000E+00  0.1500000E+00  0.1200000E-01
    1       -0.925087   1.000000
    2        0.026140   1.000000
    3        0.517250   1.000000
    4        1.869518   1.000000
    5        2.368483   1.000000
    6        4.439251   1.000000
    7       14.521919   0.000000
    8       17.125923   0.000000
    9       21.165792   0.000000
   10       25.327212   0.000000
   11       26.837668   0.000000
   12       31.053414   0.000000
 
 -0.4500000E+00  0.2500000E+00  0.1500000E+00  0.1200000E-01
    1       -0.790270   1.000000
    2        0.199899   1.000000
    3        0.823023   1.000000
    4        1.678088   1.000000
    5        3.046392   1.000000
    6        6.104912  -0.000001
    7       10.979633   0.000000
    8       16.887486   0.000000
    9       19.759825   0.000000
   10       23.897567   0.000000
   11       28.880631   0.000000
   12       32.476908   0.000000
 
 -0.3500000E+00  0.2500000E+00  0.1500000E+00  0.1200000E-01
    1       -0.857423   1.000000
    2        0.111647   1.000000
    3        1.151088   1.000000
    4        1.612197   1.000000
    5        3.330488   1.000000
    6        7.772773  -0.000000
    7        8.674617  -0.000000
    8       17.487836   0.000000
    9       18.735287   0.000000
   10       23.406138   0.000000
   11       29.736183   0.000000
   12       32.977386   0.000000
 
 -0.2500000E+00  0.2500000E+00  0.1500000E+00  0.1200000E-01
    1       -0.905567   1.000000
    2        0.202279   1.000000
    3        0.586547   1.000000
    4        1.801363   1.000000
    5        3.167029   1.000000
    6        5.360928   0.457151
    7       11.980664   0.000000
    8       17.747602   0.000000
    9       19.321068   0.000000
   10       23.845580   0.000000
   11       28.827709   0.000000
   12       31.471406   0.000000
 
 -0.1500000E+00  0.2500000E+00  0.1500000E+00  0.1200000E-01
    1       -1.236569   1.000000
    2       -0.221021   1.000000
    3        0.730883   1.000000
    4        1.991769   1.000000
    5        2.470233   1.000000
    6        3.793394   1.000000
    7       15.770870   0.000000
    8       18.212145   0.000000
    9       20.914904   0.000000
   10       24.602858   0.000000
   11       26.306702   0.000000