 running on    4 total cores
 distrk:  each k-point on    4 cores,    1 groups
 distr:  one band on    1 cores,    4 groups
 using from now: INCAR     
 vasp.5.4.4.18Apr17-6-g9f103f2a35 (build Jul 01 2019 03:25:34) complex          
  
 POSCAR found type information on POSCAR  Au
 POSCAR found :  1 types and       1 ions
 scaLAPACK will be used
 LDA part: xc-table for Ceperly-Alder, standard interpolation
 found WAVECAR, reading the header
 WAVECAR: different cutoff or change in lattice found
 POSCAR, INCAR and KPOINTS ok, starting setup
 FFT: planning ...
 reading WAVECAR
 the WAVECAR file was read successfully
 initial charge from wavefunction
 entering main loop
       N       E                     dE             d eps       ncg     rms          rms(c)
DAV:   1    -0.464298439186E+01   -0.46430E+01   -0.36515E+00  2892   0.222E+01    0.294E+00
DAV:   2    -0.439248279659E+01    0.25050E+00   -0.74960E-01  2948   0.910E+00    0.528E-01
DAV:   3    -0.438499718660E+01    0.74856E-02   -0.37752E-02  3100   0.187E+00    0.453E-02
DAV:   4    -0.438514083193E+01   -0.14365E-03   -0.36487E-04  2884   0.187E-01    0.186E-02
DAV:   5    -0.438513329792E+01    0.75340E-05   -0.37043E-05  1424   0.615E-02
   1 F= -.43851333E+01 E0= -.43854243E+01  d E =0.872861E-03
 writing wavefunctions
