 vasp.5.4.4.18Apr17-6-g9f103f2a35 (build Jul 01 2019 03:25:34) complex          
  
 executed on             LinuxIFC date 2020.07.08  00:55:47
 running on    4 total cores
 distrk:  each k-point on    4 cores,    1 groups
 distr:  one band on NCORES_PER_BAND=   1 cores,    4 groups


--------------------------------------------------------------------------------------------------------


 INCAR:
 POTCAR:   PAW Au 04Feb1998                       
 POTCAR:   PAW Au 04Feb1998                       
   VRHFIN =Au: s1d10                                                            
   LEXCH  = CA                                                                  
   EATOM  =   929.4667 eV,   68.3139 Ry                                         
                                                                                
   TITEL  = PAW Au 04Feb1998                                                    
   LULTRA =        F    use ultrasoft PP ?                                      
   IUNSCR =        1    unscreen: 0-lin 1-nonlin 2-no                           
   RPACOR =    2.330    partial core radius                                     
   POMASS =  196.966; ZVAL   =   11.000    mass and valenz                      
   RCORE  =    2.500    outmost cutoff radius                                   
   RWIGS  =    2.840; RWIGS  =    1.503    wigner-seitz radius (au A)           
   ENMAX  =  229.869; ENMIN  =  172.402 eV                                      
   RCLOC  =    1.964    cutoff for local pot                                    
   LCOR   =        T    correct aug charges                                     
   LPAW   =        T    paw PP                                                  
   EAUG   =  356.670                                                            
   DEXC   =    -.020                                                            
   RMAX   =    3.041    core radius for proj-oper                               
   RDEP   =    2.598    core radius for depl-charge                             
   QCUT   =   -4.110; QGAM   =    8.221    optimization parameters              
                                                                                
   Description                                                                  
     l     E      TYP  RCUT    TYP  RCUT                                        
     2   .000     23  2.500                                                     
     2   .000     23  2.500                                                     
     0   .000     23  2.500                                                     
     0   .000     23  2.500                                                     
     1  -.200     23  2.500                                                     
     1   .000     23  2.500                                                     
     3   .000      7   .000                                                     
  local pseudopotential read in
  partial core-charges read in
  atomic valenz-charges read in
  non local Contribution for L=           2  read in
    real space projection operators read in
  non local Contribution for L=           2  read in
    real space projection operators read in
  non local Contribution for L=           0  read in
    real space projection operators read in
  non local Contribution for L=           0  read in
    real space projection operators read in
  non local Contribution for L=           1  read in
    real space projection operators read in
  non local Contribution for L=           1  read in
    real space projection operators read in
    PAW grid and wavefunctions read in
 
   number of l-projection  operators is LMAX  =           6
   number of lm-projection operators is LMMAX =          18
 
 PAW Au 04Feb1998                       :
 energy of atom  1       EATOM= -929.4667
 kinetic energy error for atom=    0.0704 (will be added to EATOM!!)
 
 
 POSCAR: FCC Au Bulk                             
  positions in direct lattice
  No initial velocities read in
 exchange correlation table for  LEXCH =        2
   RHO(1)=    0.500       N(1)  =     2000
   RHO(2)=  100.500       N(2)  =     4000
 


--------------------------------------------------------------------------------------------------------


 ion  position               nearest neighbor table
   1  0.000  0.000  0.000-
 
  LATTYP: Found a face centered cubic cell.
 ALAT       =     4.1000000000
  
  Lattice vectors:
  
 A1 = (   0.0000000000,   2.0500000000,   2.0500000000)
 A2 = (   2.0500000000,   0.0000000000,   2.0500000000)
 A3 = (   2.0500000000,   2.0500000000,   0.0000000000)


Analysis of symmetry for initial positions (statically):
=====================================================================
 Subroutine PRICEL returns:
 Original cell was already a primitive cell.
 

 Routine SETGRP: Setting up the symmetry group for a 
 face centered cubic supercell.


 Subroutine GETGRP returns: Found 48 space group operations
 (whereof 48 operations were pure point group operations)
 out of a pool of 48 trial point group operations.


The static configuration has the point symmetry O_h .


Analysis of symmetry for dynamics (positions and initial velocities):
=====================================================================
 Subroutine PRICEL returns:
 Original cell was already a primitive cell.
 

 Routine SETGRP: Setting up the symmetry group for a 
 face centered cubic supercell.


 Subroutine GETGRP returns: Found 48 space group operations
 (whereof 48 operations were pure point group operations)
 out of a pool of 48 trial point group operations.


The dynamic configuration has the point symmetry O_h .


 Subroutine INISYM returns: Found 48 space group operations
 (whereof 48 operations are pure point group operations),
 and found     1 'primitive' translations

 
 
 KPOINTS: 10x10x10                                

Automatic generation of k-mesh.
Space group operators:
 irot       det(A)        alpha          n_x          n_y          n_z        tau_x        tau_y        tau_z
    1     1.000000     0.000000     1.000000     0.000000     0.000000     0.000000     0.000000     0.000000
    2    -1.000000     0.000000     1.000000     0.000000     0.000000     0.000000     0.000000     0.000000
    3     1.000000   120.000000    -0.577350    -0.577350    -0.577350     0.000000     0.000000     0.000000
    4    -1.000000   120.000000    -0.577350    -0.577350    -0.577350     0.000000     0.000000     0.000000
    5     1.000000   120.000000     0.577350     0.577350     0.577350     0.000000     0.000000     0.000000
    6    -1.000000   120.000000     0.577350     0.577350     0.577350     0.000000     0.000000     0.000000
    7     1.000000    90.000000     0.000000     0.000000    -1.000000     0.000000     0.000000     0.000000
    8    -1.000000    90.000000     0.000000     0.000000    -1.000000     0.000000     0.000000     0.000000
    9     1.000000   180.000000     0.000000     0.707107     0.707107     0.000000     0.000000     0.000000
   10    -1.000000   180.000000     0.000000     0.707107     0.707107     0.000000     0.000000     0.000000
   11     1.000000    90.000000     0.000000     1.000000     0.000000     0.000000     0.000000     0.000000
   12    -1.000000    90.000000     0.000000     1.000000     0.000000     0.000000     0.000000     0.000000
   13     1.000000   180.000000     0.000000     0.000000     1.000000     0.000000     0.000000     0.000000
   14    -1.000000   180.000000     0.000000     0.000000     1.000000     0.000000     0.000000     0.000000
   15     1.000000   120.000000    -0.577350     0.577350     0.577350     0.000000     0.000000     0.000000
   16    -1.000000   120.000000    -0.577350     0.577350     0.577350     0.000000     0.000000     0.000000
   17     1.000000   120.000000    -0.577350     0.577350    -0.577350     0.000000     0.000000     0.000000
   18    -1.000000   120.000000    -0.577350     0.577350    -0.577350     0.000000     0.000000     0.000000
   19     1.000000    90.000000     0.000000     0.000000     1.000000     0.000000     0.000000     0.000000
   20    -1.000000    90.000000     0.000000     0.000000     1.000000     0.000000     0.000000     0.000000
   21     1.000000    90.000000    -1.000000     0.000000     0.000000     0.000000     0.000000     0.000000
   22    -1.000000    90.000000    -1.000000     0.000000     0.000000     0.000000     0.000000     0.000000
   23     1.000000   180.000000     0.707107     0.000000     0.707107     0.000000     0.000000     0.000000
   24    -1.000000   180.000000     0.707107     0.000000     0.707107     0.000000     0.000000     0.000000
   25     1.000000   120.000000     0.577350    -0.577350     0.577350     0.000000     0.000000     0.000000
   26    -1.000000   120.000000     0.577350    -0.577350     0.577350     0.000000     0.000000     0.000000
   27     1.000000   120.000000    -0.577350    -0.577350     0.577350     0.000000     0.000000     0.000000
   28    -1.000000   120.000000    -0.577350    -0.577350     0.577350     0.000000     0.000000     0.000000
   29     1.000000   180.000000     1.000000     0.000000     0.000000     0.000000     0.000000     0.000000
   30    -1.000000   180.000000     1.000000     0.000000     0.000000     0.000000     0.000000     0.000000
   31     1.000000    90.000000     0.000000    -1.000000     0.000000     0.000000     0.000000     0.000000
   32    -1.000000    90.000000     0.000000    -1.000000     0.000000     0.000000     0.000000     0.000000
   33     1.000000   180.000000     0.707107     0.707107     0.000000     0.000000     0.000000     0.000000
   34    -1.000000   180.000000     0.707107     0.707107     0.000000     0.000000     0.000000     0.000000
   35     1.000000    90.000000     1.000000     0.000000     0.000000     0.000000     0.000000     0.000000
   36    -1.000000    90.000000     1.000000     0.000000     0.000000     0.000000     0.000000     0.000000
   37     1.000000   120.000000     0.577350    -0.577350    -0.577350     0.000000     0.000000     0.000000
   38    -1.000000   120.000000     0.577350    -0.577350    -0.577350     0.000000     0.000000     0.000000
   39     1.000000   180.000000     0.000000     1.000000     0.000000     0.000000     0.000000     0.000000
   40    -1.000000   180.000000     0.000000     1.000000     0.000000     0.000000     0.000000     0.000000
   41     1.000000   120.000000     0.577350     0.577350    -0.577350     0.000000     0.000000     0.000000
   42    -1.000000   120.000000     0.577350     0.577350    -0.577350     0.000000     0.000000     0.000000
   43     1.000000   180.000000     0.000000    -0.707107     0.707107     0.000000     0.000000     0.000000
   44    -1.000000   180.000000     0.000000    -0.707107     0.707107     0.000000     0.000000     0.000000
   45     1.000000   180.000000     0.707107    -0.707107     0.000000     0.000000     0.000000     0.000000
   46    -1.000000   180.000000     0.707107    -0.707107     0.000000     0.000000     0.000000     0.000000
   47     1.000000   180.000000     0.707107     0.000000    -0.707107     0.000000     0.000000     0.000000
   48    -1.000000   180.000000     0.707107     0.000000    -0.707107     0.000000     0.000000     0.000000
 
 Subroutine IBZKPT returns following result:
 ===========================================
 
 Found    110 irreducible k-points:
 
 Following reciprocal coordinates:
            Coordinates               Weight
  0.050000  0.050000  0.050000     96.000000
  0.150000  0.050000  0.050000    288.000000
  0.250000  0.050000  0.050000    288.000000
  0.350000  0.050000  0.050000    288.000000
  0.450000  0.050000  0.050000    288.000000
 -0.450000  0.050000  0.050000    288.000000
 -0.350000  0.050000  0.050000    288.000000
 -0.250000  0.050000  0.050000    288.000000
 -0.150000  0.050000  0.050000    288.000000
 -0.050000  0.050000  0.050000    288.000000
  0.150000  0.150000  0.050000    288.000000
  0.250000  0.150000  0.050000    576.000000
  0.350000  0.150000  0.050000    576.000000
  0.450000  0.150000  0.050000    576.000000
 -0.450000  0.150000  0.050000    576.000000
 -0.350000  0.150000  0.050000    576.000000
 -0.250000  0.150000  0.050000    576.000000
 -0.150000  0.150000  0.050000    576.000000
 -0.050000  0.150000  0.050000    576.000000
  0.250000  0.250000  0.050000    288.000000
  0.350000  0.250000  0.050000    576.000000
  0.450000  0.250000  0.050000    576.000000
 -0.450000  0.250000  0.050000    576.000000
 -0.350000  0.250000  0.050000    576.000000
 -0.250000  0.250000  0.050000    576.000000
 -0.150000  0.250000  0.050000    576.000000
 -0.050000  0.250000  0.050000    576.000000
  0.350000  0.350000  0.050000    288.000000
  0.450000  0.350000  0.050000    576.000000
 -0.450000  0.350000  0.050000    576.000000
 -0.350000  0.350000  0.050000    576.000000
 -0.250000  0.350000  0.050000    576.000000
 -0.150000  0.350000  0.050000    576.000000
 -0.050000  0.350000  0.050000    576.000000
  0.450000  0.450000  0.050000    288.000000
 -0.450000  0.450000  0.050000    576.000000
 -0.350000  0.450000  0.050000    576.000000
 -0.250000  0.450000  0.050000    576.000000
 -0.150000  0.450000  0.050000    576.000000
 -0.050000  0.450000  0.050000    576.000000
 -0.450000 -0.450000  0.050000    288.000000
 -0.350000 -0.450000  0.050000    576.000000
 -0.250000 -0.450000  0.050000    576.000000
 -0.150000 -0.450000  0.050000    576.000000
 -0.350000 -0.350000  0.050000    288.000000
 -0.250000 -0.350000  0.050000    576.000000
 -0.150000 -0.350000  0.050000    576.000000
 -0.250000 -0.250000  0.050000    288.000000
 -0.150000 -0.250000  0.050000    576.000000
 -0.150000 -0.150000  0.050000    288.000000
  0.150000  0.150000  0.150000     96.000000
  0.250000  0.150000  0.150000    288.000000
  0.350000  0.150000  0.150000    288.000000
  0.450000  0.150000  0.150000    288.000000
 -0.450000  0.150000  0.150000    288.000000
 -0.350000  0.150000  0.150000    288.000000
 -0.250000  0.150000  0.150000    288.000000
 -0.150000  0.150000  0.150000    288.000000
  0.250000  0.250000  0.150000    288.000000
  0.350000  0.250000  0.150000    576.000000
  0.450000  0.250000  0.150000    576.000000
 -0.450000  0.250000  0.150000    576.000000
 -0.350000  0.250000  0.150000    576.000000
 -0.250000  0.250000  0.150000    576.000000
 -0.150000  0.250000  0.150000    576.000000
  0.350000  0.350000  0.150000    288.000000
  0.450000  0.350000  0.150000    576.000000
 -0.450000  0.350000  0.150000    576.000000
 -0.350000  0.350000  0.150000    576.000000
 -0.250000  0.350000  0.150000    576.000000
 -0.150000  0.350000  0.150000    576.000000
  0.450000  0.450000  0.150000    288.000000
 -0.450000  0.450000  0.150000    576.000000
 -0.350000  0.450000  0.150000    576.000000
 -0.250000  0.450000  0.150000    576.000000
 -0.150000  0.450000  0.150000    576.000000
 -0.450000 -0.450000  0.150000    288.000000
 -0.350000 -0.450000  0.150000    576.000000
 -0.250000 -0.450000  0.150000    576.000000
 -0.350000 -0.350000  0.150000    288.000000
 -0.250000 -0.350000  0.150000    576.000000
 -0.250000 -0.250000  0.150000    288.000000
  0.250000  0.250000  0.250000     96.000000
  0.350000  0.250000  0.250000    288.000000
  0.450000  0.250000  0.250000    288.000000
 -0.450000  0.250000  0.250000    288.000000
 -0.350000  0.250000  0.250000    288.000000
 -0.250000  0.250000  0.250000    288.000000
  0.350000  0.350000  0.250000    288.000000
  0.450000  0.350000  0.250000    576.000000
 -0.450000  0.350000  0.250000    576.000000
 -0.350000  0.350000  0.250000    576.000000
 -0.250000  0.350000  0.250000    576.000000
  0.450000  0.450000  0.250000    288.000000
 -0.450000  0.450000  0.250000    576.000000
 -0.350000  0.450000  0.250000    576.000000
 -0.250000  0.450000  0.250000    576.000000
 -0.450000 -0.450000  0.250000    288.000000
 -0.350000 -0.450000  0.250000    576.000000
 -0.350000 -0.350000  0.250000    288.000000
  0.350000  0.350000  0.350000     96.000000
  0.450000  0.350000  0.350000    288.000000
 -0.450000  0.350000  0.350000    288.000000
 -0.350000  0.350000  0.350000    288.000000
  0.450000  0.450000  0.350000    288.000000
 -0.450000  0.450000  0.350000    576.000000
 -0.350000  0.450000  0.350000    576.000000
 -0.450000 -0.450000  0.350000    288.000000
  0.450000  0.450000  0.450000     96.000000
 -0.450000  0.450000  0.450000    288.000000
 
 Following cartesian coordinates:
            Coordinates               Weight
  0.050000  0.050000  0.050000     96.000000
 -0.050000  0.150000  0.150000    288.000000
 -0.150000  0.250000  0.250000    288.000000
 -0.250000  0.350000  0.350000    288.000000
 -0.350000  0.450000  0.450000    288.000000
  0.550000 -0.450000 -0.450000    288.000000
  0.450000 -0.350000 -0.350000    288.000000
  0.350000 -0.250000 -0.250000    288.000000
  0.250000 -0.150000 -0.150000    288.000000
  0.150000 -0.050000 -0.050000    288.000000
  0.050000  0.050000  0.250000    288.000000
 -0.050000  0.150000  0.350000    576.000000
 -0.150000  0.250000  0.450000    576.000000
 -0.250000  0.350000  0.550000    576.000000
  0.650000 -0.550000 -0.350000    576.000000
  0.550000 -0.450000 -0.250000    576.000000
  0.450000 -0.350000 -0.150000    576.000000
  0.350000 -0.250000 -0.050000    576.000000
  0.250000 -0.150000  0.050000    576.000000
  0.050000  0.050000  0.450000    288.000000
 -0.050000  0.150000  0.550000    576.000000
 -0.150000  0.250000  0.650000    576.000000
  0.750000 -0.650000 -0.250000    576.000000
  0.650000 -0.550000 -0.150000    576.000000
  0.550000 -0.450000 -0.050000    576.000000
  0.450000 -0.350000  0.050000    576.000000
  0.350000 -0.250000  0.150000    576.000000
  0.050000  0.050000  0.650000    288.000000
 -0.050000  0.150000  0.750000    576.000000
  0.850000 -0.750000 -0.150000    576.000000
  0.750000 -0.650000 -0.050000    576.000000
  0.650000 -0.550000  0.050000    576.000000
  0.550000 -0.450000  0.150000    576.000000
  0.450000 -0.350000  0.250000    576.000000
  0.050000  0.050000  0.850000    288.000000
  0.950000 -0.850000 -0.050000    576.000000
  0.850000 -0.750000  0.050000    576.000000
  0.750000 -0.650000  0.150000    576.000000
  0.650000 -0.550000  0.250000    576.000000
  0.550000 -0.450000  0.350000    576.000000
  0.050000  0.050000 -0.950000    288.000000
 -0.050000  0.150000 -0.850000    576.000000
 -0.150000  0.250000 -0.750000    576.000000
 -0.250000  0.350000 -0.650000    576.000000
  0.050000  0.050000 -0.750000    288.000000
 -0.050000  0.150000 -0.650000    576.000000
 -0.150000  0.250000 -0.550000    576.000000
  0.050000  0.050000 -0.550000    288.000000
 -0.050000  0.150000 -0.450000    576.000000
  0.050000  0.050000 -0.350000    288.000000
  0.150000  0.150000  0.150000     96.000000
  0.050000  0.250000  0.250000    288.000000
 -0.050000  0.350000  0.350000    288.000000
 -0.150000  0.450000  0.450000    288.000000
  0.750000 -0.450000 -0.450000    288.000000
  0.650000 -0.350000 -0.350000    288.000000
  0.550000 -0.250000 -0.250000    288.000000
  0.450000 -0.150000 -0.150000    288.000000
  0.150000  0.150000  0.350000    288.000000
  0.050000  0.250000  0.450000    576.000000
 -0.050000  0.350000  0.550000    576.000000
  0.850000 -0.550000 -0.350000    576.000000
  0.750000 -0.450000 -0.250000    576.000000
  0.650000 -0.350000 -0.150000    576.000000
  0.550000 -0.250000 -0.050000    576.000000
  0.150000  0.150000  0.550000    288.000000
  0.050000  0.250000  0.650000    576.000000
  0.950000 -0.650000 -0.250000    576.000000
  0.850000 -0.550000 -0.150000    576.000000
  0.750000 -0.450000 -0.050000    576.000000
  0.650000 -0.350000  0.050000    576.000000
  0.150000  0.150000  0.750000    288.000000
  1.050000 -0.750000 -0.150000    576.000000
  0.950000 -0.650000 -0.050000    576.000000
  0.850000 -0.550000  0.050000    576.000000
  0.750000 -0.450000  0.150000    576.000000
  0.150000  0.150000 -1.050000    288.000000
  0.050000  0.250000 -0.950000    576.000000
 -0.050000  0.350000 -0.850000    576.000000
  0.150000  0.150000 -0.850000    288.000000
  0.050000  0.250000 -0.750000    576.000000
  0.150000  0.150000 -0.650000    288.000000
  0.250000  0.250000  0.250000     96.000000
  0.150000  0.350000  0.350000    288.000000
  0.050000  0.450000  0.450000    288.000000
  0.950000 -0.450000 -0.450000    288.000000
  0.850000 -0.350000 -0.350000    288.000000
  0.750000 -0.250000 -0.250000    288.000000
  0.250000  0.250000  0.450000    288.000000
  0.150000  0.350000  0.550000    576.000000
  1.050000 -0.550000 -0.350000    576.000000
  0.950000 -0.450000 -0.250000    576.000000
  0.850000 -0.350000 -0.150000    576.000000
  0.250000  0.250000  0.650000    288.000000
  1.150000 -0.650000 -0.250000    576.000000
  1.050000 -0.550000 -0.150000    576.000000
  0.950000 -0.450000 -0.050000    576.000000
  0.250000  0.250000 -1.150000    288.000000
  0.150000  0.350000 -1.050000    576.000000
  0.250000  0.250000 -0.950000    288.000000
  0.350000  0.350000  0.350000     96.000000
  0.250000  0.450000  0.450000    288.000000
  1.150000 -0.450000 -0.450000    288.000000
  1.050000 -0.350000 -0.350000    288.000000
  0.350000  0.350000  0.550000    288.000000
  1.250000 -0.550000 -0.350000    576.000000
  1.150000 -0.450000 -0.250000    576.000000
  0.350000  0.350000 -1.250000    288.000000
  0.450000  0.450000  0.450000     96.000000
  1.350000 -0.450000 -0.450000    288.000000
 


--------------------------------------------------------------------------------------------------------




 Dimension of arrays:
   k-points           NKPTS =    110   k-points in BZ     NKDIM =    110   number of bands    NBANDS=     12
   number of dos      NEDOS =    301   number of ions     NIONS =      1
   non local maximal  LDIM  =      6   non local SUM 2l+1 LMDIM =     18
   total plane-waves  NPLWV =   1728
   max r-space proj   IRMAX =      1   max aug-charges    IRDMAX=   6332
   dimension x,y,z NGX =    12 NGY =   12 NGZ =   12
   dimension x,y,z NGXF=    24 NGYF=   24 NGZF=   24
   support grid    NGXF=    24 NGYF=   24 NGZF=   24
   ions per type =               1
   NGX,Y,Z   is equivalent  to a cutoff of   6.88,  6.88,  6.88 a.u.
   NGXF,Y,Z  is equivalent  to a cutoff of  13.76, 13.76, 13.76 a.u.

 SYSTEM =  FCC Au                                  
 POSCAR =  FCC Au Bulk                             

 Startparameter for this run:
   NWRITE =      2    write-flag & timer
   PREC   = normal    normal or accurate (medium, high low for compatibility)
   ISTART =      1    job   : 0-new  1-cont  2-samecut
   ICHARG =      0    charge: 1-file 2-atom 10-const
   ISPIN  =      1    spin polarized calculation?
   LNONCOLLINEAR =      F non collinear calculations
   LSORBIT =      F    spin-orbit coupling
   INIWAV =      1    electr: 0-lowe 1-rand  2-diag
   LASPH  =      F    aspherical Exc in radial PAW
   METAGGA=      F    non-selfconsistent MetaGGA calc.

 Electronic Relaxation 1
   ENCUT  =  230.0 eV  16.90 Ry    4.11 a.u.   3.59  3.59  3.59*2*pi/ulx,y,z
   ENINI  =  230.0     initial cutoff
   ENAUG  =  356.7 eV  augmentation charge cutoff
   NELM   =     60;   NELMIN=  2; NELMDL=  0     # of ELM steps 
   EDIFF  = 0.1E-03   stopping-criterion for ELM
   LREAL  =      F    real-space projection
   NLSPLINE    = F    spline interpolate recip. space projectors
   LCOMPAT=      F    compatible to vasp.4.4
   GGA_COMPAT  = T    GGA compatible to vasp.4.4-vasp.4.6
   LMAXPAW     = -100 max onsite density
   LMAXMIX     =    2 max onsite mixed and CHGCAR
   VOSKOWN=      0    Vosko Wilk Nusair interpolation
   ROPT   =    0.00000
 Ionic relaxation
   EDIFFG = 0.1E-02   stopping-criterion for IOM
   NSW    =      0    number of steps for IOM
   NBLOCK =      1;   KBLOCK =      1    inner block; outer block 
   IBRION =     -1    ionic relax: 0-MD 1-quasi-New 2-CG
   NFREE  =      0    steps in history (QN), initial steepest desc. (CG)
   ISIF   =      2    stress and relaxation
   IWAVPR =     10    prediction:  0-non 1-charg 2-wave 3-comb
   ISYM   =      2    0-nonsym 1-usesym 2-fastsym
   LCORR  =      T    Harris-Foulkes like correction to forces

   POTIM  = 0.5000    time-step for ionic-motion
   TEIN   =    0.0    initial temperature
   TEBEG  =    0.0;   TEEND  =   0.0 temperature during run
   SMASS  =  -3.00    Nose mass-parameter (am)
   estimated Nose-frequenzy (Omega)   =  0.10E-29 period in steps =****** mass=  -0.192E-27a.u.
   SCALEE = 1.0000    scale energy and forces
   NPACO  =    256;   APACO  = 16.0  distance and # of slots for P.C.
   PSTRESS=    0.0 pullay stress

  Mass of Ions in am
   POMASS = 196.97
  Ionic Valenz
   ZVAL   =  11.00
  Atomic Wigner-Seitz radii
   RWIGS  =  -1.00
  virtual crystal weights 
   VCA    =   1.00
   NELECT =      11.0000    total number of electrons
   NUPDOWN=      -1.0000    fix difference up-down

 DOS related values:
   EMIN   =  10.00;   EMAX   =-10.00  energy-range for DOS
   EFERMI =   0.00
   ISMEAR =     1;   SIGMA  =   0.20  broadening in eV -4-tet -1-fermi 0-gaus

 Electronic relaxation 2 (details)
   IALGO  =     38    algorithm
   LDIAG  =      T    sub-space diagonalisation (order eigenvalues)
   LSUBROT=      F    optimize rotation matrix (better conditioning)
   TURBO    =      0    0=normal 1=particle mesh
   IRESTART =      0    0=no restart 2=restart with 2 vectors
   NREBOOT  =      0    no. of reboots
   NMIN     =      0    reboot dimension
   EREF     =   0.00    reference energy to select bands
   IMIX   =      4    mixing-type and parameters
     AMIX     =   0.40;   BMIX     =  1.00
     AMIX_MAG =   1.60;   BMIX_MAG =  1.00
     AMIN     =   0.10
     WC   =   100.;   INIMIX=   1;  MIXPRE=   1;  MAXMIX= -45

 Intra band minimization:
   WEIMIN = 0.0000     energy-eigenvalue tresh-hold
   EBREAK =  0.21E-05  absolut break condition
   DEPER  =   0.30     relativ break condition  

   TIME   =   0.40     timestep for ELM

  volume/ion in A,a.u.               =      17.23       116.28
  Fermi-wavevector in a.u.,A,eV,Ry     =   1.409641  2.663835 27.035971  1.987088
  Thomas-Fermi vector in A             =   2.531676
 
 Write flags
   LWAVE        =      T    write WAVECAR
   LDOWNSAMPLE  =      F    k-point downsampling of WAVECAR
   LCHARG       =      T    write CHGCAR
   LVTOT        =      F    write LOCPOT, total local potential
   LVHAR        =      F    write LOCPOT, Hartree potential only
   LELF         =      F    write electronic localiz. function (ELF)
   LORBIT       =      0    0 simple, 1 ext, 2 COOP (PROOUT), +10 PAW based schemes


 Dipole corrections
   LMONO  =      F    monopole corrections only (constant potential shift)
   LDIPOL =      F    correct potential (dipole corrections)
   IDIPOL =      0    1-x, 2-y, 3-z, 4-all directions 
   EPSILON=  1.0000000 bulk dielectric constant

 Exchange correlation treatment:
   GGA     =    --    GGA type
   LEXCH   =     2    internal setting for exchange type
   VOSKOWN=      0    Vosko Wilk Nusair interpolation
   LHFCALC =     F    Hartree Fock is set to
   LHFONE  =     F    Hartree Fock one center treatment
   AEXX    =    0.0000 exact exchange contribution

 Linear response parameters
   LEPSILON=     F    determine dielectric tensor
   LRPA    =     F    only Hartree local field effects (RPA)
   LNABLA  =     F    use nabla operator in PAW spheres
   LVEL    =     F    velocity operator in full k-point grid
   LINTERFAST=   F  fast interpolation
   KINTER  =     0    interpolate to denser k-point grid
   CSHIFT  =0.1000    complex shift for real part using Kramers Kronig
   OMEGAMAX=  -1.0    maximum frequency
   DEG_THRESHOLD= 0.2000000E-02 threshold for treating states as degnerate
   RTIME   =   -0.100 relaxation time in fs
  (WPLASMAI=    0.000 imaginary part of plasma frequency in eV, 0.658/RTIME)
   DFIELD  = 0.0000000 0.0000000 0.0000000 field for delta impulse in time
 
 Orbital magnetization related:
   ORBITALMAG=     F  switch on orbital magnetization
   LCHIMAG   =     F  perturbation theory with respect to B field
   DQ        =  0.001000  dq finite difference perturbation B field
   LLRAUG    =     F  two centre corrections for induced B field



--------------------------------------------------------------------------------------------------------


 Static calculation
 charge density and potential will be updated during run
 non-spin polarized calculation
 Variant of blocked Davidson
 Davidson routine will perform the subspace rotation
 perform sub-space diagonalisation
    after iterative eigenvector-optimisation
 modified Broyden-mixing scheme, WC =      100.0
 initial mixing is a Kerker type mixing with AMIX =  0.4000 and BMIX =      1.0000
 Hartree-type preconditioning will be used
 using additional bands            6
 reciprocal scheme for non local part
 use partial core corrections
 calculate Harris-corrections to forces 
   (improved forces if not selfconsistent)
 use of overlap-Matrix (Vanderbilt PP)
 Methfessel and Paxton  Order N= 1 SIGMA  =   0.20


--------------------------------------------------------------------------------------------------------


  energy-cutoff  :      230.00
  volume of cell :       17.23
      direct lattice vectors                 reciprocal lattice vectors
     0.000000000  2.050000000  2.050000000    -0.243902439  0.243902439  0.243902439
     2.050000000  0.000000000  2.050000000     0.243902439 -0.243902439  0.243902439
     2.050000000  2.050000000  0.000000000     0.243902439  0.243902439 -0.243902439

  length of vectors
     2.899137803  2.899137803  2.899137803     0.422451416  0.422451416  0.422451416


 
 old parameters found on file WAVECAR:
  energy-cutoff  :      287.34
  volume of cell :       17.23
      direct lattice vectors                 reciprocal lattice vectors
     0.000000000  2.050000000  2.050000000    -0.243902439  0.243902439  0.243902439
     2.050000000  0.000000000  2.050000000     0.243902439 -0.243902439  0.243902439
     2.050000000  2.050000000  0.000000000     0.243902439  0.243902439 -0.243902439

  length of vectors

 
 k-points in units of 2pi/SCALE and weight: 10x10x10                                
   0.05000000  0.05000000  0.05000000       0.002
  -0.05000000  0.15000000  0.15000000       0.006
  -0.15000000  0.25000000  0.25000000       0.006
  -0.25000000  0.35000000  0.35000000       0.006
  -0.35000000  0.45000000  0.45000000       0.006
   0.55000000 -0.45000000 -0.45000000       0.006
   0.45000000 -0.35000000 -0.35000000       0.006
   0.35000000 -0.25000000 -0.25000000       0.006
   0.25000000 -0.15000000 -0.15000000       0.006
   0.15000000 -0.05000000 -0.05000000       0.006
   0.05000000  0.05000000  0.25000000       0.006
  -0.05000000  0.15000000  0.35000000       0.012
  -0.15000000  0.25000000  0.45000000       0.012
  -0.25000000  0.35000000  0.55000000       0.012
   0.65000000 -0.55000000 -0.35000000       0.012
   0.55000000 -0.45000000 -0.25000000       0.012
   0.45000000 -0.35000000 -0.15000000       0.012
   0.35000000 -0.25000000 -0.05000000       0.012
   0.25000000 -0.15000000  0.05000000       0.012
   0.05000000  0.05000000  0.45000000       0.006
  -0.05000000  0.15000000  0.55000000       0.012
  -0.15000000  0.25000000  0.65000000       0.012
   0.75000000 -0.65000000 -0.25000000       0.012
   0.65000000 -0.55000000 -0.15000000       0.012
   0.55000000 -0.45000000 -0.05000000       0.012
   0.45000000 -0.35000000  0.05000000       0.012
   0.35000000 -0.25000000  0.15000000       0.012
   0.05000000  0.05000000  0.65000000       0.006
  -0.05000000  0.15000000  0.75000000       0.012
   0.85000000 -0.75000000 -0.15000000       0.012
   0.75000000 -0.65000000 -0.05000000       0.012
   0.65000000 -0.55000000  0.05000000       0.012
   0.55000000 -0.45000000  0.15000000       0.012
   0.45000000 -0.35000000  0.25000000       0.012
   0.05000000  0.05000000  0.85000000       0.006
   0.95000000 -0.85000000 -0.05000000       0.012
   0.85000000 -0.75000000  0.05000000       0.012
   0.75000000 -0.65000000  0.15000000       0.012
   0.65000000 -0.55000000  0.25000000       0.012
   0.55000000 -0.45000000  0.35000000       0.012
   0.05000000  0.05000000 -0.95000000       0.006
  -0.05000000  0.15000000 -0.85000000       0.012
  -0.15000000  0.25000000 -0.75000000       0.012
  -0.25000000  0.35000000 -0.65000000       0.012
   0.05000000  0.05000000 -0.75000000       0.006
  -0.05000000  0.15000000 -0.65000000       0.012
  -0.15000000  0.25000000 -0.55000000       0.012
   0.05000000  0.05000000 -0.55000000       0.006
  -0.05000000  0.15000000 -0.45000000       0.012
   0.05000000  0.05000000 -0.35000000       0.006
   0.15000000  0.15000000  0.15000000       0.002
   0.05000000  0.25000000  0.25000000       0.006
  -0.05000000  0.35000000  0.35000000       0.006
  -0.15000000  0.45000000  0.45000000       0.006
   0.75000000 -0.45000000 -0.45000000       0.006
   0.65000000 -0.35000000 -0.35000000       0.006
   0.55000000 -0.25000000 -0.25000000       0.006
   0.45000000 -0.15000000 -0.15000000       0.006
   0.15000000  0.15000000  0.35000000       0.006
   0.05000000  0.25000000  0.45000000       0.012
  -0.05000000  0.35000000  0.55000000       0.012
   0.85000000 -0.55000000 -0.35000000       0.012
   0.75000000 -0.45000000 -0.25000000       0.012
   0.65000000 -0.35000000 -0.15000000       0.012
   0.55000000 -0.25000000 -0.05000000       0.012
   0.15000000  0.15000000  0.55000000       0.006
   0.05000000  0.25000000  0.65000000       0.012
   0.95000000 -0.65000000 -0.25000000       0.012
   0.85000000 -0.55000000 -0.15000000       0.012
   0.75000000 -0.45000000 -0.05000000       0.012
   0.65000000 -0.35000000  0.05000000       0.012
   0.15000000  0.15000000  0.75000000       0.006
   1.05000000 -0.75000000 -0.15000000       0.012
   0.95000000 -0.65000000 -0.05000000       0.012
   0.85000000 -0.55000000  0.05000000       0.012
   0.75000000 -0.45000000  0.15000000       0.012
   0.15000000  0.15000000 -1.05000000       0.006
   0.05000000  0.25000000 -0.95000000       0.012
  -0.05000000  0.35000000 -0.85000000       0.012
   0.15000000  0.15000000 -0.85000000       0.006
   0.05000000  0.25000000 -0.75000000       0.012
   0.15000000  0.15000000 -0.65000000       0.006
   0.25000000  0.25000000  0.25000000       0.002
   0.15000000  0.35000000  0.35000000       0.006
   0.05000000  0.45000000  0.45000000       0.006
   0.95000000 -0.45000000 -0.45000000       0.006
   0.85000000 -0.35000000 -0.35000000       0.006
   0.75000000 -0.25000000 -0.25000000       0.006
   0.25000000  0.25000000  0.45000000       0.006
   0.15000000  0.35000000  0.55000000       0.012
   1.05000000 -0.55000000 -0.35000000       0.012
   0.95000000 -0.45000000 -0.25000000       0.012
   0.85000000 -0.35000000 -0.15000000       0.012
   0.25000000  0.25000000  0.65000000       0.006
   1.15000000 -0.65000000 -0.25000000       0.012
   1.05000000 -0.55000000 -0.15000000       0.012
   0.95000000 -0.45000000 -0.05000000       0.012
   0.25000000  0.25000000 -1.15000000       0.006
   0.15000000  0.35000000 -1.05000000       0.012
   0.25000000  0.25000000 -0.95000000       0.006
   0.35000000  0.35000000  0.35000000       0.002
   0.25000000  0.45000000  0.45000000       0.006
   1.15000000 -0.45000000 -0.45000000       0.006
   1.05000000 -0.35000000 -0.35000000       0.006
   0.35000000  0.35000000  0.55000000       0.006
   1.25000000 -0.55000000 -0.35000000       0.012
   1.15000000 -0.45000000 -0.25000000       0.012
   0.35000000  0.35000000 -1.25000000       0.006
   0.45000000  0.45000000  0.45000000       0.002
   1.35000000 -0.45000000 -0.45000000       0.006
 
 k-points in reciprocal lattice and weights: 10x10x10                                
   0.05000000  0.05000000  0.05000000       0.002
   0.15000000  0.05000000  0.05000000       0.006
   0.25000000  0.05000000  0.05000000       0.006
   0.35000000  0.05000000  0.05000000       0.006
   0.45000000  0.05000000  0.05000000       0.006
  -0.45000000  0.05000000  0.05000000       0.006
  -0.35000000  0.05000000  0.05000000       0.006
  -0.25000000  0.05000000  0.05000000       0.006
  -0.15000000  0.05000000  0.05000000       0.006
  -0.05000000  0.05000000  0.05000000       0.006
   0.15000000  0.15000000  0.05000000       0.006
   0.25000000  0.15000000  0.05000000       0.012
   0.35000000  0.15000000  0.05000000       0.012
   0.45000000  0.15000000  0.05000000       0.012
  -0.45000000  0.15000000  0.05000000       0.012
  -0.35000000  0.15000000  0.05000000       0.012
  -0.25000000  0.15000000  0.05000000       0.012
  -0.15000000  0.15000000  0.05000000       0.012
  -0.05000000  0.15000000  0.05000000       0.012
   0.25000000  0.25000000  0.05000000       0.006
   0.35000000  0.25000000  0.05000000       0.012
   0.45000000  0.25000000  0.05000000       0.012
  -0.45000000  0.25000000  0.05000000       0.012
  -0.35000000  0.25000000  0.05000000       0.012
  -0.25000000  0.25000000  0.05000000       0.012
  -0.15000000  0.25000000  0.05000000       0.012
  -0.05000000  0.25000000  0.05000000       0.012
   0.35000000  0.35000000  0.05000000       0.006
   0.45000000  0.35000000  0.05000000       0.012
  -0.45000000  0.35000000  0.05000000       0.012
  -0.35000000  0.35000000  0.05000000       0.012
  -0.25000000  0.35000000  0.05000000       0.012
  -0.15000000  0.35000000  0.05000000       0.012
  -0.05000000  0.35000000  0.05000000       0.012
   0.45000000  0.45000000  0.05000000       0.006
  -0.45000000  0.45000000  0.05000000       0.012
  -0.35000000  0.45000000  0.05000000       0.012
  -0.25000000  0.45000000  0.05000000       0.012
  -0.15000000  0.45000000  0.05000000       0.012
  -0.05000000  0.45000000  0.05000000       0.012
  -0.45000000 -0.45000000  0.05000000       0.006
  -0.35000000 -0.45000000  0.05000000       0.012
  -0.25000000 -0.45000000  0.05000000       0.012
  -0.15000000 -0.45000000  0.05000000       0.012
  -0.35000000 -0.35000000  0.05000000       0.006
  -0.25000000 -0.35000000  0.05000000       0.012
  -0.15000000 -0.35000000  0.05000000       0.012
  -0.25000000 -0.25000000  0.05000000       0.006
  -0.15000000 -0.25000000  0.05000000       0.012
  -0.15000000 -0.15000000  0.05000000       0.006
   0.15000000  0.15000000  0.15000000       0.002
   0.25000000  0.15000000  0.15000000       0.006
   0.35000000  0.15000000  0.15000000       0.006
   0.45000000  0.15000000  0.15000000       0.006
  -0.45000000  0.15000000  0.15000000       0.006
  -0.35000000  0.15000000  0.15000000       0.006
  -0.25000000  0.15000000  0.15000000       0.006
  -0.15000000  0.15000000  0.15000000       0.006
   0.25000000  0.25000000  0.15000000       0.006
   0.35000000  0.25000000  0.15000000       0.012
   0.45000000  0.25000000  0.15000000       0.012
  -0.45000000  0.25000000  0.15000000       0.012
  -0.35000000  0.25000000  0.15000000       0.012
  -0.25000000  0.25000000  0.15000000       0.012
  -0.15000000  0.25000000  0.15000000       0.012
   0.35000000  0.35000000  0.15000000       0.006
   0.45000000  0.35000000  0.15000000       0.012
  -0.45000000  0.35000000  0.15000000       0.012
  -0.35000000  0.35000000  0.15000000       0.012
  -0.25000000  0.35000000  0.15000000       0.012
  -0.15000000  0.35000000  0.15000000       0.012
   0.45000000  0.45000000  0.15000000       0.006
  -0.45000000  0.45000000  0.15000000       0.012
  -0.35000000  0.45000000  0.15000000       0.012
  -0.25000000  0.45000000  0.15000000       0.012
  -0.15000000  0.45000000  0.15000000       0.012
  -0.45000000 -0.45000000  0.15000000       0.006
  -0.35000000 -0.45000000  0.15000000       0.012
  -0.25000000 -0.45000000  0.15000000       0.012
  -0.35000000 -0.35000000  0.15000000       0.006
  -0.25000000 -0.35000000  0.15000000       0.012
  -0.25000000 -0.25000000  0.15000000       0.006
   0.25000000  0.25000000  0.25000000       0.002
   0.35000000  0.25000000  0.25000000       0.006
   0.45000000  0.25000000  0.25000000       0.006
  -0.45000000  0.25000000  0.25000000       0.006
  -0.35000000  0.25000000  0.25000000       0.006
  -0.25000000  0.25000000  0.25000000       0.006
   0.35000000  0.35000000  0.25000000       0.006
   0.45000000  0.35000000  0.25000000       0.012
  -0.45000000  0.35000000  0.25000000       0.012
  -0.35000000  0.35000000  0.25000000       0.012
  -0.25000000  0.35000000  0.25000000       0.012
   0.45000000  0.45000000  0.25000000       0.006
  -0.45000000  0.45000000  0.25000000       0.012
  -0.35000000  0.45000000  0.25000000       0.012
  -0.25000000  0.45000000  0.25000000       0.012
  -0.45000000 -0.45000000  0.25000000       0.006
  -0.35000000 -0.45000000  0.25000000       0.012
  -0.35000000 -0.35000000  0.25000000       0.006
   0.35000000  0.35000000  0.35000000       0.002
   0.45000000  0.35000000  0.35000000       0.006
  -0.45000000  0.35000000  0.35000000       0.006
  -0.35000000  0.35000000  0.35000000       0.006
   0.45000000  0.45000000  0.35000000       0.006
  -0.45000000  0.45000000  0.35000000       0.012
  -0.35000000  0.45000000  0.35000000       0.012
  -0.45000000 -0.45000000  0.35000000       0.006
   0.45000000  0.45000000  0.45000000       0.002
  -0.45000000  0.45000000  0.45000000       0.006
 
 position of ions in fractional coordinates (direct lattice) 
   0.00000000  0.00000000  0.00000000
 
 position of ions in cartesian coordinates  (Angst):
   0.00000000  0.00000000  0.00000000
 


--------------------------------------------------------------------------------------------------------


 k-point  1 :   0.0500 0.0500 0.0500  plane waves:     137
 k-point  2 :   0.1500 0.0500 0.0500  plane waves:     141
 k-point  3 :   0.2500 0.0500 0.0500  plane waves:     143
 k-point  4 :   0.3500 0.0500 0.0500  plane waves:     141
 k-point  5 :   0.4500 0.0500 0.0500  plane waves:     142
 k-point  6 :  -0.4500 0.0500 0.0500  plane waves:     138
 k-point  7 :  -0.3500 0.0500 0.0500  plane waves:     143
 k-point  8 :  -0.2500 0.0500 0.0500  plane waves:     141
 k-point  9 :  -0.1500 0.0500 0.0500  plane waves:     141
 k-point 10 :  -0.0500 0.0500 0.0500  plane waves:     141
 k-point 11 :   0.1500 0.1500 0.0500  plane waves:     141
 k-point 12 :   0.2500 0.1500 0.0500  plane waves:     139
 k-point 13 :   0.3500 0.1500 0.0500  plane waves:     140
 k-point 14 :   0.4500 0.1500 0.0500  plane waves:     140
 k-point 15 :  -0.4500 0.1500 0.0500  plane waves:     134
 k-point 16 :  -0.3500 0.1500 0.0500  plane waves:     137
 k-point 17 :  -0.2500 0.1500 0.0500  plane waves:     139
 k-point 18 :  -0.1500 0.1500 0.0500  plane waves:     140
 k-point 19 :  -0.0500 0.1500 0.0500  plane waves:     140
 k-point 20 :   0.2500 0.2500 0.0500  plane waves:     135
 k-point 21 :   0.3500 0.2500 0.0500  plane waves:     139
 k-point 22 :   0.4500 0.2500 0.0500  plane waves:     137
 k-point 23 :  -0.4500 0.2500 0.0500  plane waves:     134
 k-point 24 :  -0.3500 0.2500 0.0500  plane waves:     133
 k-point 25 :  -0.2500 0.2500 0.0500  plane waves:     137
 k-point 26 :  -0.1500 0.2500 0.0500  plane waves:     140
 k-point 27 :  -0.0500 0.2500 0.0500  plane waves:     141
 k-point 28 :   0.3500 0.3500 0.0500  plane waves:     133
 k-point 29 :   0.4500 0.3500 0.0500  plane waves:     133
 k-point 30 :  -0.4500 0.3500 0.0500  plane waves:     133
 k-point 31 :  -0.3500 0.3500 0.0500  plane waves:     135
 k-point 32 :  -0.2500 0.3500 0.0500  plane waves:     133
 k-point 33 :  -0.1500 0.3500 0.0500  plane waves:     136
 k-point 34 :  -0.0500 0.3500 0.0500  plane waves:     142
 k-point 35 :   0.4500 0.4500 0.0500  plane waves:     135
 k-point 36 :  -0.4500 0.4500 0.0500  plane waves:     133
 k-point 37 :  -0.3500 0.4500 0.0500  plane waves:     133
 k-point 38 :  -0.2500 0.4500 0.0500  plane waves:     133
 k-point 39 :  -0.1500 0.4500 0.0500  plane waves:     135
 k-point 40 :  -0.0500 0.4500 0.0500  plane waves:     137
 k-point 41 :  -0.4500-0.4500 0.0500  plane waves:     132
 k-point 42 :  -0.3500-0.4500 0.0500  plane waves:     133
 k-point 43 :  -0.2500-0.4500 0.0500  plane waves:     137
 k-point 44 :  -0.1500-0.4500 0.0500  plane waves:     136
 k-point 45 :  -0.3500-0.3500 0.0500  plane waves:     133
 k-point 46 :  -0.2500-0.3500 0.0500  plane waves:     135
 k-point 47 :  -0.1500-0.3500 0.0500  plane waves:     139
 k-point 48 :  -0.2500-0.2500 0.0500  plane waves:     135
 k-point 49 :  -0.1500-0.2500 0.0500  plane waves:     138
 k-point 50 :  -0.1500-0.1500 0.0500  plane waves:     137
 k-point 51 :   0.1500 0.1500 0.1500  plane waves:     144
 k-point 52 :   0.2500 0.1500 0.1500  plane waves:     142
 k-point 53 :   0.3500 0.1500 0.1500  plane waves:     140
 k-point 54 :   0.4500 0.1500 0.1500  plane waves:     139
 k-point 55 :  -0.4500 0.1500 0.1500  plane waves:     133
 k-point 56 :  -0.3500 0.1500 0.1500  plane waves:     134
 k-point 57 :  -0.2500 0.1500 0.1500  plane waves:     140
 k-point 58 :  -0.1500 0.1500 0.1500  plane waves:     140
 k-point 59 :   0.2500 0.2500 0.1500  plane waves:     140
 k-point 60 :   0.3500 0.2500 0.1500  plane waves:     139
 k-point 61 :   0.4500 0.2500 0.1500  plane waves:     140
 k-point 62 :  -0.4500 0.2500 0.1500  plane waves:     135
 k-point 63 :  -0.3500 0.2500 0.1500  plane waves:     135
 k-point 64 :  -0.2500 0.2500 0.1500  plane waves:     138
 k-point 65 :  -0.1500 0.2500 0.1500  plane waves:     137
 k-point 66 :   0.3500 0.3500 0.1500  plane waves:     138
 k-point 67 :   0.4500 0.3500 0.1500  plane waves:     138
 k-point 68 :  -0.4500 0.3500 0.1500  plane waves:     134
 k-point 69 :  -0.3500 0.3500 0.1500  plane waves:     137
 k-point 70 :  -0.2500 0.3500 0.1500  plane waves:     137
 k-point 71 :  -0.1500 0.3500 0.1500  plane waves:     138
 k-point 72 :   0.4500 0.4500 0.1500  plane waves:     135
 k-point 73 :  -0.4500 0.4500 0.1500  plane waves:     132
 k-point 74 :  -0.3500 0.4500 0.1500  plane waves:     133
 k-point 75 :  -0.2500 0.4500 0.1500  plane waves:     134
 k-point 76 :  -0.1500 0.4500 0.1500  plane waves:     136
 k-point 77 :  -0.4500-0.4500 0.1500  plane waves:     132
 k-point 78 :  -0.3500-0.4500 0.1500  plane waves:     133
 k-point 79 :  -0.2500-0.4500 0.1500  plane waves:     134
 k-point 80 :  -0.3500-0.3500 0.1500  plane waves:     133
 k-point 81 :  -0.2500-0.3500 0.1500  plane waves:     134
 k-point 82 :  -0.2500-0.2500 0.1500  plane waves:     137
 k-point 83 :   0.2500 0.2500 0.2500  plane waves:     144
 k-point 84 :   0.3500 0.2500 0.2500  plane waves:     140
 k-point 85 :   0.4500 0.2500 0.2500  plane waves:     137
 k-point 86 :  -0.4500 0.2500 0.2500  plane waves:     135
 k-point 87 :  -0.3500 0.2500 0.2500  plane waves:     131
 k-point 88 :  -0.2500 0.2500 0.2500  plane waves:     136
 k-point 89 :   0.3500 0.3500 0.2500  plane waves:     142
 k-point 90 :   0.4500 0.3500 0.2500  plane waves:     141
 k-point 91 :  -0.4500 0.3500 0.2500  plane waves:     134
 k-point 92 :  -0.3500 0.3500 0.2500  plane waves:     133
 k-point 93 :  -0.2500 0.3500 0.2500  plane waves:     134
 k-point 94 :   0.4500 0.4500 0.2500  plane waves:     138
 k-point 95 :  -0.4500 0.4500 0.2500  plane waves:     135
 k-point 96 :  -0.3500 0.4500 0.2500  plane waves:     134
 k-point 97 :  -0.2500 0.4500 0.2500  plane waves:     136
 k-point 98 :  -0.4500-0.4500 0.2500  plane waves:     132
 k-point 99 :  -0.3500-0.4500 0.2500  plane waves:     134
 k-point ** :  -0.3500-0.3500 0.2500  plane waves:     134
 k-point ** :   0.3500 0.3500 0.3500  plane waves:     144
 k-point ** :   0.4500 0.3500 0.3500  plane waves:     139
 k-point ** :  -0.4500 0.3500 0.3500  plane waves:     133
 k-point ** :  -0.3500 0.3500 0.3500  plane waves:     135
 k-point ** :   0.4500 0.4500 0.3500  plane waves:     140
 k-point ** :  -0.4500 0.4500 0.3500  plane waves:     136
 k-point ** :  -0.3500 0.4500 0.3500  plane waves:     135
 k-point ** :  -0.4500-0.4500 0.3500  plane waves:     134
 k-point ** :   0.4500 0.4500 0.4500  plane waves:     138
 k-point ** :  -0.4500 0.4500 0.4500  plane waves:     136

 maximum and minimum number of plane-waves per node :       144      131

 maximum number of plane-waves:       144
 maximum index in each direction: 
   IXMAX=    4   IYMAX=    4   IZMAX=    3
   IXMIN=   -4   IYMIN=   -4   IZMIN=   -4


 serial   3D FFT for wavefunctions
 parallel 3D FFT for charge:
    minimum data exchange during FFTs selected (reduces bandwidth)


 total amount of memory used by VASP MPI-rank0    33732. kBytes
=======================================================================

   base      :      30000. kBytes
   nonl-proj :       2283. kBytes
   fftplans  :        238. kBytes
   grid      :        331. kBytes
   one-center:         15. kBytes
   wavefun   :        865. kBytes
 
     INWAV:  cpu time    0.0295: real time    0.0668
 Broyden mixing: mesh for mixing (old mesh)
   NGX =  7   NGY =  7   NGZ =  7
  (NGX  = 24   NGY  = 24   NGZ  = 24)
  gives a total of    343 points

 charge density for first step will be calculated from the start-wavefunctions


--------------------------------------------------------------------------------------------------------


 Maximum index for augmentation-charges         1485 (set IRDMAX)


--------------------------------------------------------------------------------------------------------


 initial charge from wavefunction
 First call to EWALD:  gamma=   0.686
 Maximum number of real-space cells 3x 3x 3
 Maximum number of reciprocal cells 3x 3x 3

    FEWALD:  cpu time    0.0017: real time    0.0060


--------------------------------------- Iteration      1(   1)  ---------------------------------------


    POTLOK:  cpu time    0.0039: real time    0.0237
    SETDIJ:  cpu time    0.0010: real time    0.0014
     EDDAV:  cpu time    0.3106: real time    0.9346
       DOS:  cpu time    0.0014: real time    0.0015
    CHARGE:  cpu time    0.0040: real time    0.0096
    MIXING:  cpu time    0.0002: real time    0.0003
    --------------------------------------------
      LOOP:  cpu time    0.3212: real time    0.9712

 eigenvalue-minimisations  :  2892
 total energy-change (2. order) :-0.4642984E+01  (-0.3651533E+00)
 number of electron      11.0000061 magnetization 
 augmentation part        4.1668653 magnetization 

 Broyden mixing:
  rms(total) = 0.29376E+00    rms(broyden)= 0.29369E+00
  rms(prec ) = 0.10659E+01
  weight for this iteration     100.00

 Free energy of the ion-electron system (eV)
  ---------------------------------------------------
  alpha Z        PSCENC =       106.66585453
  Ewald energy   TEWEN  =      -974.21287850
  -Hartree energ DENC   =      -105.78544910
  -exchange      EXHF   =         0.00000000
  -V(xc)+E(xc)   XCENC  =        15.34896270
  PAW double counting   =       743.64997831     -725.61892664
  entropy T*S    EENTRO =         0.00123458
  eigenvalues    EBANDS =         5.91190766
  atomic energy  EATOM  =       929.39633208
  Solvation  Ediel_sol  =         0.00000000
  ---------------------------------------------------
  free energy    TOTEN  =        -4.64298439 eV

  energy without entropy =       -4.64421897  energy(sigma->0) =       -4.64339592


--------------------------------------------------------------------------------------------------------




--------------------------------------- Iteration      1(   2)  ---------------------------------------


    POTLOK:  cpu time    0.0014: real time    0.0022
    SETDIJ:  cpu time    0.0006: real time    0.0032
     EDDAV:  cpu time    0.3010: real time    0.9221
       DOS:  cpu time    0.0014: real time    0.0014
    CHARGE:  cpu time    0.0038: real time    0.0041
    MIXING:  cpu time    0.0018: real time    0.0069
    --------------------------------------------
      LOOP:  cpu time    0.3100: real time    0.9400

 eigenvalue-minimisations  :  2948
 total energy-change (2. order) : 0.2505016E+00  (-0.7495979E-01)
 number of electron      11.0000059 magnetization 
 augmentation part        4.0303281 magnetization 

 Broyden mixing:
  rms(total) = 0.52807E-01    rms(broyden)= 0.52788E-01
  rms(prec ) = 0.18300E+00
  weight for this iteration     100.00

 eigenvalues of (default mixing * dielectric matrix)
  average eigenvalue GAMMA=   1.2187
  1.2187

 Free energy of the ion-electron system (eV)
  ---------------------------------------------------
  alpha Z        PSCENC =       106.66585453
  Ewald energy   TEWEN  =      -974.21287850
  -Hartree energ DENC   =      -111.92160571
  -exchange      EXHF   =         0.00000000
  -V(xc)+E(xc)   XCENC  =        15.64126525
  PAW double counting   =       753.35582043     -735.27045350
  entropy T*S    EENTRO =         0.00079354
  eigenvalues    EBANDS =        11.95238908
  atomic energy  EATOM  =       929.39633208
  Solvation  Ediel_sol  =         0.00000000
  ---------------------------------------------------
  free energy    TOTEN  =        -4.39248280 eV

  energy without entropy =       -4.39327634  energy(sigma->0) =       -4.39274731


--------------------------------------------------------------------------------------------------------




--------------------------------------- Iteration      1(   3)  ---------------------------------------


    POTLOK:  cpu time    0.0015: real time    0.0015
    SETDIJ:  cpu time    0.0004: real time    0.0030
     EDDAV:  cpu time    0.3066: real time    0.9288
       DOS:  cpu time    0.0014: real time    0.0017
    CHARGE:  cpu time    0.0039: real time    0.0136
    MIXING:  cpu time    0.0007: real time    0.0009
    --------------------------------------------
      LOOP:  cpu time    0.3144: real time    0.9495

 eigenvalue-minimisations  :  3100
 total energy-change (2. order) : 0.7485610E-02  (-0.3775172E-02)
 number of electron      11.0000058 magnetization 
 augmentation part        4.0000118 magnetization 

 Broyden mixing:
  rms(total) = 0.45310E-02    rms(broyden)= 0.44537E-02
  rms(prec ) = 0.12477E-01
  weight for this iteration     100.00

 eigenvalues of (default mixing * dielectric matrix)
  average eigenvalue GAMMA=   2.3789
  1.2228  3.5349

 Free energy of the ion-electron system (eV)
  ---------------------------------------------------
  alpha Z        PSCENC =       106.66585453
  Ewald energy   TEWEN  =      -974.21287850
  -Hartree energ DENC   =      -113.20028227
  -exchange      EXHF   =         0.00000000
  -V(xc)+E(xc)   XCENC  =        15.70199714
  PAW double counting   =       753.67186054     -735.62275345
  entropy T*S    EENTRO =         0.00087150
  eigenvalues    EBANDS =        13.21400124
  atomic energy  EATOM  =       929.39633208
  Solvation  Ediel_sol  =         0.00000000
  ---------------------------------------------------
  free energy    TOTEN  =        -4.38499719 eV

  energy without entropy =       -4.38586869  energy(sigma->0) =       -4.38528769


--------------------------------------------------------------------------------------------------------




--------------------------------------- Iteration      1(   4)  ---------------------------------------


    POTLOK:  cpu time    0.0015: real time    0.0036
    SETDIJ:  cpu time    0.0008: real time    0.0056
     EDDAV:  cpu time    0.2996: real time    0.9053
       DOS:  cpu time    0.0015: real time    0.0015
    CHARGE:  cpu time    0.0038: real time    0.0099
    MIXING:  cpu time    0.0003: real time    0.0003
    --------------------------------------------
      LOOP:  cpu time    0.3074: real time    0.9261

 eigenvalue-minimisations  :  2884
 total energy-change (2. order) :-0.1436453E-03  (-0.3648718E-04)
 number of electron      11.0000058 magnetization 
 augmentation part        4.0012852 magnetization 

 Broyden mixing:
  rms(total) = 0.18558E-02    rms(broyden)= 0.18509E-02
  rms(prec ) = 0.55358E-02
  weight for this iteration     100.00

 eigenvalues of (default mixing * dielectric matrix)
  average eigenvalue GAMMA=   1.6089
  1.1674  1.1674  2.4919

 Free energy of the ion-electron system (eV)
  ---------------------------------------------------
  alpha Z        PSCENC =       106.66585453
  Ewald energy   TEWEN  =      -974.21287850
  -Hartree energ DENC   =      -113.03530942
  -exchange      EXHF   =         0.00000000
  -V(xc)+E(xc)   XCENC  =        15.69303161
  PAW double counting   =       750.79829639     -732.82684082
  entropy T*S    EENTRO =         0.00087014
  eigenvalues    EBANDS =        13.13550316
  atomic energy  EATOM  =       929.39633208
  Solvation  Ediel_sol  =         0.00000000
  ---------------------------------------------------
  free energy    TOTEN  =        -4.38514083 eV

  energy without entropy =       -4.38601097  energy(sigma->0) =       -4.38543088


--------------------------------------------------------------------------------------------------------




--------------------------------------- Iteration      1(   5)  ---------------------------------------


    POTLOK:  cpu time    0.0016: real time    0.0069
    SETDIJ:  cpu time    0.0006: real time    0.0049
     EDDAV:  cpu time    0.2261: real time    0.6867
       DOS:  cpu time    0.0015: real time    0.0014
    --------------------------------------------
      LOOP:  cpu time    0.2298: real time    0.6998

 eigenvalue-minimisations  :  1424
 total energy-change (2. order) : 0.7534011E-05  (-0.3704325E-05)
 number of electron      11.0000058 magnetization 
 augmentation part        4.0012852 magnetization 

 Free energy of the ion-electron system (eV)
  ---------------------------------------------------
  alpha Z        PSCENC =       106.66585453
  Ewald energy   TEWEN  =      -974.21287850
  -Hartree energ DENC   =      -113.06821717
  -exchange      EXHF   =         0.00000000
  -V(xc)+E(xc)   XCENC  =        15.69448943
  PAW double counting   =       750.57664764     -732.61389798
  entropy T*S    EENTRO =         0.00087286
  eigenvalues    EBANDS =        13.17566381
  atomic energy  EATOM  =       929.39633208
  Solvation  Ediel_sol  =         0.00000000
  ---------------------------------------------------
  free energy    TOTEN  =        -4.38513330 eV

  energy without entropy =       -4.38600616  energy(sigma->0) =       -4.38542425


--------------------------------------------------------------------------------------------------------




 average (electrostatic) potential at core
  the test charge radii are     1.2098
  (the norm of the test charge is              1.0000)
       1 -45.9381
 
 
 
 E-fermi :   5.3508     XC(G=0): -12.9201     alpha+bet :-10.1786


 k-point     1 :       0.0500    0.0500    0.0500
  band No.  band energies     occupation 
      1      -4.3235      2.00000
      2       0.7232      2.00000
      3       0.7816      2.00000
      4       0.7816      2.00000
      5       2.2525      2.00000
      6       2.2525      2.00000
      7      20.8240      0.00000
      8      23.8229      0.00000
      9      24.5874      0.00000
     10      24.5874      0.00000
     11      29.3835      0.00000
     12      32.2657      0.00000

 k-point     2 :       0.1500    0.0500    0.0500
  band No.  band energies     occupation 
      1      -3.8741      2.00000
      2       0.5743      2.00000
      3       0.9175      2.00000
      4       0.9487      2.00000
      5       2.1067      2.00000
      6       2.3012      2.00000
      7      21.0924      0.00000
      8      21.8874      0.00000
      9      24.1855      0.00000
     10      25.4946      0.00000
     11      28.7375      0.00000
     12      31.3577      0.00000

 k-point     3 :       0.2500    0.0500    0.0500
  band No.  band energies     occupation 
      1      -2.8995      2.00000
      2       0.4621      2.00000
      3       1.0668      2.00000
      4       1.0879      2.00000
      5       2.1156      2.00000
      6       2.5085      2.00000
      7      17.9444      0.00000
      8      21.6980      0.00000
      9      24.3100      0.00000
     10      26.6748      0.00000
     11      26.8213      0.00000
     12      29.1728      0.00000

 k-point     4 :       0.3500    0.0500    0.0500
  band No.  band energies     occupation 
      1      -2.0223      2.00000
      2       0.8920      2.00000
      3       0.9759      2.00000
      4       1.1260      2.00000
      5       2.5939      2.00000
      6       3.0673      2.00000
      7      13.9198      0.00000
      8      21.0348      0.00000
      9      23.3353      0.00000
     10      25.4963      0.00000
     11      27.9861      0.00000
     12      29.0337      0.00000

 k-point     5 :       0.4500    0.0500    0.0500
  band No.  band energies     occupation 
      1      -1.8002      2.00000
      2       0.7438      2.00000
      3       0.8114      2.00000
      4       2.6101      2.00000
      5       3.1752      2.00000
      6       3.9511      2.00000
      7      10.1500     -0.00000
      8      20.2956      0.00000
      9      22.4258      0.00000
     10      23.5278      0.00000
     11      29.6961      0.00000
     12      29.9359      0.00000

 k-point     6 :      -0.4500    0.0500    0.0500
  band No.  band energies     occupation 
      1      -1.7941      2.00000
      2       0.6786      2.00000
      3       0.7729      2.00000
      4       2.9999      2.00000
      5       3.4517      2.00000
      6       4.8575      2.00269
      7       8.4806     -0.00000
      8      20.0931      0.00000
      9      22.4838      0.00000
     10      22.6074      0.00000
     11      30.1605      0.00000
     12      30.2311      0.00000

 k-point     7 :      -0.3500    0.0500    0.0500
  band No.  band energies     occupation 
      1      -1.8274      2.00000
      2       0.7734      2.00000
      3       0.8801      2.00000
      4       2.0546      2.00000
      5       3.2532      2.00000
      6       3.3954      2.00000
      7      11.3220      0.00000
      8      20.5300      0.00000
      9      22.8822      0.00000
     10      23.7018      0.00000
     11      29.6367      0.00000
     12      29.8117      0.00000

 k-point     8 :      -0.2500    0.0500    0.0500
  band No.  band energies     occupation 
      1      -2.2447      2.00000
      2       0.7108      2.00000
      3       0.9919      2.00000
      4       1.0495      2.00000
      5       2.5078      2.00000
      6       2.7635      2.00000
      7      15.2660      0.00000
      8      21.4145      0.00000
      9      23.8115      0.00000
     10      25.6315      0.00000
     11      27.6481      0.00000
     12      29.4736      0.00000

 k-point     9 :      -0.1500    0.0500    0.0500
  band No.  band energies     occupation 
      1      -3.2582      2.00000
      2       0.4504      2.00000
      3       1.0584      2.00000
      4       1.0712      2.00000
      5       2.0727      2.00000
      6       2.3890      2.00000
      7      19.2350      0.00000
      8      21.8187      0.00000
      9      24.3211      0.00000
     10      25.9197      0.00000
     11      27.4626      0.00000
     12      30.0945      0.00000

 k-point    10 :      -0.0500    0.0500    0.0500
  band No.  band energies     occupation 
      1      -4.0950      2.00000
      2       0.6179      2.00000
      3       0.8746      2.00000
      4       0.8801      2.00000
      5       2.1289      2.00000
      6       2.3087      2.00000
      7      21.0481      0.00000
      8      22.9077      0.00000
      9      24.3054      0.00000
     10      24.6974      0.00000
     11      29.9007      0.00000
     12      31.5265      0.00000

 k-point    11 :       0.1500    0.1500    0.0500
  band No.  band energies     occupation 
      1      -3.6510      2.00000
      2       0.4082      2.00000
      3       1.0703      2.00000
      4       1.0740      2.00000
      5       1.9170      2.00000
      6       2.4168      2.00000
      7      21.3834      0.00000
      8      22.0528      0.00000
      9      23.6083      0.00000
     10      24.2726      0.00000
     11      29.0375      0.00000
     12      30.8445      0.00000

 k-point    12 :       0.2500    0.1500    0.0500
  band No.  band energies     occupation 
      1      -2.8415      2.00000
      2       0.1687      2.00000
      3       1.1681      2.00000
      4       1.3458      2.00000
      5       1.8674      2.00000
      6       2.6305      2.00000
      7      19.4857      0.00000
      8      21.3039      0.00000
      9      23.2840      0.00000
     10      24.5233      0.00000
     11      27.0043      0.00000
     12      30.0343      0.00000

 k-point    13 :       0.3500    0.1500    0.0500
  band No.  band energies     occupation 
      1      -1.8436      2.00000
      2       0.2543      2.00000
      3       0.8751      2.00000
      4       1.3560      2.00000
      5       2.5126      2.00000
      6       3.1986      2.00000
      7      15.4951      0.00000
      8      20.7466      0.00000
      9      22.2301      0.00000
     10      24.2962      0.00000
     11      27.9066      0.00000
     12      29.7593      0.00000

 k-point    14 :       0.4500    0.1500    0.0500
  band No.  band energies     occupation 
      1      -1.4581      2.00000
      2       0.5817      2.00000
      3       1.1081      2.00000
      4       1.2629      2.00000
      5       3.2395      2.00000
      6       4.3703      2.00000
      7      11.5247      0.00000
      8      20.2988      0.00000
      9      20.9334      0.00000
     10      23.0158      0.00000
     11      29.7551      0.00000
     12      30.8209      0.00000

 k-point    15 :      -0.4500    0.1500    0.0500
  band No.  band energies     occupation 
      1      -1.4342      2.00000
      2       0.4565      2.00000
      3       1.0650      2.00000
      4       1.9900      2.00000
      5       3.4072      2.00000
      6       6.2595     -0.00000
      7       8.4747     -0.00000
      8      19.8480      0.00000
      9      20.5719      0.00000
     10      22.3008      0.00000
     11      30.1694      0.00000
     12      31.2416      0.00000

 k-point    16 :      -0.3500    0.1500    0.0500
  band No.  band energies     occupation 
      1      -1.4196      2.00000
      2       0.5346      2.00000
      3       1.0896      2.00000
      4       1.6703      2.00000
      5       3.0992      2.00000
      6       5.0699      2.06321
      7      10.3876     -0.00000
      8      19.4822      0.00000
      9      21.0858      0.00000
     10      23.1957      0.00000
     11      29.3858      0.00000
     12      30.8752      0.00000

 k-point    17 :      -0.2500    0.1500    0.0500
  band No.  band energies     occupation 
      1      -1.6039      2.00000
      2       0.5291      2.00000
      3       0.8309      2.00000
      4       1.2738      2.00000
      5       2.4256      2.00000
      6       3.7302      2.00000
      7      14.1649      0.00000
      8      19.7173      0.00000
      9      22.1939      0.00000
     10      25.1451      0.00000
     11      27.5984      0.00000
     12      29.9858      0.00000

 k-point    18 :      -0.1500    0.1500    0.0500
  band No.  band energies     occupation 
      1      -2.4904      2.00000
      2       0.2112      2.00000
      3       1.0660      2.00000
      4       1.3688      2.00000
      5       1.8605      2.00000
      6       2.8864      2.00000
      7      18.0841      0.00000
      8      20.3478      0.00000
      9      23.8703      0.00000
     10      24.8689      0.00000
     11      28.1652      0.00000
     12      28.8263      0.00000

 k-point    19 :      -0.0500    0.1500    0.0500
  band No.  band energies     occupation 
      1      -3.4453      2.00000
      2       0.4135      2.00000
      3       1.0736      2.00000
      4       1.0831      2.00000
      5       1.9554      2.00000
      6       2.4258      2.00000
      7      20.4945      0.00000
      8      21.5345      0.00000
      9      23.7477      0.00000
     10      25.5688      0.00000
     11      27.8253      0.00000
     12      30.7771      0.00000

 k-point    20 :       0.2500    0.2500    0.0500
  band No.  band energies     occupation 
      1      -2.3001      2.00000
      2      -0.1784      2.00000
      3       1.3189      2.00000
      4       1.7191      2.00000
      5       1.9067      2.00000
      6       2.7530      2.00000
      7      19.9270      0.00000
      8      21.0377      0.00000
      9      22.2244      0.00000
     10      23.0794      0.00000
     11      24.0517      0.00000
     12      31.5684      0.00000

 k-point    21 :       0.3500    0.2500    0.0500
  band No.  band energies     occupation 
      1      -1.5101      2.00000
      2      -0.3980      2.00000
      3       1.0674      2.00000
      4       2.0579      2.00000
      5       2.5508      2.00000
      6       3.2199      2.00000
      7      17.2039      0.00000
      8      19.1497      0.00000
      9      20.7879      0.00000
     10      23.4446      0.00000
     11      24.8277      0.00000
     12      31.6104      0.00000

 k-point    22 :       0.4500    0.2500    0.0500
  band No.  band energies     occupation 
      1      -1.0474      2.00000
      2      -0.1421      2.00000
      3       0.8279      2.00000
      4       1.9304      2.00000
      5       3.3238      2.00000
      6       4.6373      2.00001
      7      13.1647      0.00000
      8      18.4598      0.00000
      9      19.0656      0.00000
     10      23.0984      0.00000
     11      28.0032      0.00000
     12      31.5237      0.00000

 k-point    23 :      -0.4500    0.2500    0.0500
  band No.  band energies     occupation 
      1      -0.9304      2.00000
      2       0.1167      2.00000
      3       1.0300      2.00000
      4       1.7371      2.00000
      5       3.4430      2.00000
      6       7.0640     -0.00000
      7       9.6140     -0.00000
      8      17.1774      0.00000
      9      19.1334      0.00000
     10      22.7253      0.00000
     11      30.6129      0.00000
     12      32.0946      0.00000

 k-point    24 :      -0.3500    0.2500    0.0500
  band No.  band energies     occupation 
      1      -0.7642      2.00000
      2       0.1797      2.00000
      3       1.0539      2.00000
      4       1.6351      2.00000
      5       3.0553      2.00000
      6       6.9044     -0.00000
      7      10.1291     -0.00000
      8      16.1065      0.00000
      9      20.3262      0.00000
     10      22.9054      0.00000
     11      29.8010      0.00000
     12      32.1390      0.00000

 k-point    25 :      -0.2500    0.2500    0.0500
  band No.  band energies     occupation 
      1      -0.6884      2.00000
      2       0.2491      2.00000
      3       0.5062      2.00000
      4       1.7139      2.00000
      5       2.3836      2.00000
      6       5.1172      2.06985
      7      13.4914      0.00000
      8      16.0158      0.00000
      9      21.6110      0.00000
     10      24.2789      0.00000
     11      27.6777      0.00000
     12      31.9276      0.00000

 k-point    26 :      -0.1500    0.2500    0.0500
  band No.  band energies     occupation 
      1      -1.4553      2.00000
      2       0.1355      2.00000
      3       0.8029      2.00000
      4       1.5921      2.00000
      5       1.9962      2.00000
      6       3.8167      2.00000
      7      15.6133      0.00000
      8      18.2417      0.00000
      9      22.6574      0.00000
     10      25.6696      0.00000
     11      26.6317      0.00000
     12      30.4948      0.00000

 k-point    27 :      -0.0500    0.2500    0.0500
  band No.  band energies     occupation 
      1      -2.4054      2.00000
      2       0.3882      2.00000
      3       1.0384      2.00000
      4       1.1832      2.00000
      5       2.1780      2.00000
      6       2.8157      2.00000
      7      16.7017      0.00000
      8      21.3716      0.00000
      9      23.3695      0.00000
     10      25.8033      0.00000
     11      27.4550      0.00000
     12      28.9886      0.00000

 k-point    28 :       0.3500    0.3500    0.0500
  band No.  band energies     occupation 
      1      -1.3634      2.00000
      2      -0.7674      2.00000
      3       1.9354      2.00000
      4       2.5752      2.00000
      5       3.0036      2.00000
      6       3.1539      2.00000
      7      17.1288      0.00000
      8      18.1715      0.00000
      9      18.3770      0.00000
     10      22.3239      0.00000
     11      24.2320      0.00000
     12      34.0291      0.00000

 k-point    29 :       0.4500    0.3500    0.0500
  band No.  band energies     occupation 
      1      -1.2153      2.00000
      2      -0.8736      2.00000
      3       1.9806      2.00000
      4       2.8683      2.00000
      5       3.3383      2.00000
      6       4.6969      2.00004
      7      14.3309      0.00000
      8      16.4736      0.00000
      9      17.1042      0.00000
     10      23.3218      0.00000
     11      25.2096      0.00000
     12      33.5792      0.00000

 k-point    30 :      -0.4500    0.3500    0.0500
  band No.  band energies     occupation 
      1      -1.0504      2.00000
      2      -0.5653      2.00000
      3       1.6321      2.00000
      4       2.5723      2.00000
      5       3.5371      2.00000
      6       7.2885     -0.00000
      7      11.1674      0.00000
      8      14.7203      0.00000
      9      17.2236      0.00000
     10      23.5439      0.00000
     11      27.9231      0.00000
     12      32.5736      0.00000

 k-point    31 :      -0.3500    0.3500    0.0500
  band No.  band energies     occupation 
      1      -0.7657      2.00000
      2      -0.0665      2.00000
      3       1.0986      2.00000
      4       2.2506      2.00000
      5       3.2232      2.00000
      6       8.4821     -0.00000
      7      10.6055     -0.00000
      8      13.0594      0.00000
      9      18.5319      0.00000
     10      23.3373      0.00000
     11      31.1379      0.00000
     12      31.4958      0.00000

 k-point    32 :      -0.2500    0.3500    0.0500
  band No.  band energies     occupation 
      1      -0.4922      2.00000
      2       0.2238      2.00000
      3       0.6156      2.00000
      4       1.9018      2.00000
      5       2.8202      2.00000
      6       6.7275     -0.00000
      7      11.9722      0.00000
      8      14.0610      0.00000
      9      20.3135      0.00000
     10      23.2626      0.00000
     11      29.5161      0.00000
     12      32.4014      0.00000

 k-point    33 :      -0.1500    0.3500    0.0500
  band No.  band energies     occupation 
      1      -1.0683      2.00000
      2       0.4380      2.00000
      3       0.9291      2.00000
      4       1.4159      2.00000
      5       2.7382      2.00000
      6       5.1078      2.07089
      7      11.9070      0.00000
      8      17.7555      0.00000
      9      21.3728      0.00000
     10      23.7629      0.00000
     11      28.4549      0.00000
     12      31.3619      0.00000

 k-point    34 :      -0.0500    0.3500    0.0500
  band No.  band energies     occupation 
      1      -1.7537      2.00000
      2       0.7765      2.00000
      3       1.0177      2.00000
      4       1.2763      2.00000
      5       2.8674      2.00000
      6       3.5608      2.00000
      7      12.6727      0.00000
      8      20.6969      0.00000
      9      22.1777      0.00000
     10      24.3796      0.00000
     11      28.8163      0.00000
     12      29.7338      0.00000

 k-point    35 :       0.4500    0.4500    0.0500
  band No.  band energies     occupation 
      1      -1.4697      2.00000
      2      -1.1568      2.00000
      3       3.2390      2.00000
      4       3.2494      2.00000
      5       3.5647      2.00000
      6       5.2127      1.91305
      7      12.9132      0.00000
      8      15.7932      0.00000
      9      16.1314      0.00000
     10      22.6270      0.00000
     11      24.9532      0.00000
     12      34.9072      0.00000

 k-point    36 :      -0.4500    0.4500    0.0500
  band No.  band energies     occupation 
      1      -1.3970      2.00000
      2      -1.1074      2.00000
      3       2.8791      2.00000
      4       3.1953      2.00000
      5       3.7118      2.00000
      6       7.2163     -0.00000
      7      11.0539      0.00000
      8      14.7588      0.00000
      9      15.7264      0.00000
     10      23.5483      0.00000
     11      25.5219      0.00000
     12      34.0423      0.00000

 k-point    37 :      -0.3500    0.4500    0.0500
  band No.  band energies     occupation 
      1      -1.1025      2.00000
      2      -0.6547      2.00000
      3       1.9159      2.00000
      4       2.7369      2.00000
      5       3.5357      2.00000
      6       8.7227     -0.00000
      7      10.2643     -0.00000
      8      13.4273      0.00000
      9      16.8806      0.00000
     10      23.7175      0.00000
     11      27.9218      0.00000
     12      32.7534      0.00000

 k-point    38 :      -0.2500    0.4500    0.0500
  band No.  band energies     occupation 
      1      -0.8002      2.00000
      2      -0.0196      2.00000
      3       1.0565      2.00000
      4       2.0337      2.00000
      5       3.3452      2.00000
      6       8.5415     -0.00000
      7       9.1577     -0.00000
      8      15.0500      0.00000
      9      18.7319      0.00000
     10      23.0833      0.00000
     11      30.8478      0.00000
     12      31.8313      0.00000

 k-point    39 :      -0.1500    0.4500    0.0500
  band No.  band energies     occupation 
      1      -1.1190      2.00000
      2       0.2894      2.00000
      3       1.3242      2.00000
      4       1.5311      2.00000
      5       3.2848      2.00000
      6       7.0632     -0.00000
      7       8.6381     -0.00000
      8      18.1400      0.00000
      9      20.3665      0.00000
     10      22.4648      0.00000
     11      30.0904      0.00000
     12      31.7358      0.00000

 k-point    40 :      -0.0500    0.4500    0.0500
  band No.  band energies     occupation 
      1      -1.6672      2.00000
      2       0.6223      2.00000
      3       0.8871      2.00000
      4       2.4030      2.00000
      5       3.3628      2.00000
      6       4.9816      2.02547
      7       9.1777     -0.00000
      8      20.2013      0.00000
      9      21.6191      0.00000
     10      22.7672      0.00000
     11      30.0159      0.00000
     12      30.5360      0.00000

 k-point    41 :      -0.4500   -0.4500    0.0500
  band No.  band energies     occupation 
      1      -1.5425      2.00000
      2      -1.2396      2.00000
      3       3.3525      2.00000
      4       3.5300      2.00000
      5       3.7266      2.00000
      6       6.4411     -0.00000
      7      11.2674      0.00000
      8      15.3005      0.00000
      9      15.6691      0.00000
     10      22.7466      0.00000
     11      25.1063      0.00000
     12      34.7149      0.00000

 k-point    42 :      -0.3500   -0.4500    0.0500
  band No.  band energies     occupation 
      1      -1.3212      2.00000
      2      -1.0277      2.00000
      3       2.5257      2.00000
      4       3.1321      2.00000
      5       3.5583      2.00000
      6       5.9734     -0.00010
      7      12.5834      0.00000
      8      15.3367      0.00000
      9      16.1811      0.00000
     10      23.4510      0.00000
     11      25.4136      0.00000
     12      33.9721      0.00000

 k-point    43 :      -0.2500   -0.4500    0.0500
  band No.  band energies     occupation 
      1      -0.9968      2.00000
      2      -0.3861      2.00000
      3       1.2068      2.00000
      4       2.2740      2.00000
      5       3.4856      2.00000
      6       5.8589     -0.00193
[...]
      6       5.9918     -0.00006
      7      12.6662      0.00000
      8      15.0040      0.00000
      9      19.7712      0.00000
     10      24.7162      0.00000
     11      28.0739      0.00000
     12      32.8342      0.00000

 k-point    92 :      -0.3500    0.3500    0.2500
  band No.  band energies     occupation 
      1      -0.4412      2.00000
      2       0.0485      2.00000
      3       0.6242      2.00000
      4       2.0856      2.00000
      5       3.1646      2.00000
      6       7.7879     -0.00000
      7      11.3745      0.00000
      8      13.3909      0.00000
      9      18.2586      0.00000
     10      24.4766      0.00000
     11      29.5676      0.00000
     12      33.2855      0.00000

 k-point    93 :      -0.2500    0.3500    0.2500
  band No.  band energies     occupation 
      1      -0.7641      2.00000
      2      -0.2390      2.00000
      3       1.0312      2.00000
      4       2.3279      2.00000
      5       3.4500      2.00000
      6       8.0612     -0.00000
      7      10.4243     -0.00000
      8      14.6696      0.00000
      9      17.0554      0.00000
     10      24.4353      0.00000
     11      29.3775      0.00000
     12      31.3428      0.00000

 k-point    94 :       0.4500    0.4500    0.2500
  band No.  band energies     occupation 
      1      -1.1345      2.00000
      2       0.1955      2.00000
      3       0.8507      2.00000
      4       1.6128      2.00000
      5       3.4925      2.00000
      6       5.0031      2.03379
      7      11.7361      0.00000
      8      19.0208      0.00000
      9      19.8103      0.00000
     10      22.2060      0.00000
     11      29.9497      0.00000
     12      31.5981      0.00000

 k-point    95 :      -0.4500    0.4500    0.2500
  band No.  band energies     occupation 
      1      -0.7662      2.00000
      2      -0.0697      2.00000
      3       0.7701      2.00000
      4       2.1089      2.00000
      5       3.3581      2.00000
      6       6.6207     -0.00000
      7      11.0851      0.00000
      8      16.4592      0.00000
      9      17.8135      0.00000
     10      24.0799      0.00000
     11      29.1148      0.00000
     12      31.4967      0.00000

 k-point    96 :      -0.3500    0.4500    0.2500
  band No.  band energies     occupation 
      1      -0.3895      2.00000
      2      -0.0116      2.00000
      3       0.4349      2.00000
      4       2.2206      2.00000
      5       3.4971      2.00000
      6       8.4163     -0.00000
      7      11.4517      0.00000
      8      13.3099      0.00000
      9      16.1108      0.00000
     10      26.7120      0.00000
     11      28.3516      0.00000
     12      31.5938      0.00000

 k-point    97 :      -0.2500    0.4500    0.2500
  band No.  band energies     occupation 
      1      -0.5096      2.00000
      2      -0.0048      2.00000
      3       0.5904      2.00000
      4       2.1775      2.00000
      5       3.7063      2.00000
      6       9.6522     -0.00000
      7      11.1384      0.00000
      8      12.4652      0.00000
      9      15.1374      0.00000
     10      27.4653      0.00000
     11      28.9638      0.00000
     12      30.3144      0.00000

 k-point    98 :      -0.4500   -0.4500    0.2500
  band No.  band energies     occupation 
      1      -0.9709      2.00000
      2      -0.2724      2.00000
      3       1.3808      2.00000
      4       2.2585      2.00000
      5       3.4669      2.00000
      6       7.9249     -0.00000
      7      10.0506     -0.00000
      8      14.8074      0.00000
      9      18.3723      0.00000
     10      22.8236      0.00000
     11      29.6227      0.00000
     12      32.6407      0.00000

 k-point    99 :      -0.3500   -0.4500    0.2500
  band No.  band energies     occupation 
      1      -0.8013      2.00000
      2      -0.3112      2.00000
      3       1.2319      2.00000
      4       2.4069      2.00000
      5       3.5049      2.00000
      6       9.2662     -0.00000
      7      10.2197     -0.00000
      8      13.0492      0.00000
      9      16.7388      0.00000
     10      24.6780      0.00000
     11      29.6136      0.00000
     12      31.1415      0.00000

 k-point   100 :      -0.3500   -0.3500    0.2500
  band No.  band energies     occupation 
      1      -0.9869      2.00000
      2      -0.3626      2.00000
      3       1.5737      2.00000
      4       2.5096      2.00000
      5       3.3457      2.00000
      6       9.1011     -0.00000
      7       9.8878     -0.00000
      8      13.0946      0.00000
      9      18.0848      0.00000
     10      23.0424      0.00000
     11      29.5645      0.00000
     12      32.8370      0.00000

 k-point   101 :       0.3500    0.3500    0.3500
  band No.  band energies     occupation 
      1      -1.9622      2.00000
      2       0.8761      2.00000
      3       0.8761      2.00000
      4       1.7560      2.00000
      5       2.9589      2.00000
      6       2.9589      2.00000
      7      12.5559      0.00000
      8      20.7516      0.00000
      9      24.1180      0.00000
     10      24.1180      0.00000
     11      29.3196      0.00000
     12      29.3514      0.00000

 k-point   102 :       0.4500    0.3500    0.3500
  band No.  band energies     occupation 
      1      -1.6201      2.00000
      2       0.6995      2.00000
      3       0.9863      2.00000
      4       1.6763      2.00000
      5       2.8555      2.00000
      6       4.1959      2.00000
      7      11.4619      0.00000
      8      20.1084      0.00000
      9      21.6961      0.00000
     10      24.1280      0.00000
     11      28.7951      0.00000
     12      30.1403      0.00000

 k-point   103 :      -0.4500    0.3500    0.3500
  band No.  band energies     occupation 
      1      -0.9262      2.00000
      2       0.3377      2.00000
      3       1.1354      2.00000
      4       1.4327      2.00000
      5       2.8347      2.00000
      6       5.9126     -0.00052
      7      10.9486      0.00000
      8      16.8567      0.00000
      9      21.8651      0.00000
     10      22.3940      0.00000
     11      29.3095      0.00000
     12      31.3914      0.00000

 k-point   104 :      -0.3500    0.3500    0.3500
  band No.  band energies     occupation 
      1      -0.6613      2.00000
      2       0.1696      2.00000
      3       0.8771      2.00000
      4       2.0409      2.00000
      5       2.9764      2.00000
      6       7.5419     -0.00000
      7      11.3006      0.00000
      8      13.3831      0.00000
      9      20.1089      0.00000
     10      22.5195      0.00000
     11      31.0408      0.00000
     12      32.1262      0.00000

 k-point   105 :       0.4500    0.4500    0.3500
  band No.  band energies     occupation 
      1      -1.6168      2.00000
      2       0.6135      2.00000
      3       0.9875      2.00000
      4       1.8730      2.00000
      5       3.4341      2.00000
      6       4.5107      2.00000
      7      10.2189     -0.00000
      8      20.3940      0.00000
      9      21.8674      0.00000
     10      22.3477      0.00000
     11      30.3539      0.00000
     12      30.5991      0.00000

 k-point   106 :      -0.4500    0.4500    0.3500
  band No.  band energies     occupation 
      1      -1.1584      2.00000
      2       0.3190      2.00000
      3       1.2725      2.00000
      4       1.4829      2.00000
      5       3.2947      2.00000
      6       6.2784     -0.00000
      7       9.4517     -0.00000
      8      18.8283      0.00000
      9      19.7695      0.00000
     10      22.9760      0.00000
     11      29.6840      0.00000
     12      31.9766      0.00000

 k-point   107 :      -0.3500    0.4500    0.3500
  band No.  band energies     occupation 
      1      -0.5752      2.00000
      2      -0.0094      2.00000
      3       0.8747      2.00000
      4       1.8875      2.00000
      5       3.2546      2.00000
      6       8.0995     -0.00000
      7       9.4880     -0.00000
      8      15.4664      0.00000
      9      18.3974      0.00000
     10      24.0204      0.00000
     11      29.6673      0.00000
     12      33.6394      0.00000

 k-point   108 :      -0.4500   -0.4500    0.3500
  band No.  band energies     occupation 
      1      -1.0467      2.00000
      2       0.2369      2.00000
      3       1.3301      2.00000
      4       1.4629      2.00000
      5       3.3910      2.00000
      6       7.5158     -0.00000
      7       8.4934     -0.00000
      8      17.6007      0.00000
      9      20.5701      0.00000
     10      21.8015      0.00000
     11      31.1944      0.00000
     12      31.4499      0.00000

 k-point   109 :       0.4500    0.4500    0.4500
  band No.  band energies     occupation 
      1      -1.8594      2.00000
      2       0.7390      2.00000
      3       0.7390      2.00000
      4       3.3866      2.00000
      5       3.3866      2.00000
      6       3.8710      2.00000
      7       9.1262     -0.00000
      8      20.1130      0.00000
      9      22.9891      0.00000
     10      22.9891      0.00000
     11      29.9687      0.00000
     12      29.9687      0.00000

 k-point   110 :      -0.4500    0.4500    0.4500
  band No.  band energies     occupation 
      1      -1.6059      2.00000
      2       0.5711      2.00000
      3       0.9102      2.00000
      4       2.4143      2.00000
      5       3.3648      2.00000
      6       5.6888     -0.03797
      7       8.4906     -0.00000
      8      20.0059      0.00000
      9      21.4426      0.00000
     10      22.4083      0.00000
     11      30.3178      0.00000
     12      30.4791      0.00000


--------------------------------------------------------------------------------------------------------


 soft charge-density along one line, spin component           1
         0         1         2         3         4         5         6         7         8         9
 total charge-density along one line
 
 pseudopotential strength for first ion, spin component:           1
 -9.858   0.000  -0.000   0.000   0.000   0.000  -0.000   0.000  -0.000   0.000  -0.088   0.000   0.000   0.000  -0.000   0.000
 -0.000   0.000  -9.858   0.000  -0.000   0.000  -0.000   0.000   0.000   0.000   0.000   0.000  -0.088   0.000   0.000   0.000
  0.000   0.000  -0.000   0.000  -9.840   0.000  -0.000   0.000   0.000   0.000  -0.000   0.000   0.000   0.000  -0.090   0.000
 -0.000   0.000  -0.000   0.000  -0.000   0.000  -9.858   0.000  -0.000   0.000   0.000   0.000   0.000   0.000   0.000   0.000
 -0.000   0.000   0.000   0.000   0.000   0.000  -0.000   0.000  -9.840   0.000   0.000   0.000  -0.000   0.000  -0.000   0.000
 -0.088   0.000   0.000   0.000  -0.000   0.000   0.000   0.000   0.000   0.000   0.282   0.000  -0.000   0.000   0.000   0.000
  0.000   0.000  -0.088   0.000   0.000   0.000   0.000   0.000  -0.000   0.000  -0.000   0.000   0.282   0.000  -0.000   0.000
 -0.000   0.000   0.000   0.000  -0.090   0.000   0.000   0.000  -0.000   0.000   0.000   0.000  -0.000   0.000   0.283   0.000
  0.000   0.000   0.000   0.000   0.000   0.000  -0.088   0.000   0.000   0.000  -0.000   0.000  -0.000   0.000  -0.000   0.000
  0.000   0.000  -0.000   0.000  -0.000   0.000   0.000   0.000  -0.090   0.000  -0.000   0.000   0.000   0.000   0.000   0.000
  0.000   0.000   0.000   0.000  -0.000   0.000   0.000   0.000   0.000   0.000   0.000   0.000   0.000   0.000  -0.000   0.000
 -0.000   0.000  -0.000   0.000   0.000   0.000  -0.000   0.000  -0.000   0.000   0.000   0.000   0.000   0.000   0.000   0.000
 -0.000   0.000  -0.000   0.000  -0.000   0.000   0.000   0.000  -0.000   0.000   0.000   0.000  -0.000   0.000   0.000   0.000
  0.000   0.000  -0.000   0.000   0.000   0.000  -0.000   0.000   0.000   0.000  -0.000   0.000  -0.000   0.000  -0.000   0.000
  0.000   0.000   0.000   0.000  -0.000   0.000   0.000   0.000  -0.000   0.000  -0.000   0.000  -0.000   0.000  -0.000   0.000
 -0.000   0.000   0.000   0.000   0.000   0.000  -0.000   0.000   0.000   0.000  -0.000   0.000   0.000   0.000  -0.000   0.000
 -0.000   0.000   0.000   0.000  -0.000   0.000   0.000   0.000  -0.000   0.000   0.000   0.000  -0.000   0.000   0.000   0.000
  0.000   0.000  -0.000   0.000   0.000   0.000  -0.000   0.000   0.000   0.000   0.000   0.000   0.000   0.000  -0.000   0.000
 total augmentation occupancy for first ion, spin component:           1
  1.903  -0.000   0.000   0.000   0.000  -0.040  -0.000   0.000   0.000   0.000   0.000   0.000   0.000   0.000   0.000   0.000
  0.000   1.903   0.000  -0.000   0.000  -0.000  -0.040   0.000  -0.000   0.000  -0.000   0.000   0.000   0.000   0.000   0.000
  0.000  -0.000   1.951   0.000   0.000   0.000   0.000  -0.087   0.000  -0.000   0.000   0.000   0.000   0.000   0.000   0.000
 -0.000   0.000   0.000   1.903  -0.000   0.000   0.000  -0.000  -0.040  -0.000  -0.000   0.000   0.000   0.000   0.000   0.000
  0.000  -0.000   0.000  -0.000   1.951  -0.000  -0.000   0.000  -0.000  -0.087   0.000   0.000   0.000   0.000   0.000   0.000
 -0.040  -0.000   0.000   0.000   0.000   0.200  -0.000   0.000  -0.000   0.000   0.000   0.000   0.000   0.000   0.000   0.000
  0.000  -0.040  -0.000  -0.000   0.000   0.000   0.200   0.000  -0.000  -0.000   0.000   0.000   0.000   0.000   0.000   0.000
  0.000   0.000  -0.087  -0.000   0.000   0.000   0.000   0.160  -0.000   0.000  -0.000   0.000   0.000   0.000   0.000   0.000
  0.000   0.000  -0.000  -0.040  -0.000  -0.000   0.000   0.000   0.200   0.000   0.000   0.000   0.000   0.000   0.000   0.000
 -0.000  -0.000   0.000   0.000  -0.087  -0.000   0.000   0.000   0.000   0.160  -0.000   0.000   0.000   0.000   0.000   0.000
  0.000  -0.000   0.000   0.000   0.000   0.000   0.000  -0.000   0.000  -0.000   1.072  -0.377   0.000   0.000   0.000   0.000
  0.000   0.000   0.000   0.000   0.000  -0.000   0.000   0.000  -0.000  -0.000  -0.377   0.246   0.000   0.000   0.000   0.000
  0.000   0.000   0.000   0.000   0.000   0.000   0.000   0.000   0.000   0.000   0.000   0.000   0.162   0.000   0.000  -0.012
  0.000   0.000   0.000   0.000   0.000   0.000   0.000   0.000   0.000   0.000   0.000   0.000   0.000   0.162   0.000  -0.000
  0.000   0.000   0.000   0.000   0.000   0.000   0.000   0.000   0.000   0.000   0.000   0.000   0.000  -0.000   0.162   0.000
  0.000   0.000   0.000   0.000   0.000   0.000   0.000   0.000   0.000   0.000   0.000   0.000  -0.012   0.000  -0.000   0.001
  0.000   0.000   0.000   0.000   0.000   0.000   0.000   0.000   0.000   0.000   0.000   0.000   0.000  -0.012   0.000   0.000
  0.000   0.000   0.000   0.000   0.000   0.000   0.000   0.000   0.000   0.000   0.000   0.000   0.000   0.000  -0.012  -0.000


------------------------ aborting loop because EDIFF is reached ----------------------------------------


    CHARGE:  cpu time    0.0032: real time    0.0251
    FORLOC:  cpu time    0.0001: real time    0.0002
    FORNL :  cpu time    0.0086: real time    0.0217
    STRESS:  cpu time    0.0522: real time    0.1567
    FORCOR:  cpu time    0.0010: real time    0.0010
    FORHAR:  cpu time    0.0007: real time    0.0006
    MIXING:  cpu time    0.0000: real time    0.0003
    OFIELD:  cpu time    0.0000: real time    0.0000

  FORCE on cell =-STRESS in cart. coord.  units (eV):
  Direction    XX          YY          ZZ          XY          YZ          ZX
  --------------------------------------------------------------------------------------
  Alpha Z   106.66585   106.66585   106.66585
  Ewald    -324.73764  -324.73764  -324.73764     0.00000     0.00000    -0.00000
  Hartree    37.68761    37.68761    37.68761    -0.00000    -0.00000    -0.00000
  E(xc)     -48.98858   -48.98858   -48.98858     0.00001     0.00001     0.00001
  Local      81.68817    81.68817    81.68817     0.00016     0.00016     0.00016
  n-local   -49.67108   -46.82143   -50.60055     0.60505    -0.67039     0.01089
  augment    42.49019    42.49019    42.49019    -0.00001    -0.00001    -0.00001
  Kinetic   153.34148   152.17866   154.37150    -0.43055     0.23210     0.01069
  Fock        0.00000     0.00000     0.00000     0.00000     0.00000     0.00000
  -------------------------------------------------------------------------------------
  Total      -0.92820    -0.92820    -0.92820    -0.00000    -0.00000     0.00000
  in kB     -86.30985   -86.30985   -86.30985    -0.00000    -0.00000     0.00000
  external pressure =      -86.31 kB  Pullay stress =        0.00 kB


 VOLUME and BASIS-vectors are now :
 -----------------------------------------------------------------------------
  energy-cutoff  :      230.00
  volume of cell :       17.23
      direct lattice vectors                 reciprocal lattice vectors
     0.000000000  2.050000000  2.050000000    -0.243902439  0.243902439  0.243902439
     2.050000000  0.000000000  2.050000000     0.243902439 -0.243902439  0.243902439
     2.050000000  2.050000000  0.000000000     0.243902439  0.243902439 -0.243902439

  length of vectors
     2.899137803  2.899137803  2.899137803     0.422451416  0.422451416  0.422451416


 FORCES acting on ions
    electron-ion (+dipol)            ewald-force                    non-local-force                 convergence-correction
 -----------------------------------------------------------------------------------------------
   -.198E-14 -.514E-15 -.178E-14   0.579E-15 0.909E-15 -.693E-15   -.124E-23 -.827E-24 -.827E-24   0.293E-14 0.169E-14 0.346E-14
 -----------------------------------------------------------------------------------------------
   -.198E-14 -.514E-15 -.178E-14   0.579E-15 0.909E-15 -.693E-15   -.124E-23 -.827E-24 -.827E-24   0.293E-14 0.169E-14 0.346E-14
 
 
 POSITION                                       TOTAL-FORCE (eV/Angst)
 -----------------------------------------------------------------------------------
      0.00000      0.00000      0.00000        -0.000000     -0.000000      0.000000
 -----------------------------------------------------------------------------------
    total drift:                                0.000000      0.000000      0.000000


--------------------------------------------------------------------------------------------------------



  FREE ENERGIE OF THE ION-ELECTRON SYSTEM (eV)
  ---------------------------------------------------
  free  energy   TOTEN  =        -4.38513330 eV

  energy  without entropy=       -4.38600616  energy(sigma->0) =       -4.38542425
 


--------------------------------------------------------------------------------------------------------


    POTLOK:  cpu time    0.0034: real time    0.0139


--------------------------------------------------------------------------------------------------------


 writing wavefunctions
     LOOP+:  cpu time    1.7010: real time    5.1001
    4ORBIT:  cpu time    0.0000: real time    0.0000

 total amount of memory used by VASP MPI-rank0    33732. kBytes
=======================================================================

   base      :      30000. kBytes
   nonl-proj :       2283. kBytes
   fftplans  :        238. kBytes
   grid      :        331. kBytes
   one-center:         15. kBytes
   wavefun   :        865. kBytes
 
  
  
 General timing and accounting informations for this job:
 ========================================================
  
                  Total CPU time used (sec):        2.156
                            User time (sec):        1.872
                          System time (sec):        0.284
                         Elapsed time (sec):        6.459
  
                   Maximum memory used (kb):       59808.
                   Average memory used (kb):           0.
  
                          Minor page faults:        15459
                          Major page faults:            0
                 Voluntary context switches:         2101
