<?xml version="1.0" encoding="ISO-8859-1"?>
<modeling>
 <generator>
  <i name="program" type="string">vasp </i>
  <i name="version" type="string">5.4.4.18Apr17-6-g9f103f2a35  </i>
  <i name="subversion" type="string">(build Jul 01 2019 03:25:34) complex            parallel </i>
  <i name="platform" type="string">LinuxIFC </i>
  <i name="date" type="string">2020 07 08 </i>
  <i name="time" type="string">00:55:47 </i>
 </generator>
 <incar>
  <i type="string" name="SYSTEM"> FCC Au</i>
  <i type="string" name="PREC">normal</i>
  <i name="EDIFF">      0.00010000</i>
  <i name="ENCUT">    230.00000000</i>
  <v type="int" name="KPOINT_BSE">    -1     0     0     0</v>
 </incar>
 <structure name="primitive_cell" >
  <crystal>
   <varray name="basis" >
    <v>       0.00000000       2.05000000       2.05000000 </v>
    <v>       2.05000000       0.00000000       2.05000000 </v>
    <v>       2.05000000       2.05000000       0.00000000 </v>
   </varray>
   <i name="volume">     17.23025000 </i>
   <varray name="rec_basis" >
    <v>      -0.24390244       0.24390244       0.24390244 </v>
    <v>       0.24390244      -0.24390244       0.24390244 </v>
    <v>       0.24390244       0.24390244      -0.24390244 </v>
   </varray>
  </crystal>
  <varray name="positions" >
   <v>       0.00000000       0.00000000       0.00000000 </v>
  </varray>
 </structure>
 <varray name="primitive_index" >
  <v type="int" >        1 </v>
 </varray>
 <kpoints>
  <generation param="Monkhorst-Pack">
   <v type="int" name="divisions">      10       10       10 </v>
   <v name="usershift">      0.00000000       0.00000000       0.00000000 </v>
   <v name="genvec1">      0.10000000       0.00000000       0.00000000 </v>
   <v name="genvec2">      0.00000000       0.10000000       0.00000000 </v>
   <v name="genvec3">      0.00000000       0.00000000       0.10000000 </v>
   <v name="shift">      0.50000000       0.50000000       0.50000000 </v>
  </generation>
  <varray name="kpointlist" >
   <v>       0.05000000       0.05000000       0.05000000 </v>
   <v>       0.15000000       0.05000000       0.05000000 </v>
   <v>       0.25000000       0.05000000       0.05000000 </v>
   <v>       0.35000000       0.05000000       0.05000000 </v>
   <v>       0.45000000       0.05000000       0.05000000 </v>
   <v>      -0.45000000       0.05000000       0.05000000 </v>
   <v>      -0.35000000       0.05000000       0.05000000 </v>
   <v>      -0.25000000       0.05000000       0.05000000 </v>
   <v>      -0.15000000       0.05000000       0.05000000 </v>
   <v>      -0.05000000       0.05000000       0.05000000 </v>
   <v>       0.15000000       0.15000000       0.05000000 </v>
   <v>       0.25000000       0.15000000       0.05000000 </v>
   <v>       0.35000000       0.15000000       0.05000000 </v>
   <v>       0.45000000       0.15000000       0.05000000 </v>
   <v>      -0.45000000       0.15000000       0.05000000 </v>
   <v>      -0.35000000       0.15000000       0.05000000 </v>
   <v>      -0.25000000       0.15000000       0.05000000 </v>
   <v>      -0.15000000       0.15000000       0.05000000 </v>
   <v>      -0.05000000       0.15000000       0.05000000 </v>
   <v>       0.25000000       0.25000000       0.05000000 </v>
   <v>       0.35000000       0.25000000       0.05000000 </v>
   <v>       0.45000000       0.25000000       0.05000000 </v>
   <v>      -0.45000000       0.25000000       0.05000000 </v>
   <v>      -0.35000000       0.25000000       0.05000000 </v>
   <v>      -0.25000000       0.25000000       0.05000000 </v>
   <v>      -0.15000000       0.25000000       0.05000000 </v>
   <v>      -0.05000000       0.25000000       0.05000000 </v>
   <v>       0.35000000       0.35000000       0.05000000 </v>
   <v>       0.45000000       0.35000000       0.05000000 </v>
   <v>      -0.45000000       0.35000000       0.05000000 </v>
   <v>      -0.35000000       0.35000000       0.05000000 </v>
   <v>      -0.25000000       0.35000000       0.05000000 </v>
   <v>      -0.15000000       0.35000000       0.05000000 </v>
   <v>      -0.05000000       0.35000000       0.05000000 </v>
   <v>       0.45000000       0.45000000       0.05000000 </v>
   <v>      -0.45000000       0.45000000       0.05000000 </v>
   <v>      -0.35000000       0.45000000       0.05000000 </v>
   <v>      -0.25000000       0.45000000       0.05000000 </v>
   <v>      -0.15000000       0.45000000       0.05000000 </v>
   <v>      -0.05000000       0.45000000       0.05000000 </v>
   <v>      -0.45000000      -0.45000000       0.05000000 </v>
   <v>      -0.35000000      -0.45000000       0.05000000 </v>
   <v>      -0.25000000      -0.45000000       0.05000000 </v>
   <v>      -0.15000000      -0.45000000       0.05000000 </v>
   <v>      -0.35000000      -0.35000000       0.05000000 </v>
   <v>      -0.25000000      -0.35000000       0.05000000 </v>
   <v>      -0.15000000      -0.35000000       0.05000000 </v>
   <v>      -0.25000000      -0.25000000       0.05000000 </v>
   <v>      -0.15000000      -0.25000000       0.05000000 </v>
   <v>      -0.15000000      -0.15000000       0.05000000 </v>
   <v>       0.15000000       0.15000000       0.15000000 </v>
   <v>       0.25000000       0.15000000       0.15000000 </v>
   <v>       0.35000000       0.15000000       0.15000000 </v>
   <v>       0.45000000       0.15000000       0.15000000 </v>
   <v>      -0.45000000       0.15000000       0.15000000 </v>
   <v>      -0.35000000       0.15000000       0.15000000 </v>
   <v>      -0.25000000       0.15000000       0.15000000 </v>
   <v>      -0.15000000       0.15000000       0.15000000 </v>
   <v>       0.25000000       0.25000000       0.15000000 </v>
   <v>       0.35000000       0.25000000       0.15000000 </v>
   <v>       0.45000000       0.25000000       0.15000000 </v>
   <v>      -0.45000000       0.25000000       0.15000000 </v>
   <v>      -0.35000000       0.25000000       0.15000000 </v>
   <v>      -0.25000000       0.25000000       0.15000000 </v>
   <v>      -0.15000000       0.25000000       0.15000000 </v>
   <v>       0.35000000       0.35000000       0.15000000 </v>
   <v>       0.45000000       0.35000000       0.15000000 </v>
   <v>      -0.45000000       0.35000000       0.15000000 </v>
   <v>      -0.35000000       0.35000000       0.15000000 </v>
   <v>      -0.25000000       0.35000000       0.15000000 </v>
   <v>      -0.15000000       0.35000000       0.15000000 </v>
   <v>       0.45000000       0.45000000       0.15000000 </v>
   <v>      -0.45000000       0.45000000       0.15000000 </v>
   <v>      -0.35000000       0.45000000       0.15000000 </v>
   <v>      -0.25000000       0.45000000       0.15000000 </v>
   <v>      -0.15000000       0.45000000       0.15000000 </v>
   <v>      -0.45000000      -0.45000000       0.15000000 </v>
   <v>      -0.35000000      -0.45000000       0.15000000 </v>
   <v>      -0.25000000      -0.45000000       0.15000000 </v>
   <v>      -0.35000000      -0.35000000       0.15000000 </v>
   <v>      -0.25000000      -0.35000000       0.15000000 </v>
   <v>      -0.25000000      -0.25000000       0.15000000 </v>
   <v>       0.25000000       0.25000000       0.25000000 </v>
   <v>       0.35000000       0.25000000       0.25000000 </v>
   <v>       0.45000000       0.25000000       0.25000000 </v>
   <v>      -0.45000000       0.25000000       0.25000000 </v>
   <v>      -0.35000000       0.25000000       0.25000000 </v>
   <v>      -0.25000000       0.25000000       0.25000000 </v>
   <v>       0.35000000       0.35000000       0.25000000 </v>
   <v>       0.45000000       0.35000000       0.25000000 </v>
   <v>      -0.45000000       0.35000000       0.25000000 </v>
   <v>      -0.35000000       0.35000000       0.25000000 </v>
   <v>      -0.25000000       0.35000000       0.25000000 </v>
   <v>       0.45000000       0.45000000       0.25000000 </v>
   <v>      -0.45000000       0.45000000       0.25000000 </v>
   <v>      -0.35000000       0.45000000       0.25000000 </v>
   <v>      -0.25000000       0.45000000       0.25000000 </v>
   <v>      -0.45000000      -0.45000000       0.25000000 </v>
   <v>      -0.35000000      -0.45000000       0.25000000 </v>
   <v>      -0.35000000      -0.35000000       0.25000000 </v>
   <v>       0.35000000       0.35000000       0.35000000 </v>
   <v>       0.45000000       0.35000000       0.35000000 </v>
   <v>      -0.45000000       0.35000000       0.35000000 </v>
   <v>      -0.35000000       0.35000000       0.35000000 </v>
   <v>       0.45000000       0.45000000       0.35000000 </v>
   <v>      -0.45000000       0.45000000       0.35000000 </v>
   <v>      -0.35000000       0.45000000       0.35000000 </v>
   <v>      -0.45000000      -0.45000000       0.35000000 </v>
   <v>       0.45000000       0.45000000       0.45000000 </v>
   <v>      -0.45000000       0.45000000       0.45000000 </v>
  </varray>
  <varray name="weights" >
   <v>       0.00200000 </v>
   <v>       0.00600000 </v>
   <v>       0.00600000 </v>
   <v>       0.00600000 </v>
   <v>       0.00600000 </v>
   <v>       0.00600000 </v>
   <v>       0.00600000 </v>
   <v>       0.00600000 </v>
   <v>       0.00600000 </v>
   <v>       0.00600000 </v>
   <v>       0.00600000 </v>
   <v>       0.01200000 </v>
   <v>       0.01200000 </v>
   <v>       0.01200000 </v>
   <v>       0.01200000 </v>
   <v>       0.01200000 </v>
   <v>       0.01200000 </v>
   <v>       0.01200000 </v>
   <v>       0.01200000 </v>
   <v>       0.00600000 </v>
   <v>       0.01200000 </v>
   <v>       0.01200000 </v>
   <v>       0.01200000 </v>
   <v>       0.01200000 </v>
   <v>       0.01200000 </v>
   <v>       0.01200000 </v>
   <v>       0.01200000 </v>
   <v>       0.00600000 </v>
   <v>       0.01200000 </v>
   <v>       0.01200000 </v>
   <v>       0.01200000 </v>
   <v>       0.01200000 </v>
   <v>       0.01200000 </v>
   <v>       0.01200000 </v>
   <v>       0.00600000 </v>
   <v>       0.01200000 </v>
   <v>       0.01200000 </v>
   <v>       0.01200000 </v>
   <v>       0.01200000 </v>
   <v>       0.01200000 </v>
   <v>       0.00600000 </v>
   <v>       0.01200000 </v>
   <v>       0.01200000 </v>
   <v>       0.01200000 </v>
   <v>       0.00600000 </v>
   <v>       0.01200000 </v>
   <v>       0.01200000 </v>
   <v>       0.00600000 </v>
   <v>       0.01200000 </v>
   <v>       0.00600000 </v>
   <v>       0.00200000 </v>
   <v>       0.00600000 </v>
   <v>       0.00600000 </v>
   <v>       0.00600000 </v>
   <v>       0.00600000 </v>
   <v>       0.00600000 </v>
   <v>       0.00600000 </v>
   <v>       0.00600000 </v>
   <v>       0.00600000 </v>
   <v>       0.01200000 </v>
   <v>       0.01200000 </v>
   <v>       0.01200000 </v>
   <v>       0.01200000 </v>
   <v>       0.01200000 </v>
   <v>       0.01200000 </v>
   <v>       0.00600000 </v>
   <v>       0.01200000 </v>
   <v>       0.01200000 </v>
   <v>       0.01200000 </v>
   <v>       0.01200000 </v>
   <v>       0.01200000 </v>
   <v>       0.00600000 </v>
   <v>       0.01200000 </v>
   <v>       0.01200000 </v>
   <v>       0.01200000 </v>
   <v>       0.01200000 </v>
   <v>       0.00600000 </v>
   <v>       0.01200000 </v>
   <v>       0.01200000 </v>
   <v>       0.00600000 </v>
   <v>       0.01200000 </v>
   <v>       0.00600000 </v>
   <v>       0.00200000 </v>
   <v>       0.00600000 </v>
   <v>       0.00600000 </v>
   <v>       0.00600000 </v>
   <v>       0.00600000 </v>
   <v>       0.00600000 </v>
   <v>       0.00600000 </v>
   <v>       0.01200000 </v>
   <v>       0.01200000 </v>
   <v>       0.01200000 </v>
   <v>       0.01200000 </v>
   <v>       0.00600000 </v>
   <v>       0.01200000 </v>
   <v>       0.01200000 </v>
   <v>       0.01200000 </v>
   <v>       0.00600000 </v>
   <v>       0.01200000 </v>
   <v>       0.00600000 </v>
   <v>       0.00200000 </v>
   <v>       0.00600000 </v>
   <v>       0.00600000 </v>
   <v>       0.00600000 </v>
   <v>       0.00600000 </v>
   <v>       0.01200000 </v>
   <v>       0.01200000 </v>
   <v>       0.00600000 </v>
   <v>       0.00200000 </v>
   <v>       0.00600000 </v>
  </varray>
 </kpoints>
 <parameters>
  <separator name="general" >
   <i type="string" name="SYSTEM">FCC Au</i>
   <i type="logical" name="LCOMPAT"> F  </i>
  </separator>
  <separator name="electronic" >
   <i type="string" name="PREC">normal</i>
   <i name="ENMAX">    230.00000000</i>
   <i name="ENAUG">    356.67000000</i>
   <i name="EDIFF">      0.00010000</i>
   <i type="int" name="IALGO">    38</i>
   <i type="int" name="IWAVPR">    10</i>
   <i type="int" name="NBANDS">    12</i>
   <i name="NELECT">     11.00000000</i>
   <i type="int" name="TURBO">     0</i>
   <i type="int" name="IRESTART">     0</i>
   <i type="int" name="NREBOOT">     0</i>
   <i type="int" name="NMIN">     0</i>
   <i name="EREF">      0.00000000</i>
   <separator name="electronic smearing" >
    <i type="int" name="ISMEAR">     1</i>
    <i name="SIGMA">      0.20000000</i>
    <i name="KSPACING">      0.50000000</i>
    <i type="logical" name="KGAMMA"> T  </i>
   </separator>
   <separator name="electronic projectors" >
    <i type="logical" name="LREAL"> F  </i>
    <v name="ROPT">      0.00000000</v>
    <i type="int" name="LMAXPAW">  -100</i>
    <i type="int" name="LMAXMIX">     2</i>
    <i type="logical" name="NLSPLINE"> F  </i>
   </separator>
   <separator name="electronic startup" >
    <i type="int" name="ISTART">     1</i>
    <i type="int" name="ICHARG">     0</i>
    <i type="int" name="INIWAV">     1</i>
   </separator>
   <separator name="electronic spin" >
    <i type="int" name="ISPIN">     1</i>
    <i type="logical" name="LNONCOLLINEAR"> F  </i>
    <v name="MAGMOM">      1.00000000</v>
    <i name="NUPDOWN">     -1.00000000</i>
    <i type="logical" name="LSORBIT"> F  </i>
    <v name="SAXIS">      0.00000000      0.00000000      1.00000000</v>
    <i type="logical" name="LSPIRAL"> F  </i>
    <v name="QSPIRAL">      0.00000000      0.00000000      0.00000000</v>
    <i type="logical" name="LZEROZ"> F  </i>
   </separator>
   <separator name="electronic exchange-correlation" >
    <i type="logical" name="LASPH"> F  </i>
    <i type="logical" name="LMETAGGA"> F  </i>
   </separator>
   <separator name="electronic convergence" >
    <i type="int" name="NELM">    60</i>
    <i type="int" name="NELMDL">     0</i>
    <i type="int" name="NELMIN">     2</i>
    <i name="ENINI">    230.00000000</i>
    <separator name="electronic convergence detail" >
     <i type="logical" name="LDIAG"> T  </i>
     <i type="logical" name="LSUBROT"> F  </i>
     <i name="WEIMIN">      0.00000000</i>
     <i name="EBREAK">      0.00000208</i>
     <i name="DEPER">      0.30000000</i>
     <i type="int" name="NRMM">     4</i>
     <i name="TIME">      0.40000000</i>
    </separator>
   </separator>
   <separator name="electronic mixer" >
    <i name="AMIX">      0.40000000</i>
    <i name="BMIX">      1.00000000</i>
    <i name="AMIN">      0.10000000</i>
    <i name="AMIX_MAG">      1.60000000</i>
    <i name="BMIX_MAG">      1.00000000</i>
    <separator name="electronic mixer details" >
     <i type="int" name="IMIX">     4</i>
     <i type="logical" name="MIXFIRST"> F  </i>
     <i type="int" name="MAXMIX">   -45</i>
     <i name="WC">    100.00000000</i>
     <i type="int" name="INIMIX">     1</i>
     <i type="int" name="MIXPRE">     1</i>
     <i type="int" name="MREMOVE">     5</i>
    </separator>
   </separator>
   <separator name="electronic dipolcorrection" >
    <i type="logical" name="LDIPOL"> F  </i>
    <i type="logical" name="LMONO"> F  </i>
    <i type="int" name="IDIPOL">     0</i>
    <i name="EPSILON">      1.00000000</i>
    <v name="DIPOL">   -100.00000000   -100.00000000   -100.00000000</v>
    <i name="EFIELD">      0.00000000</i>
   </separator>
  </separator>
  <separator name="grids" >
   <i type="int" name="NGX">    12</i>
   <i type="int" name="NGY">    12</i>
   <i type="int" name="NGZ">    12</i>
   <i type="int" name="NGXF">    24</i>
   <i type="int" name="NGYF">    24</i>
   <i type="int" name="NGZF">    24</i>
   <i type="logical" name="ADDGRID"> F  </i>
  </separator>
  <separator name="ionic" >
   <i type="int" name="NSW">     0</i>
   <i type="int" name="IBRION">    -1</i>
   <i type="int" name="MDALGO">     0</i>
   <i type="int" name="ISIF">     2</i>
   <i name="PSTRESS">      0.00000000</i>
   <i name="EDIFFG">      0.00100000</i>
   <i type="int" name="NFREE">     0</i>
   <i name="POTIM">      0.50000000</i>
   <i name="SMASS">     -3.00000000</i>
   <i name="SCALEE">      1.00000000</i>
  </separator>
  <separator name="ionic md" >
   <i name="TEBEG">      0.00010000</i>
   <i name="TEEND">      0.00010000</i>
   <i type="int" name="NBLOCK">     1</i>
   <i type="int" name="KBLOCK">     1</i>
   <i type="int" name="NPACO">   256</i>
   <i name="APACO">     16.00000000</i>
  </separator>
  <separator name="symmetry" >
   <i type="int" name="ISYM">     2</i>
   <i name="SYMPREC">      0.00001000</i>
  </separator>
  <separator name="dos" >
   <i type="int" name="LORBIT">     0</i>
   <v name="RWIGS">     -1.00000000</v>
   <i type="int" name="NEDOS">   301</i>
   <i name="EMIN">     10.00000000</i>
   <i name="EMAX">    -10.00000000</i>
   <i name="EFERMI">      0.00000000</i>
  </separator>
  <separator name="writing" >
   <i type="int" name="NWRITE">     2</i>
   <i type="logical" name="LWAVE"> T  </i>
   <i type="logical" name="LDOWNSAMPLE"> F  </i>
   <i type="logical" name="LCHARG"> T  </i>
   <i type="logical" name="LPARD"> F  </i>
   <i type="logical" name="LVTOT"> F  </i>
   <i type="logical" name="LVHAR"> F  </i>
   <i type="logical" name="LELF"> F  </i>
   <i type="logical" name="LOPTICS"> F  </i>
   <v name="STM">      0.00000000      0.00000000      0.00000000      0.00000000      0.00000000      0.00000000      0.00000000</v>
  </separator>
  <separator name="performance" >
   <i type="int" name="NPAR">     4</i>
   <i type="int" name="NSIM">     4</i>
   <i type="int" name="NBLK">    -1</i>
   <i type="logical" name="LPLANE"> T  </i>
   <i type="logical" name="LSCALAPACK"> T  </i>
   <i type="logical" name="LSCAAWARE"> F  </i>
   <i type="logical" name="LSCALU"> F  </i>
   <i type="logical" name="LASYNC"> F  </i>
   <i type="logical" name="LORBITALREAL"> F  </i>
  </separator>
  <separator name="miscellaneous" >
   <i type="int" name="IDIOT">     3</i>
   <i type="int" name="ISPECIAL">     0</i>
   <i type="logical" name="LMUSIC"> F  </i>
   <v name="POMASS">    196.96600000</v>
   <v name="DARWINR">      0.00000000</v>
   <v name="DARWINV">      1.00000000</v>
   <i type="logical" name="LCORR"> T  </i>
  </separator>
  <i type="logical" name="GGA_COMPAT"> T  </i>
  <i type="logical" name="LBERRY"> F  </i>
  <i type="int" name="ICORELEVEL">     0</i>
  <i type="logical" name="LDAU"> F  </i>
  <i type="int" name="I_CONSTRAINED_M">     0</i>
  <separator name="electronic exchange-correlation" >
   <i type="string" name="GGA">--</i>
   <i type="int" name="VOSKOWN">     0</i>
   <i type="logical" name="LHFCALC"> F  </i>
   <i type="string" name="PRECFOCK"></i>
   <i type="logical" name="LSYMGRAD"> F  </i>
   <i type="logical" name="LHFONE"> F  </i>
   <i type="logical" name="LRHFCALC"> F  </i>
   <i type="logical" name="LTHOMAS"> F  </i>
   <i type="logical" name="LMODELHF"> F  </i>
   <i name="ENCUT4O">     -1.00000000</i>
   <i type="int" name="EXXOEP">     0</i>
   <i type="int" name="FOURORBIT">     0</i>
   <i name="AEXX">      0.00000000</i>
   <i name="HFALPHA">      0.00000000</i>
   <i name="MCALPHA">      0.00000000</i>
   <i name="ALDAX">      1.00000000</i>
   <i name="AGGAX">      1.00000000</i>
   <i name="ALDAC">      1.00000000</i>
   <i name="AGGAC">      1.00000000</i>
   <i type="int" name="NKREDX">     1</i>
   <i type="int" name="NKREDY">     1</i>
   <i type="int" name="NKREDZ">     1</i>
   <i type="logical" name="SHIFTRED"> F  </i>
   <i type="logical" name="ODDONLY"> F  </i>
   <i type="logical" name="EVENONLY"> F  </i>
   <i type="int" name="LMAXFOCK">     0</i>
   <i type="int" name="NMAXFOCKAE">     0</i>
   <i type="logical" name="LFOCKAEDFT"> F  </i>
   <i name="HFSCREEN">      0.00000000</i>
   <i name="HFSCREENC">      0.00000000</i>
   <i type="int" name="NBANDSGWLOW">     0</i>
  </separator>
  <separator name="vdW DFT" >
   <i type="logical" name="LUSE_VDW"> F  </i>
   <i name="Zab_VDW">     -0.84910000</i>
   <i name="PARAM1">      0.12340000</i>
   <i name="PARAM2">      1.00000000</i>
   <i name="PARAM3">      0.00000000</i>
  </separator>
  <separator name="model GW" >
   <i type="int" name="MODEL_GW">     0</i>
   <i name="MODEL_EPS0">     10.33815000</i>
   <i name="MODEL_ALPHA">      1.00000000</i>
  </separator>
  <separator name="linear response parameters" >
   <i type="logical" name="LEPSILON"> F  </i>
   <i type="logical" name="LRPA"> F  </i>
   <i type="logical" name="LNABLA"> F  </i>
   <i type="logical" name="LVEL"> F  </i>
   <i type="int" name="KINTER">     0</i>
   <i name="CSHIFT">      0.10000000</i>
   <i name="OMEGAMAX">     -1.00000000</i>
   <i name="DEG_THRESHOLD">      0.00200000</i>
   <i name="RTIME">     -0.10000000</i>
   <i name="WPLASMAI">      0.00000000</i>
   <v name="DFIELD">      0.00000000      0.00000000      0.00000000</v>
   <v name="WPLASMA">      0.00000000      0.00000000      0.00000000      0.00000000      0.00000000      0.00000000      0.00000000      0.00000000      0.00000000</v>
  </separator>
  <separator name="orbital magnetization" >
   <i type="logical" name="NUCIND"> F  </i>
   <v name="MAGPOS">      0.00000000      0.00000000      0.00000000</v>
   <i type="logical" name="LNICSALL"> T  </i>
   <i type="logical" name="ORBITALMAG"> F  </i>
   <i type="logical" name="LMAGBLOCH"> F  </i>
   <i type="logical" name="LCHIMAG"> F  </i>
   <i type="logical" name="LGAUGE"> T  </i>
   <i type="int" name="MAGATOM">     0</i>
   <v name="MAGDIPOL">      0.00000000      0.00000000      0.00000000</v>
   <v name="AVECCONST">      0.00000000      0.00000000      0.00000000</v>
  </separator>
  <separator name="response functions" >
   <i type="logical" name="LADDER"> F  </i>
   <i type="logical" name="LRPAFORCE"> F  </i>
   <i type="logical" name="LFXC"> F  </i>
   <i type="logical" name="LHARTREE"> T  </i>
   <i type="int" name="IBSE">     0</i>
   <v type="int" name="KPOINT">    -1     0     0     0</v>
   <i type="logical" name="LTCTE"> F  </i>
   <i type="logical" name="LTETE"> F  </i>
   <i type="logical" name="LTRIPLET"> F  </i>
   <i type="logical" name="LFXCEPS"> F  </i>
   <i type="logical" name="LFXHEG"> F  </i>
   <i type="int" name="NATURALO">     2</i>
   <i type="logical" name="L2ORDER"> F  </i>
   <i type="logical" name="LMP2LT"> F  </i>
   <i type="logical" name="LUSEW"> F  </i>
   <i name="ENCUTGW">     -2.00000000</i>
   <i name="ENCUTGWSOFT">     -2.00000000</i>
   <i name="ENCUTLF">     -1.00000000</i>
   <i type="int" name="LMAXMP2">    -1</i>
   <i name="SCISSOR">      0.00000000</i>
   <i type="int" name="NOMEGA">     0</i>
   <i type="int" name="NOMEGAR">     0</i>
   <i type="int" name="NBANDSGW">    -1</i>
   <i type="int" name="NBANDSO">    -1</i>
   <i type="int" name="NBANDSV">    -1</i>
   <i type="int" name="NELM">     1</i>
   <i type="int" name="NELMHF">     1</i>
   <i type="int" name="DIM">     3</i>
   <i type="int" name="ANTIRES">     0</i>
   <i name="OMEGAMAX">    -30.00000000</i>
   <i name="OMEGAMIN">    -30.00000000</i>
   <i name="OMEGATL">   -200.00000000</i>
   <i type="int" name="OMEGAGRID">   140</i>
   <i name="CSHIFT">     -0.10000000</i>
   <i type="logical" name="SELFENERGY"> F  </i>
   <i type="logical" name="LSPECTRAL"> F  </i>
   <i type="logical" name="LSPECTRALGW"> F  </i>
   <i type="logical" name="LSINGLES"> F  </i>
   <i type="logical" name="LFERMIGW"> F  </i>
   <i type="logical" name="ODDONLYGW"> F  </i>
   <i type="logical" name="EVENONLYGW"> F  </i>
   <i type="int" name="NKREDLFX">     1</i>
   <i type="int" name="NKREDLFY">     1</i>
   <i type="int" name="NKREDLFZ">     1</i>
   <i type="int" name="MAXMEM">  2800</i>
   <i type="int" name="TELESCOPE">     0</i>
   <i type="int" name="TAUPAR">     1</i>
   <i type="int" name="OMEGAPAR">    -1</i>
   <i name="LAMBDA">      1.00000000</i>
  </separator>
  <separator name="External order field" >
   <i name="OFIELD_KAPPA">      0.00000000</i>
   <v name="OFIELD_K">      0.00000000      0.00000000      0.00000000</v>
   <i name="OFIELD_Q6_NEAR">      0.00000000</i>
   <i name="OFIELD_Q6_FAR">      0.00000000</i>
   <i name="OFIELD_A">      0.00000000</i>
  </separator>
 </parameters>
 <atominfo>
  <atoms>       1 </atoms>
  <types>       1 </types>
  <array name="atoms" >
   <dimension dim="1">ion</dimension>
   <field type="string">element</field>
   <field type="int">atomtype</field>
   <set>
    <rc><c>Au</c><c>   1</c></rc>
   </set>
  </array>
  <array name="atomtypes" >
   <dimension dim="1">type</dimension>
   <field type="int">atomspertype</field>
   <field type="string">element</field>
   <field>mass</field>
   <field>valence</field>
   <field type="string">pseudopotential</field>
   <set>
    <rc><c>   1</c><c>Au</c><c>    196.96600000</c><c>     11.00000000</c><c> PAW Au 04Feb1998                       </c></rc>
   </set>
  </array>
 </atominfo>
 <structure name="initialpos" >
  <crystal>
   <varray name="basis" >
    <v>       0.00000000       2.05000000       2.05000000 </v>
    <v>       2.05000000       0.00000000       2.05000000 </v>
    <v>       2.05000000       2.05000000       0.00000000 </v>
   </varray>
   <i name="volume">     17.23025000 </i>
   <varray name="rec_basis" >
    <v>      -0.24390244       0.24390244       0.24390244 </v>
    <v>       0.24390244      -0.24390244       0.24390244 </v>
    <v>       0.24390244       0.24390244      -0.24390244 </v>
   </varray>
  </crystal>
  <varray name="positions" >
   <v>       0.00000000       0.00000000       0.00000000 </v>
  </varray>
 </structure>
 <calculation>
  <scstep>
   <time name="dav">    0.31    0.93</time>
   <time name="total">    0.32    0.97</time>
   <energy>
    <i name="alphaZ">    106.66585453 </i>
    <i name="ewald">   -974.21287850 </i>
    <i name="hartreedc">   -105.78544910 </i>
    <i name="XCdc">     15.34896270 </i>
    <i name="pawpsdc">    743.64997831 </i>
    <i name="pawaedc">   -725.61892664 </i>
    <i name="eentropy">      0.00123458 </i>
    <i name="bandstr">      5.91190766 </i>
    <i name="atom">    929.39633208 </i>
    <i name="e_fr_energy">     -4.64298439 </i>
    <i name="e_wo_entrp">     -4.64421897 </i>
    <i name="e_0_energy">     -4.64339592 </i>
   </energy>
  </scstep>
  <scstep>
   <time name="dav">    0.30    0.92</time>
   <time name="total">    0.31    0.94</time>
   <energy>
    <i name="e_fr_energy">     -4.39248280 </i>
    <i name="e_wo_entrp">     -4.39327634 </i>
    <i name="e_0_energy">     -4.39274731 </i>
   </energy>
  </scstep>
  <scstep>
   <time name="dav">    0.31    0.93</time>
   <time name="total">    0.31    0.95</time>
   <energy>
    <i name="e_fr_energy">     -4.38499719 </i>
    <i name="e_wo_entrp">     -4.38586869 </i>
    <i name="e_0_energy">     -4.38528769 </i>
   </energy>
  </scstep>
  <scstep>
   <time name="dav">    0.30    0.91</time>
   <time name="total">    0.31    0.93</time>
   <energy>
    <i name="e_fr_energy">     -4.38514083 </i>
    <i name="e_wo_entrp">     -4.38601097 </i>
    <i name="e_0_energy">     -4.38543088 </i>
   </energy>
  </scstep>
  <scstep>
   <time name="dav">    0.23    0.69</time>
   <time name="total">    0.23    0.70</time>
   <energy>
    <i name="alphaZ">    106.66585453 </i>
    <i name="ewald">   -974.21287850 </i>
    <i name="hartreedc">   -113.06821717 </i>
    <i name="XCdc">     15.69448943 </i>
    <i name="pawpsdc">    750.57664764 </i>
    <i name="pawaedc">   -732.61389798 </i>
    <i name="eentropy">      0.00087286 </i>
    <i name="bandstr">     13.17566381 </i>
    <i name="atom">    929.39633208 </i>
    <i name="e_fr_energy">     -4.38513330 </i>
    <i name="e_wo_entrp">     -4.38600616 </i>
    <i name="e_0_energy">     -4.38542425 </i>
   </energy>
  </scstep>
  <structure>
   <crystal>
    <varray name="basis" >
     <v>       0.00000000       2.05000000       2.05000000 </v>
     <v>       2.05000000       0.00000000       2.05000000 </v>
     <v>       2.05000000       2.05000000       0.00000000 </v>
    </varray>
    <i name="volume">     17.23025000 </i>
    <varray name="rec_basis" >
     <v>      -0.24390244       0.24390244       0.24390244 </v>
     <v>       0.24390244      -0.24390244       0.24390244 </v>
     <v>       0.24390244       0.24390244      -0.24390244 </v>
    </varray>
   </crystal>
   <varray name="positions" >
    <v>       0.00000000       0.00000000       0.00000000 </v>
   </varray>
  </structure>
  <varray name="forces" >
   <v>      -0.00000000      -0.00000000       0.00000000 </v>
  </varray>
  <varray name="stress" >
   <v>     -86.30985304       0.00000000       0.00000000 </v>
   <v>      -0.00000000     -86.30985304       0.00000000 </v>
   <v>       0.00000000      -0.00000000     -86.30985304 </v>
  </varray>
  <energy>
   <i name="e_fr_energy">     -4.38513330 </i>
   <i name="e_wo_entrp">     -4.38542425 </i>
   <i name="e_0_energy">      0.00087286 </i>
  </energy>
  <time name="totalsc">    1.70    5.10</time>
  <eigenvalues>
   <array>
    <dimension dim="1">band</dimension>
    <dimension dim="2">kpoint</dimension>
    <dimension dim="3">spin</dimension>
    <field>eigene</field>
    <field>occ</field>
    <set>
     <set comment="spin 1">
      <set comment="kpoint 1">
       <r>   -4.3235    1.0000 </r>
       <r>    0.7232    1.0000 </r>
       <r>    0.7816    1.0000 </r>
       <r>    0.7816    1.0000 </r>
       <r>    2.2525    1.0000 </r>
       <r>    2.2525    1.0000 </r>
       <r>   20.8240    0.0000 </r>
       <r>   23.8229    0.0000 </r>
       <r>   24.5874    0.0000 </r>
       <r>   24.5874    0.0000 </r>
       <r>   29.3835    0.0000 </r>
       <r>   32.2657    0.0000 </r>
      </set>
      <set comment="kpoint 2">
       <r>   -3.8741    1.0000 </r>
       <r>    0.5743    1.0000 </r>
       <r>    0.9175    1.0000 </r>
       <r>    0.9487    1.0000 </r>
       <r>    2.1067    1.0000 </r>
       <r>    2.3012    1.0000 </r>
       <r>   21.0924    0.0000 </r>
       <r>   21.8874    0.0000 </r>
       <r>   24.1855    0.0000 </r>
       <r>   25.4946    0.0000 </r>
       <r>   28.7375    0.0000 </r>
       <r>   31.3577    0.0000 </r>
      </set>
      <set comment="kpoint 3">
       <r>   -2.8995    1.0000 </r>
       <r>    0.4621    1.0000 </r>
       <r>    1.0668    1.0000 </r>
       <r>    1.0879    1.0000 </r>
       <r>    2.1156    1.0000 </r>
       <r>    2.5085    1.0000 </r>
       <r>   17.9444    0.0000 </r>
       <r>   21.6980    0.0000 </r>
       <r>   24.3100    0.0000 </r>
       <r>   26.6748    0.0000 </r>
       <r>   26.8213    0.0000 </r>
       <r>   29.1728    0.0000 </r>
      </set>
      <set comment="kpoint 4">
       <r>   -2.0223    1.0000 </r>
       <r>    0.8920    1.0000 </r>
       <r>    0.9759    1.0000 </r>
       <r>    1.1260    1.0000 </r>
       <r>    2.5939    1.0000 </r>
       <r>    3.0673    1.0000 </r>
       <r>   13.9198    0.0000 </r>
       <r>   21.0348    0.0000 </r>
       <r>   23.3353    0.0000 </r>
       <r>   25.4963    0.0000 </r>
       <r>   27.9861    0.0000 </r>
       <r>   29.0337    0.0000 </r>
      </set>
      <set comment="kpoint 5">
       <r>   -1.8002    1.0000 </r>
       <r>    0.7438    1.0000 </r>
       <r>    0.8114    1.0000 </r>
       <r>    2.6101    1.0000 </r>
       <r>    3.1752    1.0000 </r>
       <r>    3.9511    1.0000 </r>
       <r>   10.1500   -0.0000 </r>
       <r>   20.2956    0.0000 </r>
       <r>   22.4258    0.0000 </r>
       <r>   23.5278    0.0000 </r>
       <r>   29.6961    0.0000 </r>
       <r>   29.9359    0.0000 </r>
      </set>
      <set comment="kpoint 6">
       <r>   -1.7941    1.0000 </r>
       <r>    0.6786    1.0000 </r>
       <r>    0.7729    1.0000 </r>
       <r>    2.9999    1.0000 </r>
       <r>    3.4517    1.0000 </r>
       <r>    4.8575    1.0013 </r>
       <r>    8.4806   -0.0000 </r>
       <r>   20.0931    0.0000 </r>
       <r>   22.4838    0.0000 </r>
       <r>   22.6074    0.0000 </r>
       <r>   30.1605    0.0000 </r>
       <r>   30.2311    0.0000 </r>
      </set>
      <set comment="kpoint 7">
       <r>   -1.8274    1.0000 </r>
       <r>    0.7734    1.0000 </r>
       <r>    0.8801    1.0000 </r>
       <r>    2.0546    1.0000 </r>
       <r>    3.2532    1.0000 </r>
       <r>    3.3954    1.0000 </r>
       <r>   11.3220    0.0000 </r>
       <r>   20.5300    0.0000 </r>
       <r>   22.8822    0.0000 </r>
       <r>   23.7018    0.0000 </r>
       <r>   29.6367    0.0000 </r>
       <r>   29.8117    0.0000 </r>
      </set>
      <set comment="kpoint 8">
       <r>   -2.2447    1.0000 </r>
       <r>    0.7108    1.0000 </r>
       <r>    0.9919    1.0000 </r>
       <r>    1.0495    1.0000 </r>
       <r>    2.5078    1.0000 </r>
       <r>    2.7635    1.0000 </r>
       <r>   15.2660    0.0000 </r>
       <r>   21.4145    0.0000 </r>
       <r>   23.8115    0.0000 </r>
       <r>   25.6315    0.0000 </r>
       <r>   27.6481    0.0000 </r>
       <r>   29.4736    0.0000 </r>
      </set>
      <set comment="kpoint 9">
       <r>   -3.2582    1.0000 </r>
       <r>    0.4504    1.0000 </r>
       <r>    1.0584    1.0000 </r>
       <r>    1.0712    1.0000 </r>
       <r>    2.0727    1.0000 </r>
       <r>    2.3890    1.0000 </r>
       <r>   19.2350    0.0000 </r>
       <r>   21.8187    0.0000 </r>
       <r>   24.3211    0.0000 </r>
       <r>   25.9197    0.0000 </r>
       <r>   27.4626    0.0000 </r>
       <r>   30.0945    0.0000 </r>
      </set>
      <set comment="kpoint 10">
       <r>   -4.0950    1.0000 </r>
       <r>    0.6179    1.0000 </r>
       <r>    0.8746    1.0000 </r>
       <r>    0.8801    1.0000 </r>
       <r>    2.1289    1.0000 </r>
       <r>    2.3087    1.0000 </r>
       <r>   21.0481    0.0000 </r>
       <r>   22.9077    0.0000 </r>
       <r>   24.3054    0.0000 </r>
       <r>   24.6974    0.0000 </r>
       <r>   29.9007    0.0000 </r>
       <r>   31.5265    0.0000 </r>
      </set>
      <set comment="kpoint 11">
       <r>   -3.6510    1.0000 </r>
       <r>    0.4082    1.0000 </r>
       <r>    1.0703    1.0000 </r>
       <r>    1.0740    1.0000 </r>
       <r>    1.9170    1.0000 </r>
       <r>    2.4168    1.0000 </r>
       <r>   21.3834    0.0000 </r>
       <r>   22.0528    0.0000 </r>
       <r>   23.6083    0.0000 </r>
       <r>   24.2726    0.0000 </r>
       <r>   29.0375    0.0000 </r>
       <r>   30.8445    0.0000 </r>
      </set>
      <set comment="kpoint 12">
       <r>   -2.8415    1.0000 </r>
       <r>    0.1687    1.0000 </r>
       <r>    1.1681    1.0000 </r>
       <r>    1.3458    1.0000 </r>
       <r>    1.8674    1.0000 </r>
       <r>    2.6305    1.0000 </r>
       <r>   19.4857    0.0000 </r>
       <r>   21.3039    0.0000 </r>
       <r>   23.2840    0.0000 </r>
       <r>   24.5233    0.0000 </r>
       <r>   27.0043    0.0000 </r>
       <r>   30.0343    0.0000 </r>
      </set>
      <set comment="kpoint 13">
       <r>   -1.8436    1.0000 </r>
       <r>    0.2543    1.0000 </r>
       <r>    0.8751    1.0000 </r>
       <r>    1.3560    1.0000 </r>
       <r>    2.5126    1.0000 </r>
       <r>    3.1986    1.0000 </r>
       <r>   15.4951    0.0000 </r>
       <r>   20.7466    0.0000 </r>
       <r>   22.2301    0.0000 </r>
       <r>   24.2962    0.0000 </r>
       <r>   27.9066    0.0000 </r>
       <r>   29.7593    0.0000 </r>
      </set>
      <set comment="kpoint 14">
       <r>   -1.4581    1.0000 </r>
       <r>    0.5817    1.0000 </r>
       <r>    1.1081    1.0000 </r>
       <r>    1.2629    1.0000 </r>
       <r>    3.2395    1.0000 </r>
       <r>    4.3703    1.0000 </r>
       <r>   11.5247    0.0000 </r>
       <r>   20.2988    0.0000 </r>
       <r>   20.9334    0.0000 </r>
       <r>   23.0158    0.0000 </r>
       <r>   29.7551    0.0000 </r>
       <r>   30.8209    0.0000 </r>
      </set>
      <set comment="kpoint 15">
       <r>   -1.4342    1.0000 </r>
       <r>    0.4565    1.0000 </r>
       <r>    1.0650    1.0000 </r>
       <r>    1.9900    1.0000 </r>
       <r>    3.4072    1.0000 </r>
       <r>    6.2595   -0.0000 </r>
       <r>    8.4747   -0.0000 </r>
       <r>   19.8480    0.0000 </r>
       <r>   20.5719    0.0000 </r>
       <r>   22.3008    0.0000 </r>
       <r>   30.1694    0.0000 </r>
       <r>   31.2416    0.0000 </r>
      </set>
      <set comment="kpoint 16">
       <r>   -1.4196    1.0000 </r>
       <r>    0.5346    1.0000 </r>
       <r>    1.0896    1.0000 </r>
       <r>    1.6703    1.0000 </r>
       <r>    3.0992    1.0000 </r>
       <r>    5.0699    1.0316 </r>
       <r>   10.3876   -0.0000 </r>
       <r>   19.4822    0.0000 </r>
       <r>   21.0858    0.0000 </r>
       <r>   23.1957    0.0000 </r>
       <r>   29.3858    0.0000 </r>
       <r>   30.8752    0.0000 </r>
      </set>
      <set comment="kpoint 17">
       <r>   -1.6039    1.0000 </r>
       <r>    0.5291    1.0000 </r>
       <r>    0.8309    1.0000 </r>
       <r>    1.2738    1.0000 </r>
       <r>    2.4256    1.0000 </r>
       <r>    3.7302    1.0000 </r>
       <r>   14.1649    0.0000 </r>
       <r>   19.7173    0.0000 </r>
       <r>   22.1939    0.0000 </r>
       <r>   25.1451    0.0000 </r>
       <r>   27.5984    0.0000 </r>
       <r>   29.9858    0.0000 </r>
      </set>
      <set comment="kpoint 18">
       <r>   -2.4904    1.0000 </r>
       <r>    0.2112    1.0000 </r>
       <r>    1.0660    1.0000 </r>
       <r>    1.3688    1.0000 </r>
       <r>    1.8605    1.0000 </r>
       <r>    2.8864    1.0000 </r>
       <r>   18.0841    0.0000 </r>
       <r>   20.3478    0.0000 </r>
       <r>   23.8703    0.0000 </r>
       <r>   24.8689    0.0000 </r>
       <r>   28.1652    0.0000 </r>
       <r>   28.8263    0.0000 </r>
      </set>
      <set comment="kpoint 19">
       <r>   -3.4453    1.0000 </r>
       <r>    0.4135    1.0000 </r>
       <r>    1.0736    1.0000 </r>
       <r>    1.0831    1.0000 </r>
       <r>    1.9554    1.0000 </r>
       <r>    2.4258    1.0000 </r>
       <r>   20.4945    0.0000 </r>
       <r>   21.5345    0.0000 </r>
       <r>   23.7477    0.0000 </r>
       <r>   25.5688    0.0000 </r>
       <r>   27.8253    0.0000 </r>
       <r>   30.7771    0.0000 </r>
      </set>
      <set comment="kpoint 20">
       <r>   -2.3001    1.0000 </r>
       <r>   -0.1784    1.0000 </r>
       <r>    1.3189    1.0000 </r>
       <r>    1.7191    1.0000 </r>
       <r>    1.9067    1.0000 </r>
       <r>    2.7530    1.0000 </r>
       <r>   19.9270    0.0000 </r>
       <r>   21.0377    0.0000 </r>
       <r>   22.2244    0.0000 </r>
       <r>   23.0794    0.0000 </r>
       <r>   24.0517    0.0000 </r>
       <r>   31.5684    0.0000 </r>
      </set>
      <set comment="kpoint 21">
       <r>   -1.5101    1.0000 </r>
       <r>   -0.3980    1.0000 </r>
       <r>    1.0674    1.0000 </r>
       <r>    2.0579    1.0000 </r>
       <r>    2.5508    1.0000 </r>
       <r>    3.2199    1.0000 </r>
       <r>   17.2039    0.0000 </r>
       <r>   19.1497    0.0000 </r>
       <r>   20.7879    0.0000 </r>
       <r>   23.4446    0.0000 </r>
       <r>   24.8277    0.0000 </r>
       <r>   31.6104    0.0000 </r>
      </set>
      <set comment="kpoint 22">
       <r>   -1.0474    1.0000 </r>
       <r>   -0.1421    1.0000 </r>
       <r>    0.8279    1.0000 </r>
       <r>    1.9304    1.0000 </r>
       <r>    3.3238    1.0000 </r>
       <r>    4.6373    1.0000 </r>
       <r>   13.1647    0.0000 </r>
       <r>   18.4598    0.0000 </r>
       <r>   19.0656    0.0000 </r>
       <r>   23.0984    0.0000 </r>
       <r>   28.0032    0.0000 </r>
       <r>   31.5237    0.0000 </r>
      </set>
      <set comment="kpoint 23">
       <r>   -0.9304    1.0000 </r>
       <r>    0.1167    1.0000 </r>
       <r>    1.0300    1.0000 </r>
       <r>    1.7371    1.0000 </r>
       <r>    3.4430    1.0000 </r>
       <r>    7.0640   -0.0000 </r>
       <r>    9.6140   -0.0000 </r>
       <r>   17.1774    0.0000 </r>
       <r>   19.1334    0.0000 </r>
       <r>   22.7253    0.0000 </r>
       <r>   30.6129    0.0000 </r>
       <r>   32.0946    0.0000 </r>
      </set>
      <set comment="kpoint 24">
       <r>   -0.7642    1.0000 </r>
       <r>    0.1797    1.0000 </r>
       <r>    1.0539    1.0000 </r>
       <r>    1.6351    1.0000 </r>
       <r>    3.0553    1.0000 </r>
       <r>    6.9044   -0.0000 </r>
       <r>   10.1291   -0.0000 </r>
       <r>   16.1065    0.0000 </r>
       <r>   20.3262    0.0000 </r>
       <r>   22.9054    0.0000 </r>
       <r>   29.8010    0.0000 </r>
       <r>   32.1390    0.0000 </r>
      </set>
      <set comment="kpoint 25">
       <r>   -0.6884    1.0000 </r>
       <r>    0.2491    1.0000 </r>
       <r>    0.5062    1.0000 </r>
       <r>    1.7139    1.0000 </r>
       <r>    2.3836    1.0000 </r>
       <r>    5.1172    1.0349 </r>
       <r>   13.4914    0.0000 </r>
       <r>   16.0158    0.0000 </r>
       <r>   21.6110    0.0000 </r>
       <r>   24.2789    0.0000 </r>
       <r>   27.6777    0.0000 </r>
       <r>   31.9276    0.0000 </r>
      </set>
      <set comment="kpoint 26">
       <r>   -1.4553    1.0000 </r>
       <r>    0.1355    1.0000 </r>
       <r>    0.8029    1.0000 </r>
       <r>    1.5921    1.0000 </r>
       <r>    1.9962    1.0000 </r>
       <r>    3.8167    1.0000 </r>
       <r>   15.6133    0.0000 </r>
       <r>   18.2417    0.0000 </r>
       <r>   22.6574    0.0000 </r>
       <r>   25.6696    0.0000 </r>
       <r>   26.6317    0.0000 </r>
       <r>   30.4948    0.0000 </r>
      </set>
      <set comment="kpoint 27">
       <r>   -2.4054    1.0000 </r>
       <r>    0.3882    1.0000 </r>
       <r>    1.0384    1.0000 </r>
       <r>    1.1832    1.0000 </r>
       <r>    2.1780    1.0000 </r>
       <r>    2.8157    1.0000 </r>
       <r>   16.7017    0.0000 </r>
       <r>   21.3716    0.0000 </r>
       <r>   23.3695    0.0000 </r>
       <r>   25.8033    0.0000 </r>
       <r>   27.4550    0.0000 </r>
       <r>   28.9886    0.0000 </r>
      </set>
      <set comment="kpoint 28">
       <r>   -1.3634    1.0000 </r>
       <r>   -0.7674    1.0000 </r>
       <r>    1.9354    1.0000 </r>
       <r>    2.5752    1.0000 </r>
       <r>    3.0036    1.0000 </r>
       <r>    3.1539    1.0000 </r>
       <r>   17.1288    0.0000 </r>
       <r>   18.1715    0.0000 </r>
       <r>   18.3770    0.0000 </r>
       <r>   22.3239    0.0000 </r>
       <r>   24.2320    0.0000 </r>
       <r>   34.0291    0.0000 </r>
      </set>
      <set comment="kpoint 29">
       <r>   -1.2153    1.0000 </r>
       <r>   -0.8736    1.0000 </r>
       <r>    1.9806    1.0000 </r>
       <r>    2.8683    1.0000 </r>
       <r>    3.3383    1.0000 </r>
       <r>    4.6969    1.0000 </r>
       <r>   14.3309    0.0000 </r>
       <r>   16.4736    0.0000 </r>
       <r>   17.1042    0.0000 </r>
       <r>   23.3218    0.0000 </r>
       <r>   25.2096    0.0000 </r>
       <r>   33.5792    0.0000 </r>
      </set>
      <set comment="kpoint 30">
       <r>   -1.0504    1.0000 </r>
       <r>   -0.5653    1.0000 </r>
       <r>    1.6321    1.0000 </r>
       <r>    2.5723    1.0000 </r>
       <r>    3.5371    1.0000 </r>
       <r>    7.2885   -0.0000 </r>
       <r>   11.1674    0.0000 </r>
       <r>   14.7203    0.0000 </r>
       <r>   17.2236    0.0000 </r>
       <r>   23.5439    0.0000 </r>
       <r>   27.9231    0.0000 </r>
       <r>   32.5736    0.0000 </r>
      </set>
      <set comment="kpoint 31">
       <r>   -0.7657    1.0000 </r>
       <r>   -0.0665    1.0000 </r>
       <r>    1.0986    1.0000 </r>
       <r>    2.2506    1.0000 </r>
       <r>    3.2232    1.0000 </r>
       <r>    8.4821   -0.0000 </r>
       <r>   10.6055   -0.0000 </r>
       <r>   13.0594    0.0000 </r>
       <r>   18.5319    0.0000 </r>
       <r>   23.3373    0.0000 </r>
       <r>   31.1379    0.0000 </r>
       <r>   31.4958    0.0000 </r>
      </set>
      <set comment="kpoint 32">
       <r>   -0.4922    1.0000 </r>
       <r>    0.2238    1.0000 </r>
       <r>    0.6156    1.0000 </r>
       <r>    1.9018    1.0000 </r>
       <r>    2.8202    1.0000 </r>
       <r>    6.7275   -0.0000 </r>
       <r>   11.9722    0.0000 </r>
       <r>   14.0610    0.0000 </r>
       <r>   20.3135    0.0000 </r>
       <r>   23.2626    0.0000 </r>
       <r>   29.5161    0.0000 </r>
       <r>   32.4014    0.0000 </r>
      </set>
      <set comment="kpoint 33">
       <r>   -1.0683    1.0000 </r>
       <r>    0.4380    1.0000 </r>
       <r>    0.9291    1.0000 </r>
       <r>    1.4159    1.0000 </r>
       <r>    2.7382    1.0000 </r>
       <r>    5.1078    1.0354 </r>
       <r>   11.9070    0.0000 </r>
       <r>   17.7555    0.0000 </r>
       <r>   21.3728    0.0000 </r>
       <r>   23.7629    0.0000 </r>
       <r>   28.4549    0.0000 </r>
       <r>   31.3619    0.0000 </r>
      </set>
      <set comment="kpoint 34">
       <r>   -1.7537    1.0000 </r>
       <r>    0.7765    1.0000 </r>
       <r>    1.0177    1.0000 </r>
       <r>    1.2763    1.0000 </r>
       <r>    2.8674    1.0000 </r>
       <r>    3.5608    1.0000 </r>
       <r>   12.6727    0.0000 </r>
       <r>   20.6969    0.0000 </r>
       <r>   22.1777    0.0000 </r>
       <r>   24.3796    0.0000 </r>
       <r>   28.8163    0.0000 </r>
       <r>   29.7338    0.0000 </r>
      </set>
      <set comment="kpoint 35">
       <r>   -1.4697    1.0000 </r>
       <r>   -1.1568    1.0000 </r>
       <r>    3.2390    1.0000 </r>
       <r>    3.2494    1.0000 </r>
       <r>    3.5647    1.0000 </r>
       <r>    5.2127    0.9565 </r>
       <r>   12.9132    0.0000 </r>
       <r>   15.7932    0.0000 </r>
       <r>   16.1314    0.0000 </r>
       <r>   22.6270    0.0000 </r>
       <r>   24.9532    0.0000 </r>
       <r>   34.9072    0.0000 </r>
      </set>
      <set comment="kpoint 36">
       <r>   -1.3970    1.0000 </r>
       <r>   -1.1074    1.0000 </r>
       <r>    2.8791    1.0000 </r>
       <r>    3.1953    1.0000 </r>
       <r>    3.7118    1.0000 </r>
       <r>    7.2163   -0.0000 </r>
       <r>   11.0539    0.0000 </r>
       <r>   14.7588    0.0000 </r>
       <r>   15.7264    0.0000 </r>
       <r>   23.5483    0.0000 </r>
       <r>   25.5219    0.0000 </r>
       <r>   34.0423    0.0000 </r>
      </set>
      <set comment="kpoint 37">
       <r>   -1.1025    1.0000 </r>
       <r>   -0.6547    1.0000 </r>
       <r>    1.9159    1.0000 </r>
       <r>    2.7369    1.0000 </r>
       <r>    3.5357    1.0000 </r>
       <r>    8.7227   -0.0000 </r>
       <r>   10.2643   -0.0000 </r>
       <r>   13.4273    0.0000 </r>
       <r>   16.8806    0.0000 </r>
       <r>   23.7175    0.0000 </r>
       <r>   27.9218    0.0000 </r>
       <r>   32.7534    0.0000 </r>
      </set>
      <set comment="kpoint 38">
       <r>   -0.8002    1.0000 </r>
       <r>   -0.0196    1.0000 </r>
       <r>    1.0565    1.0000 </r>
       <r>    2.0337    1.0000 </r>
       <r>    3.3452    1.0000 </r>
       <r>    8.5415   -0.0000 </r>
       <r>    9.1577   -0.0000 </r>
       <r>   15.0500    0.0000 </r>
       <r>   18.7319    0.0000 </r>
       <r>   23.0833    0.0000 </r>
       <r>   30.8478    0.0000 </r>
       <r>   31.8313    0.0000 </r>
      </set>
      <set comment="kpoint 39">
       <r>   -1.1190    1.0000 </r>
       <r>    0.2894    1.0000 </r>
       <r>    1.3242    1.0000 </r>
       <r>    1.5311    1.0000 </r>
       <r>    3.2848    1.0000 </r>
       <r>    7.0632   -0.0000 </r>
       <r>    8.6381   -0.0000 </r>
       <r>   18.1400    0.0000 </r>
       <r>   20.3665    0.0000 </r>
       <r>   22.4648    0.0000 </r>
       <r>   30.0904    0.0000 </r>
       <r>   31.7358    0.0000 </r>
      </set>
      <set comment="kpoint 40">
       <r>   -1.6672    1.0000 </r>
       <r>    0.6223    1.0000 </r>
       <r>    0.8871    1.0000 </r>
       <r>    2.4030    1.0000 </r>
       <r>    3.3628    1.0000 </r>
       <r>    4.9816    1.0127 </r>
       <r>    9.1777   -0.0000 </r>
       <r>   20.2013    0.0000 </r>
       <r>   21.6191    0.0000 </r>
       <r>   22.7672    0.0000 </r>
       <r>   30.0159    0.0000 </r>
       <r>   30.5360    0.0000 </r>
      </set>
      <set comment="kpoint 41">
       <r>   -1.5425    1.0000 </r>
       <r>   -1.2396    1.0000 </r>
       <r>    3.3525    1.0000 </r>
       <r>    3.5300    1.0000 </r>
       <r>    3.7266    1.0000 </r>
       <r>    6.4411   -0.0000 </r>
       <r>   11.2674    0.0000 </r>
       <r>   15.3005    0.0000 </r>
       <r>   15.6691    0.0000 </r>
       <r>   22.7466    0.0000 </r>
       <r>   25.1063    0.0000 </r>
       <r>   34.7149    0.0000 </r>
      </set>
      <set comment="kpoint 42">
       <r>   -1.3212    1.0000 </r>
       <r>   -1.0277    1.0000 </r>
       <r>    2.5257    1.0000 </r>
       <r>    3.1321    1.0000 </r>
       <r>    3.5583    1.0000 </r>
       <r>    5.9734   -0.0000 </r>
       <r>   12.5834    0.0000 </r>
       <r>   15.3367    0.0000 </r>
       <r>   16.1811    0.0000 </r>
       <r>   23.4510    0.0000 </r>
       <r>   25.4136    0.0000 </r>
       <r>   33.9721    0.0000 </r>
      </set>
      <set comment="kpoint 43">
       <r>   -0.9968    1.0000 </r>
       <r>   -0.3861    1.0000 </r>
       <r>    1.2068    1.0000 </r>
       <r>    2.2740    1.0000 </r>
       <r>    3.4856    1.0000 </r>
       <r>    5.8589   -0.0010 </r>
       <r>   12.1060    0.0000 </r>
       <r>   16.6063    0.0000 </r>
       <r>   17.9050    0.0000 </r>
       <r>   23.2814    0.0000 </r>
       <r>   27.9437    0.0000 </r>
       <r>   32.1656    0.0000 </r>
      </set>
      <set comment="kpoint 44">
       <r>   -1.1667    1.0000 </r>
       <r>    0.3388    1.0000 </r>
       <r>    1.0614    1.0000 </r>
       <r>    1.4508    1.0000 </r>
       <r>    3.4244    1.0000 </r>
       <r>    5.5837   -0.0349 </r>
       <r>   10.4896   -0.0000 </r>
       <r>   19.2335    0.0000 </r>
       <r>   19.7091    0.0000 </r>
       <r>   22.5370    0.0000 </r>
       <r>   30.2990    0.0000 </r>
       <r>   31.9208    0.0000 </r>
      </set>
      <set comment="kpoint 45">
       <r>   -1.3688    1.0000 </r>
       <r>   -0.9959    1.0000 </r>
       <r>    2.6973    1.0000 </r>
       <r>    2.9727    1.0000 </r>
       <r>    3.3551    1.0000 </r>
       <r>    3.9153    1.0000 </r>
       <r>   15.0842    0.0000 </r>
       <r>   16.7601    0.0000 </r>
       <r>   16.9962    0.0000 </r>
       <r>   22.4497    0.0000 </r>
       <r>   24.6571    0.0000 </r>
       <r>   34.9950    0.0000 </r>
      </set>
      <set comment="kpoint 46">
       <r>   -1.2058    1.0000 </r>
       <r>   -0.6578    1.0000 </r>
       <r>    1.3950    1.0000 </r>
       <r>    2.4752    1.0000 </r>
       <r>    3.0242    1.0000 </r>
       <r>    3.7559    1.0000 </r>
       <r>   15.8649    0.0000 </r>
       <r>   17.8286    0.0000 </r>
       <r>   18.7112    0.0000 </r>
       <r>   23.2898    0.0000 </r>
       <r>   24.9514    0.0000 </r>
       <r>   32.7066    0.0000 </r>
      </set>
      <set comment="kpoint 47">
       <r>   -1.3367    1.0000 </r>
       <r>    0.0874    1.0000 </r>
       <r>    0.7162    1.0000 </r>
       <r>    1.6104    1.0000 </r>
       <r>    2.9874    1.0000 </r>
       <r>    3.7431    1.0000 </r>
       <r>   14.3097    0.0000 </r>
       <r>   19.7218    0.0000 </r>
       <r>   20.8452    0.0000 </r>
       <r>   23.2728    0.0000 </r>
       <r>   28.0435    0.0000 </r>
       <r>   30.6937    0.0000 </r>
      </set>
      <set comment="kpoint 48">
       <r>   -1.6639    1.0000 </r>
       <r>   -0.4875    1.0000 </r>
       <r>    1.4034    1.0000 </r>
       <r>    2.1363    1.0000 </r>
       <r>    2.3799    1.0000 </r>
       <r>    2.9503    1.0000 </r>
       <r>   18.6580    0.0000 </r>
       <r>   19.5563    0.0000 </r>
       <r>   20.7064    0.0000 </r>
       <r>   22.4275    0.0000 </r>
       <r>   23.7285    0.0000 </r>
       <r>   32.6749    0.0000 </r>
      </set>
      <set comment="kpoint 49">
       <r>   -2.1387    1.0000 </r>
       <r>   -0.1133    1.0000 </r>
       <r>    1.0887    1.0000 </r>
       <r>    1.6753    1.0000 </r>
       <r>    2.0948    1.0000 </r>
       <r>    2.8918    1.0000 </r>
       <r>   18.4048    0.0000 </r>
       <r>   20.4101    0.0000 </r>
       <r>   22.5931    0.0000 </r>
       <r>   23.6660    0.0000 </r>
       <r>   25.4960    0.0000 </r>
       <r>   30.5912    0.0000 </r>
      </set>
      <set comment="kpoint 50">
       <r>   -3.0254    1.0000 </r>
       <r>    0.1314    1.0000 </r>
       <r>    1.3069    1.0000 </r>
       <r>    1.3575    1.0000 </r>
       <r>    1.7213    1.0000 </r>
       <r>    2.5701    1.0000 </r>
       <r>   20.9311    0.0000 </r>
       <r>   22.1178    0.0000 </r>
       <r>   22.4581    0.0000 </r>
       <r>   23.5096    0.0000 </r>
       <r>   26.6490    0.0000 </r>
       <r>   30.8985    0.0000 </r>
      </set>
      <set comment="kpoint 51">
       <r>   -3.6642    1.0000 </r>
       <r>    0.5602    1.0000 </r>
       <r>    0.9659    1.0000 </r>
       <r>    0.9659    1.0000 </r>
       <r>    2.2036    1.0000 </r>
       <r>    2.2036    1.0000 </r>
       <r>   20.3479    0.0000 </r>
       <r>   21.7102    0.0000 </r>
       <r>   25.1575    0.0000 </r>
       <r>   25.1575    0.0000 </r>
       <r>   28.3500    0.0000 </r>
       <r>   30.6915    0.0000 </r>
      </set>
      <set comment="kpoint 52">
       <r>   -3.0476    1.0000 </r>
       <r>    0.3598    1.0000 </r>
       <r>    1.0916    1.0000 </r>
       <r>    1.1679    1.0000 </r>
       <r>    1.9006    1.0000 </r>
       <r>    2.5810    1.0000 </r>
       <r>   19.2657    0.0000 </r>
       <r>   21.0797    0.0000 </r>
       <r>   23.9133    0.0000 </r>
       <r>   26.0660    0.0000 </r>
       <r>   27.1881    0.0000 </r>
       <r>   30.0673    0.0000 </r>
      </set>
      <set comment="kpoint 53">
       <r>   -2.0080    1.0000 </r>
       <r>    0.2074    1.0000 </r>
       <r>    0.9894    1.0000 </r>
       <r>    1.4448    1.0000 </r>
       <r>    1.8152    1.0000 </r>
       <r>    3.3043    1.0000 </r>
       <r>   16.7952    0.0000 </r>
       <r>   19.3293    0.0000 </r>
       <r>   23.5846    0.0000 </r>
       <r>   25.3494    0.0000 </r>
       <r>   27.5120    0.0000 </r>
       <r>   29.5209    0.0000 </r>
      </set>
      <set comment="kpoint 54">
       <r>   -1.3414    1.0000 </r>
       <r>    0.5804    1.0000 </r>
       <r>    0.9521    1.0000 </r>
       <r>    1.2470    1.0000 </r>
       <r>    2.4716    1.0000 </r>
       <r>    4.3495    1.0000 </r>
       <r>   12.9694    0.0000 </r>
       <r>   18.7066    0.0000 </r>
       <r>   22.0366    0.0000 </r>
       <r>   24.6449    0.0000 </r>
       <r>   27.7114    0.0000 </r>
       <r>   30.6481    0.0000 </r>
      </set>
      <set comment="kpoint 55">
       <r>   -1.3070    1.0000 </r>
       <r>    0.4430    1.0000 </r>
       <r>    1.1408    1.0000 </r>
       <r>    1.7726    1.0000 </r>
       <r>    3.1446    1.0000 </r>
       <r>    5.9491   -0.0001 </r>
       <r>    9.4238   -0.0000 </r>
       <r>   18.7408    0.0000 </r>
       <r>   21.3813    0.0000 </r>
       <r>   22.3636    0.0000 </r>
       <r>   29.9192    0.0000 </r>
       <r>   30.9142    0.0000 </r>
      </set>
      <set comment="kpoint 56">
       <r>   -1.3446    1.0000 </r>
       <r>    0.4174    1.0000 </r>
       <r>    1.1881    1.0000 </r>
       <r>    1.6021    1.0000 </r>
       <r>    3.4831    1.0000 </r>
       <r>    5.9256   -0.0002 </r>
       <r>    9.2596   -0.0000 </r>
       <r>   19.5054    0.0000 </r>
       <r>   21.0992    0.0000 </r>
       <r>   21.5659    0.0000 </r>
       <r>   30.9195    0.0000 </r>
       <r>   31.0939    0.0000 </r>
      </set>
      <set comment="kpoint 57">
       <r>   -1.4263    1.0000 </r>
       <r>    0.5182    1.0000 </r>
       <r>    0.7369    1.0000 </r>
       <r>    1.3446    1.0000 </r>
       <r>    3.3360    1.0000 </r>
       <r>    3.8387    1.0000 </r>
       <r>   12.8409    0.0000 </r>
       <r>   20.7166    0.0000 </r>
       <r>   20.9319    0.0000 </r>
       <r>   22.4626    0.0000 </r>
       <r>   29.8297    0.0000 </r>
       <r>   30.8561    0.0000 </r>
      </set>
      <set comment="kpoint 58">
       <r>   -2.0330    1.0000 </r>
       <r>    0.0130    1.0000 </r>
       <r>    0.9946    1.0000 </r>
       <r>    1.4752    1.0000 </r>
       <r>    2.4411    1.0000 </r>
       <r>    2.8937    1.0000 </r>
       <r>   16.9465    0.0000 </r>
       <r>   21.5310    0.0000 </r>
       <r>   21.9102    0.0000 </r>
       <r>   23.6428    0.0000 </r>
       <r>   26.6867    0.0000 </r>
       <r>   30.8583    0.0000 </r>
      </set>
      <set comment="kpoint 59">
       <r>   -2.6898    1.0000 </r>
       <r>    0.2517    1.0000 </r>
       <r>    1.1116    1.0000 </r>
       <r>    1.2394    1.0000 </r>
       <r>    2.0849    1.0000 </r>
       <r>    2.6277    1.0000 </r>
       <r>   18.1009    0.0000 </r>
       <r>   21.9459    0.0000 </r>
       <r>   23.0195    0.0000 </r>
       <r>   25.2945    0.0000 </r>
       <r>   26.9643    0.0000 </r>
       <r>   30.2284    0.0000 </r>
      </set>
      <set comment="kpoint 60">
       <r>   -1.8400    1.0000 </r>
       <r>    0.0031    1.0000 </r>
       <r>    0.8985    1.0000 </r>
       <r>    1.6472    1.0000 </r>
       <r>    2.0679    1.0000 </r>
       <r>    3.2837    1.0000 </r>
       <r>   16.9310    0.0000 </r>
       <r>   19.3556    0.0000 </r>
       <r>   22.6727    0.0000 </r>
       <r>   24.6616    0.0000 </r>
       <r>   27.0641    0.0000 </r>
       <r>   29.5777    0.0000 </r>
      </set>
      <set comment="kpoint 61">
       <r>   -0.9251    1.0000 </r>
       <r>    0.0261    1.0000 </r>
       <r>    0.5173    1.0000 </r>
       <r>    1.8695    1.0000 </r>
       <r>    2.3685    1.0000 </r>
       <r>    4.4393    1.0000 </r>
       <r>   14.5219    0.0000 </r>
       <r>   17.1259    0.0000 </r>
       <r>   21.1658    0.0000 </r>
       <r>   25.3272    0.0000 </r>
       <r>   26.8377    0.0000 </r>
       <r>   31.0534    0.0000 </r>
      </set>
      <set comment="kpoint 62">
       <r>   -0.7903    1.0000 </r>
       <r>    0.1999    1.0000 </r>
       <r>    0.8230    1.0000 </r>
       <r>    1.6781    1.0000 </r>
       <r>    3.0464    1.0000 </r>
       <r>    6.1049   -0.0000 </r>
       <r>   10.9796    0.0000 </r>
       <r>   16.8875    0.0000 </r>
       <r>   19.7598    0.0000 </r>
       <r>   23.8976    0.0000 </r>
       <r>   28.8806    0.0000 </r>
       <r>   32.4769    0.0000 </r>
      </set>
      <set comment="kpoint 63">
       <r>   -0.8574    1.0000 </r>
       <r>    0.1116    1.0000 </r>
       <r>    1.1511    1.0000 </r>
       <r>    1.6122    1.0000 </r>
       <r>    3.3305    1.0000 </r>
       <r>    7.7728   -0.0000 </r>
       <r>    8.6746   -0.0000 </r>
       <r>   17.4878    0.0000 </r>
       <r>   18.7353    0.0000 </r>
       <r>   23.4061    0.0000 </r>
       <r>   29.7362    0.0000 </r>
       <r>   32.9774    0.0000 </r>
      </set>
      <set comment="kpoint 64">
       <r>   -0.9056    1.0000 </r>
       <r>    0.2023    1.0000 </r>
       <r>    0.5865    1.0000 </r>
       <r>    1.8014    1.0000 </r>
       <r>    3.1670    1.0000 </r>
       <r>    5.3609    0.4572 </r>
       <r>   11.9807    0.0000 </r>
       <r>   17.7476    0.0000 </r>
       <r>   19.3211    0.0000 </r>
       <r>   23.8456    0.0000 </r>
       <r>   28.8277    0.0000 </r>
       <r>   31.4714    0.0000 </r>
      </set>
      <set comment="kpoint 65">
       <r>   -1.2366    1.0000 </r>
       <r>   -0.2210    1.0000 </r>
       <r>    0.7309    1.0000 </r>
       <r>    1.9918    1.0000 </r>
       <r>    2.4702    1.0000 </r>
       <r>    3.7934    1.0000 </r>
       <r>   15.7709    0.0000 </r>
       <r>   18.2121    0.0000 </r>
       <r>   20.9149    0.0000 </r>
       <r>   24.6029    0.0000 </r>
       <r>   26.3067    0.0000 </r>
       <r>   30.5439    0.0000 </r>
      </set>
      <set comment="kpoint 66">
       <r>   -1.4464    1.0000 </r>
       <r>   -0.2316    1.0000 </r>
       <r>    0.9243    1.0000 </r>
       <r>    1.7736    1.0000 </r>
       <r>    3.0930    1.0000 </r>
       <r>    3.1551    1.0000 </r>
       <r>   15.7469    0.0000 </r>
       <r>   20.0726    0.0000 </r>
       <r>   20.7956    0.0000 </r>
       <r>   22.7023    0.0000 </r>
       <r>   26.4520    0.0000 </r>
       <r>   31.7527    0.0000 </r>
      </set>
      <set comment="kpoint 67">
       <r>   -0.9212    1.0000 </r>
       <r>   -0.4355    1.0000 </r>
       <r>    0.8363    1.0000 </r>
       <r>    2.3795    1.0000 </r>
       <r>    2.8946    1.0000 </r>
       <r>    4.5118    1.0000 </r>
       <r>   14.5993    0.0000 </r>
       <r>   17.0375    0.0000 </r>
       <r>   18.9682    0.0000 </r>
       <r>   24.5054    0.0000 </r>
       <r>   26.1805    0.0000 </r>
       <r>   31.3805    0.0000 </r>
      </set>
      <set comment="kpoint 68">
       <r>   -0.5707    1.0000 </r>
       <r>   -0.2831    1.0000 </r>
       <r>    0.6243    1.0000 </r>
       <r>    2.4608    1.0000 </r>
       <r>    3.1759    1.0000 </r>
       <r>    6.3678   -0.0000 </r>
       <r>   12.6110    0.0000 </r>
       <r>   15.0350    0.0000 </r>
       <r>   17.4306    0.0000 </r>
       <r>   25.6197    0.0000 </r>
       <r>   27.3884    0.0000 </r>
       <r>   31.3139    0.0000 </r>
      </set>
      <set comment="kpoint 69">
       <r>   -0.4063    1.0000 </r>
       <r>   -0.1200    1.0000 </r>
       <r>    0.6526    1.0000 </r>
       <r>    2.1039    1.0000 </r>
       <r>    3.3998    1.0000 </r>
       <r>    8.6506   -0.0000 </r>
       <r>    9.8875   -0.0000 </r>
       <r>   14.6755    0.0000 </r>
       <r>   16.8140    0.0000 </r>
       <r>   25.3422    0.0000 </r>
       <r>   29.2091    0.0000 </r>
       <r>   32.3480    0.0000 </r>
      </set>
      <set comment="kpoint 70">
       <r>   -0.1884    1.0000 </r>
       <r>   -0.0839    1.0000 </r>
       <r>    0.2914    1.0000 </r>
       <r>    2.1827    1.0000 </r>
       <r>    3.1507    1.0000 </r>
       <r>    7.1008   -0.0000 </r>
       <r>   11.9810    0.0000 </r>
       <r>   14.1186    0.0000 </r>
       <r>   17.8041    0.0000 </r>
       <r>   25.6184    0.0000 </r>
       <r>   28.2098    0.0000 </r>
       <r>   32.4747    0.0000 </r>
      </set>
      <set comment="kpoint 71">
       <r>   -0.5847    1.0000 </r>
       <r>   -0.1012    1.0000 </r>
       <r>    0.3749    1.0000 </r>
       <r>    2.2058    1.0000 </r>
       <r>    2.7892    1.0000 </r>
       <r>    5.2629    0.8352 </r>
       <r>   13.5211    0.0000 </r>
       <r>   16.0436    0.0000 </r>
       <r>   19.2985    0.0000 </r>
       <r>   25.3141    0.0000 </r>
       <r>   27.1394    0.0000 </r>
       <r>   31.2768    0.0000 </r>
      </set>
      <set comment="kpoint 72">
       <r>   -1.1489    1.0000 </r>
       <r>   -0.6928    1.0000 </r>
       <r>    1.7065    1.0000 </r>
       <r>    2.4694    1.0000 </r>
       <r>    3.5332    1.0000 </r>
       <r>    5.1526    1.0242 </r>
       <r>   13.2681    0.0000 </r>
       <r>   16.5840    0.0000 </r>
       <r>   17.6924    0.0000 </r>
       <r>   22.9746    0.0000 </r>
       <r>   26.4092    0.0000 </r>
       <r>   33.4026    0.0000 </r>
      </set>
      <set comment="kpoint 73">
       <r>   -1.0476    1.0000 </r>
       <r>   -0.7727    1.0000 </r>
       <r>    1.7339    1.0000 </r>
       <r>    2.8815    1.0000 </r>
       <r>    3.5243    1.0000 </r>
       <r>    6.8827   -0.0000 </r>
       <r>   12.1172    0.0000 </r>
       <r>   14.7955    0.0000 </r>
       <r>   16.0401    0.0000 </r>
       <r>   24.7327    0.0000 </r>
       <r>   26.3679    0.0000 </r>
       <r>   32.4540    0.0000 </r>
      </set>
      <set comment="kpoint 74">
       <r>   -0.7897    1.0000 </r>
       <r>   -0.4729    1.0000 </r>
       <r>    1.2881    1.0000 </r>
       <r>    2.4799    1.0000 </r>
       <r>    3.7073    1.0000 </r>
       <r>    9.2226   -0.0000 </r>
       <r>   10.6672   -0.0000 </r>
       <r>   13.3379    0.0000 </r>
       <r>   15.2770    0.0000 </r>
       <r>   26.2182    0.0000 </r>
       <r>   27.9355    0.0000 </r>
       <r>   31.0269    0.0000 </r>
      </set>
      <set comment="kpoint 75">
       <r>   -0.4573    1.0000 </r>
       <r>   -0.0253    1.0000 </r>
       <r>    0.6110    1.0000 </r>
       <r>    2.1652    1.0000 </r>
       <r>    3.4976    1.0000 </r>
       <r>    8.9413   -0.0000 </r>
       <r>   10.9568    0.0000 </r>
       <r>   12.9213    0.0000 </r>
       <r>   16.3986    0.0000 </r>
       <r>   25.9145    0.0000 </r>
       <r>   29.4173    0.0000 </r>
       <r>   31.6708    0.0000 </r>
      </set>
      <set comment="kpoint 76">
       <r>   -0.5295    1.0000 </r>
       <r>   -0.0392    1.0000 </r>
       <r>    0.7261    1.0000 </r>
       <r>    1.9342    1.0000 </r>
       <r>    3.2594    1.0000 </r>
       <r>    7.3629   -0.0000 </r>
       <r>   10.2279   -0.0000 </r>
       <r>   16.0022    0.0000 </r>
       <r>   17.9798    0.0000 </r>
       <r>   24.5541    0.0000 </r>
       <r>   29.0589    0.0000 </r>
       <r>   32.9786    0.0000 </r>
      </set>
      <set comment="kpoint 77">
       <r>   -1.3024    1.0000 </r>
       <r>   -0.9436    1.0000 </r>
       <r>    2.5409    1.0000 </r>
       <r>    3.0060    1.0000 </r>
       <r>    3.6077    1.0000 </r>
       <r>    7.8318   -0.0000 </r>
       <r>   10.7304   -0.0000 </r>
       <r>   13.9838    0.0000 </r>
       <r>   16.5335    0.0000 </r>
       <r>   23.3680    0.0000 </r>
       <r>   26.4994    0.0000 </r>
       <r>   33.8268    0.0000 </r>
      </set>
      <set comment="kpoint 78">
       <r>   -1.1287    1.0000 </r>
       <r>   -0.8464    1.0000 </r>
       <r>    2.0717    1.0000 </r>
       <r>    2.8726    1.0000 </r>
       <r>    3.7083    1.0000 </r>
       <r>    8.2553   -0.0000 </r>
       <r>   10.7672   -0.0000 </r>
       <r>   14.1209    0.0000 </r>
       <r>   15.5237    0.0000 </r>
       <r>   24.8573    0.0000 </r>
       <r>   26.4295    0.0000 </r>
       <r>   32.6364    0.0000 </r>
      </set>
      <set comment="kpoint 79">
       <r>   -0.6960    1.0000 </r>
       <r>   -0.4137    1.0000 </r>
       <r>    1.0064    1.0000 </r>
       <r>    2.5305    1.0000 </r>
       <r>    3.5041    1.0000 </r>
       <r>    7.7272   -0.0000 </r>
       <r>   11.7320    0.0000 </r>
       <r>   14.0741    0.0000 </r>
       <r>   15.9807    0.0000 </r>
       <r>   25.9933    0.0000 </r>
       <r>   27.6685    0.0000 </r>
       <r>   31.1938    0.0000 </r>
      </set>
      <set comment="kpoint 80">
       <r>   -1.2360    1.0000 </r>
       <r>   -0.8583    1.0000 </r>
       <r>    2.2291    1.0000 </r>
       <r>    2.7910    1.0000 </r>
       <r>    3.6038    1.0000 </r>
       <r>    6.5169   -0.0000 </r>
       <r>   11.9850    0.0000 </r>
       <r>   14.8990    0.0000 </r>
       <r>   16.9304    0.0000 </r>
       <r>   23.2198    0.0000 </r>
       <r>   26.4617    0.0000 </r>
       <r>   33.7366    0.0000 </r>
      </set>
      <set comment="kpoint 81">
       <r>   -0.9338    1.0000 </r>
       <r>   -0.6289    1.0000 </r>
       <r>    1.2558    1.0000 </r>
       <r>    2.7199    1.0000 </r>
       <r>    3.2419    1.0000 </r>
       <r>    5.5546   -0.0270 </r>
       <r>   13.4084    0.0000 </r>
       <r>   15.8874    0.0000 </r>
       <r>   17.2000    0.0000 </r>
       <r>   24.5705    0.0000 </r>
       <r>   26.2641    0.0000 </r>
       <r>   32.0367    0.0000 </r>
      </set>
      <set comment="kpoint 82">
       <r>   -1.1545    1.0000 </r>
       <r>   -0.4718    1.0000 </r>
       <r>    1.1758    1.0000 </r>
       <r>    2.1140    1.0000 </r>
       <r>    3.3798    1.0000 </r>
       <r>    3.9971    1.0000 </r>
       <r>   14.5123    0.0000 </r>
       <r>   18.6740    0.0000 </r>
       <r>   18.7626    0.0000 </r>
       <r>   22.7464    0.0000 </r>
       <r>   26.3785    0.0000 </r>
       <r>   32.6903    0.0000 </r>
      </set>
      <set comment="kpoint 83">
       <r>   -2.6206    1.0000 </r>
       <r>    0.6199    1.0000 </r>
       <r>    1.0315    1.0000 </r>
       <r>    1.0315    1.0000 </r>
       <r>    2.4265    1.0000 </r>
       <r>    2.4265    1.0000 </r>
       <r>   16.5717    0.0000 </r>
       <r>   21.6458    0.0000 </r>
       <r>   25.3849    0.0000 </r>
       <r>   25.3849    0.0000 </r>
       <r>   27.6350    0.0000 </r>
       <r>   29.0625    0.0000 </r>
      </set>
      <set comment="kpoint 84">
       <r>   -2.0256    1.0000 </r>
       <r>    0.5011    1.0000 </r>
       <r>    0.9914    1.0000 </r>
       <r>    1.1705    1.0000 </r>
       <r>    2.1972    1.0000 </r>
       <r>    3.2186    1.0000 </r>
       <r>   15.3889    0.0000 </r>
       <r>   20.5972    0.0000 </r>
       <r>   22.9622    0.0000 </r>
       <r>   26.5800    0.0000 </r>
       <r>   26.8017    0.0000 </r>
       <r>   29.0004    0.0000 </r>
      </set>
      <set comment="kpoint 85">
       <r>   -1.0538    1.0000 </r>
       <r>    0.2294    1.0000 </r>
       <r>    0.7246    1.0000 </r>
       <r>    1.5503    1.0000 </r>
       <r>    2.1005    1.0000 </r>
       <r>    4.4211    1.0000 </r>
       <r>   14.4697    0.0000 </r>
       <r>   17.1145    0.0000 </r>
       <r>   22.5457    0.0000 </r>
       <r>   24.9429    0.0000 </r>
       <r>   26.9056    0.0000 </r>
       <r>   31.4893    0.0000 </r>
      </set>
      <set comment="kpoint 86">
       <r>   -0.5649    1.0000 </r>
       <r>    0.3192    1.0000 </r>
       <r>    0.5960    1.0000 </r>
       <r>    1.7083    1.0000 </r>
       <r>    2.5403    1.0000 </r>
       <r>    5.8551   -0.0011 </r>
       <r>   12.6598    0.0000 </r>
       <r>   14.9627    0.0000 </r>
       <r>   22.2524    0.0000 </r>
       <r>   22.4330    0.0000 </r>
       <r>   28.8438    0.0000 </r>
       <r>   31.7608    0.0000 </r>
      </set>
      <set comment="kpoint 87">
       <r>   -0.7909    1.0000 </r>
       <r>    0.1452    1.0000 </r>
       <r>    1.0735    1.0000 </r>
       <r>    1.7770    1.0000 </r>
       <r>    3.1902    1.0000 </r>
       <r>    7.8380   -0.0000 </r>
       <r>    9.3893   -0.0000 </r>
       <r>   15.4943    0.0000 </r>
       <r>   20.2527    0.0000 </r>
       <r>   22.2266    0.0000 </r>
       <r>   31.1278    0.0000 </r>
       <r>   31.8819    0.0000 </r>
      </set>
      <set comment="kpoint 88">
       <r>   -0.9943    1.0000 </r>
       <r>   -0.0840    1.0000 </r>
       <r>    1.0943    1.0000 </r>
       <r>    1.9303    1.0000 </r>
       <r>    3.5339    1.0000 </r>
       <r>    6.4016   -0.0000 </r>
       <r>   10.7702   -0.0000 </r>
       <r>   16.8935    0.0000 </r>
       <r>   18.9491    0.0000 </r>
       <r>   22.4843    0.0000 </r>
       <r>   29.7579    0.0000 </r>
       <r>   32.2175    0.0000 </r>
      </set>
      <set comment="kpoint 89">
       <r>   -1.8236    1.0000 </r>
       <r>    0.7002    1.0000 </r>
       <r>    0.8380    1.0000 </r>
       <r>    1.1536    1.0000 </r>
       <r>    2.9742    1.0000 </r>
       <r>    3.0796    1.0000 </r>
       <r>   14.0246    0.0000 </r>
       <r>   21.2180    0.0000 </r>
       <r>   22.2865    0.0000 </r>
       <r>   23.9916    0.0000 </r>
       <r>   28.8378    0.0000 </r>
       <r>   30.1113    0.0000 </r>
      </set>
      <set comment="kpoint 90">
       <r>   -1.2054    1.0000 </r>
       <r>    0.5120    1.0000 </r>
       <r>    0.5450    1.0000 </r>
       <r>    1.5003    1.0000 </r>
       <r>    2.8231    1.0000 </r>
       <r>    4.4019    1.0000 </r>
       <r>   13.0228    0.0000 </r>
       <r>   18.7540    0.0000 </r>
       <r>   21.0147    0.0000 </r>
       <r>   24.0732    0.0000 </r>
       <r>   28.3595    0.0000 </r>
       <r>   30.9501    0.0000 </r>
      </set>
      <set comment="kpoint 91">
       <r>   -0.3701    1.0000 </r>
       <r>    0.1315    1.0000 </r>
       <r>    0.2933    1.0000 </r>
       <r>    1.9894    1.0000 </r>
       <r>    2.7627    1.0000 </r>
       <r>    5.9918   -0.0000 </r>
       <r>   12.6662    0.0000 </r>
       <r>   15.0040    0.0000 </r>
       <r>   19.7712    0.0000 </r>
       <r>   24.7162    0.0000 </r>
       <r>   28.0739    0.0000 </r>
       <r>   32.8342    0.0000 </r>
      </set>
      <set comment="kpoint 92">
       <r>   -0.4412    1.0000 </r>
       <r>    0.0485    1.0000 </r>
       <r>    0.6242    1.0000 </r>
       <r>    2.0856    1.0000 </r>
       <r>    3.1646    1.0000 </r>
       <r>    7.7879   -0.0000 </r>
       <r>   11.3745    0.0000 </r>
       <r>   13.3909    0.0000 </r>
       <r>   18.2586    0.0000 </r>
       <r>   24.4766    0.0000 </r>
       <r>   29.5676    0.0000 </r>
       <r>   33.2855    0.0000 </r>
      </set>
      <set comment="kpoint 93">
       <r>   -0.7641    1.0000 </r>
       <r>   -0.2390    1.0000 </r>
       <r>    1.0312    1.0000 </r>
       <r>    2.3279    1.0000 </r>
       <r>    3.4500    1.0000 </r>
       <r>    8.0612   -0.0000 </r>
       <r>   10.4243   -0.0000 </r>
       <r>   14.6696    0.0000 </r>
       <r>   17.0554    0.0000 </r>
       <r>   24.4353    0.0000 </r>
       <r>   29.3775    0.0000 </r>
       <r>   31.3428    0.0000 </r>
      </set>
      <set comment="kpoint 94">
       <r>   -1.1345    1.0000 </r>
       <r>    0.1955    1.0000 </r>
       <r>    0.8507    1.0000 </r>
       <r>    1.6128    1.0000 </r>
       <r>    3.4925    1.0000 </r>
       <r>    5.0031    1.0169 </r>
       <r>   11.7361    0.0000 </r>
       <r>   19.0208    0.0000 </r>
       <r>   19.8103    0.0000 </r>
       <r>   22.2060    0.0000 </r>
       <r>   29.9497    0.0000 </r>
       <r>   31.5981    0.0000 </r>
      </set>
      <set comment="kpoint 95">
       <r>   -0.7662    1.0000 </r>
       <r>   -0.0697    1.0000 </r>
       <r>    0.7701    1.0000 </r>
       <r>    2.1089    1.0000 </r>
       <r>    3.3581    1.0000 </r>
       <r>    6.6207   -0.0000 </r>
       <r>   11.0851    0.0000 </r>
       <r>   16.4592    0.0000 </r>
       <r>   17.8135    0.0000 </r>
       <r>   24.0799    0.0000 </r>
       <r>   29.1148    0.0000 </r>
       <r>   31.4967    0.0000 </r>
      </set>
      <set comment="kpoint 96">
       <r>   -0.3895    1.0000 </r>
       <r>   -0.0116    1.0000 </r>
       <r>    0.4349    1.0000 </r>
       <r>    2.2206    1.0000 </r>
       <r>    3.4971    1.0000 </r>
       <r>    8.4163   -0.0000 </r>
       <r>   11.4517    0.0000 </r>
       <r>   13.3099    0.0000 </r>
       <r>   16.1108    0.0000 </r>
       <r>   26.7120    0.0000 </r>
       <r>   28.3516    0.0000 </r>
       <r>   31.5938    0.0000 </r>
      </set>
      <set comment="kpoint 97">
       <r>   -0.5096    1.0000 </r>
       <r>   -0.0048    1.0000 </r>
       <r>    0.5904    1.0000 </r>
       <r>    2.1775    1.0000 </r>
       <r>    3.7063    1.0000 </r>
       <r>    9.6522   -0.0000 </r>
       <r>   11.1384    0.0000 </r>
       <r>   12.4652    0.0000 </r>
       <r>   15.1374    0.0000 </r>
       <r>   27.4653    0.0000 </r>
       <r>   28.9638    0.0000 </r>
       <r>   30.3144    0.0000 </r>
      </set>
      <set comment="kpoint 98">
       <r>   -0.9709    1.0000 </r>
       <r>   -0.2724    1.0000 </r>
       <r>    1.3808    1.0000 </r>
       <r>    2.2585    1.0000 </r>
       <r>    3.4669    1.0000 </r>
       <r>    7.9249   -0.0000 </r>
       <r>   10.0506   -0.0000 </r>
       <r>   14.8074    0.0000 </r>
       <r>   18.3723    0.0000 </r>
       <r>   22.8236    0.0000 </r>
       <r>   29.6227    0.0000 </r>
       <r>   32.6407    0.0000 </r>
      </set>
      <set comment="kpoint 99">
       <r>   -0.8013    1.0000 </r>
       <r>   -0.3112    1.0000 </r>
       <r>    1.2319    1.0000 </r>
       <r>    2.4069    1.0000 </r>
       <r>    3.5049    1.0000 </r>
       <r>    9.2662   -0.0000 </r>
       <r>   10.2197   -0.0000 </r>
       <r>   13.0492    0.0000 </r>
       <r>   16.7388    0.0000 </r>
       <r>   24.6780    0.0000 </r>
       <r>   29.6136    0.0000 </r>
       <r>   31.1415    0.0000 </r>
      </set>
      <set comment="kpoint 100">
       <r>   -0.9869    1.0000 </r>
       <r>   -0.3626    1.0000 </r>
       <r>    1.5737    1.0000 </r>
       <r>    2.5096    1.0000 </r>
       <r>    3.3457    1.0000 </r>
       <r>    9.1011   -0.0000 </r>
       <r>    9.8878   -0.0000 </r>
       <r>   13.0946    0.0000 </r>
       <r>   18.0848    0.0000 </r>
       <r>   23.0424    0.0000 </r>
       <r>   29.5645    0.0000 </r>
       <r>   32.8370    0.0000 </r>
      </set>
      <set comment="kpoint 101">
       <r>   -1.9622    1.0000 </r>
       <r>    0.8761    1.0000 </r>
       <r>    0.8761    1.0000 </r>
       <r>    1.7560    1.0000 </r>
       <r>    2.9589    1.0000 </r>
       <r>    2.9589    1.0000 </r>
       <r>   12.5559    0.0000 </r>
       <r>   20.7516    0.0000 </r>
       <r>   24.1180    0.0000 </r>
       <r>   24.1180    0.0000 </r>
       <r>   29.3196    0.0000 </r>
       <r>   29.3514    0.0000 </r>
      </set>
      <set comment="kpoint 102">
       <r>   -1.6201    1.0000 </r>
       <r>    0.6995    1.0000 </r>
       <r>    0.9863    1.0000 </r>
       <r>    1.6763    1.0000 </r>
       <r>    2.8555    1.0000 </r>
       <r>    4.1959    1.0000 </r>
       <r>   11.4619    0.0000 </r>
       <r>   20.1084    0.0000 </r>
       <r>   21.6961    0.0000 </r>
       <r>   24.1280    0.0000 </r>
       <r>   28.7951    0.0000 </r>
       <r>   30.1403    0.0000 </r>
      </set>
      <set comment="kpoint 103">
       <r>   -0.9262    1.0000 </r>
       <r>    0.3377    1.0000 </r>
       <r>    1.1354    1.0000 </r>
       <r>    1.4327    1.0000 </r>
       <r>    2.8347    1.0000 </r>
       <r>    5.9126   -0.0003 </r>
       <r>   10.9486    0.0000 </r>
       <r>   16.8567    0.0000 </r>
       <r>   21.8651    0.0000 </r>
       <r>   22.3940    0.0000 </r>
       <r>   29.3095    0.0000 </r>
       <r>   31.3914    0.0000 </r>
      </set>
      <set comment="kpoint 104">
       <r>   -0.6613    1.0000 </r>
       <r>    0.1696    1.0000 </r>
       <r>    0.8771    1.0000 </r>
       <r>    2.0409    1.0000 </r>
       <r>    2.9764    1.0000 </r>
       <r>    7.5419   -0.0000 </r>
       <r>   11.3006    0.0000 </r>
       <r>   13.3831    0.0000 </r>
       <r>   20.1089    0.0000 </r>
       <r>   22.5195    0.0000 </r>
       <r>   31.0408    0.0000 </r>
       <r>   32.1262    0.0000 </r>
      </set>
      <set comment="kpoint 105">
       <r>   -1.6168    1.0000 </r>
       <r>    0.6135    1.0000 </r>
       <r>    0.9875    1.0000 </r>
       <r>    1.8730    1.0000 </r>
       <r>    3.4341    1.0000 </r>
       <r>    4.5107    1.0000 </r>
       <r>   10.2189   -0.0000 </r>
       <r>   20.3940    0.0000 </r>
       <r>   21.8674    0.0000 </r>
       <r>   22.3477    0.0000 </r>
       <r>   30.3539    0.0000 </r>
       <r>   30.5991    0.0000 </r>
      </set>
      <set comment="kpoint 106">
       <r>   -1.1584    1.0000 </r>
       <r>    0.3190    1.0000 </r>
       <r>    1.2725    1.0000 </r>
       <r>    1.4829    1.0000 </r>
       <r>    3.2947    1.0000 </r>
       <r>    6.2784   -0.0000 </r>
       <r>    9.4517   -0.0000 </r>
       <r>   18.8283    0.0000 </r>
       <r>   19.7695    0.0000 </r>
       <r>   22.9760    0.0000 </r>
       <r>   29.6840    0.0000 </r>
       <r>   31.9766    0.0000 </r>
      </set>
      <set comment="kpoint 107">
       <r>   -0.5752    1.0000 </r>
       <r>   -0.0094    1.0000 </r>
       <r>    0.8747    1.0000 </r>
       <r>    1.8875    1.0000 </r>
       <r>    3.2546    1.0000 </r>
       <r>    8.0995   -0.0000 </r>
       <r>    9.4880   -0.0000 </r>
       <r>   15.4664    0.0000 </r>
       <r>   18.3974    0.0000 </r>
       <r>   24.0204    0.0000 </r>
       <r>   29.6673    0.0000 </r>
       <r>   33.6394    0.0000 </r>
      </set>
      <set comment="kpoint 108">
       <r>   -1.0467    1.0000 </r>
       <r>    0.2369    1.0000 </r>
       <r>    1.3301    1.0000 </r>
       <r>    1.4629    1.0000 </r>
       <r>    3.3910    1.0000 </r>
       <r>    7.5158   -0.0000 </r>
       <r>    8.4934   -0.0000 </r>
       <r>   17.6007    0.0000 </r>
       <r>   20.5701    0.0000 </r>
       <r>   21.8015    0.0000 </r>
       <r>   31.1944    0.0000 </r>
       <r>   31.4499    0.0000 </r>
      </set>
      <set comment="kpoint 109">
       <r>   -1.8594    1.0000 </r>
       <r>    0.7390    1.0000 </r>
       <r>    0.7390    1.0000 </r>
       <r>    3.3866    1.0000 </r>
       <r>    3.3866    1.0000 </r>
       <r>    3.8710    1.0000 </r>
       <r>    9.1262   -0.0000 </r>
       <r>   20.1130    0.0000 </r>
       <r>   22.9891    0.0000 </r>
       <r>   22.9891    0.0000 </r>
       <r>   29.9687    0.0000 </r>
       <r>   29.9687    0.0000 </r>
      </set>
      <set comment="kpoint 110">
       <r>   -1.6059    1.0000 </r>
       <r>    0.5711    1.0000 </r>
       <r>    0.9102    1.0000 </r>
       <r>    2.4143    1.0000 </r>
       <r>    3.3648    1.0000 </r>
       <r>    5.6888   -0.0190 </r>
       <r>    8.4906   -0.0000 </r>
       <r>   20.0059    0.0000 </r>
       <r>   21.4426    0.0000 </r>
       <r>   22.4083    0.0000 </r>
       <r>   30.3178    0.0000 </r>
       <r>   30.4791    0.0000 </r>
      </set>
     </set>
    </set>
   </array>
  </eigenvalues>
  <separator name="orbital magnetization" >
   <v name="MAGDIPOLOUT">      0.00000000      0.00000000      0.00000000</v>
  </separator>
  <dos>
   <i name="efermi">      5.35078754 </i>
   <total>
    <array>
     <dimension dim="1">gridpoints</dimension>
     <dimension dim="2">spin</dimension>
     <field>energy</field>
     <field>total</field>
     <field>integrated</field>
     <set>
      <set comment="spin 1">
       <r>    -6.3235     0.0000     0.0000 </r>
       <r>    -6.1791     0.0000     0.0000 </r>
       <r>    -6.0348    -0.0000    -0.0000 </r>
       <r>    -5.8904    -0.0000    -0.0000 </r>
       <r>    -5.7460    -0.0000    -0.0000 </r>
       <r>    -5.6016    -0.0000    -0.0000 </r>
       <r>    -5.4572    -0.0000    -0.0000 </r>
       <r>    -5.3128    -0.0000    -0.0000 </r>
       <r>    -5.1684    -0.0000    -0.0000 </r>
       <r>    -5.0240    -0.0000    -0.0000 </r>
       <r>    -4.8796    -0.0000    -0.0000 </r>
       <r>    -4.7352    -0.0002    -0.0000 </r>
       <r>    -4.5908    -0.0009    -0.0002 </r>
       <r>    -4.4464     0.0017     0.0001 </r>
       <r>    -4.3020     0.0129     0.0020 </r>
       <r>    -4.1576     0.0320     0.0066 </r>
       <r>    -4.0132     0.0524     0.0142 </r>
       <r>    -3.8688     0.0548     0.0221 </r>
       <r>    -3.7244     0.0593     0.0306 </r>
       <r>    -3.5800     0.0782     0.0419 </r>
       <r>    -3.4356     0.1060     0.0572 </r>
       <r>    -3.2912     0.0962     0.0711 </r>
       <r>    -3.1469     0.0677     0.0809 </r>
       <r>    -3.0025     0.1130     0.0972 </r>
       <r>    -2.8581     0.1728     0.1222 </r>
       <r>    -2.7137     0.1449     0.1431 </r>
       <r>    -2.5693     0.1099     0.1590 </r>
       <r>    -2.4249     0.1772     0.1845 </r>
       <r>    -2.2805     0.1985     0.2132 </r>
       <r>    -2.1361     0.1974     0.2417 </r>
       <r>    -1.9917     0.2814     0.2823 </r>
       <r>    -1.8473     0.4392     0.3458 </r>
       <r>    -1.7029     0.5777     0.4292 </r>
       <r>    -1.5585     0.6598     0.5244 </r>
       <r>    -1.4141     0.9685     0.6643 </r>
       <r>    -1.2697     1.2464     0.8443 </r>
       <r>    -1.1253     1.5717     1.0712 </r>
       <r>    -0.9809     1.8272     1.3350 </r>
       <r>    -0.8365     1.8504     1.6022 </r>
       <r>    -0.6921     1.7678     1.8575 </r>
       <r>    -0.5477     1.5638     2.0833 </r>
       <r>    -0.4033     1.5712     2.3102 </r>
       <r>    -0.2589     1.2716     2.4938 </r>
       <r>    -0.1146     1.2487     2.6741 </r>
       <r>     0.0298     1.7033     2.9200 </r>
       <r>     0.1742     1.9027     3.1948 </r>
       <r>     0.3186     1.9298     3.4734 </r>
       <r>     0.4630     1.8916     3.7466 </r>
       <r>     0.6074     2.1897     4.0628 </r>
       <r>     0.7518     2.2664     4.3900 </r>
       <r>     0.8962     2.3839     4.7343 </r>
       <r>     1.0406     3.0212     5.1705 </r>
       <r>     1.1850     3.1718     5.6285 </r>
       <r>     1.3294     2.2863     5.9586 </r>
       <r>     1.4738     1.6077     6.1908 </r>
       <r>     1.6182     1.4931     6.4064 </r>
       <r>     1.7626     1.6860     6.6498 </r>
       <r>     1.9070     1.8246     6.9133 </r>
       <r>     2.0514     2.2236     7.2344 </r>
       <r>     2.1958     2.1360     7.5428 </r>
       <r>     2.3402     1.7464     7.7950 </r>
       <r>     2.4846     1.9977     8.0834 </r>
       <r>     2.6290     1.7754     8.3398 </r>
       <r>     2.7733     1.4196     8.5448 </r>
       <r>     2.9177     1.7448     8.7967 </r>
       <r>     3.0621     1.7002     9.0422 </r>
       <r>     3.2065     2.0802     9.3426 </r>
       <r>     3.3509     2.6792     9.7295 </r>
       <r>     3.4953     2.5668    10.1001 </r>
       <r>     3.6397     1.8100    10.3614 </r>
       <r>     3.7841     1.1242    10.5238 </r>
       <r>     3.9285     0.6024    10.6107 </r>
       <r>     4.0729     0.1504    10.6325 </r>
       <r>     4.2173     0.0481    10.6394 </r>
       <r>     4.3617     0.2639    10.6775 </r>
       <r>     4.5061     0.4761    10.7463 </r>
       <r>     4.6505     0.3518    10.7971 </r>
       <r>     4.7949     0.1759    10.8225 </r>
       <r>     4.9393     0.1630    10.8460 </r>
       <r>     5.0837     0.3841    10.9015 </r>
       <r>     5.2281     0.4470    10.9660 </r>
       <r>     5.3725     0.2647    11.0042 </r>
       <r>     5.5169     0.1799    11.0302 </r>
       <r>     5.6612     0.1987    11.0589 </r>
       <r>     5.8056     0.2057    11.0886 </r>
       <r>     5.9500     0.3921    11.1452 </r>
       <r>     6.0944     0.3908    11.2016 </r>
       <r>     6.2388     0.2675    11.2403 </r>
       <r>     6.3832     0.3159    11.2859 </r>
       <r>     6.5276     0.2611    11.3236 </r>
       <r>     6.6720     0.1908    11.3511 </r>
       <r>     6.8164     0.2014    11.3802 </r>
       <r>     6.9608     0.2714    11.4194 </r>
       <r>     7.1052     0.3609    11.4715 </r>
       <r>     7.2496     0.3483    11.5218 </r>
       <r>     7.3940     0.2539    11.5585 </r>
       <r>     7.5384     0.1473    11.5798 </r>
       <r>     7.6828     0.1831    11.6062 </r>
       <r>     7.8272     0.3582    11.6579 </r>
       <r>     7.9716     0.3018    11.7015 </r>
       <r>     8.1160     0.2128    11.7322 </r>
       <r>     8.2604     0.1749    11.7575 </r>
       <r>     8.4048     0.2800    11.7979 </r>
       <r>     8.5492     0.5734    11.8807 </r>
       <r>     8.6935     0.5658    11.9624 </r>
       <r>     8.8379     0.2722    12.0017 </r>
       <r>     8.9823     0.1048    12.0169 </r>
       <r>     9.1267     0.2521    12.0533 </r>
       <r>     9.2711     0.4477    12.1179 </r>
       <r>     9.4155     0.3940    12.1748 </r>
       <r>     9.5599     0.3354    12.2232 </r>
       <r>     9.7043     0.2468    12.2589 </r>
       <r>     9.8487     0.1461    12.2800 </r>
       <r>     9.9931     0.1519    12.3019 </r>
       <r>    10.1375     0.2877    12.3434 </r>
       <r>    10.2819     0.4728    12.4117 </r>
       <r>    10.4263     0.4071    12.4705 </r>
       <r>    10.5707     0.3117    12.5155 </r>
       <r>    10.7151     0.3136    12.5608 </r>
       <r>    10.8595     0.2974    12.6037 </r>
       <r>    11.0039     0.3726    12.6575 </r>
       <r>    11.1483     0.4747    12.7261 </r>
       <r>    11.2927     0.3862    12.7819 </r>
       <r>    11.4371     0.3525    12.8327 </r>
       <r>    11.5814     0.2766    12.8727 </r>
       <r>    11.7258     0.1581    12.8955 </r>
       <r>    11.8702     0.2434    12.9307 </r>
       <r>    12.0146     0.4771    12.9996 </r>
       <r>    12.1590     0.4074    13.0584 </r>
       <r>    12.3034     0.1003    13.0729 </r>
       <r>    12.4478     0.0700    13.0830 </r>
       <r>    12.5922     0.3317    13.1309 </r>
       <r>    12.7366     0.4202    13.1915 </r>
       <r>    12.8810     0.2876    13.2331 </r>
       <r>    13.0254     0.4179    13.2934 </r>
       <r>    13.1698     0.4454    13.3577 </r>
       <r>    13.3142     0.4415    13.4215 </r>
       <r>    13.4586     0.6116    13.5098 </r>
       <r>    13.6030     0.3772    13.5643 </r>
       <r>    13.7474     0.0312    13.5688 </r>
       <r>    13.8918     0.0271    13.5727 </r>
       <r>    14.0362     0.3296    13.6203 </r>
       <r>    14.1806     0.5379    13.6979 </r>
       <r>    14.3250     0.3603    13.7500 </r>
       <r>    14.4693     0.2567    13.7870 </r>
       <r>    14.6137     0.3936    13.8439 </r>
       <r>    14.7581     0.5418    13.9221 </r>
       <r>    14.9025     0.4454    13.9864 </r>
       <r>    15.0469     0.4190    14.0469 </r>
       <r>    15.1913     0.4112    14.1063 </r>
       <r>    15.3357     0.3791    14.1610 </r>
       <r>    15.4801     0.4525    14.2264 </r>
       <r>    15.6245     0.4486    14.2911 </r>
       <r>    15.7689     0.4292    14.3531 </r>
       <r>    15.9133     0.5227    14.4286 </r>
       <r>    16.0577     0.7172    14.5322 </r>
       <r>    16.2021     0.5818    14.6162 </r>
       <r>    16.3465     0.2275    14.6490 </r>
       <r>    16.4909     0.2959    14.6917 </r>
       <r>    16.6353     0.4082    14.7507 </r>
       <r>    16.7797     0.5120    14.8246 </r>
       <r>    16.9241     0.7107    14.9272 </r>
       <r>    17.0685     0.7921    15.0416 </r>
       <r>    17.2129     0.7662    15.1522 </r>
       <r>    17.3573     0.4121    15.2117 </r>
       <r>    17.5016     0.1771    15.2373 </r>
       <r>    17.6460     0.2159    15.2685 </r>
       <r>    17.7904     0.4654    15.3357 </r>
       <r>    17.9348     0.5648    15.4172 </r>
       <r>    18.0792     0.4704    15.4852 </r>
       <r>    18.2236     0.5361    15.5626 </r>
       <r>    18.3680     0.5397    15.6405 </r>
       <r>    18.5124     0.4398    15.7040 </r>
       <r>    18.6568     0.4578    15.7701 </r>
       <r>    18.8012     0.6552    15.8647 </r>
       <r>    18.9456     0.4600    15.9311 </r>
       <r>    19.0900     0.3676    15.9842 </r>
       <r>    19.2344     0.5255    16.0601 </r>
       <r>    19.3788     0.5830    16.1443 </r>
       <r>    19.5232     0.4259    16.2058 </r>
       <r>    19.6676     0.4288    16.2677 </r>
       <r>    19.8120     0.6559    16.3624 </r>
       <r>    19.9564     0.4495    16.4273 </r>
       <r>    20.1008     0.2702    16.4663 </r>
       <r>    20.2452     0.4904    16.5371 </r>
       <r>    20.3895     0.7582    16.6466 </r>
       <r>    20.5339     0.6186    16.7359 </r>
       <r>    20.6783     0.4873    16.8063 </r>
       <r>    20.8227     0.5946    16.8921 </r>
       <r>    20.9671     0.6852    16.9911 </r>
       <r>    21.1115     0.6739    17.0884 </r>
       <r>    21.2559     0.4858    17.1585 </r>
       <r>    21.4003     0.4810    17.2280 </r>
       <r>    21.5447     0.5398    17.3059 </r>
       <r>    21.6891     0.4784    17.3750 </r>
       <r>    21.8335     0.3768    17.4294 </r>
       <r>    21.9779     0.3153    17.4749 </r>
       <r>    22.1223     0.3624    17.5273 </r>
       <r>    22.2667     0.6754    17.6248 </r>
       <r>    22.4111     0.8922    17.7536 </r>
       <r>    22.5555     0.9363    17.8888 </r>
       <r>    22.6999     0.8108    18.0059 </r>
       <r>    22.8443     0.6378    18.0980 </r>
       <r>    22.9887     0.6407    18.1905 </r>
       <r>    23.1331     0.7078    18.2927 </r>
       <r>    23.2775     0.8897    18.4212 </r>
       <r>    23.4218     1.0596    18.5742 </r>
       <r>    23.5662     0.8138    18.6917 </r>
       <r>    23.7106     0.7118    18.7945 </r>
       <r>    23.8550     0.7160    18.8978 </r>
       <r>    23.9994     0.5996    18.9844 </r>
       <r>    24.1438     0.5356    19.0618 </r>
       <r>    24.2882     0.5624    19.1430 </r>
       <r>    24.4326     0.6545    19.2375 </r>
       <r>    24.5770     0.8192    19.3558 </r>
       <r>    24.7214     0.8799    19.4828 </r>
       <r>    24.8658     0.6608    19.5782 </r>
       <r>    25.0102     0.4133    19.6379 </r>
       <r>    25.1546     0.2974    19.6808 </r>
       <r>    25.2990     0.4723    19.7490 </r>
       <r>    25.4434     0.6611    19.8445 </r>
       <r>    25.5878     0.6973    19.9452 </r>
       <r>    25.7322     0.5119    20.0191 </r>
       <r>    25.8766     0.2818    20.0598 </r>
       <r>    26.0210     0.2592    20.0972 </r>
       <r>    26.1654     0.2840    20.1382 </r>
       <r>    26.3097     0.4582    20.2044 </r>
       <r>    26.4541     0.5465    20.2833 </r>
       <r>    26.5985     0.4488    20.3481 </r>
       <r>    26.7429     0.4317    20.4104 </r>
       <r>    26.8873     0.3908    20.4669 </r>
       <r>    27.0317     0.3448    20.5167 </r>
       <r>    27.1761     0.2819    20.5574 </r>
       <r>    27.3205     0.1778    20.5830 </r>
       <r>    27.4649     0.3230    20.6297 </r>
       <r>    27.6093     0.4700    20.6975 </r>
       <r>    27.7537     0.4436    20.7616 </r>
       <r>    27.8981     0.5711    20.8441 </r>
       <r>    28.0425     0.7528    20.9528 </r>
       <r>    28.1869     0.5009    21.0251 </r>
       <r>    28.3313     0.3218    21.0716 </r>
       <r>    28.4757     0.2615    21.1093 </r>
       <r>    28.6201     0.0890    21.1222 </r>
       <r>    28.7645     0.2526    21.1587 </r>
       <r>    28.9089     0.6543    21.2532 </r>
       <r>    29.0533     0.6785    21.3511 </r>
       <r>    29.1976     0.4616    21.4178 </r>
       <r>    29.3420     0.3689    21.4711 </r>
       <r>    29.4864     0.5650    21.5526 </r>
       <r>    29.6308     0.8728    21.6787 </r>
       <r>    29.7752     1.0244    21.8266 </r>
       <r>    29.9196     0.7939    21.9412 </r>
       <r>    30.0640     0.7130    22.0442 </r>
       <r>    30.2084     0.6870    22.1434 </r>
       <r>    30.3528     0.4982    22.2153 </r>
       <r>    30.4972     0.4590    22.2816 </r>
       <r>    30.6416     0.6025    22.3686 </r>
       <r>    30.7860     0.6445    22.4617 </r>
       <r>    30.9304     0.7561    22.5708 </r>
       <r>    31.0748     0.7223    22.6751 </r>
       <r>    31.2192     0.7227    22.7795 </r>
       <r>    31.3636     0.8302    22.8994 </r>
       <r>    31.5080     0.9400    23.0351 </r>
       <r>    31.6524     0.8088    23.1519 </r>
       <r>    31.7968     0.5335    23.2289 </r>
       <r>    31.9412     0.4882    23.2994 </r>
       <r>    32.0856     0.5373    23.3770 </r>
       <r>    32.2299     0.4475    23.4416 </r>
       <r>    32.3743     0.3644    23.4942 </r>
       <r>    32.5187     0.4943    23.5656 </r>
       <r>    32.6631     0.5518    23.6453 </r>
       <r>    32.8075     0.4948    23.7167 </r>
       <r>    32.9519     0.3455    23.7666 </r>
       <r>    33.0963     0.1851    23.7933 </r>
       <r>    33.2407     0.0805    23.8050 </r>
       <r>    33.3851     0.1090    23.8207 </r>
       <r>    33.5295     0.1398    23.8409 </r>
       <r>    33.6739     0.2061    23.8707 </r>
       <r>    33.8183     0.1743    23.8958 </r>
       <r>    33.9627     0.1888    23.9231 </r>
       <r>    34.1071     0.2230    23.9553 </r>
       <r>    34.2515     0.0736    23.9659 </r>
       <r>    34.3959    -0.0106    23.9644 </r>
       <r>    34.5403    -0.0042    23.9638 </r>
       <r>    34.6847     0.0278    23.9678 </r>
       <r>    34.8291     0.0656    23.9773 </r>
       <r>    34.9735     0.0917    23.9905 </r>
       <r>    35.1178     0.0628    23.9996 </r>
       <r>    35.2622     0.0071    24.0006 </r>
       <r>    35.4066    -0.0035    24.0001 </r>
       <r>    35.5510    -0.0006    24.0000 </r>
       <r>    35.6954    -0.0000    24.0000 </r>
       <r>    35.8398    -0.0000    24.0000 </r>
       <r>    35.9842    -0.0000    24.0000 </r>
       <r>    36.1286    -0.0000    24.0000 </r>
       <r>    36.2730    -0.0000    24.0000 </r>
       <r>    36.4174     0.0000    24.0000 </r>
       <r>    36.5618     0.0000    24.0000 </r>
       <r>    36.7062     0.0000    24.0000 </r>
       <r>    36.8506     0.0000    24.0000 </r>
       <r>    36.9950     0.0000    24.0000 </r>
      </set>
     </set>
    </array>
   </total>
  </dos>
 </calculation>
 <structure name="finalpos" >
  <crystal>
   <varray name="basis" >
    <v>       0.00000000       2.05000000       2.05000000 </v>
    <v>       2.05000000       0.00000000       2.05000000 </v>
    <v>       2.05000000       2.05000000       0.00000000 </v>
   </varray>
   <i name="volume">     17.23025000 </i>
   <varray name="rec_basis" >
    <v>      -0.24390244       0.24390244       0.24390244 </v>
    <v>       0.24390244      -0.24390244       0.24390244 </v>
    <v>       0.24390244       0.24390244      -0.24390244 </v>
   </varray>
  </crystal>
  <varray name="positions" >
   <v>       0.00000000       0.00000000       0.00000000 </v>
  </varray>
 </structure>
</modeling>
