FCC Au                                  
   3.90000000000000     
     0.000000    0.500000    0.500000
     0.500000    0.000000    0.500000
     0.500000    0.500000    0.000000
   Au
     1
Direct
  0.000000  0.000000  0.000000
 
   20   20   20
  71.096      67.736      59.268      48.906      38.688      28.905      19.755      12.379      7.8716      5.9041    
  5.3561      5.9041      7.8716      12.379      19.755      28.905      38.688      48.906      59.268      67.736    
  67.736      61.896      52.657      42.648      32.896      23.536      15.314      9.5090      6.5267      5.3929    
  5.3980      6.5336      9.5076      15.312      23.549      32.911      42.624      52.573      61.792      67.688    
  59.268      52.657      44.087      35.030      26.008      17.644      11.119      7.2436      5.5167      5.0247    
  5.5205      7.2432      11.116      17.653      26.031      35.038      44.043      52.568      59.194      61.792    
  48.906      42.648      35.030      26.864      18.915      12.286      7.9117      5.7005      4.7934      4.7934    
  5.6987      7.9067      12.282      18.920      26.878      35.043      42.649      48.899      52.568      52.573    
  38.688      32.896      26.008      18.915      12.713      8.3242      5.8684      4.6736      4.3285      4.6754    
  5.8681      8.3173      12.699      18.902      26.008      32.917      38.721      42.649      44.043      42.624    
  28.905      23.536      17.644      12.286      8.3242      5.9397      4.6311      4.0713      4.0721      4.6349    
  5.9462      8.3249      12.271      17.614      23.509      28.896      32.917      35.043      35.038      32.911    
  19.755      15.314      11.119      7.9117      5.8684      4.6311      3.9908      3.7987      3.9893      4.6374    
  5.8860      7.9286      11.117      15.285      19.711      23.509      26.008      26.878      26.031      23.549    
  12.379      9.5090      7.2436      5.7005      4.6736      4.0713      3.7987      3.7959      4.0660      4.6744    
  5.7162      7.2733      9.5366      12.382      15.285      17.614      18.902      18.920      17.653      15.312    
  7.8716      6.5267      5.5167      4.7934      4.3285      4.0721      3.9893      4.0660      4.3132      4.7760    
  5.5169      6.5563      7.9158      9.5366      11.117      12.271      12.699      12.282      11.116      9.5076    
  5.9041      5.3929      5.0247      4.7934      4.6754      4.6349      4.6374      4.6744      4.7760      4.9935    
  5.3678      5.9032      6.5563      7.2733      7.9286      8.3249      8.3173      7.9067      7.2432      6.5336    
  5.3561      5.3980      5.5205      5.6987      5.8681      5.9462      5.8860      5.7162      5.5169      5.3678    
  5.3139      5.3678      5.5169      5.7162      5.8860      5.9462      5.8681      5.6987      5.5205      5.3980    
  5.9041      6.5336      7.2432      7.9067      8.3173      8.3249      7.9286      7.2733      6.5563      5.9032    
  5.3678      4.9935      4.7760      4.6744      4.6374      4.6349      4.6754      4.7934      5.0247      5.3929    
  7.8716      9.5076      11.116      12.282      12.699      12.271      11.117      9.5366      7.9158      6.5563    
  5.5169      4.7760      4.3132      4.0660      3.9893      4.0721      4.3285      4.7934      5.5167      6.5267    
  12.379      15.312      17.653      18.920      18.902      17.614      15.285      12.382      9.5366      7.2733    
  5.7162      4.6744      4.0660      3.7959      3.7987      4.0713      4.6736      5.7005      7.2436      9.5090    
  19.755      23.549      26.031      26.878      26.008      23.509      19.711      15.285      11.117      7.9286    
  5.8860      4.6374      3.9893      3.7987      3.9908      4.6311      5.8684      7.9117      11.119      15.314    
  28.905      32.911      35.038      35.043      32.917      28.896      23.509      17.614      12.271      8.3249    
  5.9462      4.6349      4.0721      4.0713      4.6311      5.9397      8.3242      12.286      17.644      23.536    
  38.688      42.624      44.043      42.649      38.721      32.917      26.008      18.902      12.699      8.3173    
  5.8681      4.6754      4.3285      4.6736      5.8684      8.3242      12.713      18.915      26.008      32.896    
  48.906      52.573      52.568      48.899      42.649      35.043      26.878      18.920      12.282      7.9067    
  5.6987      4.7934      4.7934      5.7005      7.9117      12.286      18.915      26.864      35.030      42.648    
  59.268      61.792      59.194      52.568      44.043      35.038      26.031      17.653      11.116      7.2432    
  5.5205      5.0247      5.5167      7.2436      11.119      17.644      26.008      35.030      44.087      52.657    
  67.736      67.688      61.792      52.573      42.624      32.911      23.549      15.312      9.5076      6.5336    
  5.3980      5.3929      6.5267      9.5090      15.314      23.536      32.896      42.648      52.657      61.896    
  67.736      61.896      52.657      42.648      32.896      23.536      15.314      9.5090      6.5267      5.3929    
  5.3980      6.5336      9.5076      15.312      23.549      32.911      42.624      52.573      61.792      67.688    
  61.896      54.680      45.510      36.077      26.841      18.272      11.509      7.4455      5.6446      5.1359    
  5.6498      7.4446      11.506      18.288      26.877      36.083      45.432      54.530      61.772      64.661    
  52.657      45.510      37.188      28.575      20.240      13.166      8.3855      5.9610      4.9870      4.9879    
  5.9594      8.3794      13.169      20.267      28.610      37.188      45.450      52.572      56.921      56.961    
  42.648      36.077      28.575      20.928      14.102      9.1052      6.2653      4.9282      4.5440      4.9320    
  6.2637      9.0949      14.094      20.937      28.603      36.107      42.667      47.342      49.067      47.336    
  32.896      26.841      20.240      14.102      9.3801      6.4688      4.9280      4.2742      4.2774      4.9333    
  6.4669      9.3659      14.082      20.230      26.855      32.932      37.597      40.143      40.127      37.558    
  23.536      18.272      13.166      9.1052      6.4688      4.9404      4.1541      3.9235      4.1538      4.9455    
  6.4783      9.1064      13.148      18.242      23.513      27.999      30.962      31.989      30.957      28.003    
  15.314      11.509      8.3855      6.2653      4.9280      4.1541      3.8152      3.8121      4.1522      4.9396    
  6.2895      8.4053      11.506      15.286      19.027      21.963      23.558      23.569      21.993      19.065    
  9.5090      7.4455      5.9610      4.9282      4.2742      3.9235      3.8121      3.9184      4.2677      4.9296    
  5.9798      7.4788      9.5381      11.949      14.218      15.826      16.413      15.848      14.239      11.944    
  6.5267      5.6446      4.9870      4.5440      4.2774      4.1538      4.1522      4.2677      4.5223      4.9662    
  5.6468      6.5579      7.6850      8.9345      10.038      10.692      10.694      10.036      8.9107      7.6446    
  5.3929      5.1359      4.9879      4.9320      4.9333      4.9455      4.9396      4.9296      4.9662      5.1029    
  5.3690      5.7591      6.2295      6.7109      7.0921      7.2348      7.0778      6.6883      6.2116      5.7603    
  5.3980      5.6498      5.9594      6.2637      6.4669      6.4783      6.2895      5.9798      5.6468      5.3690    
  5.1908      5.1254      5.1578      5.2391      5.2999      5.2924      5.2266      5.1602      5.1520      5.2300    
  6.5336      7.4446      8.3794      9.0949      9.3659      9.1064      8.4053      7.4788      6.5579      5.7591    
  5.1254      4.6911      4.4339      4.3051      4.2652      4.3050      4.4443      4.7150      5.1480      5.7603    
  9.5076      11.506      13.169      14.094      14.082      13.148      11.506      9.5381      7.6850      6.2295    
  5.1578      4.4339      4.0092      3.8161      3.8191      4.0186      4.4455      5.1579      6.2058      7.6446    
  15.312      18.288      20.267      20.937      20.230      18.242      15.286      11.949      8.9345      6.7109    
  5.2391      4.3051      3.8161      3.6688      3.8193      4.3056      5.2292      6.6891      8.9117      11.944    
  23.549      26.877      28.610      28.603      26.855      23.513      19.027      14.218      10.038      7.0921    
  5.2999      4.2652      3.8191      3.8193      4.2621      5.2897      7.0811      10.041      14.242      19.065    
  32.911      36.083      37.188      36.107      32.932      27.999      21.963      15.826      10.692      7.2348    
  5.2924      4.3050      4.0186      4.3056      5.2897      7.2319      10.700      15.850      21.988      28.003    
  42.624      45.432      45.450      42.667      37.597      30.962      23.558      16.413      10.694      7.0778    
  5.2266      4.4443      4.4455      5.2292      7.0811      10.700      16.422      23.560      30.945      37.558    
  52.573      54.530      52.572      47.342      40.143      31.989      23.569      15.848      10.036      6.6883    
  5.1602      4.7150      5.1579      6.6891      10.041      15.850      23.560      31.971      40.127      47.336    
  61.792      61.772      56.921      49.067      40.127      30.957      21.993      14.239      8.9107      6.2116    
  5.1520      5.1480      6.2058      8.9117      14.242      21.988      30.945      40.127      49.094      56.961    
  67.688      64.661      56.961      47.336      37.558      28.003      19.065      11.944      7.6446      5.7603    
  5.2300      5.7603      7.6446      11.944      19.065      28.003      37.558      47.336      56.961      64.661    
  59.268      52.657      44.087      35.030      26.008      17.644      11.119      7.2436      5.5167      5.0247    
  5.5205      7.2432      11.116      17.653      26.031      35.038      44.043      52.568      59.194      61.792    
  52.657      45.510      37.188      28.575      20.240      13.166      8.3855      5.9610      4.9870      4.9879    
  5.9594      8.3794      13.169      20.267      28.610      37.188      45.450      52.572      56.921      56.961    
  44.087      37.188      29.450      21.616      14.588      9.3868      6.4086      5.0198      4.6209      5.0236    
  6.4059      9.3771      14.589      21.642      29.490      37.215      44.086      49.081      50.955      49.094    
  35.030      28.575      21.616      15.093      9.9761      6.7675      5.0947      4.3887      4.3925      5.0998    
  6.7626      9.9599      15.080      21.626      28.618      35.095      40.185      43.028      43.004      40.127    
  26.008      20.240      14.588      9.9761      6.9090      5.1621      4.2716      4.0145      4.2730      5.1647    
  6.9069      9.9612      14.564      20.228      26.030      30.996      34.325      35.480      34.282      30.945    
  17.644      13.166      9.3868      6.7675      5.1621      4.2396      3.8434      3.8407      4.2381      5.1706    
  6.7802      9.3867      13.145      17.615      21.972      25.372      27.214      27.211      25.373      21.988    
  11.119      8.3855      6.4086      5.0947      4.2716      3.8434      3.7103      3.8384      4.2720      5.1090    
  6.4328      8.4043      11.118      14.220      17.073      19.058      19.773      19.080      17.105      14.242    
  7.2436      5.9610      5.0198      4.3887      4.0145      3.8407      3.8384      4.0074      4.3800      5.0201    
  5.9800      7.2761      8.9377      10.746      12.294      13.190      13.198      12.307      10.742      8.9117    
  5.5167      4.9870      4.6209      4.3925      4.2730      4.2381      4.2720      4.3800      4.5955      4.9658    
  5.5197      6.2331      7.0521      7.8832      8.5226      8.7644      8.5184      7.8655      7.0207      6.2058    
  5.0247      4.9879      5.0236      5.0998      5.1647      5.1706      5.1090      5.0201      4.9658      4.9948    
  5.1278      5.3576      5.6455      5.9181      6.0861      6.0800      5.9036      5.6329      5.3590      5.1480    
  5.5205      5.9594      6.4059      6.7626      6.9069      6.7802      6.4328      5.9800      5.5197      5.1278    
  4.8494      4.6947      4.6404      4.6377      4.6387      4.6299      4.6402      4.7141      4.8816      5.1520    
  7.2432      8.3794      9.3771      9.9599      9.9612      9.3867      8.4043      7.2761      6.2331      5.3576    
  4.6947      4.2572      4.0042      3.8892      3.8889      4.0083      4.2711      4.7110      5.3590      6.2116    
  11.116      13.169      14.589      15.080      14.564      13.145      11.118      8.9377      7.0521      5.6455    
  4.6404      4.0042      3.6652      3.5610      3.6702      4.0109      4.6399      5.6285      7.0207      8.9107    
  17.653      20.267      21.642      21.626      20.228      17.615      14.220      10.746      7.8832      5.9181    
  4.6377      3.8892      3.5610      3.5625      3.8904      4.6324      5.9042      7.8675      10.742      14.239    
  26.031      28.610      29.490      28.618      26.030      21.972      17.073      12.294      8.5226      6.0861    
  4.6387      3.8889      3.6702      3.8904      4.6349      6.0774      8.5224      12.313      17.105      21.993    
  35.038      37.188      37.215      35.095      30.996      25.372      19.058      13.190      8.7644      6.0800    
  4.6299      4.0083      4.0109      4.6324      6.0774      8.7650      13.205      19.081      25.373      30.957    
  44.043      45.450      44.086      40.185      34.325      27.214      19.773      13.198      8.5184      5.9036    
  4.6402      4.2711      4.6399      5.9042      8.5224      13.205      19.776      27.198      34.282      40.127    
  52.568      52.572      49.081      43.028      35.480      27.211      19.080      12.307      7.8655      5.6329    
  4.7141      4.7110      5.6285      7.8675      12.313      19.081      27.198      35.456      43.004      49.067    
  59.194      56.921      50.955      43.004      34.282      25.373      17.105      10.742      7.0207      5.3590    
  4.8816      5.3590      7.0207      10.742      17.105      25.373      34.282      43.004      50.955      56.921    
  61.792      56.961      49.094      40.127      30.945      21.988      14.242      8.9117      6.2058      5.1480    
  5.1520      6.2116      8.9107      14.239      21.993      30.957      40.127      49.067      56.921      61.772    
  48.906      42.648      35.030      26.864      18.915      12.286      7.9117      5.7005      4.7934      4.7934    
  5.6987      7.9067      12.282      18.920      26.878      35.043      42.649      48.899      52.568      52.573    
  42.648      36.077      28.575      20.928      14.102      9.1052      6.2653      4.9282      4.5440      4.9320    
  6.2637      9.0949      14.094      20.937      28.603      36.107      42.667      47.342      49.067      47.336    
  35.030      28.575      21.616      15.093      9.9761      6.7675      5.0947      4.3887      4.3925      5.0998    
  6.7626      9.9599      15.080      21.626      28.618      35.095      40.185      43.028      43.004      40.127    
  26.864      20.928      15.093      10.291      7.0683      5.2418      4.3155      4.0486      4.3164      5.2439    
  7.0648      10.272      15.066      20.921      26.907      32.051      35.522      36.724      35.456      31.971    
  18.915      14.102      9.9761      7.0683      5.2994      4.2920      3.8645      3.8623      4.2913      5.3055    
  7.0699      9.9559      14.065      18.894      23.580      27.242      29.224      29.201      27.198      23.560    
  12.286      9.1052      6.7675      5.2418      4.2920      3.8062      3.6590      3.8022      4.2940      5.2538    
  6.7782      9.0993      12.262      15.823      19.064      21.302      22.098      21.308      19.081      15.850    
  7.9117      6.2653      5.0947      4.3155      3.8645      3.6590      3.6555      3.8587      4.3169      5.1086    
  6.2866      7.9269      10.038      12.293      14.186      15.265      15.276      14.211      12.313      10.041    
  5.7005      4.9282      4.3887      4.0486      3.8623      3.8022      3.8587      4.0397      4.3787      4.9279    
  5.7170      6.7146      7.8853      9.0522      9.9257      10.253      9.9310      9.0501      7.8675      6.6891    
  4.7934      4.5440      4.3925      4.3164      4.2913      4.2940      4.3169      4.3787      4.5186      4.7747    
  5.1605      5.6483      6.1676      6.6307      6.9126      6.9098      6.6194      6.1468      5.6285      5.1579    
  4.7934      4.9320      5.0998      5.2439      5.3055      5.2538      5.1086      4.9279      4.7747      4.6915    
  4.6956      4.7803      4.9115      5.0295      5.0740      5.0217      4.9034      4.7818      4.7110      4.7150    
  5.6987      6.2637      6.7626      7.0648      7.0699      6.7782      6.2866      5.7170      5.1605      4.6956    
  4.3622      4.1595      4.0569      4.0153      4.0120      4.0546      4.1700      4.3847      4.7141      5.1602    
  7.9067      9.0949      9.9599      10.272      9.9559      9.0993      7.9269      6.7146      5.6483      4.7803    
  4.1595      3.7681      3.5566      3.4891      3.5571      3.7737      4.1686      4.7818      5.6329      6.6883    
  12.282      14.094      15.080      15.066      14.065      12.262      10.038      7.8853      6.1676      4.9115    
  4.0569      3.5566      3.3310      3.3327      3.5598      4.0564      4.9009      6.1468      7.8655      10.036    
  18.920      20.937      21.626      20.921      18.894      15.823      12.293      9.0522      6.6307      5.0295    
  4.0153      3.4891      3.3327      3.4920      4.0145      5.0208      6.6197      9.0501      12.307      15.848    
  26.878      28.603      28.618      26.907      23.580      19.064      14.186      9.9257      6.9126      5.0740    
  4.0120      3.5571      3.5598      4.0145      5.0696      6.9085      9.9363      14.211      19.080      23.569    
  35.043      36.107      35.095      32.051      27.242      21.302      15.265      10.253      6.9098      5.0217    
  4.0546      3.7737      4.0564      5.0208      6.9085      10.261      15.283      21.308      27.211      31.989    
  42.649      42.667      40.185      35.522      29.224      22.098      15.276      9.9310      6.6194      4.9034    
  4.1700      4.1686      4.9009      6.6197      9.9363      15.283      22.095      29.201      35.480      40.143    
  48.899      47.342      43.028      36.724      29.201      21.308      14.211      9.0501      6.1468      4.7818    
  4.3847      4.7818      6.1468      9.0501      14.211      21.308      29.201      36.724      43.028      47.342    
  52.568      49.067      43.004      35.456      27.198      19.081      12.313      7.8675      5.6285      4.7110    
  4.7141      5.6329      7.8655      12.307      19.080      27.211      35.480      43.028      49.081      52.572    
  52.573      47.336      40.127      31.971      23.560      15.850      10.041      6.6891      5.1579      4.7150    
  5.1602      6.6883      10.036      15.848      23.569      31.989      40.143      47.342      52.572      54.530    
  38.688      32.896      26.008      18.915      12.713      8.3242      5.8684      4.6736      4.3285      4.6754    
  5.8681      8.3173      12.699      18.902      26.008      32.917      38.721      42.649      44.043      42.624    
  32.896      26.841      20.240      14.102      9.3801      6.4688      4.9280      4.2742      4.2774      4.9333    
  6.4669      9.3659      14.082      20.230      26.855      32.932      37.597      40.143      40.127      37.558    
  26.008      20.240      14.588      9.9761      6.9090      5.1621      4.2716      4.0145      4.2730      5.1647    
  6.9069      9.9612      14.564      20.228      26.030      30.996      34.325      35.480      34.282      30.945    
  18.915      14.102      9.9761      7.0683      5.2994      4.2920      3.8645      3.8623      4.2913      5.3055    
  7.0699      9.9559      14.065      18.894      23.580      27.242      29.224      29.201      27.198      23.560    
  12.713      9.3801      6.9090      5.2994      4.3011      3.7952      3.6443      3.7928      4.3050      5.3094    
  6.9093      9.3574      12.677      16.397      19.776      22.106      22.927      22.095      19.776      16.422    
  8.3242      6.4688      5.1621      4.2920      3.7952      3.5745      3.5724      3.7930      4.2969      5.1733    
  6.4765      8.3186      10.680      13.180      15.263      16.441      16.449      15.283      13.205      10.700    
  5.8684      4.9280      4.2716      3.8645      3.6443      3.5724      3.6398      3.8600      4.2736      4.9395    
  5.8848      7.0920      8.5191      9.9213      10.954      11.340      10.968      9.9363      8.5224      7.0811    
  4.6736      4.2742      4.0145      3.8623      3.7928      3.7930      3.8600      4.0068      4.2651      4.6726    
  5.2404      5.9205      6.6304      7.2550      7.6281      7.6286      7.2527      6.6197      5.9042      5.2292    
  4.3285      4.2774      4.2730      4.2913      4.3050      4.2969      4.2736      4.2651      4.3087      4.4318    
  4.6404      4.9118      5.1918      5.4053      5.4837      5.3987      5.1800      4.9009      4.6399      4.4455    
  4.6754      4.9333      5.1647      5.3055      5.3094      5.1733      4.9395      4.6726      4.4318      4.2551    
  4.1579      4.1331      4.1517      4.1735      4.1706      4.1470      4.1342      4.1686      4.2711      4.4443    
  5.8681      6.4669      6.9069      7.0699      6.9093      6.4765      5.8848      5.2404      4.6404      4.1579    
  3.8179      3.6064      3.4938      3.4571      3.4920      3.6103      3.8303      4.1700      4.6402      5.2266    
  8.3173      9.3659      9.9612      9.9559      9.3574      8.3186      7.0920      5.9205      4.9118      4.1331    
  3.6064      3.2922      3.1458      3.1455      3.2933      3.6099      4.1342      4.9034      5.9036      7.0778    
  12.699      14.082      14.564      14.065      12.677      10.680      8.5191      6.6304      5.1918      4.1517    
  3.4938      3.1458      3.0392      3.1478      3.4939      4.1457      5.1800      6.6194      8.5184      10.694    
  18.902      20.230      20.228      18.894      16.397      13.180      9.9213      7.2550      5.4053      4.1735    
  3.4571      3.1455      3.1478      3.4598      4.1702      5.3977      7.2527      9.9310      13.198      16.413    
  26.008      26.855      26.030      23.580      19.776      15.263      10.954      7.6281      5.4837      4.1706    
  3.4920      3.2933      3.4939      4.1702      5.4816      7.6320      10.968      15.276      19.773      23.558    
  32.917      32.932      30.996      27.242      22.106      16.441      11.340      7.6286      5.3987      4.1470    
  3.6103      3.6099      4.1457      5.3977      7.6320      11.349      16.449      22.098      27.214      30.962    
  38.721      37.597      34.325      29.224      22.927      16.449      10.968      7.2527      5.1800      4.1342    
  3.8303      4.1342      5.1800      7.2527      10.968      16.449      22.927      29.224      34.325      37.597    
  42.649      40.143      35.480      29.201      22.095      15.283      9.9363      6.6197      4.9009      4.1686    
  4.1700      4.9034      6.6194      9.9310      15.276      22.098      29.224      35.522      40.185      42.667    
  44.043      40.127      34.282      27.198      19.776      13.205      8.5224      5.9042      4.6399      4.2711    
  4.6402      5.9036      8.5184      13.198      19.773      27.214      34.325      40.185      44.086      45.450    
  42.624      37.558      30.945      23.560      16.422      10.700      7.0811      5.2292      4.4455      4.4443    
  5.2266      7.0778      10.694      16.413      23.558      30.962      37.597      42.667      45.450      45.432    
  28.905      23.536      17.644      12.286      8.3242      5.9397      4.6311      4.0713      4.0721      4.6349    
  5.9462      8.3249      12.271      17.614      23.509      28.896      32.917      35.043      35.038      32.911    
  23.536      18.272      13.166      9.1052      6.4688      4.9404      4.1541      3.9235      4.1538      4.9455    
  6.4783      9.1064      13.148      18.242      23.513      27.999      30.962      31.989      30.957      28.003    
  17.644      13.166      9.3868      6.7675      5.1621      4.2396      3.8434      3.8407      4.2381      5.1706    
  6.7802      9.3867      13.145      17.615      21.972      25.372      27.214      27.211      25.373      21.988    
  12.286      9.1052      6.7675      5.2418      4.2920      3.8062      3.6590      3.8022      4.2940      5.2538    
  6.7782      9.0993      12.262      15.823      19.064      21.302      22.098      21.308      19.081      15.850    
  8.3242      6.4688      5.1621      4.2920      3.7952      3.5745      3.5724      3.7930      4.2969      5.1733    
  6.4765      8.3186      10.680      13.180      15.263      16.441      16.449      15.283      13.205      10.700    
  5.9397      4.9404      4.2396      3.8062      3.5745      3.5005      3.5723      3.8049      4.2431      4.9502    
  5.9513      7.2363      8.7557      10.242      11.333      11.739      11.349      10.261      8.7650      7.2319    
  4.6311      4.1541      3.8434      3.6590      3.5724      3.5723      3.6578      3.8408      4.1542      4.6390    
  5.3038      6.0882      6.9080      7.6234      8.0484      8.0534      7.6320      6.9085      6.0774      5.2897    
  4.0713      3.9235      3.8407      3.8022      3.7930      3.8049      3.8408      3.9182      4.0647      4.3047    
  4.6391      5.0299      5.4035      5.6752      5.7757      5.6734      5.3977      5.0208      4.6324      4.3056    
  4.0721      4.1538      4.2381      4.2940      4.2969      4.2431      4.1542      4.0647      4.0071      4.0021    
  4.0548      4.1503      4.2531      4.3186      4.3159      4.2470      4.1457      4.0564      4.0109      4.0186    
  4.6349      4.9455      5.1706      5.2538      5.1733      4.9502      4.6390      4.3047      4.0021      3.7647    
  3.6040      3.5120      3.4692      3.4562      3.4672      3.5125      3.6099      3.7737      4.0083      4.3050    
  5.9462      6.4783      6.7802      6.7782      6.4765      5.9513      5.3038      4.6391      4.0548      3.6040    
  3.2927      3.1012      3.0094      3.0089      3.1021      3.2979      3.6103      4.0546      4.6299      5.2924    
  8.3249      9.1064      9.3867      9.0993      8.3186      7.2363      6.0882      5.0299      4.1503      3.5120    
  3.1012      2.8751      2.8028      2.8752      3.1022      3.5125      4.1470      5.0217      6.0800      7.2348    
  12.271      13.148      13.145      12.262      10.680      8.7557      6.9080      5.4035      4.2531      3.4692    
  3.0094      2.8028      2.8042      3.0111      3.4669      4.2470      5.3987      6.9098      8.7644      10.692    
  17.614      18.242      17.615      15.823      13.180      10.242      7.6234      5.6752      4.3186      3.4562    
  3.0089      2.8752      3.0111      3.4564      4.3154      5.6734      7.6286      10.253      13.190      15.826    
  23.509      23.513      21.972      19.064      15.263      11.333      8.0484      5.7757      4.3159      3.4672    
  3.1021      3.1022      3.4669      4.3154      5.7771      8.0534      11.340      15.265      19.058      21.963    
  28.896      27.999      25.372      21.302      16.441      11.739      8.0534      5.6734      4.2470      3.5125    
  3.2979      3.5125      4.2470      5.6734      8.0534      11.739      16.441      21.302      25.372      27.999    
  32.917      30.962      27.214      22.098      16.449      11.349      7.6320      5.3977      4.1457      3.6099    
  3.6103      4.1470      5.3987      7.6286      11.340      16.441      22.106      27.242      30.996      32.932    
  35.043      31.989      27.211      21.308      15.283      10.261      6.9085      5.0208      4.0564      3.7737    
  4.0546      5.0217      6.9098      10.253      15.265      21.302      27.242      32.051      35.095      36.107    
  35.038      30.957      25.373      19.081      13.205      8.7650      6.0774      4.6324      4.0109      4.0083    
  4.6299      6.0800      8.7644      13.190      19.058      25.372      30.996      35.095      37.215      37.188    
  32.911      28.003      21.988      15.850      10.700      7.2319      5.2897      4.3056      4.0186      4.3050    
  5.2924      7.2348      10.692      15.826      21.963      27.999      32.932      36.107      37.188      36.083    
  19.755      15.314      11.119      7.9117      5.8684      4.6311      3.9908      3.7987      3.9893      4.6374    
  5.8860      7.9286      11.117      15.285      19.711      23.509      26.008      26.878      26.031      23.549    
  15.314      11.509      8.3855      6.2653      4.9280      4.1541      3.8152      3.8121      4.1522      4.9396    
  6.2895      8.4053      11.506      15.286      19.027      21.963      23.558      23.569      21.993      19.065    
  11.119      8.3855      6.4086      5.0947      4.2716      3.8434      3.7103      3.8384      4.2720      5.1090    