FCC Au                                  
   3.90000000000000     
     0.000000    0.500000    0.500000
     0.500000    0.000000    0.500000
     0.500000    0.500000    0.000000
   Au
     1
Direct
  0.000000  0.000000  0.000000
 
   20   20   20
 0.71096210766E+02 0.67735501206E+02 0.59268139453E+02 0.48906364466E+02 0.38687852477E+02
 0.28905365337E+02 0.19755097573E+02 0.12378542212E+02 0.78716182283E+01 0.59041008863E+01
 0.53561016028E+01 0.59041008863E+01 0.78716182283E+01 0.12378542212E+02 0.19755097573E+02
 0.28905365337E+02 0.38687852477E+02 0.48906364466E+02 0.59268139453E+02 0.67735501206E+02
 0.67735501206E+02 0.61895860836E+02 0.52656618045E+02 0.42648158492E+02 0.32896115016E+02
 0.23535689094E+02 0.15313550890E+02 0.95090277617E+01 0.65267094782E+01 0.53928655168E+01
 0.53980132403E+01 0.65336383415E+01 0.95076053147E+01 0.15312248796E+02 0.23548919489E+02
 0.32911208511E+02 0.42624349461E+02 0.52572606300E+02 0.61791664346E+02 0.67687742837E+02
 0.59268139453E+02 0.52656618045E+02 0.44087014674E+02 0.35030415850E+02 0.26007771402E+02
 0.17643660091E+02 0.11119033497E+02 0.72435750136E+01 0.55166646572E+01 0.50246785402E+01
 0.55204823595E+01 0.72432081456E+01 0.11116347237E+02 0.17653060790E+02 0.26030958144E+02
 0.35037873907E+02 0.44043023505E+02 0.52567775874E+02 0.59193691215E+02 0.61791664346E+02
 0.48906364466E+02 0.42648158492E+02 0.35030415850E+02 0.26864260969E+02 0.18914759938E+02
 0.12285833488E+02 0.79117253966E+01 0.57005124482E+01 0.47933687911E+01 0.47933663322E+01
 0.56986821165E+01 0.79067167878E+01 0.12282284691E+02 0.18919909250E+02 0.26878064032E+02
 0.35042782009E+02 0.42649340131E+02 0.48898635211E+02 0.52567775874E+02 0.52572606300E+02
 0.38687852477E+02 0.32896115016E+02 0.26007771402E+02 0.18914759938E+02 0.12712922910E+02
 0.83242255042E+01 0.58683818374E+01 0.46736142863E+01 0.43284897975E+01 0.46753953421E+01
 0.58681444320E+01 0.83173212074E+01 0.12699087552E+02 0.18901805945E+02 0.26008267486E+02
 0.32916838566E+02 0.38720729931E+02 0.42649340131E+02 0.44043023505E+02 0.42624349461E+02
 0.28905365337E+02 0.23535689094E+02 0.17643660091E+02 0.12285833488E+02 0.83242255042E+01
 0.59397222768E+01 0.46311280774E+01 0.40713223568E+01 0.40720776782E+01 0.46349463403E+01
 0.59461641461E+01 0.83248500396E+01 0.12270517309E+02 0.17614376039E+02 0.23508805589E+02
 0.28895926052E+02 0.32916838566E+02 0.35042782009E+02 0.35037873907E+02 0.32911208511E+02
 0.19755097573E+02 0.15313550890E+02 0.11119033497E+02 0.79117253966E+01 0.58683818374E+01
 0.46311280774E+01 0.39908226228E+01 0.37987412049E+01 0.39892685034E+01 0.46373804228E+01
 0.58860060052E+01 0.79286203543E+01 0.11116675222E+02 0.15284976094E+02 0.19711316741E+02
 0.23508805589E+02 0.26008267486E+02 0.26878064032E+02 0.26030958144E+02 0.23548919489E+02
 0.12378542212E+02 0.95090277617E+01 0.72435750136E+01 0.57005124482E+01 0.46736142863E+01
 0.40713223568E+01 0.37987412049E+01 0.37958792051E+01 0.40659735513E+01 0.46744144560E+01
 0.57162121663E+01 0.72732662989E+01 0.95366103636E+01 0.12382155014E+02 0.15284976094E+02
 0.17614376039E+02 0.18901805945E+02 0.18919909250E+02 0.17653060790E+02 0.15312248796E+02
 0.78716182283E+01 0.65267094782E+01 0.55166646572E+01 0.47933687911E+01 0.43284897975E+01
 0.40720776782E+01 0.39892685034E+01 0.40659735513E+01 0.43131643975E+01 0.47760452965E+01
 0.55169192340E+01 0.65562686161E+01 0.79158429989E+01 0.95366103636E+01 0.11116675222E+02
 0.12270517309E+02 0.12699087552E+02 0.12282284691E+02 0.11116347237E+02 0.95076053147E+01
 0.59041008863E+01 0.53928655168E+01 0.50246785402E+01 0.47933663322E+01 0.46753953421E+01
 0.46349463403E+01 0.46373804228E+01 0.46744144560E+01 0.47760452965E+01 0.49935321293E+01
 0.53677608551E+01 0.59031834241E+01 0.65562686161E+01 0.72732662989E+01 0.79286203543E+01
 0.83248500396E+01 0.83173212074E+01 0.79067167878E+01 0.72432081456E+01 0.65336383415E+01
 0.53561016028E+01 0.53980132403E+01 0.55204823595E+01 0.56986821165E+01 0.58681444320E+01
 0.59461641461E+01 0.58860060052E+01 0.57162121663E+01 0.55169192340E+01 0.53677608551E+01
 0.53138921549E+01 0.53677608551E+01 0.55169192340E+01 0.57162121663E+01 0.58860060052E+01
 0.59461641461E+01 0.58681444320E+01 0.56986821165E+01 0.55204823595E+01 0.53980132403E+01
 0.59041008863E+01 0.65336383415E+01 0.72432081456E+01 0.79067167878E+01 0.83173212074E+01
 0.83248500396E+01 0.79286203543E+01 0.72732662989E+01 0.65562686161E+01 0.59031834241E+01
 0.53677608551E+01 0.49935321293E+01 0.47760452965E+01 0.46744144560E+01 0.46373804228E+01
 0.46349463403E+01 0.46753953421E+01 0.47933663322E+01 0.50246785402E+01 0.53928655168E+01
 0.78716182283E+01 0.95076053147E+01 0.11116347237E+02 0.12282284691E+02 0.12699087552E+02
 0.12270517309E+02 0.11116675222E+02 0.95366103636E+01 0.79158429989E+01 0.65562686161E+01
 0.55169192340E+01 0.47760452965E+01 0.43131643975E+01 0.40659735513E+01 0.39892685034E+01
 0.40720776782E+01 0.43284897975E+01 0.47933687911E+01 0.55166646572E+01 0.65267094782E+01
 0.12378542212E+02 0.15312248796E+02 0.17653060790E+02 0.18919909250E+02 0.18901805945E+02
 0.17614376039E+02 0.15284976094E+02 0.12382155014E+02 0.95366103636E+01 0.72732662989E+01
 0.57162121663E+01 0.46744144560E+01 0.40659735513E+01 0.37958792051E+01 0.37987412049E+01
 0.40713223568E+01 0.46736142863E+01 0.57005124482E+01 0.72435750136E+01 0.95090277617E+01
 0.19755097573E+02 0.23548919489E+02 0.26030958144E+02 0.26878064032E+02 0.26008267486E+02
 0.23508805589E+02 0.19711316741E+02 0.15284976094E+02 0.11116675222E+02 0.79286203543E+01
 0.58860060052E+01 0.46373804228E+01 0.39892685034E+01 0.37987412049E+01 0.39908226228E+01
 0.46311280774E+01 0.58683818374E+01 0.79117253966E+01 0.11119033497E+02 0.15313550890E+02
 0.28905365337E+02 0.32911208511E+02 0.35037873907E+02 0.35042782009E+02 0.32916838566E+02
 0.28895926052E+02 0.23508805589E+02 0.17614376039E+02 0.12270517309E+02 0.83248500396E+01
 0.59461641461E+01 0.46349463403E+01 0.40720776782E+01 0.40713223568E+01 0.46311280774E+01
 0.59397222768E+01 0.83242255042E+01 0.12285833488E+02 0.17643660091E+02 0.23535689094E+02
 0.38687852477E+02 0.42624349461E+02 0.44043023505E+02 0.42649340131E+02 0.38720729931E+02
 0.32916838566E+02 0.26008267486E+02 0.18901805945E+02 0.12699087552E+02 0.83173212074E+01
 0.58681444320E+01 0.46753953421E+01 0.43284897975E+01 0.46736142863E+01 0.58683818374E+01
 0.83242255042E+01 0.12712922910E+02 0.18914759938E+02 0.26007771402E+02 0.32896115016E+02
 0.48906364466E+02 0.52572606300E+02 0.52567775874E+02 0.48898635211E+02 0.42649340131E+02
 0.35042782009E+02 0.26878064032E+02 0.18919909250E+02 0.12282284691E+02 0.79067167878E+01
 0.56986821165E+01 0.47933663322E+01 0.47933687911E+01 0.57005124482E+01 0.79117253966E+01
 0.12285833488E+02 0.18914759938E+02 0.26864260969E+02 0.35030415850E+02 0.42648158492E+02
 0.59268139453E+02 0.61791664346E+02 0.59193691215E+02 0.52567775874E+02 0.44043023505E+02
 0.35037873907E+02 0.26030958144E+02 0.17653060790E+02 0.11116347237E+02 0.72432081456E+01
 0.55204823595E+01 0.50246785402E+01 0.55166646572E+01 0.72435750136E+01 0.11119033497E+02
 0.17643660091E+02 0.26007771402E+02 0.35030415850E+02 0.44087014674E+02 0.52656618045E+02
 0.67735501206E+02 0.67687742837E+02 0.61791664346E+02 0.52572606300E+02 0.42624349461E+02
 0.32911208511E+02 0.23548919489E+02 0.15312248796E+02 0.95076053147E+01 0.65336383415E+01
 0.53980132403E+01 0.53928655168E+01 0.65267094782E+01 0.95090277617E+01 0.15313550890E+02
 0.23535689094E+02 0.32896115016E+02 0.42648158492E+02 0.52656618045E+02 0.61895860836E+02
 0.67735501206E+02 0.61895860836E+02 0.52656618045E+02 0.42648158492E+02 0.32896115016E+02
 0.23535689094E+02 0.15313550890E+02 0.95090277617E+01 0.65267094782E+01 0.53928655168E+01
 0.53980132403E+01 0.65336383415E+01 0.95076053147E+01 0.15312248796E+02 0.23548919489E+02
 0.32911208511E+02 0.42624349461E+02 0.52572606300E+02 0.61791664346E+02 0.67687742837E+02
 0.61895860836E+02 0.54679516049E+02 0.45510042247E+02 0.36076756079E+02 0.26841369325E+02
 0.18271933199E+02 0.11509038540E+02 0.74454655350E+01 0.56446361464E+01 0.51359313175E+01
 0.56497831078E+01 0.74445711063E+01 0.11506055700E+02 0.18288479055E+02 0.26877329348E+02
 0.36083446653E+02 0.45431731155E+02 0.54529893094E+02 0.61772388376E+02 0.64660892347E+02
 0.52656618045E+02 0.45510042247E+02 0.37188169089E+02 0.28575450811E+02 0.20240467463E+02
 0.13166148869E+02 0.83855381806E+01 0.59610227576E+01 0.49869616572E+01 0.49879351347E+01
 0.59594234456E+01 0.83793979130E+01 0.13169227550E+02 0.20266914787E+02 0.28609841899E+02
 0.37187590227E+02 0.45450471836E+02 0.52572224487E+02 0.56921011337E+02 0.56961003269E+02
 0.42648158492E+02 0.36076756079E+02 0.28575450811E+02 0.20927924742E+02 0.14101647224E+02
 0.91052101953E+01 0.62653008213E+01 0.49281642121E+01 0.45439733179E+01 0.49319880978E+01
 0.62637017256E+01 0.90948943214E+01 0.14093940192E+02 0.20937496515E+02 0.28602801097E+02
 0.36106982229E+02 0.42667099479E+02 0.47342161778E+02 0.49067062517E+02 0.47335644393E+02
 0.32896115016E+02 0.26841369325E+02 0.20240467463E+02 0.14101647224E+02 0.93800918167E+01
 0.64688297021E+01 0.49280248087E+01 0.42741548544E+01 0.42773920546E+01 0.49333077258E+01
 0.64668911070E+01 0.93659443564E+01 0.14081638436E+02 0.20230441151E+02 0.26855138852E+02
 0.32932248765E+02 0.37597258417E+02 0.40143494802E+02 0.40126710076E+02 0.37558290140E+02
 0.23535689094E+02 0.18271933199E+02 0.13166148869E+02 0.91052101953E+01 0.64688297021E+01
 0.49404308662E+01 0.41540730177E+01 0.39235431025E+01 0.41537531104E+01 0.49455263110E+01
 0.64782812668E+01 0.91064076157E+01 0.13148480553E+02 0.18242193446E+02 0.23513288546E+02
 0.27998724043E+02 0.30962333289E+02 0.31989234694E+02 0.30957179800E+02 0.28002977742E+02
 0.15313550890E+02 0.11509038540E+02 0.83855381806E+01 0.62653008213E+01 0.49280248087E+01
 0.41540730177E+01 0.38151882155E+01 0.38120659651E+01 0.41521649512E+01 0.49395509324E+01
 0.62894738994E+01 0.84052805103E+01 0.11506403164E+02 0.15286228034E+02 0.19027197714E+02
 0.21962739940E+02 0.23557559200E+02 0.23568879833E+02 0.21993201312E+02 0.19065144741E+02
 0.95090277617E+01 0.74454655350E+01 0.59610227576E+01 0.49281642121E+01 0.42741548544E+01
 0.39235431025E+01 0.38120659651E+01 0.39183847961E+01 0.42676781245E+01 0.49296215766E+01
 0.59797603484E+01 0.74788121127E+01 0.95381324396E+01 0.11948693500E+02 0.14218330267E+02
 0.15825978055E+02 0.16413254656E+02 0.15848170892E+02 0.14238668637E+02 0.11944162646E+02
 0.65267094782E+01 0.56446361464E+01 0.49869616572E+01 0.45439733179E+01 0.42773920546E+01
 0.41537531104E+01 0.41521649512E+01 0.42676781245E+01 0.45223449462E+01 0.49661917899E+01
 0.56467810632E+01 0.65579411913E+01 0.76849808850E+01 0.89345091090E+01 0.10038253735E+02
 0.10691512125E+02 0.10694097974E+02 0.10035537407E+02 0.89106883509E+01 0.76446427738E+01
 0.53928655168E+01 0.51359313175E+01 0.49879351347E+01 0.49319880978E+01 0.49333077258E+01
 0.49455263110E+01 0.49395509324E+01 0.49296215766E+01 0.49661917899E+01 0.51029140649E+01
 0.53689962661E+01 0.57591201632E+01 0.62294645234E+01 0.67108869776E+01 0.70921389427E+01
 0.72347826423E+01 0.70778376339E+01 0.66883141494E+01 0.62115579919E+01 0.57602771812E+01
 0.53980132403E+01 0.56497831078E+01 0.59594234456E+01 0.62637017256E+01 0.64668911070E+01
 0.64782812668E+01 0.62894738994E+01 0.59797603484E+01 0.56467810632E+01 0.53689962661E+01
 0.51907966457E+01 0.51254438680E+01 0.51578318858E+01 0.52391425843E+01 0.52999377674E+01
 0.52924086003E+01 0.52266487286E+01 0.51602481032E+01 0.51519829164E+01 0.52300148290E+01
 0.65336383415E+01 0.74445711063E+01 0.83793979130E+01 0.90948943214E+01 0.93659443564E+01
 0.91064076157E+01 0.84052805103E+01 0.74788121127E+01 0.65579411913E+01 0.57591201632E+01
 0.51254438680E+01 0.46911405091E+01 0.44339216824E+01 0.43050986641E+01 0.42651801972E+01
 0.43050408471E+01 0.44442539105E+01 0.47149673594E+01 0.51479554429E+01 0.57602771812E+01
 0.95076053147E+01 0.11506055700E+02 0.13169227550E+02 0.14093940192E+02 0.14081638436E+02
 0.13148480553E+02 0.11506403164E+02 0.95381324396E+01 0.76849808850E+01 0.62294645234E+01
 0.51578318858E+01 0.44339216824E+01 0.40092298515E+01 0.38160824838E+01 0.38190989119E+01
 0.40186263742E+01 0.44454619147E+01 0.51578899325E+01 0.62057587399E+01 0.76446427738E+01
 0.15312248796E+02 0.18288479055E+02 0.20266914787E+02 0.20937496515E+02 0.20230441151E+02
 0.18242193446E+02 0.15286228034E+02 0.11948693500E+02 0.89345091090E+01 0.67108869776E+01
 0.52391425843E+01 0.43050986641E+01 0.38160824838E+01 0.36688409208E+01 0.38192999144E+01
 0.43055702078E+01 0.52292323914E+01 0.66890911271E+01 0.89116551514E+01 0.11944162646E+02
 0.23548919489E+02 0.26877329348E+02 0.28609841899E+02 0.28602801097E+02 0.26855138852E+02
 0.23513288546E+02 0.19027197714E+02 0.14218330267E+02 0.10038253735E+02 0.70921389427E+01
 0.52999377674E+01 0.42651801972E+01 0.38190989119E+01 0.38192999144E+01 0.42621316945E+01
 0.52897072471E+01 0.70811195620E+01 0.10040820596E+02 0.14242401271E+02 0.19065144741E+02
 0.32911208511E+02 0.36083446653E+02 0.37187590227E+02 0.36106982229E+02 0.32932248765E+02
 0.27998724043E+02 0.21962739940E+02 0.15825978055E+02 0.10691512125E+02 0.72347826423E+01
 0.52924086003E+01 0.43050408471E+01 0.40186263742E+01 0.43055702078E+01 0.52897072471E+01
 0.72319134980E+01 0.10699958827E+02 0.15850373334E+02 0.21988319673E+02 0.28002977742E+02
 0.42624349461E+02 0.45431731155E+02 0.45450471836E+02 0.42667099479E+02 0.37597258417E+02
 0.30962333289E+02 0.23557559200E+02 0.16413254656E+02 0.10694097974E+02 0.70778376339E+01
 0.52266487286E+01 0.44442539105E+01 0.44454619147E+01 0.52292323914E+01 0.70811195620E+01
 0.10699958827E+02 0.16421543568E+02 0.23559684734E+02 0.30945165556E+02 0.37558290140E+02
 0.52572606300E+02 0.54529893094E+02 0.52572224487E+02 0.47342161778E+02 0.40143494802E+02
 0.31989234694E+02 0.23568879833E+02 0.15848170892E+02 0.10035537407E+02 0.66883141494E+01
 0.51602481032E+01 0.47149673594E+01 0.51578899325E+01 0.66890911271E+01 0.10040820596E+02
 0.15850373334E+02 0.23559684734E+02 0.31970721618E+02 0.40126987331E+02 0.47335644393E+02
 0.61791664346E+02 0.61772388376E+02 0.56921011337E+02 0.49067062517E+02 0.40126710076E+02
 0.30957179800E+02 0.21993201312E+02 0.14238668637E+02 0.89106883509E+01 0.62115579919E+01
 0.51519829164E+01 0.51479554429E+01 0.62057587399E+01 0.89116551514E+01 0.14242401271E+02
 0.21988319673E+02 0.30945165556E+02 0.40126987331E+02 0.49094194284E+02 0.56961003269E+02
 0.67687742837E+02 0.64660892347E+02 0.56961003269E+02 0.47335644393E+02 0.37558290140E+02
 0.28002977742E+02 0.19065144741E+02 0.11944162646E+02 0.76446427738E+01 0.57602771812E+01
 0.52300148290E+01 0.57602771812E+01 0.76446427738E+01 0.11944162646E+02 0.19065144741E+02
 0.28002977742E+02 0.37558290140E+02 0.47335644393E+02 0.56961003269E+02 0.64660892347E+02
 0.59268139453E+02 0.52656618045E+02 0.44087014674E+02 0.35030415850E+02 0.26007771402E+02
 0.17643660091E+02 0.11119033497E+02 0.72435750136E+01 0.55166646572E+01 0.50246785402E+01
 0.55204823595E+01 0.72432081456E+01 0.11116347237E+02 0.17653060790E+02 0.26030958144E+02
 0.35037873907E+02 0.44043023505E+02 0.52567775874E+02 0.59193691215E+02 0.61791664346E+02
 0.52656618045E+02 0.45510042247E+02 0.37188169089E+02 0.28575450811E+02 0.20240467463E+02
 0.13166148869E+02 0.83855381806E+01 0.59610227576E+01 0.49869616572E+01 0.49879351347E+01
 0.59594234456E+01 0.83793979130E+01 0.13169227550E+02 0.20266914787E+02 0.28609841899E+02
 0.37187590227E+02 0.45450471836E+02 0.52572224487E+02 0.56921011337E+02 0.56961003269E+02
 0.44087014674E+02 0.37188169089E+02 0.29449620958E+02 0.21615971029E+02 0.14588129023E+02
 0.93868014031E+01 0.64085652915E+01 0.50197900250E+01 0.46209348268E+01 0.50236077957E+01
 0.64059158218E+01 0.93771304762E+01 0.14588770044E+02 0.21641883104E+02 0.29490174380E+02
 0.37214860293E+02 0.44085848596E+02 0.49081489472E+02 0.50954539977E+02 0.49094194284E+02
 0.35030415850E+02 0.28575450811E+02 0.21615971029E+02 0.15093464385E+02 0.99760924046E+01
 0.67674513021E+01 0.50947056602E+01 0.43887357779E+01 0.43925076094E+01 0.50997659021E+01
 0.67626419954E+01 0.99599258060E+01 0.15080039678E+02 0.21625632303E+02 0.28618053894E+02
 0.35094909461E+02 0.40185412368E+02 0.43027851809E+02 0.43004334400E+02 0.40126987331E+02
 0.26007771402E+02 0.20240467463E+02 0.14588129023E+02 0.99760924046E+01 0.69090231493E+01
 0.51621222920E+01 0.42716080231E+01 0.40145237689E+01 0.42730204301E+01 0.51646554629E+01
 0.69069221555E+01 0.99611851630E+01 0.14563883546E+02 0.20228457491E+02 0.26030032651E+02
 0.30996379818E+02 0.34325308554E+02 0.35480163720E+02 0.34281650154E+02 0.30945165556E+02
 0.17643660091E+02 0.13166148869E+02 0.93868014031E+01 0.67674513021E+01 0.51621222920E+01
 0.42395842527E+01 0.38433724043E+01 0.38406831581E+01 0.42380651926E+01 0.51705624958E+01
 0.67802106066E+01 0.93866716621E+01 0.13145341973E+02 0.17615245710E+02 0.21971786019E+02
 0.25372064894E+02 0.27213835568E+02 0.27211282352E+02 0.25372818819E+02 0.21988319673E+02
 0.11119033497E+02 0.83855381806E+01 0.64085652915E+01 0.50947056602E+01 0.42716080231E+01
 0.38433724043E+01 0.37102926557E+01 0.38384163620E+01 0.42719504716E+01 0.51089876618E+01
 0.64327588540E+01 0.84042916660E+01 0.11118047750E+02 0.14220105607E+02 0.17073473097E+02
 0.19058392817E+02 0.19772825769E+02 0.19080201544E+02 0.17104562178E+02 0.14242401271E+02
 0.72435750136E+01 0.59610227576E+01 0.50197900250E+01 0.43887357779E+01 0.40145237689E+01
 0.38406831581E+01 0.38384163620E+01 0.40074114250E+01 0.43800203161E+01 0.50200879838E+01
 0.59800140585E+01 0.72760894478E+01 0.89377078560E+01 0.10745580290E+02 0.12294034880E+02
 0.13189929292E+02 0.13197971508E+02 0.12306618193E+02 0.10741759688E+02 0.89116551514E+01
 0.55166646572E+01 0.49869616572E+01 0.46209348268E+01 0.43925076094E+01 0.42730204301E+01
 0.42380651926E+01 0.42719504716E+01 0.43800203161E+01 0.45954854611E+01 0.49657626029E+01
 0.55197262269E+01 0.62330856336E+01 0.70520812115E+01 0.78831726523E+01 0.85225589927E+01
 0.87644415751E+01 0.85183921672E+01 0.78655420691E+01 0.70206585260E+01 0.62057587399E+01
 0.50246785402E+01 0.49879351347E+01 0.50236077957E+01 0.50997659021E+01 0.51646554629E+01
 0.51705624958E+01 0.51089876618E+01 0.50200879838E+01 0.49657626029E+01 0.49947707527E+01
 0.51277783623E+01 0.53575540849E+01 0.56455275114E+01 0.59181475704E+01 0.60860828803E+01
 0.60799560204E+01 0.59035948560E+01 0.56329470212E+01 0.53590067354E+01 0.51479554429E+01
 0.55204823595E+01 0.59594234456E+01 0.64059158218E+01 0.67626419954E+01 0.69069221555E+01
 0.67802106066E+01 0.64327588540E+01 0.59800140585E+01 0.55197262269E+01 0.51277783623E+01
 0.48494298306E+01 0.46946967060E+01 0.46403689470E+01 0.46376751293E+01 0.46386924937E+01
 0.46298998689E+01 0.46401899058E+01 0.47141418880E+01 0.48816153472E+01 0.51519829164E+01
 0.72432081456E+01 0.83793979130E+01 0.93771304762E+01 0.99599258060E+01 0.99611851630E+01
 0.93866716621E+01 0.84042916660E+01 0.72760894478E+01 0.62330856336E+01 0.53575540849E+01
 0.46946967060E+01 0.42571568417E+01 0.40042419696E+01 0.38891726552E+01 0.38889175789E+01
 0.40083180307E+01 0.42710709430E+01 0.47109905842E+01 0.53590067354E+01 0.62115579919E+01
 0.11116347237E+02 0.13169227550E+02 0.14588770044E+02 0.15080039678E+02 0.14563883546E+02
 0.13145341973E+02 0.11118047750E+02 0.89377078560E+01 0.70520812115E+01 0.56455275114E+01
 0.46403689470E+01 0.40042419696E+01 0.36652160304E+01 0.35610029304E+01 0.36701909569E+01
 0.40108581631E+01 0.46398760605E+01 0.56284928662E+01 0.70206585260E+01 0.89106883509E+01
 0.17653060790E+02 0.20266914787E+02 0.21641883104E+02 0.21625632303E+02 0.20228457491E+02
 0.17615245710E+02 0.14220105607E+02 0.10745580290E+02 0.78831726523E+01 0.59181475704E+01
 0.46376751293E+01 0.38891726552E+01 0.35610029304E+01 0.35624898265E+01 0.38904357338E+01
 0.46324320066E+01 0.59042351821E+01 0.78675045236E+01 0.10741759688E+02 0.14238668637E+02
 0.26030958144E+02 0.28609841899E+02 0.29490174380E+02 0.28618053894E+02 0.26030032651E+02
 0.21971786019E+02 0.17073473097E+02 0.12294034880E+02 0.85225589927E+01 0.60860828803E+01
 0.46386924937E+01 0.38889175789E+01 0.36701909569E+01 0.38904357338E+01 0.46348752896E+01
 0.60774328794E+01 0.85224054020E+01 0.12313497747E+02 0.17104562178E+02 0.21993201312E+02
 0.35037873907E+02 0.37187590227E+02 0.37214860293E+02 0.35094909461E+02 0.30996379818E+02
 0.25372064894E+02 0.19058392817E+02 0.13189929292E+02 0.87644415751E+01 0.60799560204E+01
 0.46298998689E+01 0.40083180307E+01 0.40108581631E+01 0.46324320066E+01 0.60774328794E+01
 0.87649722429E+01 0.13205370690E+02 0.19080976856E+02 0.25372818819E+02 0.30957179800E+02
 0.44043023505E+02 0.45450471836E+02 0.44085848596E+02 0.40185412368E+02 0.34325308554E+02
 0.27213835568E+02 0.19772825769E+02 0.13197971508E+02 0.85183921672E+01 0.59035948560E+01
 0.46401899058E+01 0.42710709430E+01 0.46398760605E+01 0.59042351821E+01 0.85224054020E+01
 0.13205370690E+02 0.19775705357E+02 0.27197607551E+02 0.34281650154E+02 0.40126710076E+02
 0.52567775874E+02 0.52572224487E+02 0.49081489472E+02 0.43027851809E+02 0.35480163720E+02
 0.27211282352E+02 0.19080201544E+02 0.12306618193E+02 0.78655420691E+01 0.56329470212E+01
 0.47141418880E+01 0.47109905842E+01 0.56284928662E+01 0.78675045236E+01 0.12313497747E+02
 0.19080976856E+02 0.27197607551E+02 0.35455788788E+02 0.43004334400E+02 0.49067062517E+02
 0.59193691215E+02 0.56921011337E+02 0.50954539977E+02 0.43004334400E+02 0.34281650154E+02
 0.25372818819E+02 0.17104562178E+02 0.10741759688E+02 0.70206585260E+01 0.53590067354E+01
 0.48816153472E+01 0.53590067354E+01 0.70206585260E+01 0.10741759688E+02 0.17104562178E+02
 0.25372818819E+02 0.34281650154E+02 0.43004334400E+02 0.50954539977E+02 0.56921011337E+02
 0.61791664346E+02 0.56961003269E+02 0.49094194284E+02 0.40126987331E+02 0.30945165556E+02
 0.21988319673E+02 0.14242401271E+02 0.89116551514E+01 0.62057587399E+01 0.51479554429E+01
 0.51519829164E+01 0.62115579919E+01 0.89106883509E+01 0.14238668637E+02 0.21993201312E+02
 0.30957179800E+02 0.40126710076E+02 0.49067062517E+02 0.56921011337E+02 0.61772388376E+02
 0.48906364466E+02 0.42648158492E+02 0.35030415850E+02 0.26864260969E+02 0.18914759938E+02
 0.12285833488E+02 0.79117253966E+01 0.57005124482E+01 0.47933687911E+01 0.47933663322E+01
 0.56986821165E+01 0.79067167878E+01 0.12282284691E+02 0.18919909250E+02 0.26878064032E+02
 0.35042782009E+02 0.42649340131E+02 0.48898635211E+02 0.52567775874E+02 0.52572606300E+02
 0.42648158492E+02 0.36076756079E+02 0.28575450811E+02 0.20927924742E+02 0.14101647224E+02
 0.91052101953E+01 0.62653008213E+01 0.49281642121E+01 0.45439733179E+01 0.49319880978E+01
 0.62637017256E+01 0.90948943214E+01 0.14093940192E+02 0.20937496515E+02 0.28602801097E+02
 0.36106982229E+02 0.42667099479E+02 0.47342161778E+02 0.49067062517E+02 0.47335644393E+02
 0.35030415850E+02 0.28575450811E+02 0.21615971029E+02 0.15093464385E+02 0.99760924046E+01
 0.67674513021E+01 0.50947056602E+01 0.43887357779E+01 0.43925076094E+01 0.50997659021E+01
 0.67626419954E+01 0.99599258060E+01 0.15080039678E+02 0.21625632303E+02 0.28618053894E+02
 0.35094909461E+02 0.40185412368E+02 0.43027851809E+02 0.43004334400E+02 0.40126987331E+02
 0.26864260969E+02 0.20927924742E+02 0.15093464385E+02 0.10290809419E+02 0.70682802628E+01
 0.52418267858E+01 0.43154755410E+01 0.40485532341E+01 0.43164034450E+01 0.52438576282E+01
 0.70648268759E+01 0.10272464633E+02 0.15066353771E+02 0.20921475543E+02 0.26906648181E+02
 0.32051463982E+02 0.35521798548E+02 0.36724196905E+02 0.35455788788E+02 0.31970721618E+02
 0.18914759938E+02 0.14101647224E+02 0.99760924046E+01 0.70682802628E+01 0.52994109833E+01
 0.42920391468E+01 0.38645016426E+01 0.38622702525E+01 0.42912516223E+01 0.53054601405E+01
 0.70698762437E+01 0.99558898203E+01 0.14064788286E+02 0.18893706776E+02 0.23579653529E+02
 0.27241991616E+02 0.29224153610E+02 0.29201125837E+02 0.27197607551E+02 0.23559684734E+02
 0.12285833488E+02 0.91052101953E+01 0.67674513021E+01 0.52418267858E+01 0.42920391468E+01
 0.38062253834E+01 0.36589555960E+01 0.38022012018E+01 0.42940066366E+01 0.52538491952E+01
 0.67782254312E+01 0.90993151042E+01 0.12261841040E+02 0.15822639140E+02 0.19063579032E+02
 0.21302256702E+02 0.22097901856E+02 0.21308053661E+02 0.19080976856E+02 0.15850373334E+02
 0.79117253966E+01 0.62653008213E+01 0.50947056602E+01 0.43154755410E+01 0.38645016426E+01
 0.36589555960E+01 0.36554929868E+01 0.38586968965E+01 0.43168593305E+01 0.51086229929E+01
 0.62865764162E+01 0.79268934491E+01 0.10038073786E+02 0.12292934745E+02 0.14186031944E+02
 0.15265126652E+02 0.15276045581E+02 0.14210683201E+02 0.12313497747E+02 0.10040820596E+02
 0.57005124482E+01 0.49281642121E+01 0.43887357779E+01 0.40485532341E+01 0.38622702525E+01
 0.38022012018E+01 0.38586968965E+01 0.40397127524E+01 0.43786743995E+01 0.49279098493E+01
 0.57169840534E+01 0.67145702332E+01 0.78853338737E+01 0.90521919750E+01 0.99256866484E+01
 0.10253270135E+02 0.99310203332E+01 0.90501338296E+01 0.78675045236E+01 0.66890911271E+01
 0.47933687911E+01 0.45439733179E+01 0.43925076094E+01 0.43164034450E+01 0.42912516223E+01
 0.42940066366E+01 0.43168593305E+01 0.43786743995E+01 0.45185951951E+01 0.47746986177E+01
 0.51605272083E+01 0.56482816894E+01 0.61676067345E+01 0.66307162347E+01 0.69125923484E+01
 0.69097632456E+01 0.66194497027E+01 0.61468438896E+01 0.56284928662E+01 0.51578899325E+01
 0.47933663322E+01 0.49319880978E+01 0.50997659021E+01 0.52438576282E+01 0.53054601405E+01
 0.52538491952E+01 0.51086229929E+01 0.49279098493E+01 0.47746986177E+01 0.46915210826E+01
 0.46955699934E+01 0.47802879911E+01 0.49114977099E+01 0.50295029528E+01 0.50739595193E+01
 0.50216515305E+01 0.49034098116E+01 0.47818059170E+01 0.47109905842E+01 0.47149673594E+01
 0.56986821165E+01 0.62637017256E+01 0.67626419954E+01 0.70648268759E+01 0.70698762437E+01
 0.67782254312E+01 0.62865764162E+01 0.57169840534E+01 0.51605272083E+01 0.46955699934E+01
 0.43621607762E+01 0.41594533493E+01 0.40569171835E+01 0.40152857271E+01 0.40120289331E+01
 0.40545559798E+01 0.41699806621E+01 0.43846821842E+01 0.47141418880E+01 0.51602481032E+01
 0.79067167878E+01 0.90948943214E+01 0.99599258060E+01 0.10272464633E+02 0.99558898203E+01
 0.90993151042E+01 0.79268934491E+01 0.67145702332E+01 0.56482816894E+01 0.47802879911E+01
 0.41594533493E+01 0.37680916754E+01 0.35565696332E+01 0.34890818315E+01 0.35571145184E+01
 0.37736547284E+01 0.41685834247E+01 0.47818059170E+01 0.56329470212E+01 0.66883141494E+01
 0.12282284691E+02 0.14093940192E+02 0.15080039678E+02 0.15066353771E+02 0.14064788286E+02
 0.12261841040E+02 0.10038073786E+02 0.78853338737E+01 0.61676067345E+01 0.49114977099E+01
 0.40569171835E+01 0.35565696332E+01 0.33310372136E+01 0.33327231769E+01 0.35598197315E+01
 0.40563733427E+01 0.49009046631E+01 0.61468438896E+01 0.78655420691E+01 0.10035537407E+02
 0.18919909250E+02 0.20937496515E+02 0.21625632303E+02 0.20921475543E+02 0.18893706776E+02
 0.15822639140E+02 0.12292934745E+02 0.90521919750E+01 0.66307162347E+01 0.50295029528E+01
 0.40152857271E+01 0.34890818315E+01 0.33327231769E+01 0.34919938525E+01 0.40144736124E+01
 0.50208461495E+01 0.66196830103E+01 0.90501338296E+01 0.12306618193E+02 0.15848170892E+02
 0.26878064032E+02 0.28602801097E+02 0.28618053894E+02 0.26906648181E+02 0.23579653529E+02
 0.19063579032E+02 0.14186031944E+02 0.99256866484E+01 0.69125923484E+01 0.50739595193E+01
 0.40120289331E+01 0.35571145184E+01 0.35598197315E+01 0.40144736124E+01 0.50695678594E+01
 0.69085123838E+01 0.99363242109E+01 0.14210683201E+02 0.19080201544E+02 0.23568879833E+02
 0.35042782009E+02 0.36106982229E+02 0.35094909461E+02 0.32051463982E+02 0.27241991616E+02
 0.21302256702E+02 0.15265126652E+02 0.10253270135E+02 0.69097632456E+01 0.50216515305E+01
 0.40545559798E+01 0.37736547284E+01 0.40563733427E+01 0.50208461495E+01 0.69085123838E+01
 0.10261290635E+02 0.15282619944E+02 0.21308053661E+02 0.27211282352E+02 0.31989234694E+02
 0.42649340131E+02 0.42667099479E+02 0.40185412368E+02 0.35521798548E+02 0.29224153610E+02
 0.22097901856E+02 0.15276045581E+02 0.99310203332E+01 0.66194497027E+01 0.49034098116E+01
 0.41699806621E+01 0.41685834247E+01 0.49009046631E+01 0.66196830103E+01 0.99363242109E+01
 0.15282619944E+02 0.22094962398E+02 0.29201125837E+02 0.35480163720E+02 0.40143494802E+02
 0.48898635211E+02 0.47342161778E+02 0.43027851809E+02 0.36724196905E+02 0.29201125837E+02
 0.21308053661E+02 0.14210683201E+02 0.90501338296E+01 0.61468438896E+01 0.47818059170E+01
 0.43846821842E+01 0.47818059170E+01 0.61468438896E+01 0.90501338296E+01 0.14210683201E+02
 0.21308053661E+02 0.29201125837E+02 0.36724196905E+02 0.43027851809E+02 0.47342161778E+02
 0.52567775874E+02 0.49067062517E+02 0.43004334400E+02 0.35455788788E+02 0.27197607551E+02
 0.19080976856E+02 0.12313497747E+02 0.78675045236E+01 0.56284928662E+01 0.47109905842E+01
 0.47141418880E+01 0.56329470212E+01 0.78655420691E+01 0.12306618193E+02 0.19080201544E+02
 0.27211282352E+02 0.35480163720E+02 0.43027851809E+02 0.49081489472E+02 0.52572224487E+02
 0.52572606300E+02 0.47335644393E+02 0.40126987331E+02 0.31970721618E+02 0.23559684734E+02
 0.15850373334E+02 0.10040820596E+02 0.66890911271E+01 0.51578899325E+01 0.47149673594E+01
 0.51602481032E+01 0.66883141494E+01 0.10035537407E+02 0.15848170892E+02 0.23568879833E+02
 0.31989234694E+02 0.40143494802E+02 0.47342161778E+02 0.52572224487E+02 0.54529893094E+02
 0.38687852477E+02 0.32896115016E+02 0.26007771402E+02 0.18914759938E+02 0.12712922910E+02
 0.83242255042E+01 0.58683818374E+01 0.46736142863E+01 0.43284897975E+01 0.46753953421E+01
 0.58681444320E+01 0.83173212074E+01 0.12699087552E+02 0.18901805945E+02 0.26008267486E+02
 0.32916838566E+02 0.38720729931E+02 0.42649340131E+02 0.44043023505E+02 0.42624349461E+02
 0.32896115016E+02 0.26841369325E+02 0.20240467463E+02 0.14101647224E+02 0.93800918167E+01
 0.64688297021E+01 0.49280248087E+01 0.42741548544E+01 0.42773920546E+01 0.49333077258E+01