   1   1   0   0
  0.1482975E+02  0.2757716E-09  0.2757716E-09  0.2757716E-09  0.5000000E-15
  1.000000000000000E-004
  CAR 
 FCC Au                                  
     40.91211985     -5.99716552  301      7.62623346      1.00000000
     -5.997  0.0000E+00  0.0000E+00
     -5.841  0.0000E+00  0.0000E+00
     -5.684  0.0000E+00  0.0000E+00
     -5.528 -0.5573E-31 -0.8715E-32
     -5.372 -0.1216E-25 -0.1901E-26
     -5.215 -0.7726E-21 -0.1208E-21
     -5.059 -0.1426E-16 -0.2230E-17
     -4.903 -0.7344E-13 -0.1148E-13
     -4.746 -0.1113E-09 -0.1741E-10
     -4.590 -0.4755E-07 -0.7453E-08
     -4.434 -0.5549E-05 -0.8752E-06
     -4.277 -0.1622E-03 -0.2623E-04
     -4.121 -0.7865E-03 -0.1492E-03
     -3.964  0.3232E-02  0.3562E-03
     -3.808  0.1405E-01  0.2552E-02
     -3.652  0.3076E-01  0.7362E-02
     -3.495  0.4844E-01  0.1494E-01
     -3.339  0.4731E-01  0.2233E-01
     -3.183  0.5107E-01  0.3032E-01
     -3.026  0.6658E-01  0.4073E-01
     -2.870  0.9239E-01  0.5518E-01
     -2.714  0.9401E-01  0.6988E-01
     -2.557  0.5593E-01  0.7862E-01
     -2.401  0.8288E-01  0.9158E-01
     -2.244  0.1501E+00  0.1151E+00
     -2.088  0.1503E+00  0.1386E+00
     -1.932  0.9171E-01  0.1529E+00
     -1.775  0.1348E+00  0.1740E+00
     -1.619  0.1982E+00  0.2050E+00
     -1.463  0.1637E+00  0.2305E+00
     -1.306  0.2461E+00  0.2690E+00
     -1.150  0.4318E+00  0.3365E+00
     -0.994  0.6063E+00  0.4314E+00
     -0.837  0.6343E+00  0.5305E+00
     -0.681  0.9119E+00  0.6731E+00
     -0.524  0.1157E+01  0.8541E+00
     -0.368  0.1445E+01  0.1080E+01
     -0.212  0.1549E+01  0.1322E+01
     -0.055  0.1518E+01  0.1559E+01
      0.101  0.1584E+01  0.1807E+01
      0.257  0.1244E+01  0.2002E+01
      0.414  0.1339E+01  0.2211E+01
      0.570  0.1278E+01  0.2411E+01
      0.726  0.8578E+00  0.2545E+01
      0.883  0.1102E+01  0.2717E+01
      1.039  0.1452E+01  0.2944E+01
      1.196  0.1477E+01  0.3175E+01
      1.352  0.1534E+01  0.3415E+01
      1.508  0.1364E+01  0.3629E+01
      1.665  0.1587E+01  0.3877E+01
      1.821  0.1825E+01  0.4162E+01
      1.977  0.1700E+01  0.4428E+01
      2.134  0.1816E+01  0.4712E+01
      2.290  0.2246E+01  0.5063E+01
      2.447  0.2772E+01  0.5496E+01
      2.603  0.2069E+01  0.5820E+01
      2.759  0.1452E+01  0.6047E+01
      2.916  0.1226E+01  0.6239E+01
      3.072  0.1215E+01  0.6429E+01
      3.228  0.1314E+01  0.6634E+01
      3.385  0.1281E+01  0.6834E+01
      3.541  0.1622E+01  0.7088E+01
      3.697  0.1705E+01  0.7355E+01
      3.854  0.1583E+01  0.7602E+01
      4.010  0.1254E+01  0.7798E+01
      4.167  0.1603E+01  0.8049E+01
      4.323  0.1551E+01  0.8291E+01
      4.479  0.8477E+00  0.8424E+01
      4.636  0.1168E+01  0.8607E+01
      4.792  0.1563E+01  0.8851E+01
      4.948  0.1127E+01  0.9027E+01
      5.105  0.1328E+01  0.9235E+01
      5.261  0.1969E+01  0.9543E+01
      5.417  0.2026E+01  0.9860E+01
      5.574  0.1913E+01  0.1016E+02
      5.730  0.1445E+01  0.1038E+02
      5.887  0.1089E+01  0.1055E+02
      6.043  0.5034E+00  0.1063E+02
      6.199  0.1381E-01  0.1064E+02
      6.356  0.3765E-01  0.1064E+02
      6.512  0.2537E+00  0.1068E+02
      6.668  0.4852E+00  0.1076E+02
      6.825  0.4117E+00  0.1082E+02
      6.981  0.1904E+00  0.1085E+02
      7.137  0.1405E+00  0.1087E+02
      7.294  0.2268E+00  0.1091E+02
      7.450  0.2783E+00  0.1095E+02
      7.607  0.2698E+00  0.1099E+02
      7.763  0.2724E+00  0.1104E+02
      7.919  0.1984E+00  0.1107E+02
      8.076  0.1608E+00  0.1109E+02
      8.232  0.3597E+00  0.1115E+02
      8.388  0.4113E+00  0.1121E+02
      8.545  0.2996E+00  0.1126E+02
      8.701  0.1774E+00  0.1129E+02
      8.857  0.1776E+00  0.1132E+02
      9.014  0.1164E+00  0.1133E+02
      9.170  0.1911E+00  0.1136E+02
      9.327  0.3998E+00  0.1143E+02
      9.483  0.3460E+00  0.1148E+02
      9.639  0.1990E+00  0.1151E+02
      9.796  0.2082E+00  0.1154E+02
      9.952  0.1898E+00  0.1157E+02
     10.108  0.1584E+00  0.1160E+02
     10.265  0.2651E+00  0.1164E+02
     10.421  0.2540E+00  0.1168E+02
     10.577  0.1823E+00  0.1171E+02
     10.734  0.2800E+00  0.1175E+02
     10.890  0.1277E+00  0.1177E+02
     11.047  0.8932E-01  0.1179E+02
     11.203  0.2160E+00  0.1182E+02
     11.359  0.3580E+00  0.1188E+02
     11.516  0.5894E+00  0.1197E+02
     11.672  0.4091E+00  0.1203E+02
     11.828  0.1816E+00  0.1206E+02
     11.985  0.1587E+00  0.1209E+02
     12.141  0.3065E+00  0.1213E+02
     12.297  0.4441E+00  0.1220E+02
     12.454  0.3854E+00  0.1226E+02
     12.610  0.2527E+00  0.1230E+02
     12.767  0.1229E+00  0.1232E+02
     12.923  0.1710E+00  0.1235E+02
     13.079  0.3696E+00  0.1241E+02
     13.236  0.3401E+00  0.1246E+02
     13.392  0.3058E+00  0.1251E+02
     13.548  0.2599E+00  0.1255E+02
     13.705  0.2220E+00  0.1258E+02
     13.861  0.4721E+00  0.1266E+02
     14.017  0.4504E+00  0.1273E+02
     14.174  0.1346E+00  0.1275E+02
     14.330  0.2992E+00  0.1279E+02
     14.487  0.3185E+00  0.1284E+02
     14.643  0.2628E+00  0.1289E+02
     14.799  0.2256E+00  0.1292E+02
     14.956  0.4529E+00  0.1299E+02
     15.112  0.4301E+00  0.1306E+02
     15.268  0.1192E+00  0.1308E+02
     15.425  0.8153E-01  0.1309E+02
     15.581  0.1435E+00  0.1311E+02
     15.737  0.3050E+00  0.1316E+02
     15.894  0.3047E+00  0.1321E+02
     16.050  0.2629E+00  0.1325E+02
     16.207  0.5188E+00  0.1333E+02
     16.363  0.5926E+00  0.1342E+02
     16.519  0.5041E+00  0.1350E+02
     16.676  0.3787E+00  0.1356E+02
     16.832  0.5552E-01  0.1357E+02
     16.988  0.9759E-01  0.1359E+02
     17.145  0.3201E+00  0.1364E+02
     17.301  0.3729E+00  0.1369E+02
     17.457  0.3112E+00  0.1374E+02
     17.614  0.3925E+00  0.1380E+02
     17.770  0.3856E+00  0.1386E+02
     17.927  0.3430E+00  0.1392E+02
     18.083  0.3671E+00  0.1397E+02
     18.239  0.4424E+00  0.1404E+02
     18.396  0.5974E+00  0.1414E+02
     18.552  0.5181E+00  0.1422E+02
     18.708  0.4017E+00  0.1428E+02
     18.865  0.3608E+00  0.1434E+02
     19.021  0.3881E+00  0.1440E+02
     19.177  0.5199E+00  0.1448E+02
     19.334  0.5364E+00  0.1456E+02
     19.490  0.4709E+00  0.1464E+02
     19.647  0.2216E+00  0.1467E+02
     19.803  0.2507E+00  0.1471E+02
     19.959  0.5765E+00  0.1480E+02
     20.116  0.6455E+00  0.1490E+02
     20.272  0.6135E+00  0.1500E+02
     20.428  0.5841E+00  0.1509E+02
     20.585  0.4942E+00  0.1517E+02
     20.741  0.3188E+00  0.1522E+02
     20.897  0.1999E+00  0.1525E+02
     21.054  0.4053E+00  0.1531E+02
     21.210  0.6975E+00  0.1542E+02
     21.367  0.5275E+00  0.1550E+02
     21.523  0.2499E+00  0.1554E+02
     21.679  0.3541E+00  0.1560E+02
     21.836  0.5319E+00  0.1568E+02
     21.992  0.5364E+00  0.1576E+02
     22.148  0.5972E+00  0.1586E+02
     22.305  0.6268E+00  0.1596E+02
     22.461  0.8381E+00  0.1609E+02
     22.617  0.8608E+00  0.1622E+02
     22.774  0.5018E+00  0.1630E+02
     22.930  0.4957E+00  0.1638E+02
     23.087  0.6684E+00  0.1648E+02
     23.243  0.5250E+00  0.1656E+02
     23.399  0.2653E+00  0.1661E+02
     23.556  0.3714E+00  0.1666E+02
     23.712  0.5629E+00  0.1675E+02
     23.868  0.5458E+00  0.1684E+02
     24.025  0.7239E+00  0.1695E+02
     24.181  0.1023E+01  0.1711E+02
     24.338  0.7610E+00  0.1723E+02
     24.494  0.3656E+00  0.1729E+02
     24.650  0.3646E+00  0.1734E+02
     24.807  0.4687E+00  0.1742E+02
     24.963  0.2800E+00  0.1746E+02
     25.119  0.2254E+00  0.1750E+02
     25.276  0.3522E+00  0.1755E+02
     25.432  0.2555E+00  0.1759E+02
     25.588  0.3069E+00  0.1764E+02
     25.745  0.5651E+00  0.1773E+02
     25.901  0.6721E+00  0.1783E+02
     26.058  0.6167E+00  0.1793E+02
     26.214  0.6224E+00  0.1803E+02
     26.370  0.6639E+00  0.1813E+02
     26.527  0.7270E+00  0.1824E+02
     26.683  0.6887E+00  0.1835E+02
     26.839  0.6470E+00  0.1845E+02
     26.996  0.8070E+00  0.1858E+02
     27.152  0.9449E+00  0.1873E+02
     27.308  0.8142E+00  0.1885E+02
     27.465  0.6204E+00  0.1895E+02
     27.621  0.4973E+00  0.1903E+02
     27.778  0.4573E+00  0.1910E+02
     27.934  0.7367E+00  0.1921E+02
     28.090  0.8371E+00  0.1935E+02
     28.247  0.6027E+00  0.1944E+02
     28.403  0.3332E+00  0.1949E+02
     28.559  0.2627E+00  0.1953E+02
     28.716  0.5978E+00  0.1963E+02
     28.872  0.6888E+00  0.1973E+02
     29.028  0.5608E+00  0.1982E+02
     29.185  0.4829E+00  0.1990E+02
     29.341  0.3383E+00  0.1995E+02
     29.498  0.2899E+00  0.2000E+02
     29.654  0.3498E+00  0.2005E+02
     29.810  0.3265E+00  0.2010E+02
     29.967  0.2640E+00  0.2014E+02
     30.123  0.3597E+00  0.2020E+02
     30.279  0.4517E+00  0.2027E+02
     30.436  0.5744E+00  0.2036E+02
     30.592  0.3703E+00  0.2042E+02
     30.748  0.2832E+00  0.2046E+02
     30.905  0.2648E+00  0.2050E+02
     31.061  0.2649E+00  0.2054E+02
     31.218  0.3556E+00  0.2060E+02
     31.374  0.2801E+00  0.2064E+02
     31.530  0.4094E+00  0.2071E+02
     31.687  0.4339E+00  0.2078E+02
     31.843  0.4577E+00  0.2085E+02
     31.999  0.9581E+00  0.2100E+02
     32.156  0.8139E+00  0.2112E+02
     32.312  0.9300E-01  0.2114E+02
     32.468  0.9710E-01  0.2115E+02
     32.625  0.3799E+00  0.2121E+02
     32.781  0.4737E+00  0.2129E+02
     32.938  0.5820E+00  0.2138E+02
     33.094  0.5145E+00  0.2146E+02
     33.250  0.3589E+00  0.2151E+02
     33.407  0.5013E+00  0.2159E+02
     33.563  0.5525E+00  0.2168E+02
     33.719  0.5526E+00  0.2177E+02
     33.876  0.7908E+00  0.2189E+02
     34.032  0.5765E+00  0.2198E+02
     34.188  0.4831E+00  0.2206E+02
     34.345  0.5600E+00  0.2214E+02
     34.501  0.7146E+00  0.2225E+02
     34.658  0.7193E+00  0.2237E+02
     34.814  0.6207E+00  0.2246E+02
     34.970  0.6976E+00  0.2257E+02
     35.127  0.6070E+00  0.2267E+02
     35.283  0.6773E+00  0.2277E+02
     35.439  0.7467E+00  0.2289E+02
     35.596  0.5774E+00  0.2298E+02
     35.752  0.5185E+00  0.2306E+02
     35.908  0.6845E+00  0.2317E+02
     36.065  0.9417E+00  0.2332E+02
     36.221  0.8575E+00  0.2345E+02
     36.378  0.6797E+00  0.2356E+02
     36.534  0.5312E+00  0.2364E+02
     36.690  0.2066E+00  0.2367E+02
     36.847  0.1507E+00  0.2370E+02
     37.003  0.2675E+00  0.2374E+02
     37.159  0.1247E+00  0.2376E+02
     37.316  0.1567E+00  0.2378E+02
     37.472  0.2756E+00  0.2382E+02
     37.628  0.3170E+00  0.2387E+02
     37.785  0.4041E+00  0.2394E+02
     37.941  0.1832E+00  0.2397E+02
     38.098 -0.7218E-02  0.2396E+02
     38.254 -0.2004E-02  0.2396E+02
     38.410  0.3905E-01  0.2397E+02
     38.567  0.4906E-01  0.2398E+02
     38.723  0.7004E-01  0.2399E+02
     38.879  0.6044E-01  0.2400E+02
     39.036  0.1057E-01  0.2400E+02
     39.192 -0.2791E-02  0.2400E+02
     39.348 -0.5078E-03  0.2400E+02
     39.505 -0.1687E-04  0.2400E+02
     39.661 -0.1432E-06  0.2400E+02
     39.818 -0.3343E-09  0.2400E+02
     39.974 -0.2204E-12  0.2400E+02
     40.130 -0.5112E-16  0.2400E+02
     40.287  0.0000E+00  0.2400E+02
     40.443  0.0000E+00  0.2400E+02
     40.599  0.0000E+00  0.2400E+02
     40.756  0.0000E+00  0.2400E+02
     40.912  0.0000E+00  0.2400E+02
