    1    1    1    1
  0.1482975E+02  0.2757716E-09  0.2757716E-09  0.2757716E-09  0.5000000E-15
  1.000000000000000E-004
  CAR 
 FCC Au                                  
     11    110     12
 
  0.5000000E-01  0.5000000E-01  0.5000000E-01  0.2000000E-02
    1       -3.864925   1.000000
    2        1.951765   1.000000
    3        2.030956   1.000000
    4        2.030956   1.000000
    5        3.933699   1.000000
    6        3.933699   1.000000
    7       22.937462   0.000000
    8       26.803511   0.000000
    9       27.630136   0.000000
   10       27.630136   0.000000
   11       32.770184   0.000000
   12       37.060315   0.000000
 
  0.1500000E+00  0.5000000E-01  0.5000000E-01  0.6000000E-02
    1       -3.349365   1.000000
    2        1.751999   1.000000
    3        2.201927   1.000000
    4        2.239714   1.000000
    5        3.736451   1.000000
    6        3.992686   1.000000
    7       23.530441   0.000000
    8       24.764117   0.000000
    9       27.458790   0.000000
   10       28.706949   0.000000
   11       32.860848   0.000000
   12       35.686436   0.000000
 
  0.2500000E+00  0.5000000E-01  0.5000000E-01  0.6000000E-02
    1       -2.252664   1.000000
    2        1.593175   1.000000
    3        2.385106   1.000000
    4        2.415344   1.000000
    5        3.741327   1.000000
    6        4.257115   1.000000
    7       21.150757   0.000000
    8       24.261153   0.000000
    9       28.038538   0.000000
   10       30.301687   0.000000
   11       30.480694   0.000000
   12       33.388508   0.000000
 
  0.3500000E+00  0.5000000E-01  0.5000000E-01  0.6000000E-02
    1       -1.329544   1.000000
    2        2.153909   1.000000
    3        2.267053   1.000000
    4        2.376043   1.000000
    5        4.362572   1.000000
    6        4.972271   1.000000
    7       17.106261   0.000000
    8       23.448042   0.000000
    9       27.182160   0.000000
   10       29.633957   0.000000
   11       31.508952   0.000000
   12       32.953126   0.000000
 
  0.4500000E+00  0.5000000E-01  0.5000000E-01  0.6000000E-02
    1       -1.140368   1.000000
    2        1.965894   1.000000
    3        2.054020   1.000000
    4        4.115144   1.000000
    5        5.130963   1.000000
    6        5.915247   1.000000
    7       13.158467   0.000000
    8       22.482029   0.000000
    9       26.014422   0.000000
   10       27.198514   0.000000
   11       33.827504   0.000000
   12       34.343369   0.000000
 
 -0.4500000E+00  0.5000000E-01  0.5000000E-01  0.6000000E-02
    1       -1.147381   1.000000
    2        1.882278   1.000000
    3        2.006114   1.000000
    4        4.709733   1.000000
    5        5.499728   1.000000
    6        6.614343   1.000000
    7       11.495836  -0.000000
    8       22.219416   0.000000
    9       26.022991   0.000000
   10       26.122183   0.000000
   11       34.600146   0.000000
   12       34.706852   0.000000
 
 -0.3500000E+00  0.5000000E-01  0.5000000E-01  0.6000000E-02
    1       -1.156820   1.000000
    2        2.003879   1.000000
    3        2.144664   1.000000
    4        3.450937   1.000000
    5        5.239641   1.000000
    6        5.293508   1.000000
    7       14.380643   0.000000
    8       22.753039   0.000000
    9       26.577797   0.000000
   10       27.497385   0.000000
   11       33.800698   0.000000
   12       33.818870   0.000000
 
 -0.2500000E+00  0.5000000E-01  0.5000000E-01  0.6000000E-02
    1       -1.552595   1.000000
    2        1.887308   1.000000
    3        2.280319   1.000000
    4        2.363822   1.000000
    5        4.238574   1.000000
    6        4.594312   1.000000
    7       18.489609   0.000000
    8       23.865381   0.000000
    9       27.783942   0.000000
   10       29.700587   0.000000
   11       31.307500   0.000000
   12       33.172648   0.000000
 
 -0.1500000E+00  0.5000000E-01  0.5000000E-01  0.6000000E-02
    1       -2.651615   1.000000
    2        1.584744   1.000000
    3        2.378592   1.000000
    4        2.394520   1.000000
    5        3.687066   1.000000
    6        4.103304   1.000000
    7       22.403804   0.000000
    8       24.249858   0.000000
    9       27.982792   0.000000
   10       29.300636   0.000000
   11       31.439369   0.000000
   12       33.984296   0.000000
 
 -0.5000000E-01  0.5000000E-01  0.5000000E-01  0.6000000E-02
    1       -3.602214   1.000000
    2        1.812812   1.000000
    3        2.146829   1.000000
    4        2.153525   1.000000
    5        3.768716   1.000000
    6        4.005289   1.000000
    7       23.276845   0.000000
    8       25.860992   0.000000
    9       27.501741   0.000000
   10       27.829050   0.000000
   11       33.805073   0.000000
   12       36.085896   0.000000
 
  0.1500000E+00  0.1500000E+00  0.5000000E-01  0.6000000E-02
    1       -3.093947   1.000000
    2        1.538121   1.000000
    3        2.394670   1.000000
    4        2.400244   1.000000
    5        3.484045   1.000000
    6        4.144397   1.000000
    7       23.894160   0.000000
    8       24.966970   0.000000
    9       27.051538   0.000000
   10       27.553813   0.000000
   11       33.571660   0.000000
   12       34.903104   0.000000
 
  0.2500000E+00  0.1500000E+00  0.5000000E-01  0.1200000E-01
    1       -2.178129   1.000000
    2        1.223973   1.000000
    3        2.508582   1.000000
    4        2.745324   1.000000
    5        3.411534   1.000000
    6        4.420042   1.000000
    7       22.686297   0.000000
    8       24.414026   0.000000
    9       26.490653   0.000000
   10       27.825166   0.000000
   11       31.500627   0.000000
   12       34.046833   0.000000
 
  0.3500000E+00  0.1500000E+00  0.5000000E-01  0.1200000E-01
    1       -1.091075   1.000000
    2        1.323014   1.000000
    3        2.121465   1.000000
    4        2.754399   1.000000
    5        4.232278   1.000000
    6        5.139320   1.000000
    7       18.737895   0.000000
    8       23.895044   0.000000
    9       25.484413   0.000000
   10       28.030028   0.000000
   11       31.975119   0.000000
   12       33.493910   0.000000
 
  0.4500000E+00  0.1500000E+00  0.5000000E-01  0.1200000E-01
    1       -0.723010   1.000000
    2        1.737509   1.000000
    3        2.387212   1.000000
    4        2.593225   1.000000
    5        5.200730   1.000000
    6        6.456411   1.000000
    7       14.537868   0.000000
    8       23.039244   0.000000
    9       24.373076   0.000000
   10       26.729884   0.000000
   11       33.576593   0.000000
   12       35.059920   0.000000
 
 -0.4500000E+00  0.1500000E+00  0.5000000E-01  0.1200000E-01
    1       -0.717815   1.000000
    2        1.576743   1.000000
    3        2.374651   1.000000
    4        3.432744   1.000000
    5        5.436391   1.000000
    6        8.330244  -0.000004
    7       11.419726  -0.000000
    8       22.514650   0.000000
    9       24.051752   0.000000
   10       25.663251   0.000000
   11       34.433736   0.000000
   12       35.394686   0.000000
 
 -0.3500000E+00  0.1500000E+00  0.5000000E-01  0.1200000E-01
    1       -0.687072   1.000000
    2        1.680368   1.000000
    3        2.405712   1.000000
    4        3.025379   1.000000
    5        5.018056   1.000000
    6        7.243260   1.010423
    7       13.344469   0.000000
    8       22.503725   0.000000
    9       24.100041   0.000000
   10       26.861809   0.000000
   11       33.258916   0.000000
   12       35.152722   0.000000
 
 -0.2500000E+00  0.1500000E+00  0.5000000E-01  0.1200000E-01
    1       -0.839204   1.000000
    2        1.670353   1.000000
    3        2.043440   1.000000
    4        2.644020   1.000000
    5        4.129849   1.000000
    6        5.790787   1.000000
    7       17.345349   0.000000
    8       23.002374   0.000000
    9       25.164705   0.000000
   10       29.011597   0.000000
   11       31.178076   0.000000
   12       34.161854   0.000000
 
 -0.1500000E+00  0.1500000E+00  0.5000000E-01  0.1200000E-01
    1       -1.784358   1.000000
    2        1.276617   1.000000
    3        2.371487   1.000000
    4        2.774843   1.000000
    5        3.405353   1.000000
    6        4.746480   1.000000
    7       21.291430   0.000000
    8       23.720596   0.000000
    9       26.950117   0.000000
   10       28.037210   0.000000
   11       32.033526   0.000000
   12       33.468228   0.000000
 
 -0.5000000E-01  0.1500000E+00  0.5000000E-01  0.1200000E-01
    1       -2.860509   1.000000
    2        1.540629   1.000000
    3        2.395802   1.000000
    4        2.411639   1.000000
    5        3.535209   1.000000
    6        4.153128   1.000000
    7       23.558830   0.000000
    8       24.130889   0.000000
    9       27.092349   0.000000
   10       28.940919   0.000000
   11       31.825526   0.000000
   12       35.018892   0.000000
 
  0.2500000E+00  0.2500000E+00  0.5000000E-01  0.6000000E-02
    1       -1.580297   1.000000
    2        0.778856   1.000000
    3        2.688213   1.000000
    4        3.221254   1.000000
    5        3.455326   1.000000
    6        4.576355   1.000000
    7       23.297331   0.000000
    8       24.609272   0.000000
    9       25.239765   0.000000
   10       26.186454   0.000000
   11       28.762807   0.000000
   12       35.142380   0.000000
 
  0.3500000E+00  0.2500000E+00  0.5000000E-01  0.1200000E-01
    1       -0.729719   1.000000
    2        0.500980   1.000000
    3        2.360088   1.000000
    4        3.655110   1.000000
    5        4.268041   1.000000
    6        5.169748   1.000000
    7       20.534030   0.000000
    8       22.600275   0.000000
    9       24.158540   0.000000
   10       27.070981   0.000000
   11       28.671158   0.000000
   12       35.238266   0.000000
 
  0.4500000E+00  0.2500000E+00  0.5000000E-01  0.1200000E-01
    1       -0.260650   1.000000
    2        0.808020   1.000000
    3        2.055680   1.000000
    4        3.485152   1.000000
    5        5.318215   1.000000
    6        6.783628   1.000000
    7       16.182014   0.000000
    8       21.907253   0.000000
    9       22.352762   0.000000
   10       26.586855   0.000000
   11       31.962830   0.000000
   12       35.448564   0.000000
 
 -0.4500000E+00  0.2500000E+00  0.5000000E-01  0.1200000E-01
    1       -0.130836   1.000000
    2        1.115537   1.000000
    3        2.286323   1.000000
    4        3.230851   1.000000
    5        5.481164   1.000000
    6        9.508762  -0.000000
    7       12.331953  -0.000000
    8       20.568500   0.000000
    9       22.448500   0.000000
   10       25.919417   0.000000
   11       34.537887   0.000000
   12       36.551215   0.000000
 
 -0.3500000E+00  0.2500000E+00  0.5000000E-01  0.1200000E-01
    1        0.086941   1.000000
    2        1.200756   1.000000
    3        2.293716   1.000000
    4        3.098748   1.000000
    5        4.962860   1.000000
    6        9.338170  -0.000000
    7       12.992411  -0.000000
    8       19.402118   0.000000
    9       23.678110   0.000000
   10       26.122117   0.000000
   11       33.475448   0.000000
   12       36.051064   0.000000
 
 -0.2500000E+00  0.2500000E+00  0.5000000E-01  0.1200000E-01
    1        0.218455   1.000000
    2        1.320448   1.000000
    3        1.603073   1.000000
    4        3.197681   1.000000
    5        4.082743   1.000000
    6        7.438037   1.017869
    7       16.577590   0.000000
    8       19.387504   0.000000
    9       24.668694   0.000000
   10       28.095695   0.000000
   11       30.855204   0.000000
   12       36.011997   0.000000
 
 -0.1500000E+00  0.2500000E+00  0.5000000E-01  0.1200000E-01
    1       -0.632672   1.000000
    2        1.176670   1.000000
    3        2.013294   1.000000
    4        3.053107   1.000000
    5        3.577398   1.000000
    6        5.908319   1.000000
    7       18.817977   0.000000
    8       21.763712   0.000000
    9       25.591824   0.000000
   10       28.813745   0.000000
   11       30.764699   0.000000
   12       34.825046   0.000000
 
 -0.5000000E-01  0.2500000E+00  0.5000000E-01  0.1200000E-01
    1       -1.706137   1.000000
    2        1.494975   1.000000
    3        2.338762   1.000000
    4        2.534559   1.000000
    5        3.814791   1.000000
    6        4.654134   1.000000
    7       19.942538   0.000000
    8       24.171205   0.000000
    9       27.006197   0.000000
   10       29.216817   0.000000
   11       31.690458   0.000000
   12       32.741679   0.000000
 
  0.3500000E+00  0.3500000E+00  0.5000000E-01  0.6000000E-02
    1       -0.637501   1.000000
    2        0.033775   1.000000
    3        3.403755   1.000000
    4        4.329383   1.000000
    5        4.812440   1.000000
    6        5.108363   1.000000
    7       20.488099   0.000000
    8       21.369502   0.000000
    9       21.944493   0.000000
   10       25.953901   0.000000
   11       27.912477   0.000000
   12       37.680115   0.000000
 
  0.4500000E+00  0.3500000E+00  0.5000000E-01  0.1200000E-01
    1       -0.510615   1.000000
    2       -0.098254   1.000000
    3        3.480054   1.000000
    4        4.701470   1.000000
    5        5.334943   1.000000
    6        6.786553   1.000000
    7       17.505546   0.000000
    8       19.646582   0.000000
    9       20.291223   0.000000
   10       27.066675   0.000000
   11       29.082006   0.000000
   12       37.364243   0.000000
 
 -0.4500000E+00  0.3500000E+00  0.5000000E-01  0.1200000E-01
    1       -0.322088   1.000000
    2        0.278594   1.000000
    3        3.043304   1.000000
    4        4.316896   1.000000
    5        5.609312   1.000000
    6        9.756691  -0.000000
    7       13.912420   0.000000
    8       18.017663   0.000000
    9       20.322021   0.000000
   10       27.224363   0.000000
   11       32.025172   0.000000
   12       36.350046   0.000000
 
 -0.3500000E+00  0.3500000E+00  0.5000000E-01  0.1200000E-01
    1        0.037772   1.000000
    2        0.889684   1.000000
    3        2.373990   1.000000
    4        3.892160   1.000000
    5        5.186120   1.000000
    6       11.086747  -0.000000
    7       13.370452   0.000000
    8       16.227405   0.000000
    9       21.875545   0.000000
   10       26.775201   0.000000
   11       34.825546   0.000000
   12       35.794782   0.000000
 
 -0.2500000E+00  0.3500000E+00  0.5000000E-01  0.1200000E-01
    1        0.412050   1.000000
    2        1.246100   1.000000
    3        1.762575   1.000000
    4        3.438997   1.000000
    5        4.654771   1.000000
    6        9.186377  -0.000000
    7       14.976684   0.000000
    8       17.229775   0.000000
    9       23.776175   0.000000
   10       26.567527   0.000000
   11       32.907305   0.000000
   12       36.241897   0.000000
 
 -0.1500000E+00  0.3500000E+00  0.5000000E-01  0.1200000E-01
    1       -0.254805   1.000000
    2        1.551555   1.000000
    3        2.129828   1.000000
    4        2.816230   1.000000
    5        4.540479   1.000000
    6        7.384800   1.035409
    7       14.926936   0.000000
    8       21.124700   0.000000
    9       24.263839   0.000000
   10       27.501927   0.000000
   11       31.939976   0.000000
   12       35.557487   0.000000
 
 -0.5000000E-01  0.3500000E+00  0.5000000E-01  0.1200000E-01
    1       -1.046683   1.000000
    2        2.004839   1.000000
    3        2.316290   1.000000
    4        2.546313   1.000000
    5        4.701299   1.000000
    6        5.563400   1.000000
    7       15.790757   0.000000
    8       23.188887   0.000000
    9       25.779108   0.000000
   10       28.319320   0.000000
   11       32.483683   0.000000
   12       33.896220   0.000000
 
  0.4500000E+00  0.4500000E+00  0.5000000E-01  0.6000000E-02
    1       -0.843231   1.000000
    2       -0.453187   1.000000
    3        5.137739   1.000000
    4        5.215506   1.000000
    5        5.646684   1.000000
    6        7.120061   1.001008
    7       16.333344   0.000000
    8       18.640937   0.000000
    9       18.935422   0.000000
   10       26.399850   0.000000
   11       29.101797   0.000000
   12       38.636978   0.000000
 
 -0.4500000E+00  0.4500000E+00  0.5000000E-01  0.1200000E-01
    1       -0.764967   1.000000
    2       -0.389528   1.000000
    3        4.640524   1.000000
    4        5.145197   1.000000
    5        5.837562   1.000000
    6        9.345997  -0.000000
    7       14.319944   0.000000
    8       17.576706   0.000000
    9       18.540510   0.000000
   10       27.449653   0.000000
   11       29.654244   0.000000
   12       37.706102   0.000000
 
 -0.3500000E+00  0.4500000E+00  0.5000000E-01  0.1200000E-01
    1       -0.395641   1.000000
    2        0.169614   1.000000
    3        3.397737   1.000000
    4        4.537768   1.000000
    5        5.602164   1.000000
    6       11.245330  -0.000000
    7       13.066296  -0.000000
    8       16.542519   0.000000
    9       19.930313   0.000000
   10       27.505742   0.000000
   11       32.069685   0.000000
   12       36.419225   0.000000
 
 -0.2500000E+00  0.4500000E+00  0.5000000E-01  0.1200000E-01
    1        0.009009   1.000000
    2        0.944231   1.000000
    3        2.321601   1.000000
    4        3.614035   1.000000
    5        5.348895   1.000000
    6       11.364057  -0.000000
    7       11.593160  -0.000000
    8       18.350685   0.000000
    9       22.066859   0.000000
   10       26.397585   0.000000
   11       34.679255   0.000000
   12       36.202282   0.000000
 
 -0.1500000E+00  0.4500000E+00  0.5000000E-01  0.1200000E-01
    1       -0.340617   1.000000
    2        1.350999   1.000000
    3        2.704689   1.000000
    4        2.874567   1.000000
    5        5.271302   1.000000
    6        9.320282  -0.000000
    7       11.523885  -0.000000
    8       21.432972   0.000000
    9       23.549341   0.000000
   10       25.678521   0.000000
   11       34.127179   0.000000
   12       35.750220   0.000000
 
 -0.5000000E-01  0.4500000E+00  0.5000000E-01  0.1200000E-01
    1       -0.991424   1.000000
    2        1.801742   1.000000
    3        2.150470   1.000000
    4        3.927802   1.000000
    5        5.376166   1.000000
    6        6.965381   1.000015
    7       12.142397  -0.000000
    8       22.475446   0.000000
    9       25.161151   0.000000
   10       26.349416   0.000000
   11       34.269094   0.000000
   12       34.897858   0.000000
 
 -0.4500000E+00 -0.4500000E+00  0.5000000E-01  0.6000000E-02
    1       -0.942728   1.000000
    2       -0.556272   1.000000
    3        5.368130   1.000000
    4        5.532619   1.000000
    5        5.853866   1.000000
    6        8.312637  -0.000007
    7       14.685152   0.000000
    8       18.014519   0.000000
    9       18.369234   0.000000
   10       26.590508   0.000000
   11       29.351301   0.000000
   12       38.383463   0.000000
 
 -0.3500000E+00 -0.4500000E+00  0.5000000E-01  0.1200000E-01
    1       -0.662775   1.000000
    2       -0.290635   1.000000
    3        4.179630   1.000000
    4        5.051356   1.000000
    5        5.635676   1.000000
    6        8.125665  -0.001173
    7       15.778494   0.000000
    8       18.316842   0.000000
    9       19.108584   0.000000
   10       27.280943   0.000000
   11       29.454739   0.000000
   12       37.699819   0.000000
 
 -0.2500000E+00 -0.4500000E+00  0.5000000E-01  0.1200000E-01
    1       -0.236395   1.000000
    2        0.499921   1.000000
    3        2.518753   1.000000
    4        3.927597   1.000000
    5        5.543778   1.000000
    6        8.167230  -0.000442
    7       14.961759   0.000000
    8       20.036143   0.000000
    9       21.095019   0.000000
   10       26.820142   0.000000
   11       31.971563   0.000000
   12       36.055897   0.000000
 
 -0.1500000E+00 -0.4500000E+00  0.5000000E-01  0.1200000E-01
    1       -0.396650   1.000000
    2        1.407953   1.000000
    3        2.317395   1.000000
    4        2.862725   1.000000
    5        5.458609   1.000000
    6        7.816939  -0.019608
    7       13.363213   0.000000
    8       22.470236   0.000000
    9       23.040180   0.000000
   10       25.836530   0.000000
   11       34.246167   0.000000
   12       36.130273   0.000000
 
 -0.3500000E+00 -0.3500000E+00  0.5000000E-01  0.6000000E-02
    1       -0.695810   1.000000
    2       -0.252518   1.000000
    3        4.364875   1.000000
    4        4.853219   1.000000
    5        5.372924   1.000000
    6        5.805418   1.000000
    7       18.539790   0.000000
    8       19.893515   0.000000
    9       19.978749   0.000000
   10       26.113479   0.000000
   11       28.615061   0.000000
   12       38.779880   0.000000
 
 -0.2500000E+00 -0.3500000E+00  0.5000000E-01  0.1200000E-01
    1       -0.449352   1.000000
    2        0.172625   1.000000
    3        2.756829   1.000000
    4        4.191249   1.000000
    5        4.894435   1.000000
    6        5.772389   1.000000
    7       19.104434   0.000000
    8       21.113863   0.000000
    9       22.164491   0.000000
   10       27.020343   0.000000
   11       28.629844   0.000000
   12       36.440085   0.000000
 
 -0.1500000E+00 -0.3500000E+00  0.5000000E-01  0.1200000E-01
    1       -0.549276   1.000000
    2        1.106016   1.000000
    3        1.917406   1.000000
    4        3.078301   1.000000
    5        4.849840   1.000000
    6        5.775034   1.000000
    7       17.472105   0.000000
    8       23.158322   0.000000
    9       23.987850   0.000000
   10       26.942887   0.000000
   11       31.984695   0.000000
   12       34.561069   0.000000
 
 -0.2500000E+00 -0.2500000E+00  0.5000000E-01  0.6000000E-02
    1       -0.909472   1.000000
    2        0.386345   1.000000
    3        2.774232   1.000000
    4        3.757465   1.000000
    5        4.052309   1.000000
    6        4.837536   1.000000
    7       22.062183   0.000000
    8       22.965417   0.000000
    9       24.164755   0.000000
   10       26.378462   0.000000
   11       27.154010   0.000000
   12       36.273928   0.000000
 
 -0.1500000E+00 -0.2500000E+00  0.5000000E-01  0.1200000E-01
    1       -1.397706   1.000000
    2        0.862870   1.000000
    3        2.395220   1.000000
    4        3.166352   1.000000
    5        3.691951   1.000000
    6        4.756905   1.000000
    7       21.720131   0.000000
    8       23.908571   0.000000
    9       25.753595   0.000000
   10       26.884616   0.000000
   11       30.050735   0.000000
   12       34.178112   0.000000
 
 -0.1500000E+00 -0.1500000E+00  0.5000000E-01  0.6000000E-02
    1       -2.384955   1.000000
    2        1.177253   1.000000
    3        2.691074   1.000000
    4        2.759809   1.000000
    5        3.221997   1.000000
    6        4.339867   1.000000
    7       24.097597   0.000000
    8       24.808579   0.000000
    9       26.062064   0.000000
   10       26.770271   0.000000
   11       31.534033   0.000000
   12       34.561950   0.000000
 
  0.1500000E+00  0.1500000E+00  0.1500000E+00  0.2000000E-02
    1       -3.110980   1.000000
    2        1.729210   1.000000
    3        2.261948   1.000000
    4        2.261948   1.000000
    5        3.864983   1.000000
    6        3.864983   1.000000
    7       23.376977   0.000000
    8       24.062537   0.000000
    9       28.552077   0.000000
   10       28.552078   0.000000
   11       32.276669   0.000000
   12       35.114985   0.000000
 
  0.2500000E+00  0.1500000E+00  0.1500000E+00  0.6000000E-02
    1       -2.410702   1.000000
    2        1.468190   1.000000
    3        2.414659   1.000000
    4        2.520922   1.000000
    5        3.463598   1.000000
    6        4.352042   1.000000
    7       22.400369   0.000000
    8       24.069898   0.000000
    9       27.047148   0.000000
   10       29.660091   0.000000
   11       30.673954   0.000000
   12       35.000220   0.000000
 
  0.3500000E+00  0.1500000E+00  0.1500000E+00  0.6000000E-02
    1       -1.246229   1.000000
    2        1.269180   1.000000
    3        2.262465   1.000000
    4        2.869295   1.000000
    5        3.343228   1.000000
    6        5.274608   1.000000
    7       20.013532   0.000000
    8       22.833798   0.000000
    9       26.584476   0.000000
   10       28.265178   0.000000
   11       31.777336   0.000000
   12       33.888064   0.000000
 
  0.4500000E+00  0.1500000E+00  0.1500000E+00  0.6000000E-02
    1       -0.557233   1.000000
    2        1.748274   1.000000
    3        2.152084   1.000000
    4        2.609206   1.000000
    5        4.198930   1.000000
    6        6.526260   1.000000
    7       16.082381   0.000000
    8       22.072597   0.000000
    9       24.776541   0.000000
   10       28.735953   0.000000
   11       31.016345   0.000000
   12       34.947272   0.000000
 
 -0.4500000E+00  0.1500000E+00  0.1500000E+00  0.6000000E-02
    1       -0.560202   1.000000
    2        1.557388   1.000000
    3        2.469690   1.000000
    4        3.154846   1.000000
    5        5.084386   1.000000
    6        8.172674  -0.000386
    7       12.335073  -0.000000
    8       21.920494   0.000000
    9       24.159199   0.000000
   10       26.053953   0.000000
   11       33.801100   0.000000
   12       35.170485   0.000000
 
 -0.3500000E+00  0.1500000E+00  0.1500000E+00  0.6000000E-02
    1       -0.609969   1.000000
    2        1.520219   1.000000
    3        2.532436   1.000000
    4        2.962899   1.000000
    5        5.541502   1.000000
    6        8.088058  -0.002603
    7       12.132448  -0.000000
    8       22.448722   0.000000
    9       24.607401   0.000000
   10       24.783184   0.000000
   11       34.943546   0.000000
   12       35.396437   0.000000
 
 -0.2500000E+00  0.1500000E+00  0.1500000E+00  0.6000000E-02
    1       -0.672517   1.000000
    2        1.626879   1.000000
    3        1.946197   1.000000
    4        2.738247   1.000000
    5        5.353935   1.000000
    6        5.808957   1.000000
    7       15.924162   0.000000
    8       23.456638   0.000000
    9       24.502044   0.000000
   10       26.280030   0.000000
   11       33.880615   0.000000
   12       34.542434   0.000000
 
 -0.1500000E+00  0.1500000E+00  0.1500000E+00  0.6000000E-02
    1       -1.288102   1.000000
    2        1.021573   1.000000
    3        2.276114   1.000000
    4        2.908461   1.000000
    5        4.126165   1.000000
    6        4.765973   1.000000
    7       20.239713   0.000000
    8       24.704900   0.000000
    9       25.204262   0.000000
   10       27.329239   0.000000
   11       30.895931   0.000000
   12       34.338983   0.000000
 
  0.2500000E+00  0.2500000E+00  0.1500000E+00  0.6000000E-02
    1       -2.013768   1.000000
    2        1.328454   1.000000
    3        2.435599   1.000000
    4        2.610300   1.000000
    5        3.691652   1.000000
    6        4.415924   1.000000
    7       21.348690   0.000000
    8       24.588618   0.000000
    9       26.792440   0.000000
   10       28.617877   0.000000
   11       31.311761   0.000000
   12       33.789977   0.000000
 
  0.3500000E+00  0.2500000E+00  0.1500000E+00  0.1200000E-01
    1       -1.061799   1.000000
    2        1.009885   1.000000
    3        2.148702   1.000000
    4        3.127902   1.000000
    5        3.661631   1.000000
    6        5.249091   1.000000
    7       20.190026   0.000000
    8       22.878402   0.000000
    9       25.804377   0.000000
   10       27.771328   0.000000
   11       31.656837   0.000000
   12       33.308566   0.000000
 
  0.4500000E+00  0.2500000E+00  0.1500000E+00  0.1200000E-01
    1       -0.049751   1.000000
    2        1.037916   1.000000
    3        1.645962   1.000000
    4        3.399157   1.000000
    5        4.055352   1.000000
    6        6.646146   1.000000
    7       17.667607   0.000000
    8       20.564168   0.000000
    9       24.318277   0.000000
   10       28.907397   0.000000
   11       30.374001   0.000000
   12       35.499298   0.000000
 
 -0.4500000E+00  0.2500000E+00  0.1500000E+00  0.1200000E-01
    1        0.062723   1.000000
    2        1.231147   1.000000
    3        2.012807   1.000000
    4        3.150790   1.000000
    5        4.947539   1.000000
    6        8.483338  -0.000000
    7       13.888688   0.000000
    8       20.231245   0.000000
    9       23.003334   0.000000
   10       27.198081   0.000000
   11       32.586837   0.000000
   12       36.506831   0.000000
 
 -0.3500000E+00  0.2500000E+00  0.1500000E+00  0.1200000E-01
    1       -0.029014   1.000000
    2        1.115286   1.000000
    3        2.418096   1.000000
    4        3.069004   1.000000
    5        5.328730   1.000000
    6       10.182345  -0.000000
    7       11.461292  -0.000000
    8       20.931477   0.000000
    9       21.922093   0.000000
   10       26.535906   0.000000
   11       33.719458   0.000000
   12       36.907430   0.000000
 
 -0.2500000E+00  0.2500000E+00  0.1500000E+00  0.1200000E-01
    1       -0.082630   1.000000
    2        1.224744   1.000000
    3        1.750603   1.000000
    4        3.312859   1.000000
    5        5.104342   1.000000
    6        7.645074   0.420669
    7       14.932245   0.000000
    8       21.157585   0.000000
    9       22.562069   0.000000
   10       27.227167   0.000000
   11       32.573293   0.000000
   12       35.953917   0.000000
 
 -0.1500000E+00  0.2500000E+00  0.1500000E+00  0.1200000E-01
    1       -0.410933   1.000000
    2        0.724965   1.000000
    3        1.930986   1.000000
    4        3.564303   1.000000
    5        4.174310   1.000000
    6        5.863454   1.000000
    7       19.000219   0.000000
    8       21.677406   0.000000
    9       24.178328   0.000000
   10       28.029329   0.000000
   11       30.326238   0.000000