       N       E                     dE             d eps       ncg     rms          rms(c)
DAV:   1    -0.737279029845E+01   -0.73728E+01   -0.46952E+01  3068   0.793E+01    0.102E+01
DAV:   2    -0.437542748302E+01    0.29974E+01   -0.70161E+00  2960   0.288E+01    0.237E+00
DAV:   3    -0.421882689108E+01    0.15660E+00   -0.65816E-01  3116   0.832E+00    0.217E-01
DAV:   4    -0.422098380292E+01   -0.21569E-02   -0.46587E-03  2856   0.608E-01    0.657E-02
DAV:   5    -0.422097448283E+01    0.93201E-05   -0.23359E-04  2204   0.160E-01
   1 F= -.42209745E+01 E0= -.42208984E+01  d E =-.228361E-03
