 vasp.5.4.4.18Apr17-6-g9f103f2a35 (build Jul 01 2019 03:25:34) complex          
  
 executed on             LinuxIFC date 2020.07.08  00:55:26
 running on    4 total cores
 distrk:  each k-point on    4 cores,    1 groups
 distr:  one band on NCORES_PER_BAND=   1 cores,    4 groups


--------------------------------------------------------------------------------------------------------


 INCAR:
 POTCAR:   PAW Au 04Feb1998                       
 POTCAR:   PAW Au 04Feb1998                       
   VRHFIN =Au: s1d10                                                            
   LEXCH  = CA                                                                  
   EATOM  =   929.4667 eV,   68.3139 Ry                                         
                                                                                
   TITEL  = PAW Au 04Feb1998                                                    
   LULTRA =        F    use ultrasoft PP ?                                      
   IUNSCR =        1    unscreen: 0-lin 1-nonlin 2-no                           
   RPACOR =    2.330    partial core radius                                     
   POMASS =  196.966; ZVAL   =   11.000    mass and valenz                      
   RCORE  =    2.500    outmost cutoff radius                                   
   RWIGS  =    2.840; RWIGS  =    1.503    wigner-seitz radius (au A)           
   ENMAX  =  229.869; ENMIN  =  172.402 eV                                      
   RCLOC  =    1.964    cutoff for local pot                                    
   LCOR   =        T    correct aug charges                                     
   LPAW   =        T    paw PP                                                  
   EAUG   =  356.670                                                            
   DEXC   =    -.020                                                            
   RMAX   =    3.041    core radius for proj-oper                               
   RDEP   =    2.598    core radius for depl-charge                             
   QCUT   =   -4.110; QGAM   =    8.221    optimization parameters              
                                                                                
   Description                                                                  
     l     E      TYP  RCUT    TYP  RCUT                                        
     2   .000     23  2.500                                                     
     2   .000     23  2.500                                                     
     0   .000     23  2.500                                                     
     0   .000     23  2.500                                                     
     1  -.200     23  2.500                                                     
     1   .000     23  2.500                                                     
     3   .000      7   .000                                                     
  local pseudopotential read in
  partial core-charges read in
  atomic valenz-charges read in
  non local Contribution for L=           2  read in
    real space projection operators read in
  non local Contribution for L=           2  read in
    real space projection operators read in
  non local Contribution for L=           0  read in
    real space projection operators read in
  non local Contribution for L=           0  read in
    real space projection operators read in
  non local Contribution for L=           1  read in
    real space projection operators read in
  non local Contribution for L=           1  read in
    real space projection operators read in
    PAW grid and wavefunctions read in
 
   number of l-projection  operators is LMAX  =           6
   number of lm-projection operators is LMMAX =          18
 
 PAW Au 04Feb1998                       :
 energy of atom  1       EATOM= -929.4667
 kinetic energy error for atom=    0.0704 (will be added to EATOM!!)
 
 
 POSCAR: FCC Au Bulk                             
  positions in direct lattice
  No initial velocities read in
 exchange correlation table for  LEXCH =        2
   RHO(1)=    0.500       N(1)  =     2000
   RHO(2)=  100.500       N(2)  =     4000
 


--------------------------------------------------------------------------------------------------------


 ion  position               nearest neighbor table
   1  0.000  0.000  0.000-
 
  LATTYP: Found a face centered cubic cell.
 ALAT       =     3.9000000000
  
  Lattice vectors:
  
 A1 = (   0.0000000000,   1.9500000000,   1.9500000000)
 A2 = (   1.9500000000,   0.0000000000,   1.9500000000)
 A3 = (   1.9500000000,   1.9500000000,   0.0000000000)


Analysis of symmetry for initial positions (statically):
=====================================================================
 Subroutine PRICEL returns:
 Original cell was already a primitive cell.
 

 Routine SETGRP: Setting up the symmetry group for a 
 face centered cubic supercell.


 Subroutine GETGRP returns: Found 48 space group operations
 (whereof 48 operations were pure point group operations)
 out of a pool of 48 trial point group operations.


The static configuration has the point symmetry O_h .


Analysis of symmetry for dynamics (positions and initial velocities):
=====================================================================
 Subroutine PRICEL returns:
 Original cell was already a primitive cell.
 

 Routine SETGRP: Setting up the symmetry group for a 
 face centered cubic supercell.


 Subroutine GETGRP returns: Found 48 space group operations
 (whereof 48 operations were pure point group operations)
 out of a pool of 48 trial point group operations.


The dynamic configuration has the point symmetry O_h .


 Subroutine INISYM returns: Found 48 space group operations
 (whereof 48 operations are pure point group operations),
 and found     1 'primitive' translations

 
 
 KPOINTS: 10x10x10                                

Automatic generation of k-mesh.
Space group operators:
 irot       det(A)        alpha          n_x          n_y          n_z        tau_x        tau_y        tau_z
    1     1.000000     0.000000     1.000000     0.000000     0.000000     0.000000     0.000000     0.000000
    2    -1.000000     0.000000     1.000000     0.000000     0.000000     0.000000     0.000000     0.000000
    3     1.000000   120.000000    -0.577350    -0.577350    -0.577350     0.000000     0.000000     0.000000
    4    -1.000000   120.000000    -0.577350    -0.577350    -0.577350     0.000000     0.000000     0.000000
    5     1.000000   120.000000     0.577350     0.577350     0.577350     0.000000     0.000000     0.000000
    6    -1.000000   120.000000     0.577350     0.577350     0.577350     0.000000     0.000000     0.000000
    7     1.000000    90.000000     0.000000     0.000000    -1.000000     0.000000     0.000000     0.000000
    8    -1.000000    90.000000     0.000000     0.000000    -1.000000     0.000000     0.000000     0.000000
    9     1.000000   180.000000     0.000000     0.707107     0.707107     0.000000     0.000000     0.000000
   10    -1.000000   180.000000     0.000000     0.707107     0.707107     0.000000     0.000000     0.000000
   11     1.000000    90.000000     0.000000     1.000000     0.000000     0.000000     0.000000     0.000000
   12    -1.000000    90.000000     0.000000     1.000000     0.000000     0.000000     0.000000     0.000000
   13     1.000000   179.999999     0.000000     0.000000     1.000000     0.000000     0.000000     0.000000
   14    -1.000000   179.999999     0.000000     0.000000     1.000000     0.000000     0.000000     0.000000
   15     1.000000   120.000000    -0.577350     0.577350     0.577350     0.000000     0.000000     0.000000
   16    -1.000000   120.000000    -0.577350     0.577350     0.577350     0.000000     0.000000     0.000000
   17     1.000000   120.000000    -0.577350     0.577350    -0.577350     0.000000     0.000000     0.000000
   18    -1.000000   120.000000    -0.577350     0.577350    -0.577350     0.000000     0.000000     0.000000
   19     1.000000    90.000000     0.000000     0.000000     1.000000     0.000000     0.000000     0.000000
   20    -1.000000    90.000000     0.000000     0.000000     1.000000     0.000000     0.000000     0.000000
   21     1.000000    90.000000    -1.000000     0.000000     0.000000     0.000000     0.000000     0.000000
   22    -1.000000    90.000000    -1.000000     0.000000     0.000000     0.000000     0.000000     0.000000
   23     1.000000   180.000000     0.707107     0.000000     0.707107     0.000000     0.000000     0.000000
   24    -1.000000   180.000000     0.707107     0.000000     0.707107     0.000000     0.000000     0.000000
   25     1.000000   120.000000     0.577350    -0.577350     0.577350     0.000000     0.000000     0.000000
   26    -1.000000   120.000000     0.577350    -0.577350     0.577350     0.000000     0.000000     0.000000
   27     1.000000   120.000000    -0.577350    -0.577350     0.577350     0.000000     0.000000     0.000000
   28    -1.000000   120.000000    -0.577350    -0.577350     0.577350     0.000000     0.000000     0.000000
   29     1.000000   180.000000     1.000000     0.000000     0.000000     0.000000     0.000000     0.000000
   30    -1.000000   180.000000     1.000000     0.000000     0.000000     0.000000     0.000000     0.000000
   31     1.000000    90.000000     0.000000    -1.000000     0.000000     0.000000     0.000000     0.000000
   32    -1.000000    90.000000     0.000000    -1.000000     0.000000     0.000000     0.000000     0.000000
   33     1.000000   180.000000     0.707107     0.707107     0.000000     0.000000     0.000000     0.000000
   34    -1.000000   180.000000     0.707107     0.707107     0.000000     0.000000     0.000000     0.000000
   35     1.000000    90.000000     1.000000     0.000000     0.000000     0.000000     0.000000     0.000000
   36    -1.000000    90.000000     1.000000     0.000000     0.000000     0.000000     0.000000     0.000000
   37     1.000000   120.000000     0.577350    -0.577350    -0.577350     0.000000     0.000000     0.000000
   38    -1.000000   120.000000     0.577350    -0.577350    -0.577350     0.000000     0.000000     0.000000
   39     1.000000   180.000000     0.000000     1.000000     0.000000     0.000000     0.000000     0.000000
   40    -1.000000   180.000000     0.000000     1.000000     0.000000     0.000000     0.000000     0.000000
   41     1.000000   120.000000     0.577350     0.577350    -0.577350     0.000000     0.000000     0.000000
   42    -1.000000   120.000000     0.577350     0.577350    -0.577350     0.000000     0.000000     0.000000
   43     1.000000   180.000000     0.000000    -0.707107     0.707107     0.000000     0.000000     0.000000
   44    -1.000000   180.000000     0.000000    -0.707107     0.707107     0.000000     0.000000     0.000000
   45     1.000000   180.000000     0.707107    -0.707107     0.000000     0.000000     0.000000     0.000000
   46    -1.000000   180.000000     0.707107    -0.707107     0.000000     0.000000     0.000000     0.000000
   47     1.000000   180.000000     0.707107     0.000000    -0.707107     0.000000     0.000000     0.000000
   48    -1.000000   180.000000     0.707107     0.000000    -0.707107     0.000000     0.000000     0.000000
 
 Subroutine IBZKPT returns following result:
 ===========================================
 
 Found    110 irreducible k-points:
 
 Following reciprocal coordinates:
            Coordinates               Weight
  0.050000  0.050000  0.050000     96.000000
  0.150000  0.050000  0.050000    288.000000
  0.250000  0.050000  0.050000    288.000000
  0.350000  0.050000  0.050000    288.000000
  0.450000  0.050000  0.050000    288.000000
 -0.450000  0.050000  0.050000    288.000000
 -0.350000  0.050000  0.050000    288.000000
 -0.250000  0.050000  0.050000    288.000000
 -0.150000  0.050000  0.050000    288.000000
 -0.050000  0.050000  0.050000    288.000000
  0.150000  0.150000  0.050000    288.000000
  0.250000  0.150000  0.050000    576.000000
  0.350000  0.150000  0.050000    576.000000
  0.450000  0.150000  0.050000    576.000000
 -0.450000  0.150000  0.050000    576.000000
 -0.350000  0.150000  0.050000    576.000000
 -0.250000  0.150000  0.050000    576.000000
 -0.150000  0.150000  0.050000    576.000000
 -0.050000  0.150000  0.050000    576.000000
  0.250000  0.250000  0.050000    288.000000
  0.350000  0.250000  0.050000    576.000000
  0.450000  0.250000  0.050000    576.000000
 -0.450000  0.250000  0.050000    576.000000
 -0.350000  0.250000  0.050000    576.000000
 -0.250000  0.250000  0.050000    576.000000
 -0.150000  0.250000  0.050000    576.000000
 -0.050000  0.250000  0.050000    576.000000
  0.350000  0.350000  0.050000    288.000000
  0.450000  0.350000  0.050000    576.000000
 -0.450000  0.350000  0.050000    576.000000
 -0.350000  0.350000  0.050000    576.000000
 -0.250000  0.350000  0.050000    576.000000
 -0.150000  0.350000  0.050000    576.000000
 -0.050000  0.350000  0.050000    576.000000
  0.450000  0.450000  0.050000    288.000000
 -0.450000  0.450000  0.050000    576.000000
 -0.350000  0.450000  0.050000    576.000000
 -0.250000  0.450000  0.050000    576.000000
 -0.150000  0.450000  0.050000    576.000000
 -0.050000  0.450000  0.050000    576.000000
 -0.450000 -0.450000  0.050000    288.000000
 -0.350000 -0.450000  0.050000    576.000000
 -0.250000 -0.450000  0.050000    576.000000
 -0.150000 -0.450000  0.050000    576.000000
 -0.350000 -0.350000  0.050000    288.000000
 -0.250000 -0.350000  0.050000    576.000000
 -0.150000 -0.350000  0.050000    576.000000
 -0.250000 -0.250000  0.050000    288.000000
 -0.150000 -0.250000  0.050000    576.000000
 -0.150000 -0.150000  0.050000    288.000000
  0.150000  0.150000  0.150000     96.000000
  0.250000  0.150000  0.150000    288.000000
  0.350000  0.150000  0.150000    288.000000
  0.450000  0.150000  0.150000    288.000000
 -0.450000  0.150000  0.150000    288.000000
 -0.350000  0.150000  0.150000    288.000000
 -0.250000  0.150000  0.150000    288.000000
 -0.150000  0.150000  0.150000    288.000000
  0.250000  0.250000  0.150000    288.000000
  0.350000  0.250000  0.150000    576.000000
  0.450000  0.250000  0.150000    576.000000
 -0.450000  0.250000  0.150000    576.000000
 -0.350000  0.250000  0.150000    576.000000
 -0.250000  0.250000  0.150000    576.000000
 -0.150000  0.250000  0.150000    576.000000
  0.350000  0.350000  0.150000    288.000000
  0.450000  0.350000  0.150000    576.000000
 -0.450000  0.350000  0.150000    576.000000
 -0.350000  0.350000  0.150000    576.000000
 -0.250000  0.350000  0.150000    576.000000
 -0.150000  0.350000  0.150000    576.000000
  0.450000  0.450000  0.150000    288.000000
 -0.450000  0.450000  0.150000    576.000000
 -0.350000  0.450000  0.150000    576.000000
 -0.250000  0.450000  0.150000    576.000000
 -0.150000  0.450000  0.150000    576.000000
 -0.450000 -0.450000  0.150000    288.000000
 -0.350000 -0.450000  0.150000    576.000000
 -0.250000 -0.450000  0.150000    576.000000
 -0.350000 -0.350000  0.150000    288.000000
 -0.250000 -0.350000  0.150000    576.000000
 -0.250000 -0.250000  0.150000    288.000000
  0.250000  0.250000  0.250000     96.000000
  0.350000  0.250000  0.250000    288.000000
  0.450000  0.250000  0.250000    288.000000
 -0.450000  0.250000  0.250000    288.000000
 -0.350000  0.250000  0.250000    288.000000
 -0.250000  0.250000  0.250000    288.000000
  0.350000  0.350000  0.250000    288.000000
  0.450000  0.350000  0.250000    576.000000
 -0.450000  0.350000  0.250000    576.000000
 -0.350000  0.350000  0.250000    576.000000
 -0.250000  0.350000  0.250000    576.000000
  0.450000  0.450000  0.250000    288.000000
 -0.450000  0.450000  0.250000    576.000000
 -0.350000  0.450000  0.250000    576.000000
 -0.250000  0.450000  0.250000    576.000000
 -0.450000 -0.450000  0.250000    288.000000
 -0.350000 -0.450000  0.250000    576.000000
 -0.350000 -0.350000  0.250000    288.000000
  0.350000  0.350000  0.350000     96.000000
  0.450000  0.350000  0.350000    288.000000
 -0.450000  0.350000  0.350000    288.000000
 -0.350000  0.350000  0.350000    288.000000
  0.450000  0.450000  0.350000    288.000000
 -0.450000  0.450000  0.350000    576.000000
 -0.350000  0.450000  0.350000    576.000000
 -0.450000 -0.450000  0.350000    288.000000
  0.450000  0.450000  0.450000     96.000000
 -0.450000  0.450000  0.450000    288.000000
 
 Following cartesian coordinates:
            Coordinates               Weight
  0.050000  0.050000  0.050000     96.000000
 -0.050000  0.150000  0.150000    288.000000
 -0.150000  0.250000  0.250000    288.000000
 -0.250000  0.350000  0.350000    288.000000
 -0.350000  0.450000  0.450000    288.000000
  0.550000 -0.450000 -0.450000    288.000000
  0.450000 -0.350000 -0.350000    288.000000
  0.350000 -0.250000 -0.250000    288.000000
  0.250000 -0.150000 -0.150000    288.000000
  0.150000 -0.050000 -0.050000    288.000000
  0.050000  0.050000  0.250000    288.000000
 -0.050000  0.150000  0.350000    576.000000
 -0.150000  0.250000  0.450000    576.000000
 -0.250000  0.350000  0.550000    576.000000
  0.650000 -0.550000 -0.350000    576.000000
  0.550000 -0.450000 -0.250000    576.000000
  0.450000 -0.350000 -0.150000    576.000000
  0.350000 -0.250000 -0.050000    576.000000
  0.250000 -0.150000  0.050000    576.000000
  0.050000  0.050000  0.450000    288.000000
 -0.050000  0.150000  0.550000    576.000000
 -0.150000  0.250000  0.650000    576.000000
  0.750000 -0.650000 -0.250000    576.000000
  0.650000 -0.550000 -0.150000    576.000000
  0.550000 -0.450000 -0.050000    576.000000
  0.450000 -0.350000  0.050000    576.000000
  0.350000 -0.250000  0.150000    576.000000
  0.050000  0.050000  0.650000    288.000000
 -0.050000  0.150000  0.750000    576.000000
  0.850000 -0.750000 -0.150000    576.000000
  0.750000 -0.650000 -0.050000    576.000000
  0.650000 -0.550000  0.050000    576.000000
  0.550000 -0.450000  0.150000    576.000000
  0.450000 -0.350000  0.250000    576.000000
  0.050000  0.050000  0.850000    288.000000
  0.950000 -0.850000 -0.050000    576.000000
  0.850000 -0.750000  0.050000    576.000000
  0.750000 -0.650000  0.150000    576.000000
  0.650000 -0.550000  0.250000    576.000000
  0.550000 -0.450000  0.350000    576.000000
  0.050000  0.050000 -0.950000    288.000000
 -0.050000  0.150000 -0.850000    576.000000
 -0.150000  0.250000 -0.750000    576.000000
 -0.250000  0.350000 -0.650000    576.000000
  0.050000  0.050000 -0.750000    288.000000
 -0.050000  0.150000 -0.650000    576.000000
 -0.150000  0.250000 -0.550000    576.000000
  0.050000  0.050000 -0.550000    288.000000
 -0.050000  0.150000 -0.450000    576.000000
  0.050000  0.050000 -0.350000    288.000000
  0.150000  0.150000  0.150000     96.000000
  0.050000  0.250000  0.250000    288.000000
 -0.050000  0.350000  0.350000    288.000000
 -0.150000  0.450000  0.450000    288.000000
  0.750000 -0.450000 -0.450000    288.000000
  0.650000 -0.350000 -0.350000    288.000000
  0.550000 -0.250000 -0.250000    288.000000
  0.450000 -0.150000 -0.150000    288.000000
  0.150000  0.150000  0.350000    288.000000
  0.050000  0.250000  0.450000    576.000000
 -0.050000  0.350000  0.550000    576.000000
  0.850000 -0.550000 -0.350000    576.000000
  0.750000 -0.450000 -0.250000    576.000000
  0.650000 -0.350000 -0.150000    576.000000
  0.550000 -0.250000 -0.050000    576.000000
  0.150000  0.150000  0.550000    288.000000
  0.050000  0.250000  0.650000    576.000000
  0.950000 -0.650000 -0.250000    576.000000
  0.850000 -0.550000 -0.150000    576.000000
  0.750000 -0.450000 -0.050000    576.000000
  0.650000 -0.350000  0.050000    576.000000
  0.150000  0.150000  0.750000    288.000000
  1.050000 -0.750000 -0.150000    576.000000
  0.950000 -0.650000 -0.050000    576.000000
  0.850000 -0.550000  0.050000    576.000000
  0.750000 -0.450000  0.150000    576.000000
  0.150000  0.150000 -1.050000    288.000000
  0.050000  0.250000 -0.950000    576.000000
 -0.050000  0.350000 -0.850000    576.000000
  0.150000  0.150000 -0.850000    288.000000
  0.050000  0.250000 -0.750000    576.000000
  0.150000  0.150000 -0.650000    288.000000
  0.250000  0.250000  0.250000     96.000000
  0.150000  0.350000  0.350000    288.000000
  0.050000  0.450000  0.450000    288.000000
  0.950000 -0.450000 -0.450000    288.000000
  0.850000 -0.350000 -0.350000    288.000000
  0.750000 -0.250000 -0.250000    288.000000
  0.250000  0.250000  0.450000    288.000000
  0.150000  0.350000  0.550000    576.000000
  1.050000 -0.550000 -0.350000    576.000000
  0.950000 -0.450000 -0.250000    576.000000
  0.850000 -0.350000 -0.150000    576.000000
  0.250000  0.250000  0.650000    288.000000
  1.150000 -0.650000 -0.250000    576.000000
  1.050000 -0.550000 -0.150000    576.000000
  0.950000 -0.450000 -0.050000    576.000000
  0.250000  0.250000 -1.150000    288.000000
  0.150000  0.350000 -1.050000    576.000000
  0.250000  0.250000 -0.950000    288.000000
  0.350000  0.350000  0.350000     96.000000
  0.250000  0.450000  0.450000    288.000000
  1.150000 -0.450000 -0.450000    288.000000
  1.050000 -0.350000 -0.350000    288.000000
  0.350000  0.350000  0.550000    288.000000
  1.250000 -0.550000 -0.350000    576.000000
  1.150000 -0.450000 -0.250000    576.000000
  0.350000  0.350000 -1.250000    288.000000
  0.450000  0.450000  0.450000     96.000000
  1.350000 -0.450000 -0.450000    288.000000
 


--------------------------------------------------------------------------------------------------------




 Dimension of arrays:
   k-points           NKPTS =    110   k-points in BZ     NKDIM =    110   number of bands    NBANDS=     12
   number of dos      NEDOS =    301   number of ions     NIONS =      1
   non local maximal  LDIM  =      6   non local SUM 2l+1 LMDIM =     18
   total plane-waves  NPLWV =   1000
   max r-space proj   IRMAX =      1   max aug-charges    IRDMAX=   4323
   dimension x,y,z NGX =    10 NGY =   10 NGZ =   10
   dimension x,y,z NGXF=    20 NGYF=   20 NGZF=   20
   support grid    NGXF=    20 NGYF=   20 NGZF=   20
   ions per type =               1
   NGX,Y,Z   is equivalent  to a cutoff of   6.03,  6.03,  6.03 a.u.
   NGXF,Y,Z  is equivalent  to a cutoff of  12.06, 12.06, 12.06 a.u.

 SYSTEM =  FCC Au                                  
 POSCAR =  FCC Au Bulk                             

 Startparameter for this run:
   NWRITE =      2    write-flag & timer
   PREC   = normal    normal or accurate (medium, high low for compatibility)
   ISTART =      1    job   : 0-new  1-cont  2-samecut
   ICHARG =      0    charge: 1-file 2-atom 10-const
   ISPIN  =      1    spin polarized calculation?
   LNONCOLLINEAR =      F non collinear calculations
   LSORBIT =      F    spin-orbit coupling
   INIWAV =      1    electr: 0-lowe 1-rand  2-diag
   LASPH  =      F    aspherical Exc in radial PAW
   METAGGA=      F    non-selfconsistent MetaGGA calc.

 Electronic Relaxation 1
   ENCUT  =  230.0 eV  16.90 Ry    4.11 a.u.   3.41  3.41  3.41*2*pi/ulx,y,z
   ENINI  =  230.0     initial cutoff
   ENAUG  =  356.7 eV  augmentation charge cutoff
   NELM   =     60;   NELMIN=  2; NELMDL=  0     # of ELM steps 
   EDIFF  = 0.1E-03   stopping-criterion for ELM
   LREAL  =      F    real-space projection
   NLSPLINE    = F    spline interpolate recip. space projectors
   LCOMPAT=      F    compatible to vasp.4.4
   GGA_COMPAT  = T    GGA compatible to vasp.4.4-vasp.4.6
   LMAXPAW     = -100 max onsite density
   LMAXMIX     =    2 max onsite mixed and CHGCAR
   VOSKOWN=      0    Vosko Wilk Nusair interpolation
   ROPT   =    0.00000
 Ionic relaxation
   EDIFFG = 0.1E-02   stopping-criterion for IOM
   NSW    =      0    number of steps for IOM
   NBLOCK =      1;   KBLOCK =      1    inner block; outer block 
   IBRION =     -1    ionic relax: 0-MD 1-quasi-New 2-CG
   NFREE  =      0    steps in history (QN), initial steepest desc. (CG)
   ISIF   =      2    stress and relaxation
   IWAVPR =     10    prediction:  0-non 1-charg 2-wave 3-comb
   ISYM   =      2    0-nonsym 1-usesym 2-fastsym
   LCORR  =      T    Harris-Foulkes like correction to forces

   POTIM  = 0.5000    time-step for ionic-motion
   TEIN   =    0.0    initial temperature
   TEBEG  =    0.0;   TEEND  =   0.0 temperature during run
   SMASS  =  -3.00    Nose mass-parameter (am)
   estimated Nose-frequenzy (Omega)   =  0.10E-29 period in steps =****** mass=  -0.174E-27a.u.
   SCALEE = 1.0000    scale energy and forces
   NPACO  =    256;   APACO  = 16.0  distance and # of slots for P.C.
   PSTRESS=    0.0 pullay stress

  Mass of Ions in am
   POMASS = 196.97
  Ionic Valenz
   ZVAL   =  11.00
  Atomic Wigner-Seitz radii
   RWIGS  =  -1.00
  virtual crystal weights 
   VCA    =   1.00
   NELECT =      11.0000    total number of electrons
   NUPDOWN=      -1.0000    fix difference up-down

 DOS related values:
   EMIN   =  10.00;   EMAX   =-10.00  energy-range for DOS
   EFERMI =   0.00
   ISMEAR =     1;   SIGMA  =   0.20  broadening in eV -4-tet -1-fermi 0-gaus

 Electronic relaxation 2 (details)
   IALGO  =     38    algorithm
   LDIAG  =      T    sub-space diagonalisation (order eigenvalues)
   LSUBROT=      F    optimize rotation matrix (better conditioning)
   TURBO    =      0    0=normal 1=particle mesh
   IRESTART =      0    0=no restart 2=restart with 2 vectors
   NREBOOT  =      0    no. of reboots
   NMIN     =      0    reboot dimension
   EREF     =   0.00    reference energy to select bands
   IMIX   =      4    mixing-type and parameters
     AMIX     =   0.40;   BMIX     =  1.00
     AMIX_MAG =   1.60;   BMIX_MAG =  1.00
     AMIN     =   0.10
     WC   =   100.;   INIMIX=   1;  MIXPRE=   1;  MAXMIX= -45

 Intra band minimization:
   WEIMIN = 0.0000     energy-eigenvalue tresh-hold
   EBREAK =  0.21E-05  absolut break condition
   DEPER  =   0.30     relativ break condition  

   TIME   =   0.40     timestep for ELM

  volume/ion in A,a.u.               =      14.83       100.08
  Fermi-wavevector in a.u.,A,eV,Ry     =   1.481930  2.800442 29.879992  2.196117
  Thomas-Fermi vector in A             =   2.595779
 
 Write flags
   LWAVE        =      T    write WAVECAR
   LDOWNSAMPLE  =      F    k-point downsampling of WAVECAR
   LCHARG       =      T    write CHGCAR
   LVTOT        =      F    write LOCPOT, total local potential
   LVHAR        =      F    write LOCPOT, Hartree potential only
   LELF         =      F    write electronic localiz. function (ELF)
   LORBIT       =      0    0 simple, 1 ext, 2 COOP (PROOUT), +10 PAW based schemes


 Dipole corrections
   LMONO  =      F    monopole corrections only (constant potential shift)
   LDIPOL =      F    correct potential (dipole corrections)
   IDIPOL =      0    1-x, 2-y, 3-z, 4-all directions 
   EPSILON=  1.0000000 bulk dielectric constant

 Exchange correlation treatment:
   GGA     =    --    GGA type
   LEXCH   =     2    internal setting for exchange type
   VOSKOWN=      0    Vosko Wilk Nusair interpolation
   LHFCALC =     F    Hartree Fock is set to
   LHFONE  =     F    Hartree Fock one center treatment
   AEXX    =    0.0000 exact exchange contribution

 Linear response parameters
   LEPSILON=     F    determine dielectric tensor
   LRPA    =     F    only Hartree local field effects (RPA)
   LNABLA  =     F    use nabla operator in PAW spheres
   LVEL    =     F    velocity operator in full k-point grid
   LINTERFAST=   F  fast interpolation
   KINTER  =     0    interpolate to denser k-point grid
   CSHIFT  =0.1000    complex shift for real part using Kramers Kronig
   OMEGAMAX=  -1.0    maximum frequency
   DEG_THRESHOLD= 0.2000000E-02 threshold for treating states as degnerate
   RTIME   =   -0.100 relaxation time in fs
  (WPLASMAI=    0.000 imaginary part of plasma frequency in eV, 0.658/RTIME)
   DFIELD  = 0.0000000 0.0000000 0.0000000 field for delta impulse in time
 
 Orbital magnetization related:
   ORBITALMAG=     F  switch on orbital magnetization
   LCHIMAG   =     F  perturbation theory with respect to B field
   DQ        =  0.001000  dq finite difference perturbation B field
   LLRAUG    =     F  two centre corrections for induced B field



--------------------------------------------------------------------------------------------------------


 Static calculation
 charge density and potential will be updated during run
 non-spin polarized calculation
 Variant of blocked Davidson
 Davidson routine will perform the subspace rotation
 perform sub-space diagonalisation
    after iterative eigenvector-optimisation
 modified Broyden-mixing scheme, WC =      100.0
 initial mixing is a Kerker type mixing with AMIX =  0.4000 and BMIX =      1.0000
 Hartree-type preconditioning will be used
 using additional bands            6
 reciprocal scheme for non local part
 use partial core corrections
 calculate Harris-corrections to forces 
   (improved forces if not selfconsistent)
 use of overlap-Matrix (Vanderbilt PP)
 Methfessel and Paxton  Order N= 1 SIGMA  =   0.20


--------------------------------------------------------------------------------------------------------


  energy-cutoff  :      230.00
  volume of cell :       14.83
      direct lattice vectors                 reciprocal lattice vectors
     0.000000000  1.950000000  1.950000000    -0.256410256  0.256410256  0.256410256
     1.950000000  0.000000000  1.950000000     0.256410256 -0.256410256  0.256410256
     1.950000000  1.950000000  0.000000000     0.256410256  0.256410256 -0.256410256

  length of vectors
     2.757716447  2.757716447  2.757716447     0.444115592  0.444115592  0.444115592


 
 old parameters found on file WAVECAR:
  energy-cutoff  :      287.34
  volume of cell :       14.83
      direct lattice vectors                 reciprocal lattice vectors
     0.000000000  1.950000000  1.950000000    -0.256410256  0.256410256  0.256410256
     1.950000000  0.000000000  1.950000000     0.256410256 -0.256410256  0.256410256
     1.950000000  1.950000000  0.000000000     0.256410256  0.256410256 -0.256410256

  length of vectors

 
 k-points in units of 2pi/SCALE and weight: 10x10x10                                
   0.05000000  0.05000000  0.05000000       0.002
  -0.05000000  0.15000000  0.15000000       0.006
  -0.15000000  0.25000000  0.25000000       0.006
  -0.25000000  0.35000000  0.35000000       0.006
  -0.35000000  0.45000000  0.45000000       0.006
   0.55000000 -0.45000000 -0.45000000       0.006
   0.45000000 -0.35000000 -0.35000000       0.006
   0.35000000 -0.25000000 -0.25000000       0.006
   0.25000000 -0.15000000 -0.15000000       0.006
   0.15000000 -0.05000000 -0.05000000       0.006
   0.05000000  0.05000000  0.25000000       0.006
  -0.05000000  0.15000000  0.35000000       0.012
  -0.15000000  0.25000000  0.45000000       0.012
  -0.25000000  0.35000000  0.55000000       0.012
   0.65000000 -0.55000000 -0.35000000       0.012
   0.55000000 -0.45000000 -0.25000000       0.012
   0.45000000 -0.35000000 -0.15000000       0.012
   0.35000000 -0.25000000 -0.05000000       0.012
   0.25000000 -0.15000000  0.05000000       0.012
   0.05000000  0.05000000  0.45000000       0.006
  -0.05000000  0.15000000  0.55000000       0.012
  -0.15000000  0.25000000  0.65000000       0.012
   0.75000000 -0.65000000 -0.25000000       0.012
   0.65000000 -0.55000000 -0.15000000       0.012
   0.55000000 -0.45000000 -0.05000000       0.012
   0.45000000 -0.35000000  0.05000000       0.012
   0.35000000 -0.25000000  0.15000000       0.012
   0.05000000  0.05000000  0.65000000       0.006
  -0.05000000  0.15000000  0.75000000       0.012
   0.85000000 -0.75000000 -0.15000000       0.012
   0.75000000 -0.65000000 -0.05000000       0.012
   0.65000000 -0.55000000  0.05000000       0.012
   0.55000000 -0.45000000  0.15000000       0.012
   0.45000000 -0.35000000  0.25000000       0.012
   0.05000000  0.05000000  0.85000000       0.006
   0.95000000 -0.85000000 -0.05000000       0.012
   0.85000000 -0.75000000  0.05000000       0.012
   0.75000000 -0.65000000  0.15000000       0.012
   0.65000000 -0.55000000  0.25000000       0.012
   0.55000000 -0.45000000  0.35000000       0.012
   0.05000000  0.05000000 -0.95000000       0.006
  -0.05000000  0.15000000 -0.85000000       0.012
  -0.15000000  0.25000000 -0.75000000       0.012
  -0.25000000  0.35000000 -0.65000000       0.012
   0.05000000  0.05000000 -0.75000000       0.006
  -0.05000000  0.15000000 -0.65000000       0.012
  -0.15000000  0.25000000 -0.55000000       0.012
   0.05000000  0.05000000 -0.55000000       0.006
  -0.05000000  0.15000000 -0.45000000       0.012
   0.05000000  0.05000000 -0.35000000       0.006
   0.15000000  0.15000000  0.15000000       0.002
   0.05000000  0.25000000  0.25000000       0.006
  -0.05000000  0.35000000  0.35000000       0.006
  -0.15000000  0.45000000  0.45000000       0.006
   0.75000000 -0.45000000 -0.45000000       0.006
   0.65000000 -0.35000000 -0.35000000       0.006
   0.55000000 -0.25000000 -0.25000000       0.006
   0.45000000 -0.15000000 -0.15000000       0.006
   0.15000000  0.15000000  0.35000000       0.006
   0.05000000  0.25000000  0.45000000       0.012
  -0.05000000  0.35000000  0.55000000       0.012
   0.85000000 -0.55000000 -0.35000000       0.012
   0.75000000 -0.45000000 -0.25000000       0.012
   0.65000000 -0.35000000 -0.15000000       0.012
   0.55000000 -0.25000000 -0.05000000       0.012
   0.15000000  0.15000000  0.55000000       0.006
   0.05000000  0.25000000  0.65000000       0.012
   0.95000000 -0.65000000 -0.25000000       0.012
   0.85000000 -0.55000000 -0.15000000       0.012
   0.75000000 -0.45000000 -0.05000000       0.012
   0.65000000 -0.35000000  0.05000000       0.012
   0.15000000  0.15000000  0.75000000       0.006
   1.05000000 -0.75000000 -0.15000000       0.012
   0.95000000 -0.65000000 -0.05000000       0.012
   0.85000000 -0.55000000  0.05000000       0.012
   0.75000000 -0.45000000  0.15000000       0.012
   0.15000000  0.15000000 -1.05000000       0.006
   0.05000000  0.25000000 -0.95000000       0.012
  -0.05000000  0.35000000 -0.85000000       0.012
   0.15000000  0.15000000 -0.85000000       0.006
   0.05000000  0.25000000 -0.75000000       0.012
   0.15000000  0.15000000 -0.65000000       0.006
   0.25000000  0.25000000  0.25000000       0.002
   0.15000000  0.35000000  0.35000000       0.006
   0.05000000  0.45000000  0.45000000       0.006
   0.95000000 -0.45000000 -0.45000000       0.006
   0.85000000 -0.35000000 -0.35000000       0.006
   0.75000000 -0.25000000 -0.25000000       0.006
   0.25000000  0.25000000  0.45000000       0.006
   0.15000000  0.35000000  0.55000000       0.012
   1.05000000 -0.55000000 -0.35000000       0.012
   0.95000000 -0.45000000 -0.25000000       0.012
   0.85000000 -0.35000000 -0.15000000       0.012
   0.25000000  0.25000000  0.65000000       0.006
   1.15000000 -0.65000000 -0.25000000       0.012
   1.05000000 -0.55000000 -0.15000000       0.012
   0.95000000 -0.45000000 -0.05000000       0.012
   0.25000000  0.25000000 -1.15000000       0.006
   0.15000000  0.35000000 -1.05000000       0.012
   0.25000000  0.25000000 -0.95000000       0.006
   0.35000000  0.35000000  0.35000000       0.002
   0.25000000  0.45000000  0.45000000       0.006
   1.15000000 -0.45000000 -0.45000000       0.006
   1.05000000 -0.35000000 -0.35000000       0.006
   0.35000000  0.35000000  0.55000000       0.006
   1.25000000 -0.55000000 -0.35000000       0.012
   1.15000000 -0.45000000 -0.25000000       0.012
   0.35000000  0.35000000 -1.25000000       0.006
   0.45000000  0.45000000  0.45000000       0.002
   1.35000000 -0.45000000 -0.45000000       0.006
 
 k-points in reciprocal lattice and weights: 10x10x10                                
   0.05000000  0.05000000  0.05000000       0.002
   0.15000000  0.05000000  0.05000000       0.006
   0.25000000  0.05000000  0.05000000       0.006
   0.35000000  0.05000000  0.05000000       0.006
   0.45000000  0.05000000  0.05000000       0.006
  -0.45000000  0.05000000  0.05000000       0.006
  -0.35000000  0.05000000  0.05000000       0.006
  -0.25000000  0.05000000  0.05000000       0.006
  -0.15000000  0.05000000  0.05000000       0.006
  -0.05000000  0.05000000  0.05000000       0.006
   0.15000000  0.15000000  0.05000000       0.006
   0.25000000  0.15000000  0.05000000       0.012
   0.35000000  0.15000000  0.05000000       0.012
   0.45000000  0.15000000  0.05000000       0.012
  -0.45000000  0.15000000  0.05000000       0.012
  -0.35000000  0.15000000  0.05000000       0.012
  -0.25000000  0.15000000  0.05000000       0.012
  -0.15000000  0.15000000  0.05000000       0.012
  -0.05000000  0.15000000  0.05000000       0.012
   0.25000000  0.25000000  0.05000000       0.006
   0.35000000  0.25000000  0.05000000       0.012
   0.45000000  0.25000000  0.05000000       0.012
  -0.45000000  0.25000000  0.05000000       0.012
  -0.35000000  0.25000000  0.05000000       0.012
  -0.25000000  0.25000000  0.05000000       0.012
  -0.15000000  0.25000000  0.05000000       0.012
  -0.05000000  0.25000000  0.05000000       0.012
   0.35000000  0.35000000  0.05000000       0.006
   0.45000000  0.35000000  0.05000000       0.012
  -0.45000000  0.35000000  0.05000000       0.012
  -0.35000000  0.35000000  0.05000000       0.012
  -0.25000000  0.35000000  0.05000000       0.012
  -0.15000000  0.35000000  0.05000000       0.012
  -0.05000000  0.35000000  0.05000000       0.012
   0.45000000  0.45000000  0.05000000       0.006
  -0.45000000  0.45000000  0.05000000       0.012
  -0.35000000  0.45000000  0.05000000       0.012
  -0.25000000  0.45000000  0.05000000       0.012
  -0.15000000  0.45000000  0.05000000       0.012
  -0.05000000  0.45000000  0.05000000       0.012
  -0.45000000 -0.45000000  0.05000000       0.006
  -0.35000000 -0.45000000  0.05000000       0.012
  -0.25000000 -0.45000000  0.05000000       0.012
  -0.15000000 -0.45000000  0.05000000       0.012
  -0.35000000 -0.35000000  0.05000000       0.006
  -0.25000000 -0.35000000  0.05000000       0.012
  -0.15000000 -0.35000000  0.05000000       0.012
  -0.25000000 -0.25000000  0.05000000       0.006
  -0.15000000 -0.25000000  0.05000000       0.012
  -0.15000000 -0.15000000  0.05000000       0.006
   0.15000000  0.15000000  0.15000000       0.002
   0.25000000  0.15000000  0.15000000       0.006
   0.35000000  0.15000000  0.15000000       0.006
   0.45000000  0.15000000  0.15000000       0.006
  -0.45000000  0.15000000  0.15000000       0.006
  -0.35000000  0.15000000  0.15000000       0.006
  -0.25000000  0.15000000  0.15000000       0.006
  -0.15000000  0.15000000  0.15000000       0.006
   0.25000000  0.25000000  0.15000000       0.006
   0.35000000  0.25000000  0.15000000       0.012
   0.45000000  0.25000000  0.15000000       0.012
  -0.45000000  0.25000000  0.15000000       0.012
  -0.35000000  0.25000000  0.15000000       0.012
  -0.25000000  0.25000000  0.15000000       0.012
  -0.15000000  0.25000000  0.15000000       0.012
   0.35000000  0.35000000  0.15000000       0.006
   0.45000000  0.35000000  0.15000000       0.012
  -0.45000000  0.35000000  0.15000000       0.012
  -0.35000000  0.35000000  0.15000000       0.012
  -0.25000000  0.35000000  0.15000000       0.012
  -0.15000000  0.35000000  0.15000000       0.012
   0.45000000  0.45000000  0.15000000       0.006
  -0.45000000  0.45000000  0.15000000       0.012
  -0.35000000  0.45000000  0.15000000       0.012
  -0.25000000  0.45000000  0.15000000       0.012
  -0.15000000  0.45000000  0.15000000       0.012
  -0.45000000 -0.45000000  0.15000000       0.006
  -0.35000000 -0.45000000  0.15000000       0.012
  -0.25000000 -0.45000000  0.15000000       0.012
  -0.35000000 -0.35000000  0.15000000       0.006
  -0.25000000 -0.35000000  0.15000000       0.012
  -0.25000000 -0.25000000  0.15000000       0.006
   0.25000000  0.25000000  0.25000000       0.002
   0.35000000  0.25000000  0.25000000       0.006
   0.45000000  0.25000000  0.25000000       0.006
  -0.45000000  0.25000000  0.25000000       0.006
  -0.35000000  0.25000000  0.25000000       0.006
  -0.25000000  0.25000000  0.25000000       0.006
   0.35000000  0.35000000  0.25000000       0.006
   0.45000000  0.35000000  0.25000000       0.012
  -0.45000000  0.35000000  0.25000000       0.012
  -0.35000000  0.35000000  0.25000000       0.012
  -0.25000000  0.35000000  0.25000000       0.012
   0.45000000  0.45000000  0.25000000       0.006
  -0.45000000  0.45000000  0.25000000       0.012
  -0.35000000  0.45000000  0.25000000       0.012
  -0.25000000  0.45000000  0.25000000       0.012
  -0.45000000 -0.45000000  0.25000000       0.006
  -0.35000000 -0.45000000  0.25000000       0.012
  -0.35000000 -0.35000000  0.25000000       0.006
   0.35000000  0.35000000  0.35000000       0.002
   0.45000000  0.35000000  0.35000000       0.006
  -0.45000000  0.35000000  0.35000000       0.006
  -0.35000000  0.35000000  0.35000000       0.006
   0.45000000  0.45000000  0.35000000       0.006
  -0.45000000  0.45000000  0.35000000       0.012
  -0.35000000  0.45000000  0.35000000       0.012
  -0.45000000 -0.45000000  0.35000000       0.006
   0.45000000  0.45000000  0.45000000       0.002
  -0.45000000  0.45000000  0.45000000       0.006
 
 position of ions in fractional coordinates (direct lattice) 
   0.00000000  0.00000000  0.00000000
 
 position of ions in cartesian coordinates  (Angst):
   0.00000000  0.00000000  0.00000000
 


--------------------------------------------------------------------------------------------------------


 k-point  1 :   0.0500 0.0500 0.0500  plane waves:     116
 k-point  2 :   0.1500 0.0500 0.0500  plane waves:     121
 k-point  3 :   0.2500 0.0500 0.0500  plane waves:     123
 k-point  4 :   0.3500 0.0500 0.0500  plane waves:     116
 k-point  5 :   0.4500 0.0500 0.0500  plane waves:     118
 k-point  6 :  -0.4500 0.0500 0.0500  plane waves:     116
 k-point  7 :  -0.3500 0.0500 0.0500  plane waves:     117
 k-point  8 :  -0.2500 0.0500 0.0500  plane waves:     118
 k-point  9 :  -0.1500 0.0500 0.0500  plane waves:     120
 k-point 10 :  -0.0500 0.0500 0.0500  plane waves:     121
 k-point 11 :   0.1500 0.1500 0.0500  plane waves:     121
 k-point 12 :   0.2500 0.1500 0.0500  plane waves:     122
 k-point 13 :   0.3500 0.1500 0.0500  plane waves:     119
 k-point 14 :   0.4500 0.1500 0.0500  plane waves:     117
 k-point 15 :  -0.4500 0.1500 0.0500  plane waves:     120
 k-point 16 :  -0.3500 0.1500 0.0500  plane waves:     120
 k-point 17 :  -0.2500 0.1500 0.0500  plane waves:     120
 k-point 18 :  -0.1500 0.1500 0.0500  plane waves:     120
 k-point 19 :  -0.0500 0.1500 0.0500  plane waves:     121
 k-point 20 :   0.2500 0.2500 0.0500  plane waves:     125
 k-point 21 :   0.3500 0.2500 0.0500  plane waves:     122
 k-point 22 :   0.4500 0.2500 0.0500  plane waves:     118
 k-point 23 :  -0.4500 0.2500 0.0500  plane waves:     117
 k-point 24 :  -0.3500 0.2500 0.0500  plane waves:     117
 k-point 25 :  -0.2500 0.2500 0.0500  plane waves:     119
 k-point 26 :  -0.1500 0.2500 0.0500  plane waves:     121
 k-point 27 :  -0.0500 0.2500 0.0500  plane waves:     122
 k-point 28 :   0.3500 0.3500 0.0500  plane waves:     120
 k-point 29 :   0.4500 0.3500 0.0500  plane waves:     118
 k-point 30 :  -0.4500 0.3500 0.0500  plane waves:     113
 k-point 31 :  -0.3500 0.3500 0.0500  plane waves:     117
 k-point 32 :  -0.2500 0.3500 0.0500  plane waves:     117
 k-point 33 :  -0.1500 0.3500 0.0500  plane waves:     119
 k-point 34 :  -0.0500 0.3500 0.0500  plane waves:     119
 k-point 35 :   0.4500 0.4500 0.0500  plane waves:     116
 k-point 36 :  -0.4500 0.4500 0.0500  plane waves:     115
 k-point 37 :  -0.3500 0.4500 0.0500  plane waves:     112
 k-point 38 :  -0.2500 0.4500 0.0500  plane waves:     115
 k-point 39 :  -0.1500 0.4500 0.0500  plane waves:     119
 k-point 40 :  -0.0500 0.4500 0.0500  plane waves:     116
 k-point 41 :  -0.4500-0.4500 0.0500  plane waves:     116
 k-point 42 :  -0.3500-0.4500 0.0500  plane waves:     116
 k-point 43 :  -0.2500-0.4500 0.0500  plane waves:     117
 k-point 44 :  -0.1500-0.4500 0.0500  plane waves:     117
 k-point 45 :  -0.3500-0.3500 0.0500  plane waves:     118
 k-point 46 :  -0.2500-0.3500 0.0500  plane waves:     120
 k-point 47 :  -0.1500-0.3500 0.0500  plane waves:     118
 k-point 48 :  -0.2500-0.2500 0.0500  plane waves:     125
 k-point 49 :  -0.1500-0.2500 0.0500  plane waves:     123
 k-point 50 :  -0.1500-0.1500 0.0500  plane waves:     123
 k-point 51 :   0.1500 0.1500 0.1500  plane waves:     122
 k-point 52 :   0.2500 0.1500 0.1500  plane waves:     121
 k-point 53 :   0.3500 0.1500 0.1500  plane waves:     124
 k-point 54 :   0.4500 0.1500 0.1500  plane waves:     119
 k-point 55 :  -0.4500 0.1500 0.1500  plane waves:     118
 k-point 56 :  -0.3500 0.1500 0.1500  plane waves:     117
 k-point 57 :  -0.2500 0.1500 0.1500  plane waves:     115
 k-point 58 :  -0.1500 0.1500 0.1500  plane waves:     125
 k-point 59 :   0.2500 0.2500 0.1500  plane waves:     120
 k-point 60 :   0.3500 0.2500 0.1500  plane waves:     120
 k-point 61 :   0.4500 0.2500 0.1500  plane waves:     121
 k-point 62 :  -0.4500 0.2500 0.1500  plane waves:     116
 k-point 63 :  -0.3500 0.2500 0.1500  plane waves:     118
 k-point 64 :  -0.2500 0.2500 0.1500  plane waves:     117
 k-point 65 :  -0.1500 0.2500 0.1500  plane waves:     120
 k-point 66 :   0.3500 0.3500 0.1500  plane waves:     120
 k-point 67 :   0.4500 0.3500 0.1500  plane waves:     118
 k-point 68 :  -0.4500 0.3500 0.1500  plane waves:     115
 k-point 69 :  -0.3500 0.3500 0.1500  plane waves:     114
 k-point 70 :  -0.2500 0.3500 0.1500  plane waves:     115
 k-point 71 :  -0.1500 0.3500 0.1500  plane waves:     119
 k-point 72 :   0.4500 0.4500 0.1500  plane waves:     118
 k-point 73 :  -0.4500 0.4500 0.1500  plane waves:     113
 k-point 74 :  -0.3500 0.4500 0.1500  plane waves:     112
 k-point 75 :  -0.2500 0.4500 0.1500  plane waves:     111
 k-point 76 :  -0.1500 0.4500 0.1500  plane waves:     116
 k-point 77 :  -0.4500-0.4500 0.1500  plane waves:     114
 k-point 78 :  -0.3500-0.4500 0.1500  plane waves:     113
 k-point 79 :  -0.2500-0.4500 0.1500  plane waves:     114
 k-point 80 :  -0.3500-0.3500 0.1500  plane waves:     116
 k-point 81 :  -0.2500-0.3500 0.1500  plane waves:     117
 k-point 82 :  -0.2500-0.2500 0.1500  plane waves:     118
 k-point 83 :   0.2500 0.2500 0.2500  plane waves:     123
 k-point 84 :   0.3500 0.2500 0.2500  plane waves:     121
 k-point 85 :   0.4500 0.2500 0.2500  plane waves:     119
 k-point 86 :  -0.4500 0.2500 0.2500  plane waves:     119
 k-point 87 :  -0.3500 0.2500 0.2500  plane waves:     116
 k-point 88 :  -0.2500 0.2500 0.2500  plane waves:     119
 k-point 89 :   0.3500 0.3500 0.2500  plane waves:     119
 k-point 90 :   0.4500 0.3500 0.2500  plane waves:     120
 k-point 91 :  -0.4500 0.3500 0.2500  plane waves:     115
 k-point 92 :  -0.3500 0.3500 0.2500  plane waves:     113
 k-point 93 :  -0.2500 0.3500 0.2500  plane waves:     114
 k-point 94 :   0.4500 0.4500 0.2500  plane waves:     117
 k-point 95 :  -0.4500 0.4500 0.2500  plane waves:     116
 k-point 96 :  -0.3500 0.4500 0.2500  plane waves:     113
 k-point 97 :  -0.2500 0.4500 0.2500  plane waves:     112
 k-point 98 :  -0.4500-0.4500 0.2500  plane waves:     116
 k-point 99 :  -0.3500-0.4500 0.2500  plane waves:     112
 k-point ** :  -0.3500-0.3500 0.2500  plane waves:     114
 k-point ** :   0.3500 0.3500 0.3500  plane waves:     117
 k-point ** :   0.4500 0.3500 0.3500  plane waves:     119
 k-point ** :  -0.4500 0.3500 0.3500  plane waves:     119
 k-point ** :  -0.3500 0.3500 0.3500  plane waves:     118
 k-point ** :   0.4500 0.4500 0.3500  plane waves:     116
 k-point ** :  -0.4500 0.4500 0.3500  plane waves:     118
 k-point ** :  -0.3500 0.4500 0.3500  plane waves:     116
 k-point ** :  -0.4500-0.4500 0.3500  plane waves:     117
 k-point ** :   0.4500 0.4500 0.4500  plane waves:     120
 k-point ** :  -0.4500 0.4500 0.4500  plane waves:     118

 maximum and minimum number of plane-waves per node :       125      111

 maximum number of plane-waves:       125
 maximum index in each direction: 
   IXMAX=    3   IYMAX=    3   IZMAX=    3
   IXMIN=   -3   IYMIN=   -3   IZMIN=   -3


 serial   3D FFT for wavefunctions
 parallel 3D FFT for charge:
    minimum data exchange during FFTs selected (reduces bandwidth)


 total amount of memory used by VASP MPI-rank0    33159. kBytes
=======================================================================

   base      :      30000. kBytes
   nonl-proj :       2029. kBytes
   fftplans  :        142. kBytes
   grid      :        192. kBytes
   one-center:         15. kBytes
   wavefun   :        781. kBytes
 
     INWAV:  cpu time    0.0185: real time    0.7556
 Broyden mixing: mesh for mixing (old mesh)
   NGX =  7   NGY =  7   NGZ =  7
  (NGX  = 20   NGY  = 20   NGZ  = 20)
  gives a total of    343 points

 charge density for first step will be calculated from the start-wavefunctions


--------------------------------------------------------------------------------------------------------


 Maximum index for augmentation-charges         1009 (set IRDMAX)


--------------------------------------------------------------------------------------------------------


 initial charge from wavefunction
 First call to EWALD:  gamma=   0.721
 Maximum number of real-space cells 3x 3x 3
 Maximum number of reciprocal cells 3x 3x 3

    FEWALD:  cpu time    0.0016: real time    0.0086


--------------------------------------- Iteration      1(   1)  ---------------------------------------


    POTLOK:  cpu time    0.0015: real time    0.0112
    SETDIJ:  cpu time    0.0005: real time    0.0019
     EDDAV:  cpu time    0.2939: real time    0.8805
       DOS:  cpu time    0.0016: real time    0.0017
    CHARGE:  cpu time    0.0028: real time    0.0057
    MIXING:  cpu time    0.0003: real time    0.0003
    --------------------------------------------
      LOOP:  cpu time    0.3005: real time    0.9014

 eigenvalue-minimisations  :  3068
 total energy-change (2. order) :-0.7372790E+01  (-0.4695175E+01)
 number of electron      10.9999936 magnetization 
 augmentation part        3.4295168 magnetization 

 Broyden mixing:
  rms(total) = 0.10233E+01    rms(broyden)= 0.10232E+01
  rms(prec ) = 0.37953E+01
  weight for this iteration     100.00

 Free energy of the ion-electron system (eV)
  ---------------------------------------------------
  alpha Z        PSCENC =       123.93191659
  Ewald energy   TEWEN  =     -1024.17251330
  -Hartree energ DENC   =      -120.92293197
  -exchange      EXHF   =         0.00000000
  -V(xc)+E(xc)   XCENC  =        17.51255413
  PAW double counting   =       808.48577940     -792.04542788
  entropy T*S    EENTRO =        -0.00237279
  eigenvalues    EBANDS =        50.44387343
  atomic energy  EATOM  =       929.39633208
  Solvation  Ediel_sol  =         0.00000000
  ---------------------------------------------------
  free energy    TOTEN  =        -7.37279030 eV

  energy without entropy =       -7.37041751  energy(sigma->0) =       -7.37199937


--------------------------------------------------------------------------------------------------------




--------------------------------------- Iteration      1(   2)  ---------------------------------------


    POTLOK:  cpu time    0.0013: real time    0.0060
    SETDIJ:  cpu time    0.0006: real time    0.0020
     EDDAV:  cpu time    0.2678: real time    0.8159
       DOS:  cpu time    0.0016: real time    0.0015
    CHARGE:  cpu time    0.0028: real time    0.0027
    MIXING:  cpu time    0.0004: real time    0.0018
    --------------------------------------------
      LOOP:  cpu time    0.2745: real time    0.8302

 eigenvalue-minimisations  :  2960
 total energy-change (2. order) : 0.2997363E+01  (-0.7016104E+00)
 number of electron      10.9999927 magnetization 
 augmentation part        3.8477993 magnetization 

 Broyden mixing:
  rms(total) = 0.23715E+00    rms(broyden)= 0.23713E+00
  rms(prec ) = 0.82581E+00
  weight for this iteration     100.00

 eigenvalues of (default mixing * dielectric matrix)
  average eigenvalue GAMMA=   1.2990
  1.2990

 Free energy of the ion-electron system (eV)
  ---------------------------------------------------
  alpha Z        PSCENC =       123.93191659
  Ewald energy   TEWEN  =     -1024.17251330
  -Hartree energ DENC   =       -99.63199833
  -exchange      EXHF   =         0.00000000
  -V(xc)+E(xc)   XCENC  =        16.44613458
  PAW double counting   =       777.01366742     -760.72511209
  entropy T*S    EENTRO =        -0.00059106
  eigenvalues    EBANDS =        33.36673663
  atomic energy  EATOM  =       929.39633208
  Solvation  Ediel_sol  =         0.00000000
  ---------------------------------------------------
  free energy    TOTEN  =        -4.37542748 eV

  energy without entropy =       -4.37483642  energy(sigma->0) =       -4.37523046


--------------------------------------------------------------------------------------------------------




--------------------------------------- Iteration      1(   3)  ---------------------------------------


    POTLOK:  cpu time    0.0013: real time    0.0013
    SETDIJ:  cpu time    0.0004: real time    0.0023
     EDDAV:  cpu time    0.2763: real time    0.8386
       DOS:  cpu time    0.0014: real time    0.0014
    CHARGE:  cpu time    0.0028: real time    0.0056
    MIXING:  cpu time    0.0003: real time    0.0003
    --------------------------------------------
      LOOP:  cpu time    0.2825: real time    0.8496

 eigenvalue-minimisations  :  3116
 total energy-change (2. order) : 0.1566006E+00  (-0.6581630E-01)
 number of electron      10.9999924 magnetization 
 augmentation part        3.9723543 magnetization 

 Broyden mixing:
  rms(total) = 0.21694E-01    rms(broyden)= 0.21537E-01
  rms(prec ) = 0.57732E-01
  weight for this iteration     100.00

 eigenvalues of (default mixing * dielectric matrix)
  average eigenvalue GAMMA=   1.7946
  1.3100  2.2791

 Free energy of the ion-electron system (eV)
  ---------------------------------------------------
  alpha Z        PSCENC =       123.93191659
  Ewald energy   TEWEN  =     -1024.17251330
  -Hartree energ DENC   =       -94.18548849
  -exchange      EXHF   =         0.00000000
  -V(xc)+E(xc)   XCENC  =        16.18368688
  PAW double counting   =       772.42919694     -755.86690543
  entropy T*S    EENTRO =        -0.00022608
  eigenvalues    EBANDS =        28.06517390
  atomic energy  EATOM  =       929.39633208
  Solvation  Ediel_sol  =         0.00000000
  ---------------------------------------------------
  free energy    TOTEN  =        -4.21882689 eV

  energy without entropy =       -4.21860081  energy(sigma->0) =       -4.21875153


--------------------------------------------------------------------------------------------------------




--------------------------------------- Iteration      1(   4)  ---------------------------------------


    POTLOK:  cpu time    0.0013: real time    0.0054
    SETDIJ:  cpu time    0.0006: real time    0.0017
     EDDAV:  cpu time    0.2938: real time    0.7429
       DOS:  cpu time    0.0014: real time    0.0017
    CHARGE:  cpu time    0.0033: real time    0.0088
    MIXING:  cpu time    0.0006: real time    0.0009
    --------------------------------------------
      LOOP:  cpu time    0.3010: real time    0.7613

 eigenvalue-minimisations  :  2856
 total energy-change (2. order) :-0.2156912E-02  (-0.4658735E-03)
 number of electron      10.9999924 magnetization 
 augmentation part        3.9702667 magnetization 

 Broyden mixing:
  rms(total) = 0.65727E-02    rms(broyden)= 0.65531E-02
  rms(prec ) = 0.13452E-01
  weight for this iteration     100.00

 eigenvalues of (default mixing * dielectric matrix)
  average eigenvalue GAMMA=   1.7000
  1.1452  1.2409  2.7140

 Free energy of the ion-electron system (eV)
  ---------------------------------------------------
  alpha Z        PSCENC =       123.93191659
  Ewald energy   TEWEN  =     -1024.17251330
  -Hartree energ DENC   =       -94.73656645
  -exchange      EXHF   =         0.00000000
  -V(xc)+E(xc)   XCENC  =        16.21446567
  PAW double counting   =       778.52785733     -761.61060372
  entropy T*S    EENTRO =        -0.00024389
  eigenvalues    EBANDS =        28.22837188
  atomic energy  EATOM  =       929.39633208
  Solvation  Ediel_sol  =         0.00000000
  ---------------------------------------------------
  free energy    TOTEN  =        -4.22098380 eV

  energy without entropy =       -4.22073991  energy(sigma->0) =       -4.22090251


--------------------------------------------------------------------------------------------------------




--------------------------------------- Iteration      1(   5)  ---------------------------------------


    POTLOK:  cpu time    0.0013: real time    0.0018
    SETDIJ:  cpu time    0.0004: real time    0.0011
     EDDAV:  cpu time    0.2542: real time    0.5119
       DOS:  cpu time    0.0015: real time    0.0015
    --------------------------------------------
      LOOP:  cpu time    0.2573: real time    0.5163

 eigenvalue-minimisations  :  2204
 total energy-change (2. order) : 0.9320089E-05  (-0.2335887E-04)
 number of electron      10.9999924 magnetization 
 augmentation part        3.9702667 magnetization 

 Free energy of the ion-electron system (eV)
  ---------------------------------------------------
  alpha Z        PSCENC =       123.93191659
  Ewald energy   TEWEN  =     -1024.17251330
  -Hartree energ DENC   =       -94.73905044
  -exchange      EXHF   =         0.00000000
  -V(xc)+E(xc)   XCENC  =        16.21569888
  PAW double counting   =       779.90093311     -762.89140950
  entropy T*S    EENTRO =        -0.00022836
  eigenvalues    EBANDS =        28.13734645
  atomic energy  EATOM  =       929.39633208
  Solvation  Ediel_sol  =         0.00000000
  ---------------------------------------------------
  free energy    TOTEN  =        -4.22097448 eV

  energy without entropy =       -4.22074612  energy(sigma->0) =       -4.22089836


--------------------------------------------------------------------------------------------------------




 average (electrostatic) potential at core
  the test charge radii are     1.2098
  (the norm of the test charge is              1.0000)
       1 -44.3557
 
 
 
 E-fermi :   7.6262     XC(G=0): -13.7999     alpha+bet :-11.8263


 k-point     1 :       0.0500    0.0500    0.0500
  band No.  band energies     occupation 
      1      -3.8649      2.00000
      2       1.9518      2.00000
      3       2.0310      2.00000
      4       2.0310      2.00000
      5       3.9337      2.00000
      6       3.9337      2.00000
      7      22.9375      0.00000
      8      26.8035      0.00000
      9      27.6301      0.00000
     10      27.6301      0.00000
     11      32.7702      0.00000
     12      37.0603      0.00000

 k-point     2 :       0.1500    0.0500    0.0500
  band No.  band energies     occupation 
      1      -3.3494      2.00000
      2       1.7520      2.00000
      3       2.2019      2.00000
      4       2.2397      2.00000
      5       3.7365      2.00000
      6       3.9927      2.00000
      7      23.5304      0.00000
      8      24.7641      0.00000
      9      27.4588      0.00000
     10      28.7069      0.00000
     11      32.8608      0.00000
     12      35.6864      0.00000

 k-point     3 :       0.2500    0.0500    0.0500
  band No.  band energies     occupation 
      1      -2.2527      2.00000
      2       1.5932      2.00000
      3       2.3851      2.00000
      4       2.4153      2.00000
      5       3.7413      2.00000
      6       4.2571      2.00000
      7      21.1508      0.00000
      8      24.2612      0.00000
      9      28.0385      0.00000
     10      30.3017      0.00000
     11      30.4807      0.00000
     12      33.3885      0.00000

 k-point     4 :       0.3500    0.0500    0.0500
  band No.  band energies     occupation 
      1      -1.3295      2.00000
      2       2.1539      2.00000
      3       2.2671      2.00000
      4       2.3760      2.00000
      5       4.3626      2.00000
      6       4.9723      2.00000
      7      17.1063      0.00000
      8      23.4480      0.00000
      9      27.1822      0.00000
     10      29.6340      0.00000
     11      31.5090      0.00000
     12      32.9531      0.00000

 k-point     5 :       0.4500    0.0500    0.0500
  band No.  band energies     occupation 
      1      -1.1404      2.00000
      2       1.9659      2.00000
      3       2.0540      2.00000
      4       4.1151      2.00000
      5       5.1310      2.00000
      6       5.9152      2.00000
      7      13.1585      0.00000
      8      22.4820      0.00000
      9      26.0144      0.00000
     10      27.1985      0.00000
     11      33.8275      0.00000
     12      34.3434      0.00000

 k-point     6 :      -0.4500    0.0500    0.0500
  band No.  band energies     occupation 
      1      -1.1474      2.00000
      2       1.8823      2.00000
      3       2.0061      2.00000
      4       4.7097      2.00000
      5       5.4997      2.00000
      6       6.6143      2.00000
      7      11.4958     -0.00000
      8      22.2194      0.00000
      9      26.0230      0.00000
     10      26.1222      0.00000
     11      34.6001      0.00000
     12      34.7069      0.00000

 k-point     7 :      -0.3500    0.0500    0.0500
  band No.  band energies     occupation 
      1      -1.1568      2.00000
      2       2.0039      2.00000
      3       2.1447      2.00000
      4       3.4509      2.00000
      5       5.2396      2.00000
      6       5.2935      2.00000
      7      14.3806      0.00000
      8      22.7530      0.00000
      9      26.5778      0.00000
     10      27.4974      0.00000
     11      33.8007      0.00000
     12      33.8189      0.00000

 k-point     8 :      -0.2500    0.0500    0.0500
  band No.  band energies     occupation 
      1      -1.5526      2.00000
      2       1.8873      2.00000
      3       2.2803      2.00000
      4       2.3638      2.00000
      5       4.2386      2.00000
      6       4.5943      2.00000
      7      18.4896      0.00000
      8      23.8654      0.00000
      9      27.7839      0.00000
     10      29.7006      0.00000
     11      31.3075      0.00000
     12      33.1726      0.00000

 k-point     9 :      -0.1500    0.0500    0.0500
  band No.  band energies     occupation 
      1      -2.6516      2.00000
      2       1.5847      2.00000
      3       2.3786      2.00000
      4       2.3945      2.00000
      5       3.6871      2.00000
      6       4.1033      2.00000
      7      22.4038      0.00000
      8      24.2499      0.00000
      9      27.9828      0.00000
     10      29.3006      0.00000
     11      31.4394      0.00000
     12      33.9843      0.00000

 k-point    10 :      -0.0500    0.0500    0.0500
  band No.  band energies     occupation 
      1      -3.6022      2.00000
      2       1.8128      2.00000
      3       2.1468      2.00000
      4       2.1535      2.00000
      5       3.7687      2.00000
      6       4.0053      2.00000
      7      23.2768      0.00000
      8      25.8610      0.00000
      9      27.5017      0.00000
     10      27.8290      0.00000
     11      33.8051      0.00000
     12      36.0859      0.00000

 k-point    11 :       0.1500    0.1500    0.0500
  band No.  band energies     occupation 
      1      -3.0939      2.00000
      2       1.5381      2.00000
      3       2.3947      2.00000
      4       2.4002      2.00000
      5       3.4840      2.00000
      6       4.1444      2.00000
      7      23.8942      0.00000
      8      24.9670      0.00000
      9      27.0515      0.00000
     10      27.5538      0.00000
     11      33.5717      0.00000
     12      34.9031      0.00000

 k-point    12 :       0.2500    0.1500    0.0500
  band No.  band energies     occupation 
      1      -2.1781      2.00000
      2       1.2240      2.00000
      3       2.5086      2.00000
      4       2.7453      2.00000
      5       3.4115      2.00000
      6       4.4200      2.00000
      7      22.6863      0.00000
      8      24.4140      0.00000
      9      26.4907      0.00000
     10      27.8252      0.00000
     11      31.5006      0.00000
     12      34.0468      0.00000

 k-point    13 :       0.3500    0.1500    0.0500
  band No.  band energies     occupation 
      1      -1.0911      2.00000
      2       1.3230      2.00000
      3       2.1215      2.00000
      4       2.7544      2.00000
      5       4.2323      2.00000
      6       5.1393      2.00000
      7      18.7379      0.00000
      8      23.8950      0.00000
      9      25.4844      0.00000
     10      28.0300      0.00000
     11      31.9751      0.00000
     12      33.4939      0.00000

 k-point    14 :       0.4500    0.1500    0.0500
  band No.  band energies     occupation 
      1      -0.7230      2.00000
      2       1.7375      2.00000
      3       2.3872      2.00000
      4       2.5932      2.00000
      5       5.2007      2.00000
      6       6.4564      2.00000
      7      14.5379      0.00000
      8      23.0392      0.00000
      9      24.3731      0.00000
     10      26.7299      0.00000
     11      33.5766      0.00000
     12      35.0599      0.00000

 k-point    15 :      -0.4500    0.1500    0.0500
  band No.  band energies     occupation 
      1      -0.7178      2.00000
      2       1.5767      2.00000
      3       2.3747      2.00000
      4       3.4327      2.00000
      5       5.4364      2.00000
      6       8.3302     -0.00001
      7      11.4197     -0.00000
      8      22.5147      0.00000
      9      24.0518      0.00000
     10      25.6633      0.00000
     11      34.4337      0.00000
     12      35.3947      0.00000

 k-point    16 :      -0.3500    0.1500    0.0500
  band No.  band energies     occupation 
      1      -0.6871      2.00000
      2       1.6804      2.00000
      3       2.4057      2.00000
      4       3.0254      2.00000
      5       5.0181      2.00000
      6       7.2433      2.02085
      7      13.3445      0.00000
      8      22.5037      0.00000
      9      24.1000      0.00000
     10      26.8618      0.00000
     11      33.2589      0.00000
     12      35.1527      0.00000

 k-point    17 :      -0.2500    0.1500    0.0500
  band No.  band energies     occupation 
      1      -0.8392      2.00000
      2       1.6704      2.00000
      3       2.0434      2.00000
      4       2.6440      2.00000
      5       4.1298      2.00000
      6       5.7908      2.00000
      7      17.3453      0.00000
      8      23.0024      0.00000
      9      25.1647      0.00000
     10      29.0116      0.00000
     11      31.1781      0.00000
     12      34.1619      0.00000

 k-point    18 :      -0.1500    0.1500    0.0500
  band No.  band energies     occupation 
      1      -1.7844      2.00000
      2       1.2766      2.00000
      3       2.3715      2.00000
      4       2.7748      2.00000
      5       3.4054      2.00000
      6       4.7465      2.00000
      7      21.2914      0.00000
      8      23.7206      0.00000
      9      26.9501      0.00000
     10      28.0372      0.00000
     11      32.0335      0.00000
     12      33.4682      0.00000

 k-point    19 :      -0.0500    0.1500    0.0500
  band No.  band energies     occupation 
      1      -2.8605      2.00000
      2       1.5406      2.00000
      3       2.3958      2.00000
      4       2.4116      2.00000
      5       3.5352      2.00000
      6       4.1531      2.00000
      7      23.5588      0.00000
      8      24.1309      0.00000
      9      27.0923      0.00000
     10      28.9409      0.00000
     11      31.8255      0.00000
     12      35.0189      0.00000

 k-point    20 :       0.2500    0.2500    0.0500
  band No.  band energies     occupation 
      1      -1.5803      2.00000
      2       0.7789      2.00000
      3       2.6882      2.00000
      4       3.2213      2.00000
      5       3.4553      2.00000
      6       4.5764      2.00000
      7      23.2973      0.00000
      8      24.6093      0.00000
      9      25.2398      0.00000
     10      26.1865      0.00000
     11      28.7628      0.00000
     12      35.1424      0.00000

 k-point    21 :       0.3500    0.2500    0.0500
  band No.  band energies     occupation 
      1      -0.7297      2.00000
      2       0.5010      2.00000
      3       2.3601      2.00000
      4       3.6551      2.00000
      5       4.2680      2.00000
      6       5.1697      2.00000
      7      20.5340      0.00000
      8      22.6003      0.00000
      9      24.1585      0.00000
     10      27.0710      0.00000
     11      28.6712      0.00000
     12      35.2383      0.00000

 k-point    22 :       0.4500    0.2500    0.0500
  band No.  band energies     occupation 
      1      -0.2606      2.00000
      2       0.8080      2.00000
      3       2.0557      2.00000
      4       3.4852      2.00000
      5       5.3182      2.00000
      6       6.7836      2.00000
      7      16.1820      0.00000
      8      21.9073      0.00000
      9      22.3528      0.00000
     10      26.5869      0.00000
     11      31.9628      0.00000
     12      35.4486      0.00000

 k-point    23 :      -0.4500    0.2500    0.0500
  band No.  band energies     occupation 
      1      -0.1308      2.00000
      2       1.1155      2.00000
      3       2.2863      2.00000
      4       3.2309      2.00000
      5       5.4812      2.00000
      6       9.5088     -0.00000
      7      12.3320     -0.00000
      8      20.5685      0.00000
      9      22.4485      0.00000
     10      25.9194      0.00000
     11      34.5379      0.00000
     12      36.5512      0.00000

 k-point    24 :      -0.3500    0.2500    0.0500
  band No.  band energies     occupation 
      1       0.0869      2.00000
      2       1.2008      2.00000
      3       2.2937      2.00000
      4       3.0987      2.00000
      5       4.9629      2.00000
      6       9.3382     -0.00000
      7      12.9924     -0.00000
      8      19.4021      0.00000
      9      23.6781      0.00000
     10      26.1221      0.00000
     11      33.4754      0.00000
     12      36.0511      0.00000

 k-point    25 :      -0.2500    0.2500    0.0500
  band No.  band energies     occupation 
      1       0.2185      2.00000
      2       1.3204      2.00000
      3       1.6031      2.00000
      4       3.1977      2.00000
      5       4.0827      2.00000
      6       7.4380      2.03574
      7      16.5776      0.00000
      8      19.3875      0.00000
      9      24.6687      0.00000
     10      28.0957      0.00000
     11      30.8552      0.00000
     12      36.0120      0.00000

 k-point    26 :      -0.1500    0.2500    0.0500
  band No.  band energies     occupation 
      1      -0.6327      2.00000
      2       1.1767      2.00000
      3       2.0133      2.00000
      4       3.0531      2.00000
      5       3.5774      2.00000
      6       5.9083      2.00000
      7      18.8180      0.00000
      8      21.7637      0.00000
      9      25.5918      0.00000
     10      28.8137      0.00000
     11      30.7647      0.00000
     12      34.8250      0.00000

 k-point    27 :      -0.0500    0.2500    0.0500
  band No.  band energies     occupation 
      1      -1.7061      2.00000
      2       1.4950      2.00000
      3       2.3388      2.00000
      4       2.5346      2.00000
      5       3.8148      2.00000
      6       4.6541      2.00000
      7      19.9425      0.00000
      8      24.1712      0.00000
      9      27.0062      0.00000
     10      29.2168      0.00000
     11      31.6905      0.00000
     12      32.7417      0.00000

 k-point    28 :       0.3500    0.3500    0.0500
  band No.  band energies     occupation 
      1      -0.6375      2.00000
      2       0.0338      2.00000
      3       3.4038      2.00000
      4       4.3294      2.00000
      5       4.8124      2.00000
      6       5.1084      2.00000
      7      20.4881      0.00000
      8      21.3695      0.00000
      9      21.9445      0.00000
     10      25.9539      0.00000
     11      27.9125      0.00000
     12      37.6801      0.00000

 k-point    29 :       0.4500    0.3500    0.0500
  band No.  band energies     occupation 
      1      -0.5106      2.00000
      2      -0.0983      2.00000
      3       3.4801      2.00000
      4       4.7015      2.00000
      5       5.3349      2.00000
      6       6.7866      2.00000
      7      17.5055      0.00000
      8      19.6466      0.00000
      9      20.2912      0.00000
     10      27.0667      0.00000
     11      29.0820      0.00000
     12      37.3642      0.00000

 k-point    30 :      -0.4500    0.3500    0.0500
  band No.  band energies     occupation 
      1      -0.3221      2.00000
      2       0.2786      2.00000
      3       3.0433      2.00000
      4       4.3169      2.00000
      5       5.6093      2.00000
      6       9.7567     -0.00000
      7      13.9124      0.00000
      8      18.0177      0.00000
      9      20.3220      0.00000
     10      27.2244      0.00000
     11      32.0252      0.00000
     12      36.3500      0.00000

 k-point    31 :      -0.3500    0.3500    0.0500
  band No.  band energies     occupation 
      1       0.0378      2.00000
      2       0.8897      2.00000
      3       2.3740      2.00000
      4       3.8922      2.00000
      5       5.1861      2.00000
      6      11.0867     -0.00000
      7      13.3705      0.00000
      8      16.2274      0.00000
      9      21.8755      0.00000
     10      26.7752      0.00000
     11      34.8255      0.00000
     12      35.7948      0.00000

 k-point    32 :      -0.2500    0.3500    0.0500
  band No.  band energies     occupation 
      1       0.4120      2.00000
      2       1.2461      2.00000
      3       1.7626      2.00000
      4       3.4390      2.00000
      5       4.6548      2.00000
      6       9.1864     -0.00000
      7      14.9767      0.00000
      8      17.2298      0.00000
      9      23.7762      0.00000
     10      26.5675      0.00000
     11      32.9073      0.00000
     12      36.2419      0.00000

 k-point    33 :      -0.1500    0.3500    0.0500
  band No.  band energies     occupation 
      1      -0.2548      2.00000
      2       1.5516      2.00000
      3       2.1298      2.00000
      4       2.8162      2.00000
      5       4.5405      2.00000
      6       7.3848      2.07082
      7      14.9269      0.00000
      8      21.1247      0.00000
      9      24.2638      0.00000
     10      27.5019      0.00000
     11      31.9400      0.00000
     12      35.5575      0.00000

 k-point    34 :      -0.0500    0.3500    0.0500
  band No.  band energies     occupation 
      1      -1.0467      2.00000
      2       2.0048      2.00000
      3       2.3163      2.00000
      4       2.5463      2.00000
      5       4.7013      2.00000
      6       5.5634      2.00000
      7      15.7908      0.00000
      8      23.1889      0.00000
      9      25.7791      0.00000
     10      28.3193      0.00000
     11      32.4837      0.00000
     12      33.8962      0.00000

 k-point    35 :       0.4500    0.4500    0.0500
  band No.  band energies     occupation 
      1      -0.8432      2.00000
      2      -0.4532      2.00000
      3       5.1377      2.00000
      4       5.2155      2.00000
      5       5.6467      2.00000
      6       7.1201      2.00202
      7      16.3333      0.00000
      8      18.6409      0.00000
      9      18.9354      0.00000
     10      26.3999      0.00000
     11      29.1018      0.00000
     12      38.6370      0.00000

 k-point    36 :      -0.4500    0.4500    0.0500
  band No.  band energies     occupation 
      1      -0.7650      2.00000
      2      -0.3895      2.00000
      3       4.6405      2.00000
      4       5.1452      2.00000
      5       5.8376      2.00000
      6       9.3460     -0.00000
      7      14.3199      0.00000
      8      17.5767      0.00000
      9      18.5405      0.00000
     10      27.4497      0.00000
     11      29.6542      0.00000
     12      37.7061      0.00000

 k-point    37 :      -0.3500    0.4500    0.0500
  band No.  band energies     occupation 
      1      -0.3956      2.00000
      2       0.1696      2.00000
      3       3.3977      2.00000
      4       4.5378      2.00000
      5       5.6022      2.00000
      6      11.2453     -0.00000
      7      13.0663     -0.00000
      8      16.5425      0.00000
      9      19.9303      0.00000
     10      27.5057      0.00000
     11      32.0697      0.00000
     12      36.4192      0.00000

 k-point    38 :      -0.2500    0.4500    0.0500
  band No.  band energies     occupation 
      1       0.0090      2.00000
      2       0.9442      2.00000
      3       2.3216      2.00000
      4       3.6140      2.00000
      5       5.3489      2.00000
      6      11.3641     -0.00000
      7      11.5932     -0.00000
      8      18.3507      0.00000
      9      22.0669      0.00000
     10      26.3976      0.00000
     11      34.6793      0.00000
     12      36.2023      0.00000

 k-point    39 :      -0.1500    0.4500    0.0500
  band No.  band energies     occupation 
      1      -0.3406      2.00000
      2       1.3510      2.00000
      3       2.7047      2.00000
      4       2.8746      2.00000
      5       5.2713      2.00000
      6       9.3203     -0.00000
      7      11.5239     -0.00000
      8      21.4330      0.00000
      9      23.5493      0.00000
     10      25.6785      0.00000
     11      34.1272      0.00000
     12      35.7502      0.00000

 k-point    40 :      -0.0500    0.4500    0.0500
  band No.  band energies     occupation 
      1      -0.9914      2.00000
      2       1.8017      2.00000
      3       2.1505      2.00000
      4       3.9278      2.00000
      5       5.3762      2.00000
      6       6.9654      2.00003
      7      12.1424     -0.00000
      8      22.4754      0.00000
      9      25.1612      0.00000
     10      26.3494      0.00000
     11      34.2691      0.00000
     12      34.8979      0.00000

 k-point    41 :      -0.4500   -0.4500    0.0500
  band No.  band energies     occupation 
      1      -0.9427      2.00000
      2      -0.5563      2.00000
      3       5.3681      2.00000
      4       5.5326      2.00000
      5       5.8539      2.00000
      6       8.3126     -0.00001
      7      14.6852      0.00000
      8      18.0145      0.00000
      9      18.3692      0.00000
     10      26.5905      0.00000
     11      29.3513      0.00000
     12      38.3835      0.00000

 k-point    42 :      -0.3500   -0.4500    0.0500
  band No.  band energies     occupation 
      1      -0.6628      2.00000
      2      -0.2906      2.00000
      3       4.1796      2.00000
      4       5.0514      2.00000
      5       5.6357      2.00000
      6       8.1257     -0.00235
      7      15.7785      0.00000
      8      18.3168      0.00000
      9      19.1086      0.00000
     10      27.2809      0.00000
     11      29.4547      0.00000
     12      37.6998      0.00000

 k-point    43 :      -0.2500   -0.4500    0.0500
  band No.  band energies     occupation 
      1      -0.2364      2.00000
      2       0.4999      2.00000
      3       2.5188      2.00000
      4       3.9276      2.00000
      5       5.5438      2.00000
      6       8.1672     -0.00088
[...]
      6       8.4002     -0.00000
      7      15.6869      0.00000
      8      18.2479      0.00000
      9      23.1248      0.00000
     10      28.1607      0.00000
     11      31.4772      0.00000
     12      36.8766      0.00000

 k-point    92 :      -0.3500    0.3500    0.2500
  band No.  band energies     occupation 
      1       0.4466      2.00000
      2       1.0346      2.00000
      3       1.7808      2.00000
      4       3.6737      2.00000
      5       5.1075      2.00000
      6      10.3484     -0.00000
      7      14.2761      0.00000
      8      16.5070      0.00000
      9      21.6298      0.00000
     10      27.8608      0.00000
     11      33.1214      0.00000
     12      37.8004      0.00000

 k-point    93 :      -0.2500    0.3500    0.2500
  band No.  band energies     occupation 
      1       0.0365      2.00000
      2       0.6798      2.00000
      3       2.2939      2.00000
      4       3.9893      2.00000
      5       5.4887      2.00000
      6      10.6987     -0.00000
      7      13.0822     -0.00000
      8      17.9467      0.00000
      9      20.2510      0.00000
     10      27.9497      0.00000
     11      33.3300      0.00000
     12      35.4592      0.00000

 k-point    94 :       0.4500    0.4500    0.2500
  band No.  band energies     occupation 
      1      -0.3617      2.00000
      2       1.2172      2.00000
      3       2.0806      2.00000
      4       3.0774      2.00000
      5       5.5601      2.00000
      6       7.1659      2.00536
      7      14.6660      0.00000
      8      22.3266      0.00000
      9      23.2166      0.00000
     10      25.5690      0.00000
     11      34.1375      0.00000
     12      35.3469      0.00000

 k-point    95 :      -0.4500    0.4500    0.2500
  band No.  band energies     occupation 
      1       0.0564      2.00000
      2       0.8844      2.00000
      3       1.9744      2.00000
      4       3.7058      2.00000
      5       5.3643      2.00000
      6       9.0600     -0.00000
      7      13.8854      0.00000
      8      19.8458      0.00000
      9      21.0513      0.00000
     10      27.4535      0.00000
     11      32.9619      0.00000
     12      35.8927      0.00000

 k-point    96 :      -0.3500    0.4500    0.2500
  band No.  band energies     occupation 
      1       0.4699      2.00000
      2       0.9889      2.00000
      3       1.5502      2.00000
      4       3.8428      2.00000
      5       5.5457      2.00000
      6      11.0883     -0.00000
      7      14.2895      0.00000
      8      16.3313      0.00000
      9      19.3668      0.00000
     10      30.2346      0.00000
     11      32.0057      0.00000
     12      36.0654      0.00000

 k-point    97 :      -0.2500    0.4500    0.2500
  band No.  band energies     occupation 
      1       0.3180      2.00000
      2       0.9963      2.00000
      3       1.7406      2.00000
      4       3.7855      2.00000
      5       5.8307      2.00000
      6      12.5464     -0.00000
      7      13.8664      0.00000
      8      15.3534      0.00000
      9      18.3261      0.00000
     10      31.1342      0.00000
     11      32.6487      0.00000
     12      34.5043      0.00000

 k-point    98 :      -0.4500   -0.4500    0.2500
  band No.  band energies     occupation 
      1      -0.2139      2.00000
      2       0.6342      2.00000
      3       2.7264      2.00000
      4       3.9094      2.00000
      5       5.5121      2.00000
      6      10.5353     -0.00000
      7      12.6395     -0.00000
      8      18.1319      0.00000
      9      21.6053      0.00000
     10      26.3119      0.00000
     11      33.8435      0.00000
     12      36.3793      0.00000

 k-point    99 :      -0.3500   -0.4500    0.2500
  band No.  band energies     occupation 
      1      -0.0210      2.00000
      2       0.5959      2.00000
      3       2.5421      2.00000
      4       4.0935      2.00000
      5       5.5590      2.00000
      6      12.0662     -0.00000
      7      12.8085     -0.00000
      8      16.1805      0.00000
      9      19.9198      0.00000
     10      28.3242      0.00000
     11      33.7881      0.00000
     12      34.8594      0.00000

 k-point   100 :      -0.3500   -0.3500    0.2500
  band No.  band energies     occupation 
      1      -0.2441      2.00000
      2       0.5260      2.00000
      3       2.9659      2.00000
      4       4.2354      2.00000
      5       5.3539      2.00000
      6      11.8501     -0.00000
      7      12.4294     -0.00000
      8      16.2916      0.00000
      9      21.2900      0.00000
     10      26.6509      0.00000
     11      33.8153      0.00000
     12      36.5393      0.00000

 k-point   101 :       0.3500    0.3500    0.3500
  band No.  band energies     occupation 
      1      -1.2917      2.00000
      2       2.1412      2.00000
      3       2.1412      2.00000
      4       3.0799      2.00000
      5       4.8450      2.00000
      6       4.8450      2.00000
      7      15.6840      0.00000
      8      22.9988      0.00000
      9      28.0070      0.00000
     10      28.0070      0.00000
     11      33.1640      0.00000
     12      33.3160      0.00000

 k-point   102 :       0.4500    0.3500    0.3500
  band No.  band energies     occupation 
      1      -0.9104      2.00000
      2       1.9037      2.00000
      3       2.2764      2.00000
      4       3.0110      2.00000
      5       4.7023      2.00000
      6       6.2929      2.00000
      7      14.5067      0.00000
      8      22.8085      0.00000
      9      24.9453      0.00000
     10      27.9972      0.00000
     11      32.5028      0.00000
     12      34.4941      0.00000

 k-point   103 :      -0.4500    0.3500    0.3500
  band No.  band energies     occupation 
      1      -0.0963      2.00000
      2       1.4135      2.00000
      3       2.3780      2.00000
      4       2.8427      2.00000
      5       4.6714      2.00000
      6       8.2671     -0.00006
      7      13.8984      0.00000
      8      20.1801      0.00000
      9      24.6320      0.00000
     10      26.2190      0.00000
     11      32.7915      0.00000
     12      35.5062      0.00000

 k-point   104 :      -0.3500    0.3500    0.3500
  band No.  band energies     occupation 
      1       0.1837      2.00000
      2       1.1757      2.00000
      3       2.0959      2.00000
      4       3.6207      2.00000
      5       4.8616      2.00000
      6      10.0474     -0.00000
      7      14.2294      0.00000
      8      16.5263      0.00000
      9      23.6686      0.00000
     10      25.7326      0.00000
     11      34.4723      0.00000
     12      35.9331      0.00000

 k-point   105 :       0.4500    0.4500    0.3500
  band No.  band energies     occupation 
      1      -0.9236      2.00000
      2       1.7878      2.00000
      3       2.2795      2.00000
      4       3.2765      2.00000
      5       5.4819      2.00000
      6       6.5073      2.00000
      7      13.1898      0.00000
      8      22.7315      0.00000
      9      25.4354      0.00000
     10      26.0658      0.00000
     11      34.3893      0.00000
     12      34.9721      0.00000

 k-point   106 :      -0.4500    0.4500    0.3500
  band No.  band energies     occupation 
      1      -0.3845      2.00000
      2       1.3917      2.00000
      3       2.6153      2.00000
      4       2.8401      2.00000
      5       5.2822      2.00000
      6       8.5562     -0.00000
      7      12.3107     -0.00000
      8      22.1581      0.00000
      9      22.8899      0.00000
     10      26.2279      0.00000
     11      33.7269      0.00000
     12      36.0315      0.00000

 k-point   107 :      -0.3500    0.4500    0.3500
  band No.  band energies     occupation 
      1       0.3032      2.00000
      2       0.9569      2.00000
      3       2.0836      2.00000
      4       3.4218      2.00000
      5       5.2258      2.00000
      6      10.6895     -0.00000
      7      12.2058     -0.00000
      8      18.7561      0.00000
      9      21.7162      0.00000
     10      27.2570      0.00000
     11      33.4387      0.00000
     12      37.4973      0.00000

 k-point   108 :      -0.4500   -0.4500    0.3500
  band No.  band energies     occupation 
      1      -0.2607      2.00000
      2       1.2763      2.00000
      3       2.6394      2.00000
      4       2.8828      2.00000
      5       5.4124      2.00000
      6       9.8101     -0.00000
      7      11.3396     -0.00000
      8      20.9215      0.00000
      9      24.0788      0.00000
     10      24.7635      0.00000
     11      35.2107      0.00000
     12      35.4125      0.00000

 k-point   109 :       0.4500    0.4500    0.4500
  band No.  band energies     occupation 
      1      -1.2215      2.00000
      2       1.9625      2.00000
      3       1.9625      2.00000
      4       5.3180      2.00000
      5       5.4098      2.00000
      6       5.4098      2.00000
      7      12.1253     -0.00000
      8      22.2037      0.00000
      9      26.5342      0.00000
     10      26.5342      0.00000
     11      34.3975      0.00000
     12      34.3975      0.00000

 k-point   110 :      -0.4500    0.4500    0.4500
  band No.  band energies     occupation 
      1      -0.9224      2.00000
      2       1.7327      2.00000
      3       2.1802      2.00000
      4       3.9502      2.00000
      5       5.3803      2.00000
      6       7.6629      0.69549
      7      11.4720     -0.00000
      8      22.4207      0.00000
      9      24.8315      0.00000
     10      25.9820      0.00000
     11      34.5616      0.00000
     12      34.8572      0.00000


--------------------------------------------------------------------------------------------------------


 soft charge-density along one line, spin component           1
         0         1         2         3         4         5         6         7         8         9
 total charge-density along one line
 
 pseudopotential strength for first ion, spin component:           1
 -9.164   0.000   0.000   0.000   0.000   0.000   0.000   0.000   0.000   0.000  -0.188   0.000  -0.000   0.000  -0.000   0.000
  0.000   0.000  -9.164   0.000  -0.000   0.000   0.000   0.000   0.000   0.000  -0.000   0.000  -0.188   0.000   0.000   0.000
  0.000   0.000  -0.000   0.000  -9.143   0.000  -0.000   0.000  -0.000   0.000  -0.000   0.000   0.000   0.000  -0.191   0.000
  0.000   0.000   0.000   0.000  -0.000   0.000  -9.164   0.000  -0.000   0.000  -0.000   0.000  -0.000   0.000   0.000   0.000
  0.000   0.000   0.000   0.000  -0.000   0.000  -0.000   0.000  -9.143   0.000  -0.000   0.000  -0.000   0.000   0.000   0.000
 -0.188   0.000  -0.000   0.000  -0.000   0.000  -0.000   0.000  -0.000   0.000   0.297   0.000   0.000   0.000   0.000   0.000
 -0.000   0.000  -0.188   0.000   0.000   0.000  -0.000   0.000  -0.000   0.000   0.000   0.000   0.297   0.000  -0.000   0.000
 -0.000   0.000   0.000   0.000  -0.191   0.000   0.000   0.000   0.000   0.000   0.000   0.000  -0.000   0.000   0.297   0.000
 -0.000   0.000  -0.000   0.000   0.000   0.000  -0.188   0.000   0.000   0.000   0.000   0.000   0.000   0.000  -0.000   0.000
 -0.000   0.000  -0.000   0.000   0.000   0.000   0.000   0.000  -0.191   0.000   0.000   0.000   0.000   0.000  -0.000   0.000
  0.000   0.000   0.000   0.000   0.000   0.000   0.000   0.000  -0.000   0.000   0.000   0.000   0.000   0.000  -0.000   0.000
 -0.000   0.000  -0.000   0.000  -0.000   0.000  -0.000   0.000   0.000   0.000   0.000   0.000   0.000   0.000   0.000   0.000
 -0.000   0.000  -0.000   0.000   0.000   0.000  -0.000   0.000   0.000   0.000   0.000   0.000   0.000   0.000  -0.000   0.000
 -0.000   0.000  -0.000   0.000  -0.000   0.000  -0.000   0.000  -0.000   0.000   0.000   0.000   0.000   0.000   0.000   0.000
 -0.000   0.000  -0.000   0.000   0.000   0.000  -0.000   0.000  -0.000   0.000   0.000   0.000   0.000   0.000  -0.000   0.000
  0.000   0.000   0.000   0.000  -0.000   0.000   0.000   0.000  -0.000   0.000  -0.000   0.000  -0.000   0.000   0.000   0.000
  0.000   0.000   0.000   0.000   0.000   0.000   0.000   0.000   0.000   0.000  -0.000   0.000  -0.000   0.000  -0.000   0.000
  0.000   0.000   0.000   0.000  -0.000   0.000   0.000   0.000   0.000   0.000  -0.000   0.000  -0.000   0.000   0.000   0.000
 total augmentation occupancy for first ion, spin component:           1
  1.908   0.000  -0.000   0.000   0.000   0.017  -0.000  -0.000  -0.000   0.000   0.000  -0.000   0.000   0.000   0.000   0.000
  0.000   1.908  -0.000   0.000   0.000  -0.000   0.017  -0.000  -0.000   0.000  -0.000   0.000   0.000   0.000   0.000   0.000
  0.000  -0.000   1.958   0.000   0.000  -0.000  -0.000  -0.040   0.000   0.000   0.000   0.000   0.000   0.000   0.000   0.000
  0.000   0.000  -0.000   1.908  -0.000  -0.000  -0.000   0.000   0.017  -0.000   0.000  -0.000   0.000   0.000   0.000   0.000
  0.000   0.000   0.000   0.000   1.958   0.000   0.000   0.000   0.000  -0.040   0.000  -0.000   0.000   0.000   0.000   0.000
  0.017  -0.000  -0.000  -0.000  -0.000   0.335  -0.000   0.000  -0.000  -0.000   0.000  -0.000   0.000   0.000   0.000   0.000
 -0.000   0.017  -0.000  -0.000   0.000  -0.000   0.335   0.000  -0.000   0.000  -0.000   0.000   0.000   0.000   0.000   0.000
 -0.000   0.000  -0.040  -0.000   0.000   0.000  -0.000   0.265  -0.000  -0.000   0.000  -0.000   0.000   0.000   0.000   0.000
 -0.000  -0.000   0.000   0.017  -0.000  -0.000  -0.000   0.000   0.335  -0.000  -0.000  -0.000   0.000   0.000   0.000   0.000
  0.000  -0.000   0.000   0.000  -0.040   0.000   0.000  -0.000  -0.000   0.265  -0.000   0.000   0.000   0.000   0.000   0.000
  0.000  -0.000  -0.000  -0.000   0.000   0.000  -0.000   0.000  -0.000  -0.000   1.163  -0.499   0.000   0.000   0.000   0.000
 -0.000   0.000   0.000   0.000  -0.000  -0.000   0.000  -0.000  -0.000   0.000  -0.499   0.378   0.000   0.000   0.000   0.000
  0.000   0.000   0.000   0.000   0.000   0.000   0.000   0.000   0.000   0.000   0.000   0.000   0.225  -0.000   0.000  -0.017
  0.000   0.000   0.000   0.000   0.000   0.000   0.000   0.000   0.000   0.000   0.000   0.000  -0.000   0.225  -0.000   0.000
  0.000   0.000   0.000   0.000   0.000   0.000   0.000   0.000   0.000   0.000   0.000   0.000   0.000  -0.000   0.225   0.000
  0.000   0.000   0.000   0.000   0.000   0.000   0.000   0.000   0.000   0.000   0.000   0.000  -0.017  -0.000   0.000   0.002
  0.000   0.000   0.000   0.000   0.000   0.000   0.000   0.000   0.000   0.000   0.000   0.000   0.000  -0.017   0.000   0.000
  0.000   0.000   0.000   0.000   0.000   0.000   0.000   0.000   0.000   0.000   0.000   0.000  -0.000   0.000  -0.017   0.000


------------------------ aborting loop because EDIFF is reached ----------------------------------------


    CHARGE:  cpu time    0.0039: real time    0.0104
    FORLOC:  cpu time    0.0000: real time    0.0001
    FORNL :  cpu time    0.0063: real time    0.0128
    STRESS:  cpu time    0.0424: real time    0.0827
    FORCOR:  cpu time    0.0015: real time    0.0050
    FORHAR:  cpu time    0.0005: real time    0.0005
    MIXING:  cpu time    0.0002: real time    0.0002
    OFIELD:  cpu time    0.0000: real time    0.0000

  FORCE on cell =-STRESS in cart. coord.  units (eV):
  Direction    XX          YY          ZZ          XY          YZ          ZX
  --------------------------------------------------------------------------------------
  Alpha Z   123.93192   123.93192   123.93192
  Ewald    -341.39085  -341.39085  -341.39085    -0.00000    -0.00000     0.00000
  Hartree    31.58191    31.58191    31.58191     0.00001     0.00001     0.00001
  E(xc)     -49.75408   -49.75408   -49.75408    -0.00000    -0.00000    -0.00000
  Local      86.75814    86.75814    86.75814    -0.00015    -0.00015    -0.00015
  n-local   -46.19210   -42.95791   -46.88169     0.63442    -0.63078     0.03019
  augment    42.15469    42.15469    42.15469    -0.00038    -0.00038    -0.00038
  Kinetic   154.75757   153.77821   155.90508    -0.22408     0.08507     0.02961
  Fock        0.00000     0.00000     0.00000     0.00000     0.00000     0.00000
  -------------------------------------------------------------------------------------
  Total       2.75144     2.75144     2.75144    -0.00000    -0.00000    -0.00000
  in kB     297.26076   297.26076   297.26076    -0.00000    -0.00000    -0.00000
  external pressure =      297.26 kB  Pullay stress =        0.00 kB


 VOLUME and BASIS-vectors are now :
 -----------------------------------------------------------------------------
  energy-cutoff  :      230.00
  volume of cell :       14.83
      direct lattice vectors                 reciprocal lattice vectors
     0.000000000  1.950000000  1.950000000    -0.256410256  0.256410256  0.256410256
     1.950000000  0.000000000  1.950000000     0.256410256 -0.256410256  0.256410256
     1.950000000  1.950000000  0.000000000     0.256410256  0.256410256 -0.256410256

  length of vectors
     2.757716447  2.757716447  2.757716447     0.444115592  0.444115592  0.444115592


 FORCES acting on ions
    electron-ion (+dipol)            ewald-force                    non-local-force                 convergence-correction
 -----------------------------------------------------------------------------------------------
   0.105E-13 0.134E-13 0.166E-13   -.429E-15 -.541E-15 -.121E-14   0.000E+00 0.000E+00 -.165E-23   0.512E-14 0.190E-13 0.134E-13
 -----------------------------------------------------------------------------------------------
   0.105E-13 0.134E-13 0.166E-13   -.429E-15 -.541E-15 -.121E-14   0.000E+00 0.000E+00 -.165E-23   0.512E-14 0.190E-13 0.134E-13
 
 
 POSITION                                       TOTAL-FORCE (eV/Angst)
 -----------------------------------------------------------------------------------
      0.00000      0.00000      0.00000         0.000000      0.000000      0.000000
 -----------------------------------------------------------------------------------
    total drift:                                0.000000      0.000000      0.000000


--------------------------------------------------------------------------------------------------------



  FREE ENERGIE OF THE ION-ELECTRON SYSTEM (eV)
  ---------------------------------------------------
  free  energy   TOTEN  =        -4.22097448 eV

  energy  without entropy=       -4.22074612  energy(sigma->0) =       -4.22089836
 


--------------------------------------------------------------------------------------------------------


    POTLOK:  cpu time    0.0029: real time    0.0078


--------------------------------------------------------------------------------------------------------


 writing wavefunctions
     LOOP+:  cpu time    1.6145: real time    4.2974
    4ORBIT:  cpu time    0.0000: real time    0.0000

 total amount of memory used by VASP MPI-rank0    33159. kBytes
=======================================================================

   base      :      30000. kBytes
   nonl-proj :       2029. kBytes
   fftplans  :        142. kBytes
   grid      :        192. kBytes
   one-center:         15. kBytes
   wavefun   :        781. kBytes
 
  
  
 General timing and accounting informations for this job:
 ========================================================
  
                  Total CPU time used (sec):        2.019
                            User time (sec):        1.786
                          System time (sec):        0.233
                         Elapsed time (sec):        6.261
  
                   Maximum memory used (kb):       56804.
                   Average memory used (kb):           0.
  
                          Minor page faults:        14901
                          Major page faults:            0
                 Voluntary context switches:         1903
