<?xml version="1.0" encoding="ISO-8859-1"?>
<modeling>
 <generator>
  <i name="program" type="string">vasp </i>
  <i name="version" type="string">5.4.4.18Apr17-6-g9f103f2a35  </i>
  <i name="subversion" type="string">(build Jul 01 2019 03:25:34) complex            parallel </i>
  <i name="platform" type="string">LinuxIFC </i>
  <i name="date" type="string">2020 07 08 </i>
  <i name="time" type="string">00:55:26 </i>
 </generator>
 <incar>
  <i type="string" name="SYSTEM"> FCC Au</i>
  <i type="string" name="PREC">normal</i>
  <i name="EDIFF">      0.00010000</i>
  <i name="ENCUT">    230.00000000</i>
  <v type="int" name="KPOINT_BSE">    -1     0     0     0</v>
 </incar>
 <structure name="primitive_cell" >
  <crystal>
   <varray name="basis" >
    <v>       0.00000000       1.95000000       1.95000000 </v>
    <v>       1.95000000       0.00000000       1.95000000 </v>
    <v>       1.95000000       1.95000000       0.00000000 </v>
   </varray>
   <i name="volume">     14.82975000 </i>
   <varray name="rec_basis" >
    <v>      -0.25641026       0.25641026       0.25641026 </v>
    <v>       0.25641026      -0.25641026       0.25641026 </v>
    <v>       0.25641026       0.25641026      -0.25641026 </v>
   </varray>
  </crystal>
  <varray name="positions" >
   <v>       0.00000000       0.00000000       0.00000000 </v>
  </varray>
 </structure>
 <varray name="primitive_index" >
  <v type="int" >        1 </v>
 </varray>
 <kpoints>
  <generation param="Monkhorst-Pack">
   <v type="int" name="divisions">      10       10       10 </v>
   <v name="usershift">      0.00000000       0.00000000       0.00000000 </v>
   <v name="genvec1">      0.10000000       0.00000000       0.00000000 </v>
   <v name="genvec2">      0.00000000       0.10000000       0.00000000 </v>
   <v name="genvec3">      0.00000000       0.00000000       0.10000000 </v>
   <v name="shift">      0.50000000       0.50000000       0.50000000 </v>
  </generation>
  <varray name="kpointlist" >
   <v>       0.05000000       0.05000000       0.05000000 </v>
   <v>       0.15000000       0.05000000       0.05000000 </v>
   <v>       0.25000000       0.05000000       0.05000000 </v>
   <v>       0.35000000       0.05000000       0.05000000 </v>
   <v>       0.45000000       0.05000000       0.05000000 </v>
   <v>      -0.45000000       0.05000000       0.05000000 </v>
   <v>      -0.35000000       0.05000000       0.05000000 </v>
   <v>      -0.25000000       0.05000000       0.05000000 </v>
   <v>      -0.15000000       0.05000000       0.05000000 </v>
   <v>      -0.05000000       0.05000000       0.05000000 </v>
   <v>       0.15000000       0.15000000       0.05000000 </v>
   <v>       0.25000000       0.15000000       0.05000000 </v>
   <v>       0.35000000       0.15000000       0.05000000 </v>
   <v>       0.45000000       0.15000000       0.05000000 </v>
   <v>      -0.45000000       0.15000000       0.05000000 </v>
   <v>      -0.35000000       0.15000000       0.05000000 </v>
   <v>      -0.25000000       0.15000000       0.05000000 </v>
   <v>      -0.15000000       0.15000000       0.05000000 </v>
   <v>      -0.05000000       0.15000000       0.05000000 </v>
   <v>       0.25000000       0.25000000       0.05000000 </v>
   <v>       0.35000000       0.25000000       0.05000000 </v>
   <v>       0.45000000       0.25000000       0.05000000 </v>
   <v>      -0.45000000       0.25000000       0.05000000 </v>
   <v>      -0.35000000       0.25000000       0.05000000 </v>
   <v>      -0.25000000       0.25000000       0.05000000 </v>
   <v>      -0.15000000       0.25000000       0.05000000 </v>
   <v>      -0.05000000       0.25000000       0.05000000 </v>
   <v>       0.35000000       0.35000000       0.05000000 </v>
   <v>       0.45000000       0.35000000       0.05000000 </v>
   <v>      -0.45000000       0.35000000       0.05000000 </v>
   <v>      -0.35000000       0.35000000       0.05000000 </v>
   <v>      -0.25000000       0.35000000       0.05000000 </v>
   <v>      -0.15000000       0.35000000       0.05000000 </v>
   <v>      -0.05000000       0.35000000       0.05000000 </v>
   <v>       0.45000000       0.45000000       0.05000000 </v>
   <v>      -0.45000000       0.45000000       0.05000000 </v>
   <v>      -0.35000000       0.45000000       0.05000000 </v>
   <v>      -0.25000000       0.45000000       0.05000000 </v>
   <v>      -0.15000000       0.45000000       0.05000000 </v>
   <v>      -0.05000000       0.45000000       0.05000000 </v>
   <v>      -0.45000000      -0.45000000       0.05000000 </v>
   <v>      -0.35000000      -0.45000000       0.05000000 </v>
   <v>      -0.25000000      -0.45000000       0.05000000 </v>
   <v>      -0.15000000      -0.45000000       0.05000000 </v>
   <v>      -0.35000000      -0.35000000       0.05000000 </v>
   <v>      -0.25000000      -0.35000000       0.05000000 </v>
   <v>      -0.15000000      -0.35000000       0.05000000 </v>
   <v>      -0.25000000      -0.25000000       0.05000000 </v>
   <v>      -0.15000000      -0.25000000       0.05000000 </v>
   <v>      -0.15000000      -0.15000000       0.05000000 </v>
   <v>       0.15000000       0.15000000       0.15000000 </v>
   <v>       0.25000000       0.15000000       0.15000000 </v>
   <v>       0.35000000       0.15000000       0.15000000 </v>
   <v>       0.45000000       0.15000000       0.15000000 </v>
   <v>      -0.45000000       0.15000000       0.15000000 </v>
   <v>      -0.35000000       0.15000000       0.15000000 </v>
   <v>      -0.25000000       0.15000000       0.15000000 </v>
   <v>      -0.15000000       0.15000000       0.15000000 </v>
   <v>       0.25000000       0.25000000       0.15000000 </v>
   <v>       0.35000000       0.25000000       0.15000000 </v>
   <v>       0.45000000       0.25000000       0.15000000 </v>
   <v>      -0.45000000       0.25000000       0.15000000 </v>
   <v>      -0.35000000       0.25000000       0.15000000 </v>
   <v>      -0.25000000       0.25000000       0.15000000 </v>
   <v>      -0.15000000       0.25000000       0.15000000 </v>
   <v>       0.35000000       0.35000000       0.15000000 </v>
   <v>       0.45000000       0.35000000       0.15000000 </v>
   <v>      -0.45000000       0.35000000       0.15000000 </v>
   <v>      -0.35000000       0.35000000       0.15000000 </v>
   <v>      -0.25000000       0.35000000       0.15000000 </v>
   <v>      -0.15000000       0.35000000       0.15000000 </v>
   <v>       0.45000000       0.45000000       0.15000000 </v>
   <v>      -0.45000000       0.45000000       0.15000000 </v>
   <v>      -0.35000000       0.45000000       0.15000000 </v>
   <v>      -0.25000000       0.45000000       0.15000000 </v>
   <v>      -0.15000000       0.45000000       0.15000000 </v>
   <v>      -0.45000000      -0.45000000       0.15000000 </v>
   <v>      -0.35000000      -0.45000000       0.15000000 </v>
   <v>      -0.25000000      -0.45000000       0.15000000 </v>
   <v>      -0.35000000      -0.35000000       0.15000000 </v>
   <v>      -0.25000000      -0.35000000       0.15000000 </v>
   <v>      -0.25000000      -0.25000000       0.15000000 </v>
   <v>       0.25000000       0.25000000       0.25000000 </v>
   <v>       0.35000000       0.25000000       0.25000000 </v>
   <v>       0.45000000       0.25000000       0.25000000 </v>
   <v>      -0.45000000       0.25000000       0.25000000 </v>
   <v>      -0.35000000       0.25000000       0.25000000 </v>
   <v>      -0.25000000       0.25000000       0.25000000 </v>
   <v>       0.35000000       0.35000000       0.25000000 </v>
   <v>       0.45000000       0.35000000       0.25000000 </v>
   <v>      -0.45000000       0.35000000       0.25000000 </v>
   <v>      -0.35000000       0.35000000       0.25000000 </v>
   <v>      -0.25000000       0.35000000       0.25000000 </v>
   <v>       0.45000000       0.45000000       0.25000000 </v>
   <v>      -0.45000000       0.45000000       0.25000000 </v>
   <v>      -0.35000000       0.45000000       0.25000000 </v>
   <v>      -0.25000000       0.45000000       0.25000000 </v>
   <v>      -0.45000000      -0.45000000       0.25000000 </v>
   <v>      -0.35000000      -0.45000000       0.25000000 </v>
   <v>      -0.35000000      -0.35000000       0.25000000 </v>
   <v>       0.35000000       0.35000000       0.35000000 </v>
   <v>       0.45000000       0.35000000       0.35000000 </v>
   <v>      -0.45000000       0.35000000       0.35000000 </v>
   <v>      -0.35000000       0.35000000       0.35000000 </v>
   <v>       0.45000000       0.45000000       0.35000000 </v>
   <v>      -0.45000000       0.45000000       0.35000000 </v>
   <v>      -0.35000000       0.45000000       0.35000000 </v>
   <v>      -0.45000000      -0.45000000       0.35000000 </v>
   <v>       0.45000000       0.45000000       0.45000000 </v>
   <v>      -0.45000000       0.45000000       0.45000000 </v>
  </varray>
  <varray name="weights" >
   <v>       0.00200000 </v>
   <v>       0.00600000 </v>
   <v>       0.00600000 </v>
   <v>       0.00600000 </v>
   <v>       0.00600000 </v>
   <v>       0.00600000 </v>
   <v>       0.00600000 </v>
   <v>       0.00600000 </v>
   <v>       0.00600000 </v>
   <v>       0.00600000 </v>
   <v>       0.00600000 </v>
   <v>       0.01200000 </v>
   <v>       0.01200000 </v>
   <v>       0.01200000 </v>
   <v>       0.01200000 </v>
   <v>       0.01200000 </v>
   <v>       0.01200000 </v>
   <v>       0.01200000 </v>
   <v>       0.01200000 </v>
   <v>       0.00600000 </v>
   <v>       0.01200000 </v>
   <v>       0.01200000 </v>
   <v>       0.01200000 </v>
   <v>       0.01200000 </v>
   <v>       0.01200000 </v>
   <v>       0.01200000 </v>
   <v>       0.01200000 </v>
   <v>       0.00600000 </v>
   <v>       0.01200000 </v>
   <v>       0.01200000 </v>
   <v>       0.01200000 </v>
   <v>       0.01200000 </v>
   <v>       0.01200000 </v>
   <v>       0.01200000 </v>
   <v>       0.00600000 </v>
   <v>       0.01200000 </v>
   <v>       0.01200000 </v>
   <v>       0.01200000 </v>
   <v>       0.01200000 </v>
   <v>       0.01200000 </v>
   <v>       0.00600000 </v>
   <v>       0.01200000 </v>
   <v>       0.01200000 </v>
   <v>       0.01200000 </v>
   <v>       0.00600000 </v>
   <v>       0.01200000 </v>
   <v>       0.01200000 </v>
   <v>       0.00600000 </v>
   <v>       0.01200000 </v>
   <v>       0.00600000 </v>
   <v>       0.00200000 </v>
   <v>       0.00600000 </v>
   <v>       0.00600000 </v>
   <v>       0.00600000 </v>
   <v>       0.00600000 </v>
   <v>       0.00600000 </v>
   <v>       0.00600000 </v>
   <v>       0.00600000 </v>
   <v>       0.00600000 </v>
   <v>       0.01200000 </v>
   <v>       0.01200000 </v>
   <v>       0.01200000 </v>
   <v>       0.01200000 </v>
   <v>       0.01200000 </v>
   <v>       0.01200000 </v>
   <v>       0.00600000 </v>
   <v>       0.01200000 </v>
   <v>       0.01200000 </v>
   <v>       0.01200000 </v>
   <v>       0.01200000 </v>
   <v>       0.01200000 </v>
   <v>       0.00600000 </v>
   <v>       0.01200000 </v>
   <v>       0.01200000 </v>
   <v>       0.01200000 </v>
   <v>       0.01200000 </v>
   <v>       0.00600000 </v>
   <v>       0.01200000 </v>
   <v>       0.01200000 </v>
   <v>       0.00600000 </v>
   <v>       0.01200000 </v>
   <v>       0.00600000 </v>
   <v>       0.00200000 </v>
   <v>       0.00600000 </v>
   <v>       0.00600000 </v>
   <v>       0.00600000 </v>
   <v>       0.00600000 </v>
   <v>       0.00600000 </v>
   <v>       0.00600000 </v>
   <v>       0.01200000 </v>
   <v>       0.01200000 </v>
   <v>       0.01200000 </v>
   <v>       0.01200000 </v>
   <v>       0.00600000 </v>
   <v>       0.01200000 </v>
   <v>       0.01200000 </v>
   <v>       0.01200000 </v>
   <v>       0.00600000 </v>
   <v>       0.01200000 </v>
   <v>       0.00600000 </v>
   <v>       0.00200000 </v>
   <v>       0.00600000 </v>
   <v>       0.00600000 </v>
   <v>       0.00600000 </v>
   <v>       0.00600000 </v>
   <v>       0.01200000 </v>
   <v>       0.01200000 </v>
   <v>       0.00600000 </v>
   <v>       0.00200000 </v>
   <v>       0.00600000 </v>
  </varray>
 </kpoints>
 <parameters>
  <separator name="general" >
   <i type="string" name="SYSTEM">FCC Au</i>
   <i type="logical" name="LCOMPAT"> F  </i>
  </separator>
  <separator name="electronic" >
   <i type="string" name="PREC">normal</i>
   <i name="ENMAX">    230.00000000</i>
   <i name="ENAUG">    356.67000000</i>
   <i name="EDIFF">      0.00010000</i>
   <i type="int" name="IALGO">    38</i>
   <i type="int" name="IWAVPR">    10</i>
   <i type="int" name="NBANDS">    12</i>
   <i name="NELECT">     11.00000000</i>
   <i type="int" name="TURBO">     0</i>
   <i type="int" name="IRESTART">     0</i>
   <i type="int" name="NREBOOT">     0</i>
   <i type="int" name="NMIN">     0</i>
   <i name="EREF">      0.00000000</i>
   <separator name="electronic smearing" >
    <i type="int" name="ISMEAR">     1</i>
    <i name="SIGMA">      0.20000000</i>
    <i name="KSPACING">      0.50000000</i>
    <i type="logical" name="KGAMMA"> T  </i>
   </separator>
   <separator name="electronic projectors" >
    <i type="logical" name="LREAL"> F  </i>
    <v name="ROPT">      0.00000000</v>
    <i type="int" name="LMAXPAW">  -100</i>
    <i type="int" name="LMAXMIX">     2</i>
    <i type="logical" name="NLSPLINE"> F  </i>
   </separator>
   <separator name="electronic startup" >
    <i type="int" name="ISTART">     1</i>
    <i type="int" name="ICHARG">     0</i>
    <i type="int" name="INIWAV">     1</i>
   </separator>
   <separator name="electronic spin" >
    <i type="int" name="ISPIN">     1</i>
    <i type="logical" name="LNONCOLLINEAR"> F  </i>
    <v name="MAGMOM">      1.00000000</v>
    <i name="NUPDOWN">     -1.00000000</i>
    <i type="logical" name="LSORBIT"> F  </i>
    <v name="SAXIS">      0.00000000      0.00000000      1.00000000</v>
    <i type="logical" name="LSPIRAL"> F  </i>
    <v name="QSPIRAL">      0.00000000      0.00000000      0.00000000</v>
    <i type="logical" name="LZEROZ"> F  </i>
   </separator>
   <separator name="electronic exchange-correlation" >
    <i type="logical" name="LASPH"> F  </i>
    <i type="logical" name="LMETAGGA"> F  </i>
   </separator>
   <separator name="electronic convergence" >
    <i type="int" name="NELM">    60</i>
    <i type="int" name="NELMDL">     0</i>
    <i type="int" name="NELMIN">     2</i>
    <i name="ENINI">    230.00000000</i>
    <separator name="electronic convergence detail" >
     <i type="logical" name="LDIAG"> T  </i>
     <i type="logical" name="LSUBROT"> F  </i>
     <i name="WEIMIN">      0.00000000</i>
     <i name="EBREAK">      0.00000208</i>
     <i name="DEPER">      0.30000000</i>
     <i type="int" name="NRMM">     4</i>
     <i name="TIME">      0.40000000</i>
    </separator>
   </separator>
   <separator name="electronic mixer" >
    <i name="AMIX">      0.40000000</i>
    <i name="BMIX">      1.00000000</i>
    <i name="AMIN">      0.10000000</i>
    <i name="AMIX_MAG">      1.60000000</i>
    <i name="BMIX_MAG">      1.00000000</i>
    <separator name="electronic mixer details" >
     <i type="int" name="IMIX">     4</i>
     <i type="logical" name="MIXFIRST"> F  </i>
     <i type="int" name="MAXMIX">   -45</i>
     <i name="WC">    100.00000000</i>
     <i type="int" name="INIMIX">     1</i>
     <i type="int" name="MIXPRE">     1</i>
     <i type="int" name="MREMOVE">     5</i>
    </separator>
   </separator>
   <separator name="electronic dipolcorrection" >
    <i type="logical" name="LDIPOL"> F  </i>
    <i type="logical" name="LMONO"> F  </i>
    <i type="int" name="IDIPOL">     0</i>
    <i name="EPSILON">      1.00000000</i>
    <v name="DIPOL">   -100.00000000   -100.00000000   -100.00000000</v>
    <i name="EFIELD">      0.00000000</i>
   </separator>
  </separator>
  <separator name="grids" >
   <i type="int" name="NGX">    10</i>
   <i type="int" name="NGY">    10</i>
   <i type="int" name="NGZ">    10</i>
   <i type="int" name="NGXF">    20</i>
   <i type="int" name="NGYF">    20</i>
   <i type="int" name="NGZF">    20</i>
   <i type="logical" name="ADDGRID"> F  </i>
  </separator>
  <separator name="ionic" >
   <i type="int" name="NSW">     0</i>
   <i type="int" name="IBRION">    -1</i>
   <i type="int" name="MDALGO">     0</i>
   <i type="int" name="ISIF">     2</i>
   <i name="PSTRESS">      0.00000000</i>
   <i name="EDIFFG">      0.00100000</i>
   <i type="int" name="NFREE">     0</i>
   <i name="POTIM">      0.50000000</i>
   <i name="SMASS">     -3.00000000</i>
   <i name="SCALEE">      1.00000000</i>
  </separator>
  <separator name="ionic md" >
   <i name="TEBEG">      0.00010000</i>
   <i name="TEEND">      0.00010000</i>
   <i type="int" name="NBLOCK">     1</i>
   <i type="int" name="KBLOCK">     1</i>
   <i type="int" name="NPACO">   256</i>
   <i name="APACO">     16.00000000</i>
  </separator>
  <separator name="symmetry" >
   <i type="int" name="ISYM">     2</i>
   <i name="SYMPREC">      0.00001000</i>
  </separator>
  <separator name="dos" >
   <i type="int" name="LORBIT">     0</i>
   <v name="RWIGS">     -1.00000000</v>
   <i type="int" name="NEDOS">   301</i>
   <i name="EMIN">     10.00000000</i>
   <i name="EMAX">    -10.00000000</i>
   <i name="EFERMI">      0.00000000</i>
  </separator>
  <separator name="writing" >
   <i type="int" name="NWRITE">     2</i>
   <i type="logical" name="LWAVE"> T  </i>
   <i type="logical" name="LDOWNSAMPLE"> F  </i>
   <i type="logical" name="LCHARG"> T  </i>
   <i type="logical" name="LPARD"> F  </i>
   <i type="logical" name="LVTOT"> F  </i>
   <i type="logical" name="LVHAR"> F  </i>
   <i type="logical" name="LELF"> F  </i>
   <i type="logical" name="LOPTICS"> F  </i>
   <v name="STM">      0.00000000      0.00000000      0.00000000      0.00000000      0.00000000      0.00000000      0.00000000</v>
  </separator>
  <separator name="performance" >
   <i type="int" name="NPAR">     4</i>
   <i type="int" name="NSIM">     4</i>
   <i type="int" name="NBLK">    -1</i>
   <i type="logical" name="LPLANE"> T  </i>
   <i type="logical" name="LSCALAPACK"> T  </i>
   <i type="logical" name="LSCAAWARE"> F  </i>
   <i type="logical" name="LSCALU"> F  </i>
   <i type="logical" name="LASYNC"> F  </i>
   <i type="logical" name="LORBITALREAL"> F  </i>
  </separator>
  <separator name="miscellaneous" >
   <i type="int" name="IDIOT">     3</i>
   <i type="int" name="ISPECIAL">     0</i>
   <i type="logical" name="LMUSIC"> F  </i>
   <v name="POMASS">    196.96600000</v>
   <v name="DARWINR">      0.00000000</v>
   <v name="DARWINV">      1.00000000</v>
   <i type="logical" name="LCORR"> T  </i>
  </separator>
  <i type="logical" name="GGA_COMPAT"> T  </i>
  <i type="logical" name="LBERRY"> F  </i>
  <i type="int" name="ICORELEVEL">     0</i>
  <i type="logical" name="LDAU"> F  </i>
  <i type="int" name="I_CONSTRAINED_M">     0</i>
  <separator name="electronic exchange-correlation" >
   <i type="string" name="GGA">--</i>
   <i type="int" name="VOSKOWN">     0</i>
   <i type="logical" name="LHFCALC"> F  </i>
   <i type="string" name="PRECFOCK"></i>
   <i type="logical" name="LSYMGRAD"> F  </i>
   <i type="logical" name="LHFONE"> F  </i>
   <i type="logical" name="LRHFCALC"> F  </i>
   <i type="logical" name="LTHOMAS"> F  </i>
   <i type="logical" name="LMODELHF"> F  </i>
   <i name="ENCUT4O">     -1.00000000</i>
   <i type="int" name="EXXOEP">     0</i>
   <i type="int" name="FOURORBIT">     0</i>
   <i name="AEXX">      0.00000000</i>
   <i name="HFALPHA">      0.00000000</i>
   <i name="MCALPHA">      0.00000000</i>
   <i name="ALDAX">      1.00000000</i>
   <i name="AGGAX">      1.00000000</i>
   <i name="ALDAC">      1.00000000</i>
   <i name="AGGAC">      1.00000000</i>
   <i type="int" name="NKREDX">     1</i>
   <i type="int" name="NKREDY">     1</i>
   <i type="int" name="NKREDZ">     1</i>
   <i type="logical" name="SHIFTRED"> F  </i>
   <i type="logical" name="ODDONLY"> F  </i>
   <i type="logical" name="EVENONLY"> F  </i>
   <i type="int" name="LMAXFOCK">     0</i>
   <i type="int" name="NMAXFOCKAE">     0</i>
   <i type="logical" name="LFOCKAEDFT"> F  </i>
   <i name="HFSCREEN">      0.00000000</i>
   <i name="HFSCREENC">      0.00000000</i>
   <i type="int" name="NBANDSGWLOW">     0</i>
  </separator>
  <separator name="vdW DFT" >
   <i type="logical" name="LUSE_VDW"> F  </i>
   <i name="Zab_VDW">     -0.84910000</i>
   <i name="PARAM1">      0.12340000</i>
   <i name="PARAM2">      1.00000000</i>
   <i name="PARAM3">      0.00000000</i>
  </separator>
  <separator name="model GW" >
   <i type="int" name="MODEL_GW">     0</i>
   <i name="MODEL_EPS0">      8.89785000</i>
   <i name="MODEL_ALPHA">      1.00000000</i>
  </separator>
  <separator name="linear response parameters" >
   <i type="logical" name="LEPSILON"> F  </i>
   <i type="logical" name="LRPA"> F  </i>
   <i type="logical" name="LNABLA"> F  </i>
   <i type="logical" name="LVEL"> F  </i>
   <i type="int" name="KINTER">     0</i>
   <i name="CSHIFT">      0.10000000</i>
   <i name="OMEGAMAX">     -1.00000000</i>
   <i name="DEG_THRESHOLD">      0.00200000</i>
   <i name="RTIME">     -0.10000000</i>
   <i name="WPLASMAI">      0.00000000</i>
   <v name="DFIELD">      0.00000000      0.00000000      0.00000000</v>
   <v name="WPLASMA">      0.00000000      0.00000000      0.00000000      0.00000000      0.00000000      0.00000000      0.00000000      0.00000000      0.00000000</v>
  </separator>
  <separator name="orbital magnetization" >
   <i type="logical" name="NUCIND"> F  </i>
   <v name="MAGPOS">      0.00000000      0.00000000      0.00000000</v>
   <i type="logical" name="LNICSALL"> T  </i>
   <i type="logical" name="ORBITALMAG"> F  </i>
   <i type="logical" name="LMAGBLOCH"> F  </i>
   <i type="logical" name="LCHIMAG"> F  </i>
   <i type="logical" name="LGAUGE"> T  </i>
   <i type="int" name="MAGATOM">     0</i>
   <v name="MAGDIPOL">      0.00000000      0.00000000      0.00000000</v>
   <v name="AVECCONST">      0.00000000      0.00000000      0.00000000</v>
  </separator>
  <separator name="response functions" >
   <i type="logical" name="LADDER"> F  </i>
   <i type="logical" name="LRPAFORCE"> F  </i>
   <i type="logical" name="LFXC"> F  </i>
   <i type="logical" name="LHARTREE"> T  </i>
   <i type="int" name="IBSE">     0</i>
   <v type="int" name="KPOINT">    -1     0     0     0</v>
   <i type="logical" name="LTCTE"> F  </i>
   <i type="logical" name="LTETE"> F  </i>
   <i type="logical" name="LTRIPLET"> F  </i>
   <i type="logical" name="LFXCEPS"> F  </i>
   <i type="logical" name="LFXHEG"> F  </i>
   <i type="int" name="NATURALO">     2</i>
   <i type="logical" name="L2ORDER"> F  </i>
   <i type="logical" name="LMP2LT"> F  </i>
   <i type="logical" name="LUSEW"> F  </i>
   <i name="ENCUTGW">     -2.00000000</i>
   <i name="ENCUTGWSOFT">     -2.00000000</i>
   <i name="ENCUTLF">     -1.00000000</i>
   <i type="int" name="LMAXMP2">    -1</i>
   <i name="SCISSOR">      0.00000000</i>
   <i type="int" name="NOMEGA">     0</i>
   <i type="int" name="NOMEGAR">     0</i>
   <i type="int" name="NBANDSGW">    -1</i>
   <i type="int" name="NBANDSO">    -1</i>
   <i type="int" name="NBANDSV">    -1</i>
   <i type="int" name="NELM">     1</i>
   <i type="int" name="NELMHF">     1</i>
   <i type="int" name="DIM">     3</i>
   <i type="int" name="ANTIRES">     0</i>
   <i name="OMEGAMAX">    -30.00000000</i>
   <i name="OMEGAMIN">    -30.00000000</i>
   <i name="OMEGATL">   -200.00000000</i>
   <i type="int" name="OMEGAGRID">   140</i>
   <i name="CSHIFT">     -0.10000000</i>
   <i type="logical" name="SELFENERGY"> F  </i>
   <i type="logical" name="LSPECTRAL"> F  </i>
   <i type="logical" name="LSPECTRALGW"> F  </i>
   <i type="logical" name="LSINGLES"> F  </i>
   <i type="logical" name="LFERMIGW"> F  </i>
   <i type="logical" name="ODDONLYGW"> F  </i>
   <i type="logical" name="EVENONLYGW"> F  </i>
   <i type="int" name="NKREDLFX">     1</i>
   <i type="int" name="NKREDLFY">     1</i>
   <i type="int" name="NKREDLFZ">     1</i>
   <i type="int" name="MAXMEM">  2800</i>
   <i type="int" name="TELESCOPE">     0</i>
   <i type="int" name="TAUPAR">     1</i>
   <i type="int" name="OMEGAPAR">    -1</i>
   <i name="LAMBDA">      1.00000000</i>
  </separator>
  <separator name="External order field" >
   <i name="OFIELD_KAPPA">      0.00000000</i>
   <v name="OFIELD_K">      0.00000000      0.00000000      0.00000000</v>
   <i name="OFIELD_Q6_NEAR">      0.00000000</i>
   <i name="OFIELD_Q6_FAR">      0.00000000</i>
   <i name="OFIELD_A">      0.00000000</i>
  </separator>
 </parameters>
 <atominfo>
  <atoms>       1 </atoms>
  <types>       1 </types>
  <array name="atoms" >
   <dimension dim="1">ion</dimension>
   <field type="string">element</field>
   <field type="int">atomtype</field>
   <set>
    <rc><c>Au</c><c>   1</c></rc>
   </set>
  </array>
  <array name="atomtypes" >
   <dimension dim="1">type</dimension>
   <field type="int">atomspertype</field>
   <field type="string">element</field>
   <field>mass</field>
   <field>valence</field>
   <field type="string">pseudopotential</field>
   <set>
    <rc><c>   1</c><c>Au</c><c>    196.96600000</c><c>     11.00000000</c><c> PAW Au 04Feb1998                       </c></rc>
   </set>
  </array>
 </atominfo>
 <structure name="initialpos" >
  <crystal>
   <varray name="basis" >
    <v>       0.00000000       1.95000000       1.95000000 </v>
    <v>       1.95000000       0.00000000       1.95000000 </v>
    <v>       1.95000000       1.95000000       0.00000000 </v>
   </varray>
   <i name="volume">     14.82975000 </i>
   <varray name="rec_basis" >
    <v>      -0.25641026       0.25641026       0.25641026 </v>
    <v>       0.25641026      -0.25641026       0.25641026 </v>
    <v>       0.25641026       0.25641026      -0.25641026 </v>
   </varray>
  </crystal>
  <varray name="positions" >
   <v>       0.00000000       0.00000000       0.00000000 </v>
  </varray>
 </structure>
 <calculation>
  <scstep>
   <time name="dav">    0.29    0.88</time>
   <time name="total">    0.30    0.90</time>
   <energy>
    <i name="alphaZ">    123.93191659 </i>
    <i name="ewald">  -1024.17251330 </i>
    <i name="hartreedc">   -120.92293197 </i>
    <i name="XCdc">     17.51255413 </i>
    <i name="pawpsdc">    808.48577940 </i>
    <i name="pawaedc">   -792.04542788 </i>
    <i name="eentropy">     -0.00237279 </i>
    <i name="bandstr">     50.44387343 </i>
    <i name="atom">    929.39633208 </i>
    <i name="e_fr_energy">     -7.37279030 </i>
    <i name="e_wo_entrp">     -7.37041751 </i>
    <i name="e_0_energy">     -7.37199937 </i>
   </energy>
  </scstep>
  <scstep>
   <time name="dav">    0.27    0.82</time>
   <time name="total">    0.27    0.83</time>
   <energy>
    <i name="e_fr_energy">     -4.37542748 </i>
    <i name="e_wo_entrp">     -4.37483642 </i>
    <i name="e_0_energy">     -4.37523046 </i>
   </energy>
  </scstep>
  <scstep>
   <time name="dav">    0.28    0.84</time>
   <time name="total">    0.28    0.85</time>
   <energy>
    <i name="e_fr_energy">     -4.21882689 </i>
    <i name="e_wo_entrp">     -4.21860081 </i>
    <i name="e_0_energy">     -4.21875153 </i>
   </energy>
  </scstep>
  <scstep>
   <time name="dav">    0.29    0.74</time>
   <time name="total">    0.30    0.76</time>
   <energy>
    <i name="e_fr_energy">     -4.22098380 </i>
    <i name="e_wo_entrp">     -4.22073991 </i>
    <i name="e_0_energy">     -4.22090251 </i>
   </energy>
  </scstep>
  <scstep>
   <time name="dav">    0.25    0.51</time>
   <time name="total">    0.26    0.52</time>
   <energy>
    <i name="alphaZ">    123.93191659 </i>
    <i name="ewald">  -1024.17251330 </i>
    <i name="hartreedc">    -94.73905044 </i>
    <i name="XCdc">     16.21569888 </i>
    <i name="pawpsdc">    779.90093311 </i>
    <i name="pawaedc">   -762.89140950 </i>
    <i name="eentropy">     -0.00022836 </i>
    <i name="bandstr">     28.13734645 </i>
    <i name="atom">    929.39633208 </i>
    <i name="e_fr_energy">     -4.22097448 </i>
    <i name="e_wo_entrp">     -4.22074612 </i>
    <i name="e_0_energy">     -4.22089836 </i>
   </energy>
  </scstep>
  <structure>
   <crystal>
    <varray name="basis" >
     <v>       0.00000000       1.95000000       1.95000000 </v>
     <v>       1.95000000       0.00000000       1.95000000 </v>
     <v>       1.95000000       1.95000000       0.00000000 </v>
    </varray>
    <i name="volume">     14.82975000 </i>
    <varray name="rec_basis" >
     <v>      -0.25641026       0.25641026       0.25641026 </v>
     <v>       0.25641026      -0.25641026       0.25641026 </v>
     <v>       0.25641026       0.25641026      -0.25641026 </v>
    </varray>
   </crystal>
   <varray name="positions" >
    <v>       0.00000000       0.00000000       0.00000000 </v>
   </varray>
  </structure>
  <varray name="forces" >
   <v>       0.00000000       0.00000000       0.00000000 </v>
  </varray>
  <varray name="stress" >
   <v>     297.26076156       0.00000000      -0.00000000 </v>
   <v>      -0.00000000     297.26076156       0.00000000 </v>
   <v>       0.00000000      -0.00000000     297.26076156 </v>
  </varray>
  <energy>
   <i name="e_fr_energy">     -4.22097448 </i>
   <i name="e_wo_entrp">     -4.22089836 </i>
   <i name="e_0_energy">     -0.00022836 </i>
  </energy>
  <time name="totalsc">    1.61    4.30</time>
  <eigenvalues>
   <array>
    <dimension dim="1">band</dimension>
    <dimension dim="2">kpoint</dimension>
    <dimension dim="3">spin</dimension>
    <field>eigene</field>
    <field>occ</field>
    <set>
     <set comment="spin 1">
      <set comment="kpoint 1">
       <r>   -3.8649    1.0000 </r>
       <r>    1.9518    1.0000 </r>
       <r>    2.0310    1.0000 </r>
       <r>    2.0310    1.0000 </r>
       <r>    3.9337    1.0000 </r>
       <r>    3.9337    1.0000 </r>
       <r>   22.9375    0.0000 </r>
       <r>   26.8035    0.0000 </r>
       <r>   27.6301    0.0000 </r>
       <r>   27.6301    0.0000 </r>
       <r>   32.7702    0.0000 </r>
       <r>   37.0603    0.0000 </r>
      </set>
      <set comment="kpoint 2">
       <r>   -3.3494    1.0000 </r>
       <r>    1.7520    1.0000 </r>
       <r>    2.2019    1.0000 </r>
       <r>    2.2397    1.0000 </r>
       <r>    3.7365    1.0000 </r>
       <r>    3.9927    1.0000 </r>
       <r>   23.5304    0.0000 </r>
       <r>   24.7641    0.0000 </r>
       <r>   27.4588    0.0000 </r>
       <r>   28.7069    0.0000 </r>
       <r>   32.8608    0.0000 </r>
       <r>   35.6864    0.0000 </r>
      </set>
      <set comment="kpoint 3">
       <r>   -2.2527    1.0000 </r>
       <r>    1.5932    1.0000 </r>
       <r>    2.3851    1.0000 </r>
       <r>    2.4153    1.0000 </r>
       <r>    3.7413    1.0000 </r>
       <r>    4.2571    1.0000 </r>
       <r>   21.1508    0.0000 </r>
       <r>   24.2612    0.0000 </r>
       <r>   28.0385    0.0000 </r>
       <r>   30.3017    0.0000 </r>
       <r>   30.4807    0.0000 </r>
       <r>   33.3885    0.0000 </r>
      </set>
      <set comment="kpoint 4">
       <r>   -1.3295    1.0000 </r>
       <r>    2.1539    1.0000 </r>
       <r>    2.2671    1.0000 </r>
       <r>    2.3760    1.0000 </r>
       <r>    4.3626    1.0000 </r>
       <r>    4.9723    1.0000 </r>
       <r>   17.1063    0.0000 </r>
       <r>   23.4480    0.0000 </r>
       <r>   27.1822    0.0000 </r>
       <r>   29.6340    0.0000 </r>
       <r>   31.5090    0.0000 </r>
       <r>   32.9531    0.0000 </r>
      </set>
      <set comment="kpoint 5">
       <r>   -1.1404    1.0000 </r>
       <r>    1.9659    1.0000 </r>
       <r>    2.0540    1.0000 </r>
       <r>    4.1151    1.0000 </r>
       <r>    5.1310    1.0000 </r>
       <r>    5.9152    1.0000 </r>
       <r>   13.1585    0.0000 </r>
       <r>   22.4820    0.0000 </r>
       <r>   26.0144    0.0000 </r>
       <r>   27.1985    0.0000 </r>
       <r>   33.8275    0.0000 </r>
       <r>   34.3434    0.0000 </r>
      </set>
      <set comment="kpoint 6">
       <r>   -1.1474    1.0000 </r>
       <r>    1.8823    1.0000 </r>
       <r>    2.0061    1.0000 </r>
       <r>    4.7097    1.0000 </r>
       <r>    5.4997    1.0000 </r>
       <r>    6.6143    1.0000 </r>
       <r>   11.4958   -0.0000 </r>
       <r>   22.2194    0.0000 </r>
       <r>   26.0230    0.0000 </r>
       <r>   26.1222    0.0000 </r>
       <r>   34.6001    0.0000 </r>
       <r>   34.7069    0.0000 </r>
      </set>
      <set comment="kpoint 7">
       <r>   -1.1568    1.0000 </r>
       <r>    2.0039    1.0000 </r>
       <r>    2.1447    1.0000 </r>
       <r>    3.4509    1.0000 </r>
       <r>    5.2396    1.0000 </r>
       <r>    5.2935    1.0000 </r>
       <r>   14.3806    0.0000 </r>
       <r>   22.7530    0.0000 </r>
       <r>   26.5778    0.0000 </r>
       <r>   27.4974    0.0000 </r>
       <r>   33.8007    0.0000 </r>
       <r>   33.8189    0.0000 </r>
      </set>
      <set comment="kpoint 8">
       <r>   -1.5526    1.0000 </r>
       <r>    1.8873    1.0000 </r>
       <r>    2.2803    1.0000 </r>
       <r>    2.3638    1.0000 </r>
       <r>    4.2386    1.0000 </r>
       <r>    4.5943    1.0000 </r>
       <r>   18.4896    0.0000 </r>
       <r>   23.8654    0.0000 </r>
       <r>   27.7839    0.0000 </r>
       <r>   29.7006    0.0000 </r>
       <r>   31.3075    0.0000 </r>
       <r>   33.1726    0.0000 </r>
      </set>
      <set comment="kpoint 9">
       <r>   -2.6516    1.0000 </r>
       <r>    1.5847    1.0000 </r>
       <r>    2.3786    1.0000 </r>
       <r>    2.3945    1.0000 </r>
       <r>    3.6871    1.0000 </r>
       <r>    4.1033    1.0000 </r>
       <r>   22.4038    0.0000 </r>
       <r>   24.2499    0.0000 </r>
       <r>   27.9828    0.0000 </r>
       <r>   29.3006    0.0000 </r>
       <r>   31.4394    0.0000 </r>
       <r>   33.9843    0.0000 </r>
      </set>
      <set comment="kpoint 10">
       <r>   -3.6022    1.0000 </r>
       <r>    1.8128    1.0000 </r>
       <r>    2.1468    1.0000 </r>
       <r>    2.1535    1.0000 </r>
       <r>    3.7687    1.0000 </r>
       <r>    4.0053    1.0000 </r>
       <r>   23.2768    0.0000 </r>
       <r>   25.8610    0.0000 </r>
       <r>   27.5017    0.0000 </r>
       <r>   27.8290    0.0000 </r>
       <r>   33.8051    0.0000 </r>
       <r>   36.0859    0.0000 </r>
      </set>
      <set comment="kpoint 11">
       <r>   -3.0939    1.0000 </r>
       <r>    1.5381    1.0000 </r>
       <r>    2.3947    1.0000 </r>
       <r>    2.4002    1.0000 </r>
       <r>    3.4840    1.0000 </r>
       <r>    4.1444    1.0000 </r>
       <r>   23.8942    0.0000 </r>
       <r>   24.9670    0.0000 </r>
       <r>   27.0515    0.0000 </r>
       <r>   27.5538    0.0000 </r>
       <r>   33.5717    0.0000 </r>
       <r>   34.9031    0.0000 </r>
      </set>
      <set comment="kpoint 12">
       <r>   -2.1781    1.0000 </r>
       <r>    1.2240    1.0000 </r>
       <r>    2.5086    1.0000 </r>
       <r>    2.7453    1.0000 </r>
       <r>    3.4115    1.0000 </r>
       <r>    4.4200    1.0000 </r>
       <r>   22.6863    0.0000 </r>
       <r>   24.4140    0.0000 </r>
       <r>   26.4907    0.0000 </r>
       <r>   27.8252    0.0000 </r>
       <r>   31.5006    0.0000 </r>
       <r>   34.0468    0.0000 </r>
      </set>
      <set comment="kpoint 13">
       <r>   -1.0911    1.0000 </r>
       <r>    1.3230    1.0000 </r>
       <r>    2.1215    1.0000 </r>
       <r>    2.7544    1.0000 </r>
       <r>    4.2323    1.0000 </r>
       <r>    5.1393    1.0000 </r>
       <r>   18.7379    0.0000 </r>
       <r>   23.8950    0.0000 </r>
       <r>   25.4844    0.0000 </r>
       <r>   28.0300    0.0000 </r>
       <r>   31.9751    0.0000 </r>
       <r>   33.4939    0.0000 </r>
      </set>
      <set comment="kpoint 14">
       <r>   -0.7230    1.0000 </r>
       <r>    1.7375    1.0000 </r>
       <r>    2.3872    1.0000 </r>
       <r>    2.5932    1.0000 </r>
       <r>    5.2007    1.0000 </r>
       <r>    6.4564    1.0000 </r>
       <r>   14.5379    0.0000 </r>
       <r>   23.0392    0.0000 </r>
       <r>   24.3731    0.0000 </r>
       <r>   26.7299    0.0000 </r>
       <r>   33.5766    0.0000 </r>
       <r>   35.0599    0.0000 </r>
      </set>
      <set comment="kpoint 15">
       <r>   -0.7178    1.0000 </r>
       <r>    1.5767    1.0000 </r>
       <r>    2.3747    1.0000 </r>
       <r>    3.4327    1.0000 </r>
       <r>    5.4364    1.0000 </r>
       <r>    8.3302   -0.0000 </r>
       <r>   11.4197   -0.0000 </r>
       <r>   22.5147    0.0000 </r>
       <r>   24.0518    0.0000 </r>
       <r>   25.6633    0.0000 </r>
       <r>   34.4337    0.0000 </r>
       <r>   35.3947    0.0000 </r>
      </set>
      <set comment="kpoint 16">
       <r>   -0.6871    1.0000 </r>
       <r>    1.6804    1.0000 </r>
       <r>    2.4057    1.0000 </r>
       <r>    3.0254    1.0000 </r>
       <r>    5.0181    1.0000 </r>
       <r>    7.2433    1.0104 </r>
       <r>   13.3445    0.0000 </r>
       <r>   22.5037    0.0000 </r>
       <r>   24.1000    0.0000 </r>
       <r>   26.8618    0.0000 </r>
       <r>   33.2589    0.0000 </r>
       <r>   35.1527    0.0000 </r>
      </set>
      <set comment="kpoint 17">
       <r>   -0.8392    1.0000 </r>
       <r>    1.6704    1.0000 </r>
       <r>    2.0434    1.0000 </r>
       <r>    2.6440    1.0000 </r>
       <r>    4.1298    1.0000 </r>
       <r>    5.7908    1.0000 </r>
       <r>   17.3453    0.0000 </r>
       <r>   23.0024    0.0000 </r>
       <r>   25.1647    0.0000 </r>
       <r>   29.0116    0.0000 </r>
       <r>   31.1781    0.0000 </r>
       <r>   34.1619    0.0000 </r>
      </set>
      <set comment="kpoint 18">
       <r>   -1.7844    1.0000 </r>
       <r>    1.2766    1.0000 </r>
       <r>    2.3715    1.0000 </r>
       <r>    2.7748    1.0000 </r>
       <r>    3.4054    1.0000 </r>
       <r>    4.7465    1.0000 </r>
       <r>   21.2914    0.0000 </r>
       <r>   23.7206    0.0000 </r>
       <r>   26.9501    0.0000 </r>
       <r>   28.0372    0.0000 </r>
       <r>   32.0335    0.0000 </r>
       <r>   33.4682    0.0000 </r>
      </set>
      <set comment="kpoint 19">
       <r>   -2.8605    1.0000 </r>
       <r>    1.5406    1.0000 </r>
       <r>    2.3958    1.0000 </r>
       <r>    2.4116    1.0000 </r>
       <r>    3.5352    1.0000 </r>
       <r>    4.1531    1.0000 </r>
       <r>   23.5588    0.0000 </r>
       <r>   24.1309    0.0000 </r>
       <r>   27.0923    0.0000 </r>
       <r>   28.9409    0.0000 </r>
       <r>   31.8255    0.0000 </r>
       <r>   35.0189    0.0000 </r>
      </set>
      <set comment="kpoint 20">
       <r>   -1.5803    1.0000 </r>
       <r>    0.7789    1.0000 </r>
       <r>    2.6882    1.0000 </r>
       <r>    3.2213    1.0000 </r>
       <r>    3.4553    1.0000 </r>
       <r>    4.5764    1.0000 </r>
       <r>   23.2973    0.0000 </r>
       <r>   24.6093    0.0000 </r>
       <r>   25.2398    0.0000 </r>
       <r>   26.1865    0.0000 </r>
       <r>   28.7628    0.0000 </r>
       <r>   35.1424    0.0000 </r>
      </set>
      <set comment="kpoint 21">
       <r>   -0.7297    1.0000 </r>
       <r>    0.5010    1.0000 </r>
       <r>    2.3601    1.0000 </r>
       <r>    3.6551    1.0000 </r>
       <r>    4.2680    1.0000 </r>
       <r>    5.1697    1.0000 </r>
       <r>   20.5340    0.0000 </r>
       <r>   22.6003    0.0000 </r>
       <r>   24.1585    0.0000 </r>
       <r>   27.0710    0.0000 </r>
       <r>   28.6712    0.0000 </r>
       <r>   35.2383    0.0000 </r>
      </set>
      <set comment="kpoint 22">
       <r>   -0.2606    1.0000 </r>
       <r>    0.8080    1.0000 </r>
       <r>    2.0557    1.0000 </r>
       <r>    3.4852    1.0000 </r>
       <r>    5.3182    1.0000 </r>
       <r>    6.7836    1.0000 </r>
       <r>   16.1820    0.0000 </r>
       <r>   21.9073    0.0000 </r>
       <r>   22.3528    0.0000 </r>
       <r>   26.5869    0.0000 </r>
       <r>   31.9628    0.0000 </r>
       <r>   35.4486    0.0000 </r>
      </set>
      <set comment="kpoint 23">
       <r>   -0.1308    1.0000 </r>
       <r>    1.1155    1.0000 </r>
       <r>    2.2863    1.0000 </r>
       <r>    3.2309    1.0000 </r>
       <r>    5.4812    1.0000 </r>
       <r>    9.5088   -0.0000 </r>
       <r>   12.3320   -0.0000 </r>
       <r>   20.5685    0.0000 </r>
       <r>   22.4485    0.0000 </r>
       <r>   25.9194    0.0000 </r>
       <r>   34.5379    0.0000 </r>
       <r>   36.5512    0.0000 </r>
      </set>
      <set comment="kpoint 24">
       <r>    0.0869    1.0000 </r>
       <r>    1.2008    1.0000 </r>
       <r>    2.2937    1.0000 </r>
       <r>    3.0987    1.0000 </r>
       <r>    4.9629    1.0000 </r>
       <r>    9.3382   -0.0000 </r>
       <r>   12.9924   -0.0000 </r>
       <r>   19.4021    0.0000 </r>
       <r>   23.6781    0.0000 </r>
       <r>   26.1221    0.0000 </r>
       <r>   33.4754    0.0000 </r>
       <r>   36.0511    0.0000 </r>
      </set>
      <set comment="kpoint 25">
       <r>    0.2185    1.0000 </r>
       <r>    1.3204    1.0000 </r>
       <r>    1.6031    1.0000 </r>
       <r>    3.1977    1.0000 </r>
       <r>    4.0827    1.0000 </r>
       <r>    7.4380    1.0179 </r>
       <r>   16.5776    0.0000 </r>
       <r>   19.3875    0.0000 </r>
       <r>   24.6687    0.0000 </r>
       <r>   28.0957    0.0000 </r>
       <r>   30.8552    0.0000 </r>
       <r>   36.0120    0.0000 </r>
      </set>
      <set comment="kpoint 26">
       <r>   -0.6327    1.0000 </r>
       <r>    1.1767    1.0000 </r>
       <r>    2.0133    1.0000 </r>
       <r>    3.0531    1.0000 </r>
       <r>    3.5774    1.0000 </r>
       <r>    5.9083    1.0000 </r>
       <r>   18.8180    0.0000 </r>
       <r>   21.7637    0.0000 </r>
       <r>   25.5918    0.0000 </r>
       <r>   28.8137    0.0000 </r>
       <r>   30.7647    0.0000 </r>
       <r>   34.8250    0.0000 </r>
      </set>
      <set comment="kpoint 27">
       <r>   -1.7061    1.0000 </r>
       <r>    1.4950    1.0000 </r>
       <r>    2.3388    1.0000 </r>
       <r>    2.5346    1.0000 </r>
       <r>    3.8148    1.0000 </r>
       <r>    4.6541    1.0000 </r>
       <r>   19.9425    0.0000 </r>
       <r>   24.1712    0.0000 </r>
       <r>   27.0062    0.0000 </r>
       <r>   29.2168    0.0000 </r>
       <r>   31.6905    0.0000 </r>
       <r>   32.7417    0.0000 </r>
      </set>
      <set comment="kpoint 28">
       <r>   -0.6375    1.0000 </r>
       <r>    0.0338    1.0000 </r>
       <r>    3.4038    1.0000 </r>
       <r>    4.3294    1.0000 </r>
       <r>    4.8124    1.0000 </r>
       <r>    5.1084    1.0000 </r>
       <r>   20.4881    0.0000 </r>
       <r>   21.3695    0.0000 </r>
       <r>   21.9445    0.0000 </r>
       <r>   25.9539    0.0000 </r>
       <r>   27.9125    0.0000 </r>
       <r>   37.6801    0.0000 </r>
      </set>
      <set comment="kpoint 29">
       <r>   -0.5106    1.0000 </r>
       <r>   -0.0983    1.0000 </r>
       <r>    3.4801    1.0000 </r>
       <r>    4.7015    1.0000 </r>
       <r>    5.3349    1.0000 </r>
       <r>    6.7866    1.0000 </r>
       <r>   17.5055    0.0000 </r>
       <r>   19.6466    0.0000 </r>
       <r>   20.2912    0.0000 </r>
       <r>   27.0667    0.0000 </r>
       <r>   29.0820    0.0000 </r>
       <r>   37.3642    0.0000 </r>
      </set>
      <set comment="kpoint 30">
       <r>   -0.3221    1.0000 </r>
       <r>    0.2786    1.0000 </r>
       <r>    3.0433    1.0000 </r>
       <r>    4.3169    1.0000 </r>
       <r>    5.6093    1.0000 </r>
       <r>    9.7567   -0.0000 </r>
       <r>   13.9124    0.0000 </r>
       <r>   18.0177    0.0000 </r>
       <r>   20.3220    0.0000 </r>
       <r>   27.2244    0.0000 </r>
       <r>   32.0252    0.0000 </r>
       <r>   36.3500    0.0000 </r>
      </set>
      <set comment="kpoint 31">
       <r>    0.0378    1.0000 </r>
       <r>    0.8897    1.0000 </r>
       <r>    2.3740    1.0000 </r>
       <r>    3.8922    1.0000 </r>
       <r>    5.1861    1.0000 </r>
       <r>   11.0867   -0.0000 </r>
       <r>   13.3705    0.0000 </r>
       <r>   16.2274    0.0000 </r>
       <r>   21.8755    0.0000 </r>
       <r>   26.7752    0.0000 </r>
       <r>   34.8255    0.0000 </r>
       <r>   35.7948    0.0000 </r>
      </set>
      <set comment="kpoint 32">
       <r>    0.4120    1.0000 </r>
       <r>    1.2461    1.0000 </r>
       <r>    1.7626    1.0000 </r>
       <r>    3.4390    1.0000 </r>
       <r>    4.6548    1.0000 </r>
       <r>    9.1864   -0.0000 </r>
       <r>   14.9767    0.0000 </r>
       <r>   17.2298    0.0000 </r>
       <r>   23.7762    0.0000 </r>
       <r>   26.5675    0.0000 </r>
       <r>   32.9073    0.0000 </r>
       <r>   36.2419    0.0000 </r>
      </set>
      <set comment="kpoint 33">
       <r>   -0.2548    1.0000 </r>
       <r>    1.5516    1.0000 </r>
       <r>    2.1298    1.0000 </r>
       <r>    2.8162    1.0000 </r>
       <r>    4.5405    1.0000 </r>
       <r>    7.3848    1.0354 </r>
       <r>   14.9269    0.0000 </r>
       <r>   21.1247    0.0000 </r>
       <r>   24.2638    0.0000 </r>
       <r>   27.5019    0.0000 </r>
       <r>   31.9400    0.0000 </r>
       <r>   35.5575    0.0000 </r>
      </set>
      <set comment="kpoint 34">
       <r>   -1.0467    1.0000 </r>
       <r>    2.0048    1.0000 </r>
       <r>    2.3163    1.0000 </r>
       <r>    2.5463    1.0000 </r>
       <r>    4.7013    1.0000 </r>
       <r>    5.5634    1.0000 </r>
       <r>   15.7908    0.0000 </r>
       <r>   23.1889    0.0000 </r>
       <r>   25.7791    0.0000 </r>
       <r>   28.3193    0.0000 </r>
       <r>   32.4837    0.0000 </r>
       <r>   33.8962    0.0000 </r>
      </set>
      <set comment="kpoint 35">
       <r>   -0.8432    1.0000 </r>
       <r>   -0.4532    1.0000 </r>
       <r>    5.1377    1.0000 </r>
       <r>    5.2155    1.0000 </r>
       <r>    5.6467    1.0000 </r>
       <r>    7.1201    1.0010 </r>
       <r>   16.3333    0.0000 </r>
       <r>   18.6409    0.0000 </r>
       <r>   18.9354    0.0000 </r>
       <r>   26.3999    0.0000 </r>
       <r>   29.1018    0.0000 </r>
       <r>   38.6370    0.0000 </r>
      </set>
      <set comment="kpoint 36">
       <r>   -0.7650    1.0000 </r>
       <r>   -0.3895    1.0000 </r>
       <r>    4.6405    1.0000 </r>
       <r>    5.1452    1.0000 </r>
       <r>    5.8376    1.0000 </r>
       <r>    9.3460   -0.0000 </r>
       <r>   14.3199    0.0000 </r>
       <r>   17.5767    0.0000 </r>
       <r>   18.5405    0.0000 </r>
       <r>   27.4497    0.0000 </r>
       <r>   29.6542    0.0000 </r>
       <r>   37.7061    0.0000 </r>
      </set>
      <set comment="kpoint 37">
       <r>   -0.3956    1.0000 </r>
       <r>    0.1696    1.0000 </r>
       <r>    3.3977    1.0000 </r>
       <r>    4.5378    1.0000 </r>
       <r>    5.6022    1.0000 </r>
       <r>   11.2453   -0.0000 </r>
       <r>   13.0663   -0.0000 </r>
       <r>   16.5425    0.0000 </r>
       <r>   19.9303    0.0000 </r>
       <r>   27.5057    0.0000 </r>
       <r>   32.0697    0.0000 </r>
       <r>   36.4192    0.0000 </r>
      </set>
      <set comment="kpoint 38">
       <r>    0.0090    1.0000 </r>
       <r>    0.9442    1.0000 </r>
       <r>    2.3216    1.0000 </r>
       <r>    3.6140    1.0000 </r>
       <r>    5.3489    1.0000 </r>
       <r>   11.3641   -0.0000 </r>
       <r>   11.5932   -0.0000 </r>
       <r>   18.3507    0.0000 </r>
       <r>   22.0669    0.0000 </r>
       <r>   26.3976    0.0000 </r>
       <r>   34.6793    0.0000 </r>
       <r>   36.2023    0.0000 </r>
      </set>
      <set comment="kpoint 39">
       <r>   -0.3406    1.0000 </r>
       <r>    1.3510    1.0000 </r>
       <r>    2.7047    1.0000 </r>
       <r>    2.8746    1.0000 </r>
       <r>    5.2713    1.0000 </r>
       <r>    9.3203   -0.0000 </r>
       <r>   11.5239   -0.0000 </r>
       <r>   21.4330    0.0000 </r>
       <r>   23.5493    0.0000 </r>
       <r>   25.6785    0.0000 </r>
       <r>   34.1272    0.0000 </r>
       <r>   35.7502    0.0000 </r>
      </set>
      <set comment="kpoint 40">
       <r>   -0.9914    1.0000 </r>
       <r>    1.8017    1.0000 </r>
       <r>    2.1505    1.0000 </r>
       <r>    3.9278    1.0000 </r>
       <r>    5.3762    1.0000 </r>
       <r>    6.9654    1.0000 </r>
       <r>   12.1424   -0.0000 </r>
       <r>   22.4754    0.0000 </r>
       <r>   25.1612    0.0000 </r>
       <r>   26.3494    0.0000 </r>
       <r>   34.2691    0.0000 </r>
       <r>   34.8979    0.0000 </r>
      </set>
      <set comment="kpoint 41">
       <r>   -0.9427    1.0000 </r>
       <r>   -0.5563    1.0000 </r>
       <r>    5.3681    1.0000 </r>
       <r>    5.5326    1.0000 </r>
       <r>    5.8539    1.0000 </r>
       <r>    8.3126   -0.0000 </r>
       <r>   14.6852    0.0000 </r>
       <r>   18.0145    0.0000 </r>
       <r>   18.3692    0.0000 </r>
       <r>   26.5905    0.0000 </r>
       <r>   29.3513    0.0000 </r>
       <r>   38.3835    0.0000 </r>
      </set>
      <set comment="kpoint 42">
       <r>   -0.6628    1.0000 </r>
       <r>   -0.2906    1.0000 </r>
       <r>    4.1796    1.0000 </r>
       <r>    5.0514    1.0000 </r>
       <r>    5.6357    1.0000 </r>
       <r>    8.1257   -0.0012 </r>
       <r>   15.7785    0.0000 </r>
       <r>   18.3168    0.0000 </r>
       <r>   19.1086    0.0000 </r>
       <r>   27.2809    0.0000 </r>
       <r>   29.4547    0.0000 </r>
       <r>   37.6998    0.0000 </r>
      </set>
      <set comment="kpoint 43">
       <r>   -0.2364    1.0000 </r>
       <r>    0.4999    1.0000 </r>
       <r>    2.5188    1.0000 </r>
       <r>    3.9276    1.0000 </r>
       <r>    5.5438    1.0000 </r>
       <r>    8.1672   -0.0004 </r>
       <r>   14.9618    0.0000 </r>
       <r>   20.0361    0.0000 </r>
       <r>   21.0950    0.0000 </r>
       <r>   26.8201    0.0000 </r>
       <r>   31.9716    0.0000 </r>
       <r>   36.0559    0.0000 </r>
      </set>
      <set comment="kpoint 44">
       <r>   -0.3967    1.0000 </r>
       <r>    1.4080    1.0000 </r>
       <r>    2.3174    1.0000 </r>
       <r>    2.8627    1.0000 </r>
       <r>    5.4586    1.0000 </r>
       <r>    7.8169   -0.0196 </r>
       <r>   13.3632    0.0000 </r>
       <r>   22.4702    0.0000 </r>
       <r>   23.0402    0.0000 </r>
       <r>   25.8365    0.0000 </r>
       <r>   34.2462    0.0000 </r>
       <r>   36.1303    0.0000 </r>
      </set>
      <set comment="kpoint 45">
       <r>   -0.6958    1.0000 </r>
       <r>   -0.2525    1.0000 </r>
       <r>    4.3649    1.0000 </r>
       <r>    4.8532    1.0000 </r>
       <r>    5.3729    1.0000 </r>
       <r>    5.8054    1.0000 </r>
       <r>   18.5398    0.0000 </r>
       <r>   19.8935    0.0000 </r>
       <r>   19.9787    0.0000 </r>
       <r>   26.1135    0.0000 </r>
       <r>   28.6151    0.0000 </r>
       <r>   38.7799    0.0000 </r>
      </set>
      <set comment="kpoint 46">
       <r>   -0.4494    1.0000 </r>
       <r>    0.1726    1.0000 </r>
       <r>    2.7568    1.0000 </r>
       <r>    4.1912    1.0000 </r>
       <r>    4.8944    1.0000 </r>
       <r>    5.7724    1.0000 </r>
       <r>   19.1044    0.0000 </r>
       <r>   21.1139    0.0000 </r>
       <r>   22.1645    0.0000 </r>
       <r>   27.0203    0.0000 </r>
       <r>   28.6298    0.0000 </r>
       <r>   36.4401    0.0000 </r>
      </set>
      <set comment="kpoint 47">
       <r>   -0.5493    1.0000 </r>
       <r>    1.1060    1.0000 </r>
       <r>    1.9174    1.0000 </r>
       <r>    3.0783    1.0000 </r>
       <r>    4.8498    1.0000 </r>
       <r>    5.7750    1.0000 </r>
       <r>   17.4721    0.0000 </r>
       <r>   23.1583    0.0000 </r>
       <r>   23.9879    0.0000 </r>
       <r>   26.9429    0.0000 </r>
       <r>   31.9847    0.0000 </r>
       <r>   34.5611    0.0000 </r>
      </set>
      <set comment="kpoint 48">
       <r>   -0.9095    1.0000 </r>
       <r>    0.3863    1.0000 </r>
       <r>    2.7742    1.0000 </r>
       <r>    3.7575    1.0000 </r>
       <r>    4.0523    1.0000 </r>
       <r>    4.8375    1.0000 </r>
       <r>   22.0622    0.0000 </r>
       <r>   22.9654    0.0000 </r>
       <r>   24.1648    0.0000 </r>
       <r>   26.3785    0.0000 </r>
       <r>   27.1540    0.0000 </r>
       <r>   36.2739    0.0000 </r>
      </set>
      <set comment="kpoint 49">
       <r>   -1.3977    1.0000 </r>
       <r>    0.8629    1.0000 </r>
       <r>    2.3952    1.0000 </r>
       <r>    3.1664    1.0000 </r>
       <r>    3.6920    1.0000 </r>
       <r>    4.7569    1.0000 </r>
       <r>   21.7201    0.0000 </r>
       <r>   23.9086    0.0000 </r>
       <r>   25.7536    0.0000 </r>
       <r>   26.8846    0.0000 </r>
       <r>   30.0507    0.0000 </r>
       <r>   34.1781    0.0000 </r>
      </set>
      <set comment="kpoint 50">
       <r>   -2.3850    1.0000 </r>
       <r>    1.1773    1.0000 </r>
       <r>    2.6911    1.0000 </r>
       <r>    2.7598    1.0000 </r>
       <r>    3.2220    1.0000 </r>
       <r>    4.3399    1.0000 </r>
       <r>   24.0976    0.0000 </r>
       <r>   24.8086    0.0000 </r>
       <r>   26.0621    0.0000 </r>
       <r>   26.7703    0.0000 </r>
       <r>   31.5340    0.0000 </r>
       <r>   34.5620    0.0000 </r>
      </set>
      <set comment="kpoint 51">
       <r>   -3.1110    1.0000 </r>
       <r>    1.7292    1.0000 </r>
       <r>    2.2619    1.0000 </r>
       <r>    2.2619    1.0000 </r>
       <r>    3.8650    1.0000 </r>
       <r>    3.8650    1.0000 </r>
       <r>   23.3770    0.0000 </r>
       <r>   24.0625    0.0000 </r>
       <r>   28.5521    0.0000 </r>
       <r>   28.5521    0.0000 </r>
       <r>   32.2767    0.0000 </r>
       <r>   35.1150    0.0000 </r>
      </set>
      <set comment="kpoint 52">
       <r>   -2.4107    1.0000 </r>
       <r>    1.4682    1.0000 </r>
       <r>    2.4147    1.0000 </r>
       <r>    2.5209    1.0000 </r>
       <r>    3.4636    1.0000 </r>
       <r>    4.3520    1.0000 </r>
       <r>   22.4004    0.0000 </r>
       <r>   24.0699    0.0000 </r>
       <r>   27.0471    0.0000 </r>
       <r>   29.6601    0.0000 </r>
       <r>   30.6740    0.0000 </r>
       <r>   35.0002    0.0000 </r>
      </set>
      <set comment="kpoint 53">
       <r>   -1.2462    1.0000 </r>
       <r>    1.2692    1.0000 </r>
       <r>    2.2625    1.0000 </r>
       <r>    2.8693    1.0000 </r>
       <r>    3.3432    1.0000 </r>
       <r>    5.2746    1.0000 </r>
       <r>   20.0135    0.0000 </r>
       <r>   22.8338    0.0000 </r>
       <r>   26.5845    0.0000 </r>
       <r>   28.2652    0.0000 </r>
       <r>   31.7773    0.0000 </r>
       <r>   33.8881    0.0000 </r>
      </set>
      <set comment="kpoint 54">
       <r>   -0.5572    1.0000 </r>
       <r>    1.7483    1.0000 </r>
       <r>    2.1521    1.0000 </r>
       <r>    2.6092    1.0000 </r>
       <r>    4.1989    1.0000 </r>
       <r>    6.5263    1.0000 </r>
       <r>   16.0824    0.0000 </r>
       <r>   22.0726    0.0000 </r>
       <r>   24.7765    0.0000 </r>
       <r>   28.7360    0.0000 </r>
       <r>   31.0163    0.0000 </r>
       <r>   34.9473    0.0000 </r>
      </set>
      <set comment="kpoint 55">
       <r>   -0.5602    1.0000 </r>
       <r>    1.5574    1.0000 </r>
       <r>    2.4697    1.0000 </r>
       <r>    3.1548    1.0000 </r>
       <r>    5.0844    1.0000 </r>
       <r>    8.1727   -0.0004 </r>
       <r>   12.3351   -0.0000 </r>
       <r>   21.9205    0.0000 </r>
       <r>   24.1592    0.0000 </r>
       <r>   26.0540    0.0000 </r>
       <r>   33.8011    0.0000 </r>
       <r>   35.1705    0.0000 </r>
      </set>
      <set comment="kpoint 56">
       <r>   -0.6100    1.0000 </r>
       <r>    1.5202    1.0000 </r>
       <r>    2.5324    1.0000 </r>
       <r>    2.9629    1.0000 </r>
       <r>    5.5415    1.0000 </r>
       <r>    8.0881   -0.0026 </r>
       <r>   12.1324   -0.0000 </r>
       <r>   22.4487    0.0000 </r>
       <r>   24.6074    0.0000 </r>
       <r>   24.7832    0.0000 </r>
       <r>   34.9435    0.0000 </r>
       <r>   35.3964    0.0000 </r>
      </set>
      <set comment="kpoint 57">
       <r>   -0.6725    1.0000 </r>
       <r>    1.6269    1.0000 </r>
       <r>    1.9462    1.0000 </r>
       <r>    2.7382    1.0000 </r>
       <r>    5.3539    1.0000 </r>
       <r>    5.8090    1.0000 </r>
       <r>   15.9242    0.0000 </r>
       <r>   23.4566    0.0000 </r>
       <r>   24.5020    0.0000 </r>
       <r>   26.2800    0.0000 </r>
       <r>   33.8806    0.0000 </r>
       <r>   34.5424    0.0000 </r>
      </set>
      <set comment="kpoint 58">
       <r>   -1.2881    1.0000 </r>
       <r>    1.0216    1.0000 </r>
       <r>    2.2761    1.0000 </r>
       <r>    2.9085    1.0000 </r>
       <r>    4.1262    1.0000 </r>
       <r>    4.7660    1.0000 </r>
       <r>   20.2397    0.0000 </r>
       <r>   24.7049    0.0000 </r>
       <r>   25.2043    0.0000 </r>
       <r>   27.3292    0.0000 </r>
       <r>   30.8959    0.0000 </r>
       <r>   34.3390    0.0000 </r>
      </set>
      <set comment="kpoint 59">
       <r>   -2.0138    1.0000 </r>
       <r>    1.3285    1.0000 </r>
       <r>    2.4356    1.0000 </r>
       <r>    2.6103    1.0000 </r>
       <r>    3.6917    1.0000 </r>
       <r>    4.4159    1.0000 </r>
       <r>   21.3487    0.0000 </r>
       <r>   24.5886    0.0000 </r>
       <r>   26.7924    0.0000 </r>
       <r>   28.6179    0.0000 </r>
       <r>   31.3118    0.0000 </r>
       <r>   33.7900    0.0000 </r>
      </set>
      <set comment="kpoint 60">
       <r>   -1.0618    1.0000 </r>
       <r>    1.0099    1.0000 </r>
       <r>    2.1487    1.0000 </r>
       <r>    3.1279    1.0000 </r>
       <r>    3.6616    1.0000 </r>
       <r>    5.2491    1.0000 </r>
       <r>   20.1900    0.0000 </r>
       <r>   22.8784    0.0000 </r>
       <r>   25.8044    0.0000 </r>
       <r>   27.7713    0.0000 </r>
       <r>   31.6568    0.0000 </r>
       <r>   33.3086    0.0000 </r>
      </set>
      <set comment="kpoint 61">
       <r>   -0.0498    1.0000 </r>
       <r>    1.0379    1.0000 </r>
       <r>    1.6460    1.0000 </r>
       <r>    3.3992    1.0000 </r>
       <r>    4.0554    1.0000 </r>
       <r>    6.6461    1.0000 </r>
       <r>   17.6676    0.0000 </r>
       <r>   20.5642    0.0000 </r>
       <r>   24.3183    0.0000 </r>
       <r>   28.9074    0.0000 </r>
       <r>   30.3740    0.0000 </r>
       <r>   35.4993    0.0000 </r>
      </set>
      <set comment="kpoint 62">
       <r>    0.0627    1.0000 </r>
       <r>    1.2311    1.0000 </r>
       <r>    2.0128    1.0000 </r>
       <r>    3.1508    1.0000 </r>
       <r>    4.9475    1.0000 </r>
       <r>    8.4833   -0.0000 </r>
       <r>   13.8887    0.0000 </r>
       <r>   20.2312    0.0000 </r>
       <r>   23.0033    0.0000 </r>
       <r>   27.1981    0.0000 </r>
       <r>   32.5868    0.0000 </r>
       <r>   36.5068    0.0000 </r>
      </set>
      <set comment="kpoint 63">
       <r>   -0.0290    1.0000 </r>
       <r>    1.1153    1.0000 </r>
       <r>    2.4181    1.0000 </r>
       <r>    3.0690    1.0000 </r>
       <r>    5.3287    1.0000 </r>
       <r>   10.1823   -0.0000 </r>
       <r>   11.4613   -0.0000 </r>
       <r>   20.9315    0.0000 </r>
       <r>   21.9221    0.0000 </r>
       <r>   26.5359    0.0000 </r>
       <r>   33.7195    0.0000 </r>
       <r>   36.9074    0.0000 </r>
      </set>
      <set comment="kpoint 64">
       <r>   -0.0826    1.0000 </r>
       <r>    1.2247    1.0000 </r>
       <r>    1.7506    1.0000 </r>
       <r>    3.3129    1.0000 </r>
       <r>    5.1043    1.0000 </r>
       <r>    7.6451    0.4207 </r>
       <r>   14.9322    0.0000 </r>
       <r>   21.1576    0.0000 </r>
       <r>   22.5621    0.0000 </r>
       <r>   27.2272    0.0000 </r>
       <r>   32.5733    0.0000 </r>
       <r>   35.9539    0.0000 </r>
      </set>
      <set comment="kpoint 65">
       <r>   -0.4109    1.0000 </r>
       <r>    0.7250    1.0000 </r>
       <r>    1.9310    1.0000 </r>
       <r>    3.5643    1.0000 </r>
       <r>    4.1743    1.0000 </r>
       <r>    5.8635    1.0000 </r>
       <r>   19.0002    0.0000 </r>
       <r>   21.6774    0.0000 </r>
       <r>   24.1783    0.0000 </r>
       <r>   28.0293    0.0000 </r>
       <r>   30.3262    0.0000 </r>
       <r>   34.4232    0.0000 </r>
      </set>
      <set comment="kpoint 66">
       <r>   -0.6648    1.0000 </r>
       <r>    0.7102    1.0000 </r>
       <r>    2.1807    1.0000 </r>
       <r>    3.2894    1.0000 </r>
       <r>    4.9216    1.0000 </r>
       <r>    5.1129    1.0000 </r>
       <r>   18.9985    0.0000 </r>
       <r>   23.5575    0.0000 </r>
       <r>   24.0026    0.0000 </r>
       <r>   26.4173    0.0000 </r>
       <r>   30.3643    0.0000 </r>
       <r>   35.2931    0.0000 </r>
      </set>
      <set comment="kpoint 67">
       <r>   -0.1081    1.0000 </r>
       <r>    0.4532    1.0000 </r>
       <r>    2.0650    1.0000 </r>
       <r>    4.0610    1.0000 </r>
       <r>    4.7340    1.0000 </r>
       <r>    6.6856    1.0000 </r>
       <r>   17.7260    0.0000 </r>
       <r>   20.3529    0.0000 </r>
       <r>   22.3506    0.0000 </r>
       <r>   28.1349    0.0000 </r>
       <r>   29.9428    0.0000 </r>
       <r>   35.3434    0.0000 </r>
      </set>
      <set comment="kpoint 68">
       <r>    0.2768    1.0000 </r>
       <r>    0.6360    1.0000 </r>
       <r>    1.7960    1.0000 </r>
       <r>    4.1547    1.0000 </r>
       <r>    5.1194    1.0000 </r>
       <r>    8.7894   -0.0000 </r>
       <r>   15.5641    0.0000 </r>
       <r>   18.1913    0.0000 </r>
       <r>   20.7699    0.0000 </r>
       <r>   29.1722    0.0000 </r>
       <r>   31.0843    0.0000 </r>
       <r>   35.6776    0.0000 </r>
      </set>
      <set comment="kpoint 69">
       <r>    0.4781    1.0000 </r>
       <r>    0.8370    1.0000 </r>
       <r>    1.8152    1.0000 </r>
       <r>    3.6960    1.0000 </r>
       <r>    5.4203    1.0000 </r>
       <r>   11.4358   -0.0000 </r>
       <r>   12.4719   -0.0000 </r>
       <r>   17.9131    0.0000 </r>
       <r>   20.0523    0.0000 </r>
       <r>   28.7130    0.0000 </r>
       <r>   32.9531    0.0000 </r>
       <r>   36.8927    0.0000 </r>
      </set>
      <set comment="kpoint 70">
       <r>    0.7383    1.0000 </r>
       <r>    0.8979    1.0000 </r>
       <r>    1.3716    1.0000 </r>
       <r>    3.7953    1.0000 </r>
       <r>    5.0883    1.0000 </r>
       <r>    9.6180   -0.0000 </r>
       <r>   14.9202    0.0000 </r>
       <r>   17.2438    0.0000 </r>
       <r>   21.1567    0.0000 </r>
       <r>   29.0259    0.0000 </r>
       <r>   31.7809    0.0000 </r>
       <r>   37.2958    0.0000 </r>
      </set>
      <set comment="kpoint 71">
       <r>    0.3025    1.0000 </r>
       <r>    0.8683    1.0000 </r>
       <r>    1.4800    1.0000 </r>
       <r>    3.8265    1.0000 </r>
       <r>    4.6034    1.0000 </r>
       <r>    7.5748    0.7098 </r>
       <r>   16.5728    0.0000 </r>
       <r>   19.3426    0.0000 </r>
       <r>   22.6372    0.0000 </r>
       <r>   28.8343    0.0000 </r>
       <r>   30.6881    0.0000 </r>
       <r>   35.7813    0.0000 </r>
      </set>
      <set comment="kpoint 72">
       <r>   -0.4277    1.0000 </r>
       <r>    0.1243    1.0000 </r>
       <r>    3.1337    1.0000 </r>
       <r>    4.1900    1.0000 </r>
       <r>    5.6135    1.0000 </r>
       <r>    7.3163    1.0254 </r>
       <r>   16.2388    0.0000 </r>
       <r>   20.0170    0.0000 </r>
       <r>   20.7955    0.0000 </r>
       <r>   26.6488    0.0000 </r>
       <r>   30.3527    0.0000 </r>
       <r>   37.1209    0.0000 </r>
      </set>
      <set comment="kpoint 73">
       <r>   -0.3282    1.0000 </r>
       <r>    0.0291    1.0000 </r>
       <r>    3.1754    1.0000 </r>
       <r>    4.7152    1.0000 </r>
       <r>    5.5877    1.0000 </r>
       <r>    9.2564   -0.0000 </r>
       <r>   15.1099    0.0000 </r>
       <r>   17.8300    0.0000 </r>
       <r>   19.1513    0.0000 </r>
       <r>   28.5779    0.0000 </r>
       <r>   30.3236    0.0000 </r>
       <r>   36.2398    0.0000 </r>
      </set>
      <set comment="kpoint 74">
       <r>   -0.0214    1.0000 </r>
       <r>    0.4067    1.0000 </r>
       <r>    2.6128    1.0000 </r>
       <r>    4.1841    1.0000 </r>
       <r>    5.8316    1.0000 </r>
       <r>   11.8646   -0.0000 </r>
       <r>   13.5720    0.0000 </r>
       <r>   16.2451    0.0000 </r>
       <r>   18.4038    0.0000 </r>
       <r>   30.0287    0.0000 </r>
       <r>   32.0216    0.0000 </r>
       <r>   34.7058    0.0000 </r>
      </set>
      <set comment="kpoint 75">
       <r>    0.3948    1.0000 </r>
       <r>    0.9640    1.0000 </r>
       <r>    1.7657    1.0000 </r>
       <r>    3.7744    1.0000 </r>
       <r>    5.5452    1.0000 </r>
       <r>   11.6839   -0.0000 </r>
       <r>   13.6972    0.0000 </r>
       <r>   15.9933    0.0000 </r>
       <r>   19.6447    0.0000 </r>
       <r>   29.4475    0.0000 </r>
       <r>   33.0314    0.0000 </r>
       <r>   36.0371    0.0000 </r>
      </set>
      <set comment="kpoint 76">
       <r>    0.3643    1.0000 </r>
       <r>    0.9197    1.0000 </r>
       <r>    1.9014    1.0000 </r>
       <r>    3.4793    1.0000 </r>
       <r>    5.2320    1.0000 </r>
       <r>    9.8931   -0.0000 </r>
       <r>   12.9996   -0.0000 </r>
       <r>   19.3260    0.0000 </r>
       <r>   21.2570    0.0000 </r>
       <r>   27.7931    0.0000 </r>
       <r>   32.8503    0.0000 </r>
       <r>   37.6998    0.0000 </r>
      </set>
      <set comment="kpoint 77">
       <r>   -0.6457    1.0000 </r>
       <r>   -0.1879    1.0000 </r>
       <r>    4.1888    1.0000 </r>
       <r>    4.8995    1.0000 </r>
       <r>    5.6969    1.0000 </r>
       <r>   10.1282   -0.0000 </r>
       <r>   13.7754    0.0000 </r>
       <r>   16.9711    0.0000 </r>
       <r>   19.4283    0.0000 </r>
       <r>   27.2624    0.0000 </r>
       <r>   30.6031    0.0000 </r>
       <r>   37.4892    0.0000 </r>
      </set>
      <set comment="kpoint 78">
       <r>   -0.4361    1.0000 </r>
       <r>   -0.0619    1.0000 </r>
       <r>    3.5995    1.0000 </r>
       <r>    4.7118    1.0000 </r>
       <r>    5.8332    1.0000 </r>
       <r>   10.6361   -0.0000 </r>
       <r>   13.8518    0.0000 </r>
       <r>   17.0167    0.0000 </r>
       <r>   18.5104    0.0000 </r>
       <r>   28.7996    0.0000 </r>
       <r>   30.4627    0.0000 </r>
       <r>   36.2921    0.0000 </r>
      </set>
      <set comment="kpoint 79">
       <r>    0.1015    1.0000 </r>
       <r>    0.4787    1.0000 </r>
       <r>    2.2646    1.0000 </r>
       <r>    4.2480    1.0000 </r>
       <r>    5.5588    1.0000 </r>
       <r>   10.2793   -0.0000 </r>
       <r>   14.6189    0.0000 </r>
       <r>   17.1045    0.0000 </r>
       <r>   19.2030    0.0000 </r>
       <r>   29.6919    0.0000 </r>
       <r>   31.5331    0.0000 </r>
       <r>   35.2451    0.0000 </r>
      </set>
      <set comment="kpoint 80">
       <r>   -0.5553    1.0000 </r>
       <r>   -0.0824    1.0000 </r>
       <r>    3.7876    1.0000 </r>
       <r>    4.6117    1.0000 </r>
       <r>    5.7023    1.0000 </r>
       <r>    8.8047   -0.0000 </r>
       <r>   14.9109    0.0000 </r>
       <r>   18.1202    0.0000 </r>
       <r>   19.8973    0.0000 </r>
       <r>   27.0205    0.0000 </r>
       <r>   30.5078    0.0000 </r>
       <r>   37.4392    0.0000 </r>
      </set>
      <set comment="kpoint 81">
       <r>   -0.1683    1.0000 </r>
       <r>    0.2078    1.0000 </r>
       <r>    2.5808    1.0000 </r>
       <r>    4.4987    1.0000 </r>
       <r>    5.2061    1.0000 </r>
       <r>    7.8290   -0.0265 </r>
       <r>   16.4271    0.0000 </r>
       <r>   19.0497    0.0000 </r>
       <r>   20.5076    0.0000 </r>
       <r>   28.2898    0.0000 </r>
       <r>   30.0951    0.0000 </r>
       <r>   35.9640    0.0000 </r>
      </set>
      <set comment="kpoint 82">
       <r>   -0.3906    1.0000 </r>
       <r>    0.4046    1.0000 </r>
       <r>    2.4867    1.0000 </r>
       <r>    3.7278    1.0000 </r>
       <r>    5.4106    1.0000 </r>
       <r>    5.9954    1.0000 </r>
       <r>   17.6287    0.0000 </r>
       <r>   22.0455    0.0000 </r>
       <r>   22.1664    0.0000 </r>
       <r>   26.3518    0.0000 </r>
       <r>   30.2407    0.0000 </r>
       <r>   36.3355    0.0000 </r>
      </set>
      <set comment="kpoint 83">
       <r>   -1.9548    1.0000 </r>
       <r>    1.7804    1.0000 </r>
       <r>    2.3433    1.0000 </r>
       <r>    2.3433    1.0000 </r>
       <r>    4.1466    1.0000 </r>
       <r>    4.1466    1.0000 </r>
       <r>   19.7913    0.0000 </r>
       <r>   24.0937    0.0000 </r>
       <r>   29.4696    0.0000 </r>
       <r>   29.4696    0.0000 </r>
       <r>   31.1003    0.0000 </r>
       <r>   32.7200    0.0000 </r>
      </set>
      <set comment="kpoint 84">
       <r>   -1.2959    1.0000 </r>
       <r>    1.6336    1.0000 </r>
       <r>    2.2654    1.0000 </r>
       <r>    2.5180    1.0000 </r>
       <r>    3.8421    1.0000 </r>
       <r>    5.1608    1.0000 </r>
       <r>   18.6152    0.0000 </r>
       <r>   23.6318    0.0000 </r>
       <r>   26.2670    0.0000 </r>
       <r>   29.7646    0.0000 </r>
       <r>   31.1672    0.0000 </r>
       <r>   32.9602    0.0000 </r>
      </set>
      <set comment="kpoint 85">
       <r>   -0.1884    1.0000 </r>
       <r>    1.2956    1.0000 </r>
       <r>    1.8930    1.0000 </r>
       <r>    2.9956    1.0000 </r>
       <r>    3.7160    1.0000 </r>
       <r>    6.6351    1.0000 </r>
       <r>   17.6196    0.0000 </r>
       <r>   20.5894    0.0000 </r>
       <r>   25.3283    0.0000 </r>
       <r>   29.1735    0.0000 </r>
       <r>   29.9214    0.0000 </r>
       <r>   35.7387    0.0000 </r>
      </set>
      <set comment="kpoint 86">
       <r>    0.3464    1.0000 </r>
       <r>    1.3873    1.0000 </r>
       <r>    1.7167    1.0000 </r>
       <r>    3.1943    1.0000 </r>
       <r>    4.2894    1.0000 </r>
       <r>    8.2525   -0.0000 </r>
       <r>   15.7073    0.0000 </r>
       <r>   18.2316    0.0000 </r>
       <r>   25.1466    0.0000 </r>
       <r>   26.3471    0.0000 </r>
       <r>   32.0502    0.0000 </r>
       <r>   35.7487    0.0000 </r>
      </set>
      <set comment="kpoint 87">
       <r>    0.0373    1.0000 </r>
       <r>    1.1496    1.0000 </r>
       <r>    2.3308    1.0000 </r>
       <r>    3.2835    1.0000 </r>
       <r>    5.1446    1.0000 </r>
       <r>   10.3303   -0.0000 </r>
       <r>   12.1674   -0.0000 </r>
       <r>   18.7783    0.0000 </r>
       <r>   23.7899    0.0000 </r>
       <r>   25.3059    0.0000 </r>
       <r>   34.7981    0.0000 </r>
       <r>   35.7560    0.0000 </r>
      </set>
      <set comment="kpoint 88">
       <r>   -0.2222    1.0000 </r>
       <r>    0.8661    1.0000 </r>
       <r>    2.3761    1.0000 </r>
       <r>    3.4836    1.0000 </r>
       <r>    5.6110    1.0000 </r>
       <r>    8.7793   -0.0000 </r>
       <r>   13.5234    0.0000 </r>
       <r>   20.3107    0.0000 </r>
       <r>   22.2452    0.0000 </r>
       <r>   25.8280    0.0000 </r>
       <r>   33.9601    0.0000 </r>
       <r>   35.9854    0.0000 </r>
      </set>
      <set comment="kpoint 89">
       <r>   -1.1002    1.0000 </r>
       <r>    1.8703    1.0000 </r>
       <r>    2.0711    1.0000 </r>
       <r>    2.4968    1.0000 </r>
       <r>    4.7917    1.0000 </r>
       <r>    5.0116    1.0000 </r>
       <r>   17.2068    0.0000 </r>
       <r>   23.7019    0.0000 </r>
       <r>   26.0511    0.0000 </r>
       <r>   27.9518    0.0000 </r>
       <r>   32.7301    0.0000 </r>
       <r>   33.7222    0.0000 </r>
      </set>
      <set comment="kpoint 90">
       <r>   -0.4060    1.0000 </r>
       <r>    1.6212    1.0000 </r>
       <r>    1.6997    1.0000 </r>
       <r>    2.9303    1.0000 </r>
       <r>    4.6419    1.0000 </r>
       <r>    6.5706    1.0000 </r>
       <r>   16.1099    0.0000 </r>
       <r>   22.1661    0.0000 </r>
       <r>   24.0339    0.0000 </r>
       <r>   27.7338    0.0000 </r>
       <r>   31.9746    0.0000 </r>
       <r>   35.2452    0.0000 </r>
      </set>
      <set comment="kpoint 91">
       <r>    0.5789    1.0000 </r>
       <r>    1.1413    1.0000 </r>
       <r>    1.3609    1.0000 </r>
       <r>    3.5468    1.0000 </r>
       <r>    4.5743    1.0000 </r>
       <r>    8.4002   -0.0000 </r>
       <r>   15.6869    0.0000 </r>
       <r>   18.2479    0.0000 </r>
       <r>   23.1248    0.0000 </r>
       <r>   28.1607    0.0000 </r>
       <r>   31.4772    0.0000 </r>
       <r>   36.8766    0.0000 </r>
      </set>
      <set comment="kpoint 92">
       <r>    0.4466    1.0000 </r>
       <r>    1.0346    1.0000 </r>
       <r>    1.7808    1.0000 </r>
       <r>    3.6737    1.0000 </r>
       <r>    5.1075    1.0000 </r>
       <r>   10.3484   -0.0000 </r>
       <r>   14.2761    0.0000 </r>
       <r>   16.5070    0.0000 </r>
       <r>   21.6298    0.0000 </r>
       <r>   27.8608    0.0000 </r>
       <r>   33.1214    0.0000 </r>
       <r>   37.8004    0.0000 </r>
      </set>
      <set comment="kpoint 93">
       <r>    0.0365    1.0000 </r>
       <r>    0.6798    1.0000 </r>
       <r>    2.2939    1.0000 </r>
       <r>    3.9893    1.0000 </r>
       <r>    5.4887    1.0000 </r>
       <r>   10.6987   -0.0000 </r>
       <r>   13.0822   -0.0000 </r>
       <r>   17.9467    0.0000 </r>
       <r>   20.2510    0.0000 </r>
       <r>   27.9497    0.0000 </r>
       <r>   33.3300    0.0000 </r>
       <r>   35.4592    0.0000 </r>
      </set>
      <set comment="kpoint 94">
       <r>   -0.3617    1.0000 </r>
       <r>    1.2172    1.0000 </r>
       <r>    2.0806    1.0000 </r>
       <r>    3.0774    1.0000 </r>
       <r>    5.5601    1.0000 </r>
       <r>    7.1659    1.0027 </r>
       <r>   14.6660    0.0000 </r>
       <r>   22.3266    0.0000 </r>
       <r>   23.2166    0.0000 </r>
       <r>   25.5690    0.0000 </r>
       <r>   34.1375    0.0000 </r>
       <r>   35.3469    0.0000 </r>
      </set>
      <set comment="kpoint 95">
       <r>    0.0564    1.0000 </r>
       <r>    0.8844    1.0000 </r>
       <r>    1.9744    1.0000 </r>
       <r>    3.7058    1.0000 </r>
       <r>    5.3643    1.0000 </r>
       <r>    9.0600   -0.0000 </r>
       <r>   13.8854    0.0000 </r>
       <r>   19.8458    0.0000 </r>
       <r>   21.0513    0.0000 </r>
       <r>   27.4535    0.0000 </r>
       <r>   32.9619    0.0000 </r>
       <r>   35.8927    0.0000 </r>
      </set>
      <set comment="kpoint 96">
       <r>    0.4699    1.0000 </r>
       <r>    0.9889    1.0000 </r>
       <r>    1.5502    1.0000 </r>
       <r>    3.8428    1.0000 </r>
       <r>    5.5457    1.0000 </r>
       <r>   11.0883   -0.0000 </r>
       <r>   14.2895    0.0000 </r>
       <r>   16.3313    0.0000 </r>
       <r>   19.3668    0.0000 </r>
       <r>   30.2346    0.0000 </r>
       <r>   32.0057    0.0000 </r>
       <r>   36.0654    0.0000 </r>
      </set>
      <set comment="kpoint 97">
       <r>    0.3180    1.0000 </r>
       <r>    0.9963    1.0000 </r>
       <r>    1.7406    1.0000 </r>
       <r>    3.7855    1.0000 </r>
       <r>    5.8307    1.0000 </r>
       <r>   12.5464   -0.0000 </r>
       <r>   13.8664    0.0000 </r>
       <r>   15.3534    0.0000 </r>
       <r>   18.3261    0.0000 </r>
       <r>   31.1342    0.0000 </r>
       <r>   32.6487    0.0000 </r>
       <r>   34.5043    0.0000 </r>
      </set>
      <set comment="kpoint 98">
       <r>   -0.2139    1.0000 </r>
       <r>    0.6342    1.0000 </r>
       <r>    2.7264    1.0000 </r>
       <r>    3.9094    1.0000 </r>
       <r>    5.5121    1.0000 </r>
       <r>   10.5353   -0.0000 </r>
       <r>   12.6395   -0.0000 </r>
       <r>   18.1319    0.0000 </r>
       <r>   21.6053    0.0000 </r>
       <r>   26.3119    0.0000 </r>
       <r>   33.8435    0.0000 </r>
       <r>   36.3793    0.0000 </r>
      </set>
      <set comment="kpoint 99">
       <r>   -0.0210    1.0000 </r>
       <r>    0.5959    1.0000 </r>
       <r>    2.5421    1.0000 </r>
       <r>    4.0935    1.0000 </r>
       <r>    5.5590    1.0000 </r>
       <r>   12.0662   -0.0000 </r>
       <r>   12.8085   -0.0000 </r>
       <r>   16.1805    0.0000 </r>
       <r>   19.9198    0.0000 </r>
       <r>   28.3242    0.0000 </r>
       <r>   33.7881    0.0000 </r>
       <r>   34.8594    0.0000 </r>
      </set>
      <set comment="kpoint 100">
       <r>   -0.2441    1.0000 </r>
       <r>    0.5260    1.0000 </r>
       <r>    2.9659    1.0000 </r>
       <r>    4.2354    1.0000 </r>
       <r>    5.3539    1.0000 </r>
       <r>   11.8501   -0.0000 </r>
       <r>   12.4294   -0.0000 </r>
       <r>   16.2916    0.0000 </r>
       <r>   21.2900    0.0000 </r>
       <r>   26.6509    0.0000 </r>
       <r>   33.8153    0.0000 </r>
       <r>   36.5393    0.0000 </r>
      </set>
      <set comment="kpoint 101">
       <r>   -1.2917    1.0000 </r>
       <r>    2.1412    1.0000 </r>
       <r>    2.1412    1.0000 </r>
       <r>    3.0799    1.0000 </r>
       <r>    4.8450    1.0000 </r>
       <r>    4.8450    1.0000 </r>
       <r>   15.6840    0.0000 </r>
       <r>   22.9988    0.0000 </r>
       <r>   28.0070    0.0000 </r>
       <r>   28.0070    0.0000 </r>
       <r>   33.1640    0.0000 </r>
       <r>   33.3160    0.0000 </r>
      </set>
      <set comment="kpoint 102">
       <r>   -0.9104    1.0000 </r>
       <r>    1.9037    1.0000 </r>
       <r>    2.2764    1.0000 </r>
       <r>    3.0110    1.0000 </r>
       <r>    4.7023    1.0000 </r>
       <r>    6.2929    1.0000 </r>
       <r>   14.5067    0.0000 </r>
       <r>   22.8085    0.0000 </r>
       <r>   24.9453    0.0000 </r>
       <r>   27.9972    0.0000 </r>
       <r>   32.5028    0.0000 </r>
       <r>   34.4941    0.0000 </r>
      </set>
      <set comment="kpoint 103">
       <r>   -0.0963    1.0000 </r>
       <r>    1.4135    1.0000 </r>
       <r>    2.3780    1.0000 </r>
       <r>    2.8427    1.0000 </r>
       <r>    4.6714    1.0000 </r>
       <r>    8.2671   -0.0000 </r>
       <r>   13.8984    0.0000 </r>
       <r>   20.1801    0.0000 </r>
       <r>   24.6320    0.0000 </r>
       <r>   26.2190    0.0000 </r>
       <r>   32.7915    0.0000 </r>
       <r>   35.5062    0.0000 </r>
      </set>
      <set comment="kpoint 104">
       <r>    0.1837    1.0000 </r>
       <r>    1.1757    1.0000 </r>
       <r>    2.0959    1.0000 </r>
       <r>    3.6207    1.0000 </r>
       <r>    4.8616    1.0000 </r>
       <r>   10.0474   -0.0000 </r>
       <r>   14.2294    0.0000 </r>
       <r>   16.5263    0.0000 </r>
       <r>   23.6686    0.0000 </r>
       <r>   25.7326    0.0000 </r>
       <r>   34.4723    0.0000 </r>
       <r>   35.9331    0.0000 </r>
      </set>
      <set comment="kpoint 105">
       <r>   -0.9236    1.0000 </r>
       <r>    1.7878    1.0000 </r>
       <r>    2.2795    1.0000 </r>
       <r>    3.2765    1.0000 </r>
       <r>    5.4819    1.0000 </r>
       <r>    6.5073    1.0000 </r>
       <r>   13.1898    0.0000 </r>
       <r>   22.7315    0.0000 </r>
       <r>   25.4354    0.0000 </r>
       <r>   26.0658    0.0000 </r>
       <r>   34.3893    0.0000 </r>
       <r>   34.9721    0.0000 </r>
      </set>
      <set comment="kpoint 106">
       <r>   -0.3845    1.0000 </r>
       <r>    1.3917    1.0000 </r>
       <r>    2.6153    1.0000 </r>
       <r>    2.8401    1.0000 </r>
       <r>    5.2822    1.0000 </r>
       <r>    8.5562   -0.0000 </r>
       <r>   12.3107   -0.0000 </r>
       <r>   22.1581    0.0000 </r>
       <r>   22.8899    0.0000 </r>
       <r>   26.2279    0.0000 </r>
       <r>   33.7269    0.0000 </r>
       <r>   36.0315    0.0000 </r>
      </set>
      <set comment="kpoint 107">
       <r>    0.3032    1.0000 </r>
       <r>    0.9569    1.0000 </r>
       <r>    2.0836    1.0000 </r>
       <r>    3.4218    1.0000 </r>
       <r>    5.2258    1.0000 </r>
       <r>   10.6895   -0.0000 </r>
       <r>   12.2058   -0.0000 </r>
       <r>   18.7561    0.0000 </r>
       <r>   21.7162    0.0000 </r>
       <r>   27.2570    0.0000 </r>
       <r>   33.4387    0.0000 </r>
       <r>   37.4973    0.0000 </r>
      </set>
      <set comment="kpoint 108">
       <r>   -0.2607    1.0000 </r>
       <r>    1.2763    1.0000 </r>
       <r>    2.6394    1.0000 </r>
       <r>    2.8828    1.0000 </r>
       <r>    5.4124    1.0000 </r>
       <r>    9.8101   -0.0000 </r>
       <r>   11.3396   -0.0000 </r>
       <r>   20.9215    0.0000 </r>
       <r>   24.0788    0.0000 </r>
       <r>   24.7635    0.0000 </r>
       <r>   35.2107    0.0000 </r>
       <r>   35.4125    0.0000 </r>
      </set>
      <set comment="kpoint 109">
       <r>   -1.2215    1.0000 </r>
       <r>    1.9625    1.0000 </r>
       <r>    1.9625    1.0000 </r>
       <r>    5.3180    1.0000 </r>
       <r>    5.4098    1.0000 </r>
       <r>    5.4098    1.0000 </r>
       <r>   12.1253   -0.0000 </r>
       <r>   22.2037    0.0000 </r>
       <r>   26.5342    0.0000 </r>
       <r>   26.5342    0.0000 </r>
       <r>   34.3975    0.0000 </r>
       <r>   34.3975    0.0000 </r>
      </set>
      <set comment="kpoint 110">
       <r>   -0.9224    1.0000 </r>
       <r>    1.7327    1.0000 </r>
       <r>    2.1802    1.0000 </r>
       <r>    3.9502    1.0000 </r>
       <r>    5.3803    1.0000 </r>
       <r>    7.6629    0.3477 </r>
       <r>   11.4720   -0.0000 </r>
       <r>   22.4207    0.0000 </r>
       <r>   24.8315    0.0000 </r>
       <r>   25.9820    0.0000 </r>
       <r>   34.5616    0.0000 </r>
       <r>   34.8572    0.0000 </r>
      </set>
     </set>
    </set>
   </array>
  </eigenvalues>
  <separator name="orbital magnetization" >
   <v name="MAGDIPOLOUT">      0.00000000      0.00000000      0.00000000</v>
  </separator>
  <dos>
   <i name="efermi">      7.62623346 </i>
   <total>
    <array>
     <dimension dim="1">gridpoints</dimension>
     <dimension dim="2">spin</dimension>
     <field>energy</field>
     <field>total</field>
     <field>integrated</field>
     <set>
      <set comment="spin 1">
       <r>    -5.9972     0.0000     0.0000 </r>
       <r>    -5.8408     0.0000     0.0000 </r>
       <r>    -5.6844     0.0000     0.0000 </r>
       <r>    -5.5281    -0.0000    -0.0000 </r>
       <r>    -5.3717    -0.0000    -0.0000 </r>
       <r>    -5.2153    -0.0000    -0.0000 </r>
       <r>    -5.0590    -0.0000    -0.0000 </r>
       <r>    -4.9026    -0.0000    -0.0000 </r>
       <r>    -4.7463    -0.0000    -0.0000 </r>
       <r>    -4.5899    -0.0000    -0.0000 </r>
       <r>    -4.4335    -0.0000    -0.0000 </r>
       <r>    -4.2772    -0.0002    -0.0000 </r>
       <r>    -4.1208    -0.0008    -0.0001 </r>
       <r>    -3.9644     0.0032     0.0004 </r>
       <r>    -3.8081     0.0140     0.0026 </r>
       <r>    -3.6517     0.0308     0.0074 </r>
       <r>    -3.4953     0.0484     0.0149 </r>
       <r>    -3.3390     0.0473     0.0223 </r>
       <r>    -3.1826     0.0511     0.0303 </r>
       <r>    -3.0262     0.0666     0.0407 </r>
       <r>    -2.8699     0.0924     0.0552 </r>
       <r>    -2.7135     0.0940     0.0699 </r>
       <r>    -2.5572     0.0559     0.0786 </r>
       <r>    -2.4008     0.0829     0.0916 </r>
       <r>    -2.2444     0.1501     0.1151 </r>
       <r>    -2.0881     0.1503     0.1386 </r>
       <r>    -1.9317     0.0917     0.1529 </r>
       <r>    -1.7753     0.1348     0.1740 </r>
       <r>    -1.6190     0.1982     0.2050 </r>
       <r>    -1.4626     0.1637     0.2305 </r>
       <r>    -1.3062     0.2461     0.2690 </r>
       <r>    -1.1499     0.4318     0.3365 </r>
       <r>    -0.9935     0.6063     0.4314 </r>
       <r>    -0.8371     0.6343     0.5305 </r>
       <r>    -0.6808     0.9119     0.6731 </r>
       <r>    -0.5244     1.1571     0.8541 </r>
       <r>    -0.3681     1.4447     1.0800 </r>
       <r>    -0.2117     1.5489     1.3221 </r>
       <r>    -0.0553     1.5176     1.5595 </r>
       <r>     0.1010     1.5838     1.8071 </r>
       <r>     0.2574     1.2442     2.0017 </r>
       <r>     0.4138     1.3394     2.2111 </r>
       <r>     0.5701     1.2779     2.4109 </r>
       <r>     0.7265     0.8578     2.5450 </r>
       <r>     0.8829     1.1024     2.7174 </r>
       <r>     1.0392     1.4516     2.9444 </r>
       <r>     1.1956     1.4772     3.1754 </r>
       <r>     1.3520     1.5339     3.4152 </r>
       <r>     1.5083     1.3643     3.6285 </r>
       <r>     1.6647     1.5872     3.8767 </r>
       <r>     1.8210     1.8249     4.1621 </r>
       <r>     1.9774     1.6997     4.4278 </r>
       <r>     2.1338     1.8160     4.7118 </r>
       <r>     2.2901     2.2462     5.0630 </r>
       <r>     2.4465     2.7720     5.4965 </r>
       <r>     2.6029     2.0690     5.8200 </r>
       <r>     2.7592     1.4521     6.0470 </r>
       <r>     2.9156     1.2257     6.2387 </r>
       <r>     3.0720     1.2146     6.4286 </r>
       <r>     3.2283     1.3137     6.6340 </r>
       <r>     3.3847     1.2814     6.8344 </r>
       <r>     3.5411     1.6218     7.0880 </r>
       <r>     3.6974     1.7052     7.3546 </r>
       <r>     3.8538     1.5828     7.6021 </r>
       <r>     4.0101     1.2535     7.7981 </r>
       <r>     4.1665     1.6029     8.0488 </r>
       <r>     4.3229     1.5514     8.2914 </r>
       <r>     4.4792     0.8477     8.4239 </r>
       <r>     4.6356     1.1682     8.6066 </r>
       <r>     4.7920     1.5633     8.8510 </r>
       <r>     4.9483     1.1274     9.0273 </r>
       <r>     5.1047     1.3277     9.2349 </r>
       <r>     5.2611     1.9693     9.5428 </r>
       <r>     5.4174     2.0255     9.8595 </r>
       <r>     5.5738     1.9133    10.1587 </r>
       <r>     5.7302     1.4453    10.3847 </r>
       <r>     5.8865     1.0889    10.5550 </r>
       <r>     6.0429     0.5034    10.6337 </r>
       <r>     6.1992     0.0138    10.6359 </r>
       <r>     6.3556     0.0376    10.6418 </r>
       <r>     6.5120     0.2537    10.6814 </r>
       <r>     6.6683     0.4852    10.7573 </r>
       <r>     6.8247     0.4117    10.8217 </r>
       <r>     6.9811     0.1904    10.8515 </r>
       <r>     7.1374     0.1405    10.8734 </r>
       <r>     7.2938     0.2268    10.9089 </r>
       <r>     7.4502     0.2783    10.9524 </r>
       <r>     7.6065     0.2698    10.9946 </r>
       <r>     7.7629     0.2724    11.0372 </r>
       <r>     7.9193     0.1984    11.0682 </r>
       <r>     8.0756     0.1608    11.0934 </r>
       <r>     8.2320     0.3597    11.1496 </r>
       <r>     8.3883     0.4113    11.2139 </r>
       <r>     8.5447     0.2996    11.2608 </r>
       <r>     8.7011     0.1774    11.2885 </r>
       <r>     8.8574     0.1776    11.3163 </r>
       <r>     9.0138     0.1164    11.3345 </r>
       <r>     9.1702     0.1911    11.3643 </r>
       <r>     9.3265     0.3998    11.4269 </r>
       <r>     9.4829     0.3460    11.4810 </r>
       <r>     9.6393     0.1990    11.5121 </r>
       <r>     9.7956     0.2082    11.5446 </r>
       <r>     9.9520     0.1898    11.5743 </r>
       <r>    10.1084     0.1584    11.5991 </r>
       <r>    10.2647     0.2651    11.6405 </r>
       <r>    10.4211     0.2540    11.6803 </r>
       <r>    10.5774     0.1823    11.7088 </r>
       <r>    10.7338     0.2800    11.7525 </r>
       <r>    10.8902     0.1277    11.7725 </r>
       <r>    11.0465     0.0893    11.7865 </r>
       <r>    11.2029     0.2160    11.8203 </r>
       <r>    11.3593     0.3580    11.8762 </r>
       <r>    11.5156     0.5894    11.9684 </r>
       <r>    11.6720     0.4091    12.0324 </r>
       <r>    11.8284     0.1816    12.0608 </r>
       <r>    11.9847     0.1587    12.0856 </r>
       <r>    12.1411     0.3065    12.1335 </r>
       <r>    12.2975     0.4441    12.2029 </r>
       <r>    12.4538     0.3854    12.2632 </r>
       <r>    12.6102     0.2527    12.3027 </r>
       <r>    12.7665     0.1229    12.3219 </r>
       <r>    12.9229     0.1710    12.3487 </r>
       <r>    13.0793     0.3696    12.4065 </r>
       <r>    13.2356     0.3401    12.4596 </r>
       <r>    13.3920     0.3058    12.5075 </r>
       <r>    13.5484     0.2599    12.5481 </r>
       <r>    13.7047     0.2220    12.5828 </r>
       <r>    13.8611     0.4721    12.6566 </r>
       <r>    14.0175     0.4504    12.7271 </r>
       <r>    14.1738     0.1346    12.7481 </r>
       <r>    14.3302     0.2992    12.7949 </r>
       <r>    14.4866     0.3185    12.8447 </r>
       <r>    14.6429     0.2628    12.8858 </r>
       <r>    14.7993     0.2256    12.9211 </r>
       <r>    14.9556     0.4529    12.9919 </r>
       <r>    15.1120     0.4301    13.0591 </r>
       <r>    15.2684     0.1192    13.0778 </r>
       <r>    15.4247     0.0815    13.0905 </r>
       <r>    15.5811     0.1435    13.1130 </r>
       <r>    15.7375     0.3050    13.1606 </r>
       <r>    15.8938     0.3047    13.2083 </r>
       <r>    16.0502     0.2629    13.2494 </r>
       <r>    16.2066     0.5188    13.3305 </r>
       <r>    16.3629     0.5926    13.4232 </r>
       <r>    16.5193     0.5041    13.5020 </r>
       <r>    16.6757     0.3787    13.5612 </r>
       <r>    16.8320     0.0555    13.5699 </r>
       <r>    16.9884     0.0976    13.5852 </r>
       <r>    17.1447     0.3201    13.6352 </r>
       <r>    17.3011     0.3729    13.6935 </r>
       <r>    17.4575     0.3112    13.7422 </r>
       <r>    17.6138     0.3925    13.8036 </r>
       <r>    17.7702     0.3856    13.8638 </r>
       <r>    17.9266     0.3430    13.9175 </r>
       <r>    18.0829     0.3671    13.9749 </r>
       <r>    18.2393     0.4424    14.0441 </r>
       <r>    18.3957     0.5974    14.1375 </r>
       <r>    18.5520     0.5181    14.2185 </r>
       <r>    18.7084     0.4017    14.2813 </r>
       <r>    18.8648     0.3608    14.3377 </r>
       <r>    19.0211     0.3881    14.3984 </r>
       <r>    19.1775     0.5199    14.4797 </r>
       <r>    19.3338     0.5364    14.5636 </r>
       <r>    19.4902     0.4709    14.6372 </r>
       <r>    19.6466     0.2216    14.6718 </r>
       <r>    19.8029     0.2507    14.7110 </r>
       <r>    19.9593     0.5765    14.8012 </r>
       <r>    20.1157     0.6455    14.9021 </r>
       <r>    20.2720     0.6135    14.9981 </r>
       <r>    20.4284     0.5841    15.0894 </r>
       <r>    20.5848     0.4942    15.1667 </r>
       <r>    20.7411     0.3188    15.2165 </r>
       <r>    20.8975     0.1999    15.2478 </r>
       <r>    21.0539     0.4053    15.3112 </r>
       <r>    21.2102     0.6975    15.4202 </r>
       <r>    21.3666     0.5275    15.5027 </r>
       <r>    21.5229     0.2499    15.5418 </r>
       <r>    21.6793     0.3541    15.5971 </r>
       <r>    21.8357     0.5319    15.6803 </r>
       <r>    21.9920     0.5364    15.7642 </r>
       <r>    22.1484     0.5972    15.8576 </r>
       <r>    22.3048     0.6268    15.9556 </r>
       <r>    22.4611     0.8381    16.0866 </r>
       <r>    22.6175     0.8608    16.2212 </r>
       <r>    22.7739     0.5018    16.2997 </r>
       <r>    22.9302     0.4957    16.3772 </r>
       <r>    23.0866     0.6684    16.4817 </r>
       <r>    23.2430     0.5250    16.5638 </r>
       <r>    23.3993     0.2653    16.6053 </r>
       <r>    23.5557     0.3714    16.6633 </r>
       <r>    23.7120     0.5629    16.7513 </r>
       <r>    23.8684     0.5458    16.8367 </r>
       <r>    24.0248     0.7239    16.9499 </r>
       <r>    24.1811     1.0227    17.1098 </r>
       <r>    24.3375     0.7610    17.2288 </r>
       <r>    24.4939     0.3656    17.2860 </r>
       <r>    24.6502     0.3646    17.3430 </r>
       <r>    24.8066     0.4687    17.4163 </r>
       <r>    24.9630     0.2800    17.4600 </r>
       <r>    25.1193     0.2254    17.4953 </r>
       <r>    25.2757     0.3522    17.5503 </r>
       <r>    25.4321     0.2555    17.5903 </r>
       <r>    25.5884     0.3069    17.6383 </r>
       <r>    25.7448     0.5651    17.7266 </r>
       <r>    25.9011     0.6721    17.8317 </r>
       <r>    26.0575     0.6167    17.9282 </r>
       <r>    26.2139     0.6224    18.0255 </r>
       <r>    26.3702     0.6639    18.1293 </r>
       <r>    26.5266     0.7270    18.2430 </r>
       <r>    26.6830     0.6887    18.3507 </r>
       <r>    26.8393     0.6470    18.4519 </r>
       <r>    26.9957     0.8070    18.5780 </r>
       <r>    27.1521     0.9449    18.7258 </r>
       <r>    27.3084     0.8142    18.8531 </r>
       <r>    27.4648     0.6204    18.9501 </r>
       <r>    27.6212     0.4973    19.0279 </r>
       <r>    27.7775     0.4573    19.0994 </r>
       <r>    27.9339     0.7367    19.2146 </r>
       <r>    28.0902     0.8371    19.3455 </r>
       <r>    28.2466     0.6027    19.4397 </r>
       <r>    28.4030     0.3332    19.4918 </r>
       <r>    28.5593     0.2627    19.5329 </r>
       <r>    28.7157     0.5978    19.6263 </r>
       <r>    28.8721     0.6888    19.7340 </r>
       <r>    29.0284     0.5608    19.8217 </r>
       <r>    29.1848     0.4829    19.8972 </r>
       <r>    29.3412     0.3383    19.9501 </r>
       <r>    29.4975     0.2899    19.9955 </r>
       <r>    29.6539     0.3498    20.0502 </r>
       <r>    29.8103     0.3265    20.1012 </r>
       <r>    29.9666     0.2640    20.1425 </r>
       <r>    30.1230     0.3597    20.1987 </r>
       <r>    30.2793     0.4517    20.2694 </r>
       <r>    30.4357     0.5744    20.3592 </r>
       <r>    30.5921     0.3703    20.4171 </r>
       <r>    30.7484     0.2832    20.4614 </r>
       <r>    30.9048     0.2648    20.5028 </r>
       <r>    31.0612     0.2649    20.5442 </r>
       <r>    31.2175     0.3556    20.5998 </r>
       <r>    31.3739     0.2801    20.6436 </r>
       <r>    31.5303     0.4094    20.7076 </r>
       <r>    31.6866     0.4339    20.7755 </r>
       <r>    31.8430     0.4577    20.8470 </r>
       <r>    31.9994     0.9581    20.9968 </r>
       <r>    32.1557     0.8139    21.1241 </r>
       <r>    32.3121     0.0930    21.1387 </r>
       <r>    32.4684     0.0971    21.1538 </r>
       <r>    32.6248     0.3799    21.2132 </r>
       <r>    32.7812     0.4737    21.2873 </r>
       <r>    32.9375     0.5820    21.3783 </r>
       <r>    33.0939     0.5145    21.4588 </r>
       <r>    33.2503     0.3589    21.5149 </r>
       <r>    33.4066     0.5013    21.5932 </r>
       <r>    33.5630     0.5525    21.6796 </r>
       <r>    33.7194     0.5526    21.7660 </r>
       <r>    33.8757     0.7908    21.8897 </r>
       <r>    34.0321     0.5765    21.9798 </r>
       <r>    34.1885     0.4831    22.0554 </r>
       <r>    34.3448     0.5600    22.1429 </r>
       <r>    34.5012     0.7146    22.2547 </r>
       <r>    34.6575     0.7193    22.3672 </r>
       <r>    34.8139     0.6207    22.4642 </r>
       <r>    34.9703     0.6976    22.5733 </r>
       <r>    35.1266     0.6070    22.6682 </r>
       <r>    35.2830     0.6773    22.7741 </r>
       <r>    35.4394     0.7467    22.8909 </r>
       <r>    35.5957     0.5774    22.9811 </r>
       <r>    35.7521     0.5185    23.0622 </r>
       <r>    35.9085     0.6845    23.1693 </r>
       <r>    36.0648     0.9417    23.3165 </r>
       <r>    36.2212     0.8575    23.4506 </r>
       <r>    36.3776     0.6797    23.5569 </r>
       <r>    36.5339     0.5312    23.6399 </r>
       <r>    36.6903     0.2066    23.6722 </r>
       <r>    36.8466     0.1507    23.6958 </r>
       <r>    37.0030     0.2675    23.7376 </r>
       <r>    37.1594     0.1247    23.7571 </r>
       <r>    37.3157     0.1567    23.7816 </r>
       <r>    37.4721     0.2756    23.8247 </r>
       <r>    37.6285     0.3170    23.8743 </r>
       <r>    37.7848     0.4041    23.9375 </r>
       <r>    37.9412     0.1832    23.9661 </r>
       <r>    38.0976    -0.0072    23.9650 </r>
       <r>    38.2539    -0.0020    23.9647 </r>
       <r>    38.4103     0.0391    23.9708 </r>
       <r>    38.5667     0.0491    23.9785 </r>
       <r>    38.7230     0.0700    23.9894 </r>
       <r>    38.8794     0.0604    23.9989 </r>
       <r>    39.0357     0.0106    24.0005 </r>
       <r>    39.1921    -0.0028    24.0001 </r>
       <r>    39.3485    -0.0005    24.0000 </r>
       <r>    39.5048    -0.0000    24.0000 </r>
       <r>    39.6612    -0.0000    24.0000 </r>
       <r>    39.8176    -0.0000    24.0000 </r>
       <r>    39.9739    -0.0000    24.0000 </r>
       <r>    40.1303    -0.0000    24.0000 </r>
       <r>    40.2867     0.0000    24.0000 </r>
       <r>    40.4430     0.0000    24.0000 </r>
       <r>    40.5994     0.0000    24.0000 </r>
       <r>    40.7558     0.0000    24.0000 </r>
       <r>    40.9121     0.0000    24.0000 </r>
      </set>
     </set>
    </array>
   </total>
  </dos>
 </calculation>
 <structure name="finalpos" >
  <crystal>
   <varray name="basis" >
    <v>       0.00000000       1.95000000       1.95000000 </v>
    <v>       1.95000000       0.00000000       1.95000000 </v>
    <v>       1.95000000       1.95000000       0.00000000 </v>
   </varray>
   <i name="volume">     14.82975000 </i>
   <varray name="rec_basis" >
    <v>      -0.25641026       0.25641026       0.25641026 </v>
    <v>       0.25641026      -0.25641026       0.25641026 </v>
    <v>       0.25641026       0.25641026      -0.25641026 </v>
   </varray>
  </crystal>
  <varray name="positions" >
   <v>       0.00000000       0.00000000       0.00000000 </v>
  </varray>
 </structure>
</modeling>
