fcc Au                                  
   4.10000000000000     
     0.000000    0.500000    0.500000
     0.500000    0.000000    0.500000
     0.500000    0.500000    0.000000
   Au
     1
Direct
  0.000000  0.000000  0.000000
 
   24   24   24
  83.446      80.240      71.970      61.475      50.858      40.593      30.550      21.253      13.844      9.0346    
  6.4368      5.0963      4.6739      5.0963      6.4368      9.0346      13.844      21.253      30.550      40.593    
  50.858      61.475      71.970      80.240      80.240      74.529      65.282      54.995      44.838      34.841    
  25.196      16.867      10.889      7.4015      5.5676      4.7238      4.7238      5.5675      7.4014      10.889    
  16.868      25.199      34.845      44.840      54.991      65.272      74.518      80.236      71.970      65.282    
  56.492      47.118      37.605      28.132      19.461      12.703      8.4063      6.0780      4.8572      4.4752    
  4.8572      6.0779      8.4059      12.703      19.462      28.136      37.609      47.118      56.486      65.271    
  71.961      74.518      61.475      54.995      47.118      38.559      29.690      21.199      14.152      9.3166    
  6.5515      5.0317      4.3390      4.3391      5.0318      6.5515      9.3161      14.151      21.198      29.691    
  38.561      47.118      54.993      61.472      65.271      65.272      50.858      44.838      37.605      29.690    
  21.808      14.955      9.9578      6.9218      5.1975      4.2811      3.9990      4.2812      5.1978      6.9222    
  9.9578      14.954      21.807      29.688      37.605      44.840      50.860      54.993      56.486      54.991    
  40.593      34.841      28.132      21.199      14.955      10.189      7.1278      5.3132      4.2642      3.7978    
  3.7977      4.2641      5.3137      7.1290      10.191      14.955      21.197      28.130      34.838      40.592    
  44.840      47.118      47.118      44.840      30.550      25.196      19.461      14.152      9.9578      7.1278    
  5.3544      4.2617      3.6949      3.5223      3.6946      4.2612      5.3544      7.1291      9.9606      14.155    
  19.462      25.194      30.544      34.838      37.605      38.561      37.609      34.845      21.253      16.867    
  12.703      9.3166      6.9218      5.3132      4.2617      3.6637      3.4002      3.4001      3.6632      4.2605    
  5.3118      6.9217      9.3191      12.708      16.871      21.253      25.194      28.130      29.688      29.691    
  28.136      25.199      13.844      10.889      8.4063      6.5515      5.1975      4.2642      3.6949      3.4002    
  3.3105      3.4006      3.6949      4.2628      5.1947      6.5489      8.4063      10.892      13.849      16.871    
  19.462      21.197      21.807      21.198      19.462      16.868      9.0346      7.4015      6.0780      5.0317    
  4.2811      3.7978      3.5223      3.4001      3.4006      3.5236      3.7991      4.2811      5.0292      6.0738    
  7.3982      9.0346      10.892      12.708      14.155      14.955      14.954      14.151      12.703      10.889    
  6.4368      5.5676      4.8572      4.3390      3.9990      3.7977      3.6946      3.6632      3.6949      3.7991    
  4.0018      4.3416      4.8572      5.5643      6.4320      7.3982      8.4063      9.3191      9.9606      10.191    
  9.9578      9.3161      8.4059      7.4014      5.0963      4.7238      4.4752      4.3391      4.2812      4.2641    
  4.2612      4.2605      4.2628      4.2811      4.3416      4.4794      4.7272      5.0964      5.5643      6.0738    
  6.5489      6.9217      7.1291      7.1290      6.9222      6.5515      6.0779      5.5675      4.6739      4.7238    
  4.8572      5.0318      5.1978      5.3137      5.3544      5.3118      5.1947      5.0292      4.8572      4.7272    
  4.6788      4.7272      4.8572      5.0292      5.1947      5.3118      5.3544      5.3137      5.1978      5.0318    
  4.8572      4.7238      5.0963      5.5675      6.0779      6.5515      6.9222      7.1290      7.1291      6.9217    
  6.5489      6.0738      5.5643      5.0964      4.7272      4.4794      4.3416      4.2811      4.2628      4.2605    
  4.2612      4.2641      4.2812      4.3391      4.4752      4.7238      6.4368      7.4014      8.4059      9.3161    
  9.9578      10.191      9.9606      9.3191      8.4063      7.3982      6.4320      5.5643      4.8572      4.3416    
  4.0018      3.7991      3.6949      3.6632      3.6946      3.7977      3.9990      4.3390      4.8572      5.5676    
  9.0346      10.889      12.703      14.151      14.954      14.955      14.155      12.708      10.892      9.0346    
  7.3982      6.0738      5.0292      4.2811      3.7991      3.5236      3.4006      3.4001      3.5223      3.7978    
  4.2811      5.0317      6.0780      7.4015      13.844      16.868      19.462      21.198      21.807      21.197    
  19.462      16.871      13.849      10.892      8.4063      6.5489      5.1947      4.2628      3.6949      3.4006    
  3.3105      3.4002      3.6949      4.2642      5.1975      6.5515      8.4063      10.889      21.253      25.199    
  28.136      29.691      29.688      28.130      25.194      21.253      16.871      12.708      9.3191      6.9217    
  5.3118      4.2605      3.6632      3.4001      3.4002      3.6637      4.2617      5.3132      6.9218      9.3166    
  12.703      16.867      30.550      34.845      37.609      38.561      37.605      34.838      30.544      25.194    
  19.462      14.155      9.9606      7.1291      5.3544      4.2612      3.6946      3.5223      3.6949      4.2617    
  5.3544      7.1278      9.9578      14.152      19.461      25.196      40.593      44.840      47.118      47.118    
  44.840      40.592      34.838      28.130      21.197      14.955      10.191      7.1290      5.3137      4.2641    
  3.7977      3.7978      4.2642      5.3132      7.1278      10.189      14.955      21.199      28.132      34.841    
  50.858      54.991      56.486      54.993      50.860      44.840      37.605      29.688      21.807      14.954    
  9.9578      6.9222      5.1978      4.2812      3.9990      4.2811      5.1975      6.9218      9.9578      14.955    
  21.808      29.690      37.605      44.838      61.475      65.272      65.271      61.472      54.993      47.118    
  38.561      29.691      21.198      14.151      9.3161      6.5515      5.0318      4.3391      4.3390      5.0317    
  6.5515      9.3166      14.152      21.199      29.690      38.559      47.118      54.995      71.970      74.518    
  71.961      65.271      56.486      47.118      37.609      28.136      19.462      12.703      8.4059      6.0779    
  4.8572      4.4752      4.8572      6.0780      8.4063      12.703      19.461      28.132      37.605      47.118    
  56.492      65.282      80.240      80.236      74.518      65.272      54.991      44.840      34.845      25.199    
  16.868      10.889      7.4014      5.5675      4.7238      4.7238      5.5676      7.4015      10.889      16.867    
  25.196      34.841      44.838      54.995      65.282      74.529      80.240      74.529      65.282      54.995    
  44.838      34.841      25.196      16.867      10.889      7.4015      5.5676      4.7238      4.7238      5.5675    
  7.4014      10.889      16.868      25.199      34.845      44.840      54.991      65.272      74.518      80.236    
  74.529      67.330      57.993      48.228      38.492      28.861      20.011      13.061      8.6079      6.1980    
  4.9396      4.5449      4.9396      6.1978      8.6075      13.061      20.014      28.866      38.498      48.228    
  57.983      67.314      74.516      77.287      65.282      57.993      49.418      40.406      31.219      22.395    
  14.970      9.7955      6.8198      5.2072      4.4686      4.4686      5.2072      6.8195      9.7947      14.969    
  22.396      31.223      40.410      49.417      57.985      65.272      69.635      69.640      54.995      48.228    
  40.406      32.029      23.670      16.271      10.757      7.3625      5.4717      4.4654      4.1541      4.4654    
  5.4718      7.3623      10.756      16.270      23.669      32.030      40.408      48.230      54.996      59.815    
  61.593      59.815      44.838      38.492      31.219      23.670      16.732      11.295      7.7406      5.6797    
  4.4955      3.9654      3.9654      4.4956      5.6802      7.7411      11.295      16.730      23.667      31.217    
  38.494      44.842      49.677      52.343      52.341      49.672      34.841      28.861      22.395      16.271    
  11.295      7.8769      5.7931      4.5259      3.8642      3.6623      3.8641      4.5259      5.7938      7.8782    
  11.297      16.271      22.393      28.859      34.839      39.667      42.821      43.922      42.820      39.667    
  25.196      20.011      14.970      10.757      7.7406      5.7931      4.5379      3.8210      3.5050      3.5048    
  3.8205      4.5372      5.7930      7.7421      10.760      14.972      20.012      25.194      29.785      33.186    
  34.991      34.993      33.190      29.789      16.867      13.061      9.7955      7.3625      5.6797      4.5259    
  3.8210      3.4568      3.3460      3.4568      3.8203      4.5242      5.6779      7.3623      9.7980      13.065    
  16.870      20.671      23.873      25.995      26.736      25.998      23.876      20.670      10.889      8.6079    
  6.8198      5.4717      4.4955      3.8642      3.5050      3.3460      3.3464      3.5057      3.8642      4.4937    
  5.4684      6.8169      8.6077      10.892      13.465      15.937      17.877      18.940      18.940      17.875    
  15.933      13.460      7.4015      6.1980      5.2072      4.4654      3.9654      3.6623      3.5048      3.4568    
  3.5057      3.6640      3.9671      4.4654      5.2044      6.1935      7.3981      8.8158      10.330      11.698    
  12.654      12.995      12.650      11.693      10.326      8.8158      5.5676      4.9396      4.4686      4.1541    
  3.9654      3.8641      3.8205      3.8203      3.8642      3.9671      4.1573      4.4714      4.9396      5.5642    
  6.3041      7.0861      7.8420      8.4566      8.8033      8.8021      8.4545      7.8416      7.0890      6.3087    
  4.7238      4.5449      4.4686      4.4654      4.4956      4.5259      4.5372      4.5242      4.4937      4.4654    
  4.4714      4.5493      4.7272      5.0077      5.3615      5.7332      6.0574      6.2769      6.3549      6.2778    
  6.0597      5.7369      5.3645      5.0077      4.7238      4.9396      5.2072      5.4718      5.6802      5.7938    
  5.7930      5.6779      5.4684      5.2044      4.9396      4.7272      4.6034      4.5758      4.6231      4.7069    
  4.7873      4.8354      4.8364      4.7898      4.7091      4.6231      4.5728      4.5988      5.5675      6.1978    
  6.8195      7.3623      7.7411      7.8782      7.7421      7.3623      6.8169      6.1935      5.5642      5.0077    
  4.5758      4.2807      4.1021      4.0061      3.9617      3.9494      3.9624      4.0061      4.1001      4.2770    
  4.5728      5.0077      7.4014      8.6075      9.7947      10.756      11.295      11.297      10.760      9.7980    
  8.6077      7.3981      6.3041      5.3615      4.6231      4.1021      3.7685      3.5778      3.4925      3.4922    
  3.5767      3.7664      4.1000      4.6231      5.3646      6.3087      10.889      13.061      14.969      16.270    
  16.730      16.271      14.972      13.065      10.892      8.8158      7.0861      5.7332      4.7069      4.0061    
  3.5778      3.3540      3.2849      3.3532      3.5768      4.0061      4.7089      5.7369      7.0891      8.8158    
  16.868      20.014      22.396      23.669      23.667      22.393      20.012      16.870      13.465      10.330    
  7.8420      6.0574      4.7873      3.9617      3.4925      3.2849      3.2848      3.4925      3.9627      4.7895    
  6.0595      7.8419      10.326      13.460      25.199      28.866      31.223      32.030      31.217      28.859    
  25.194      20.671      15.937      11.698      8.4566      6.2769      4.8354      3.9494      3.4922      3.3532    
  3.4925      3.9502      4.8363      6.2769      8.4545      11.694      15.933      20.670      34.845      38.498    
  40.410      40.408      38.494      34.839      29.785      23.873      17.877      12.654      8.8033      6.3549    
  4.8364      3.9624      3.5767      3.5768      3.9627      4.8363      6.3539      8.8010      12.651      17.876    
  23.875      29.789      44.840      48.228      49.417      48.230      44.842      39.667      33.186      25.995    
  18.940      12.995      8.8021      6.2778      4.7898      4.0061      3.7664      4.0061      4.7895      6.2769    
  8.8010      12.995      18.942      25.998      33.188      39.667      54.991      57.983      57.985      54.996    
  49.677      42.821      34.991      26.736      18.940      12.650      8.4545      6.0597      4.7091      4.1001    
  4.1000      4.7089      6.0595      8.4545      12.651      18.942      26.738      34.992      42.819      49.672    
  65.272      67.314      65.272      59.815      52.343      43.922      34.993      25.998      17.875      11.693    
  7.8416      5.7369      4.6231      4.2770      4.6231      5.7369      7.8419      11.694      17.876      25.998    
  34.992      43.920      52.342      59.815      74.518      74.516      69.635      61.593      52.341      42.820    
  33.190      23.876      15.933      10.326      7.0890      5.3645      4.5728      4.5728      5.3646      7.0891    
  10.326      15.933      23.875      33.188      42.819      52.342      61.596      69.640      80.236      77.287    
  69.640      59.815      49.672      39.667      29.789      20.670      13.460      8.8158      6.3087      5.0077    
  4.5988      5.0077      6.3087      8.8158      13.460      20.670      29.789      39.667      49.672      59.815    
  69.640      77.287      71.970      65.282      56.492      47.118      37.605      28.132      19.461      12.703    
  8.4063      6.0780      4.8572      4.4752      4.8572      6.0779      8.4059      12.703      19.462      28.136    
  37.609      47.118      56.486      65.271      71.961      74.518      65.282      57.993      49.418      40.406    
  31.219      22.395      14.970      9.7955      6.8198      5.2072      4.4686      4.4686      5.2072      6.8195    
  9.7947      14.969      22.396      31.223      40.410      49.417      57.985      65.272      69.635      69.640    
  56.492      49.418      41.365      32.826      24.311      16.733      11.042      7.5198      5.5684      4.5303    
  4.2086      4.5304      5.5684      7.5193      11.040      16.731      24.311      32.828      41.369      49.421    
  56.492      61.595      63.492      61.596      47.118      40.406      32.826      24.974      17.692      11.907    
  8.0820      5.8791      4.6215      4.0563      4.0563      4.6217      5.8793      8.0816      11.906      17.689    
  24.971      32.826      40.411      47.126      52.349      55.279      55.276      52.342      37.605      31.219    
  24.311      17.692      12.217      8.3977      6.0875      4.7039      3.9774      3.7553      3.9774      4.7042    
  6.0882      8.3982      12.216      17.689      24.307      31.218      37.609      42.827      46.291      47.511    
  46.284      42.819      28.132      22.395      16.733      11.907      8.3977      6.1607      4.7512      3.9418    
  3.5846      3.5844      3.9416      4.7512      6.1616      8.3993      11.908      16.732      22.392      28.130    
  33.188      36.946      38.951      38.950      36.945      33.188      19.461      14.970      11.042      8.0820    
  6.0875      4.7512      3.9318      3.5087      3.3799      3.5084      3.9311      4.7503      6.0875      8.0835    
  11.044      14.972      19.461      23.873      27.553      29.981      30.827      29.983      27.557      23.875    
  12.703      9.7955      7.5198      5.8791      4.7039      3.9418      3.5087      3.3172      3.3174      3.5087    
  3.9410      4.7020      5.8772      7.5196      9.7976      12.707      15.936      18.990      21.359      22.648    
  22.649      21.360      18.990      15.933      8.4063      6.8198      5.5684      4.6215      3.9774      3.5846    
  3.3799      3.3174      3.3806      3.5855      3.9774      4.6197      5.5650      6.8169      8.4059      10.329    
  12.377      14.209      15.477      15.930      15.475      14.206      12.373      10.326      6.0780      5.2072    
  4.5303      4.0563      3.7553      3.5844      3.5084      3.5087      3.5855      3.7572      4.0581      4.5303    
  5.2045      6.0738      7.0859      8.2032      9.3131      10.221      10.732      10.731      10.217      9.3101    
  8.2033      7.0891      4.8572      4.4686      4.2086      4.0563      3.9774      3.9416      3.9311      3.9410    
  3.9774      4.0581      4.2120      4.4714      4.8572      5.3615      5.9397      6.5178      7.0224      7.3747    
  7.5013      7.3737      7.0224      6.5202      5.9438      5.3646      4.4752      4.4686      4.5304      4.6217    
  4.7042      4.7512      4.7503      4.7020      4.6197      4.5303      4.4714      4.4794      4.5758      4.7558    
  4.9879      5.2238      5.4135      5.5185      5.5191      5.4154      5.2268      4.9904      4.7558      4.5728    
  4.8572      5.2072      5.5684      5.8793      6.0882      6.1616      6.0875      5.8772      5.5650      5.2045    
  4.8572      4.5758      4.3892      4.2965      4.2733      4.2862      4.3061      4.3153      4.3076      4.2878    
  4.2733      4.2939      4.3851      4.5728      6.0779      6.8195      7.5193      8.0816      8.3982      8.3993    
  8.0835      7.5196      6.8169      6.0738      5.3615      4.7558      4.2965      3.9825      3.7873      3.6782    
  3.6302      3.6304      3.6781      3.7858      3.9796      4.2939      4.7558      5.3645      8.4059      9.7947    
  11.040      11.906      12.216      11.908      11.044      9.7976      8.4059      7.0859      5.9397      4.9879    
  4.2733      3.7873      3.4880      3.3297      3.2804      3.3290      3.4865      3.7858      4.2733      4.9904    
  5.9438      7.0890      12.703      14.969      16.731      17.689      17.689      16.732      14.972      12.707    
  10.329      8.2032      6.5178      5.2238      4.2862      3.6782      3.3297      3.1740      3.1737      3.3291    
  3.6782      4.2877      5.2267      6.5203      8.2033      10.326      19.462      22.396      24.311      24.971    
  24.307      22.392      19.461      15.936      12.377      9.3131      7.0224      5.4135      4.3061      3.6302    
  3.2804      3.1737      3.2805      3.6308      4.3076      5.4150      7.0224      9.3105      12.373      15.933    
  28.136      31.223      32.828      32.826      31.218      28.130      23.873      18.990      14.209      10.221    
  7.3747      5.5185      4.3153      3.6304      3.3290      3.3291      3.6308      4.3159      5.5185      7.3731    
  10.218      14.207      18.990      23.876      37.609      40.410      41.369      40.411      37.609      33.188    
  27.553      21.359      15.477      10.732      7.5013      5.5191      4.3076      3.6781      3.4865      3.6782    
  4.3076      5.5185      7.4998      10.731      15.477      21.361      27.557      33.190      47.118      49.417    
  49.421      47.126      42.827      36.946      29.981      22.648      15.930      10.731      7.3737      5.4154    
  4.2878      3.7858      3.7858      4.2877      5.4150      7.3731      10.731      15.931      22.652      29.983    
  36.945      42.820      56.486      57.985      56.492      52.349      46.291      38.951      30.827      22.649    
  15.475      10.217      7.0224      5.2268      4.2733      3.9796      4.2733      5.2267      7.0224      10.218    
  15.477      22.652      30.829      38.949      46.284      52.341      65.271      65.272      61.595      55.279    
  47.511      38.950      29.983      21.360      14.206      9.3101      6.5202      4.9904      4.2939      4.2939    
  4.9904      6.5203      9.3105      14.207      21.361      29.983      38.949      47.509      55.276      61.593    
  71.961      69.635      63.492      55.276      46.284      36.945      27.557      18.990      12.373      8.2033    
  5.9438      4.7558      4.3851      4.7558      5.9438      8.2033      12.373      18.990      27.557      36.945    
  46.284      55.276      63.492      69.635      74.518      69.640      61.596      52.342      42.819      33.188    
  23.875      15.933      10.326      7.0891      5.3646      4.5728      4.5728      5.3645      7.0890      10.326    
  15.933      23.876      33.190      42.820      52.341      61.593      69.635      74.516      61.475      54.995    
  47.118      38.559      29.690      21.199      14.152      9.3166      6.5515      5.0317      4.3390      4.3391    
  5.0318      6.5515      9.3161      14.151      21.198      29.691      38.561      47.118      54.993      61.472    
  65.271      65.272      54.995      48.228      40.406      32.029      23.670      16.271      10.757      7.3625    
  5.4717      4.4654      4.1541      4.4654      5.4718      7.3623      10.756      16.270      23.669      32.030    
  40.408      48.230      54.996      59.815      61.593      59.815      47.118      40.406      32.826      24.974    
  17.692      11.907      8.0820      5.8791      4.6215      4.0563      4.0563      4.6217      5.8793      8.0816    
  11.906      17.689      24.971      32.826      40.411      47.126      52.349      55.279      55.276      52.342    
  38.559      32.029      24.974      18.191      12.546      8.5847      6.1912      4.7668      4.0173      3.7879    
  4.0173      4.7672      6.1919      8.5848      12.543      18.186      24.969      32.029      38.566      43.931    
  47.517      48.785      47.509      43.920      29.690      23.670      17.692      12.546      8.7658      6.3608    
  4.8675      4.0075      3.6275      3.6275      4.0076      4.8681      6.3621      8.7668      12.544      17.688    
  23.665      29.689      34.996      38.955      41.077      41.074      38.949      34.992      21.199      16.271    
  11.907      8.5847      6.3608      4.9033      4.0072      3.5442      3.4033      3.5440      4.0069      4.9036    
  6.3622      8.5868      11.909      16.270      21.195      25.995      29.982      32.609      33.526      32.609    
  29.983      25.998      14.152      10.757      8.0820      6.1912      4.8675      4.0072      3.5186      3.3029    
  3.3028      3.5183      4.0063      4.8668      6.1916      8.0839      10.759      14.153      17.875      21.358    
  24.040      25.494      25.495      24.043      21.361      17.876      9.3166      7.3625      5.8791      4.7668    
  4.0075      3.5442      3.3029      3.2290      3.3032      3.5443      4.0066      4.7650      5.8775      7.3625    
  9.3185      11.697      14.208      16.433      17.961      18.504      17.961      16.433      14.207      11.694    
  6.5515      5.4717      4.6215      4.0173      3.6275      3.4033      3.3028      3.3032      3.4043      3.6285    
  4.0173      4.6198      5.4687      6.5490      7.8416      9.3125      10.780      11.975      12.646      12.645    
  11.972      10.776      9.3105      7.8419      5.0317      4.4654      4.0563      3.7879      3.6275      3.5440    
  3.5183      3.5443      3.6285      3.7899      4.0582      4.4654      5.0293      5.7333      6.5177      7.3147    
  8.0349      8.5448      8.7289      8.5428      8.0329      7.3147      6.5203      5.7369      4.3390      4.1541    
  4.0563      4.0173      4.0076      4.0069      4.0063      4.0066      4.0173      4.0582      4.1573      4.3416    
  4.6231      4.9879      5.3937      5.7792      6.0798      6.2447      6.2446      6.0802      5.7811      5.3969    
  4.9904      4.6231      4.3391      4.4654      4.6217      4.7672      4.8681      4.9036      4.8668      4.7650    
  4.6198      4.4654      4.3416      4.2806      4.2964      4.3791      4.4992      4.6195      4.7064      4.7382    
  4.7077      4.6217      4.5011      4.3791      4.2939      4.2770      5.0318      5.4718      5.8793      6.1919    
  6.3621      6.3622      6.1916      5.8775      5.4687      5.0293      4.6231      4.2964      4.0678      3.9291    
  3.8564      3.8235      3.8120      3.8125      3.8245      3.8564      3.9272      4.0646      4.2939      4.6231    
  6.5515      7.3623      8.0816      8.5848      8.7668      8.5868      8.0839      7.3625      6.5490      5.7333    
  4.9879      4.3791      3.9291      3.6247      3.4361      3.3352      3.3036      3.3350      3.4351      3.6227    
  3.9273      4.3791      4.9904      5.7369      9.3161      10.756      11.906      12.543      12.544      11.909    
  10.759      9.3185      7.8416      6.5177      5.3937      4.4992      3.8564      3.4361      3.1908      3.0792    
  3.0788      3.1899      3.4351      3.8564      4.5011      5.3969      6.5202      7.8416      14.151      16.270    
  17.689      18.186      17.688      16.270      14.153      11.697      9.3125      7.3147      5.7792      4.6195    
  3.8235      3.3352      3.0792      3.0002      3.0789      3.3351      3.8245      4.6215      5.7811      7.3147    
  9.3101      11.693      21.198      23.669      24.971      24.969      23.665      21.195      17.875      14.208    
  10.780      8.0349      6.0798      4.7064      3.8120      3.3036      3.0788      3.0789      3.3039      3.8128    
  4.7073      6.0798      8.0330      10.776      14.206      17.875      29.691      32.030      32.826      32.029    
  29.689      25.995      21.358      16.433      11.975      8.5448      6.2447      4.7382      3.8125      3.3350    
  3.1899      3.3351      3.8128      4.7382      6.2437      8.5428      11.973      16.433      21.360      25.998    
  38.561      40.408      40.411      38.566      34.996      29.982      24.040      17.961      12.646      8.7289    
  6.2446      4.7077      3.8245      3.4351      3.4351      3.8245      4.7073      6.2437      8.7279      12.646    
  17.963      24.043      29.983      34.993      47.118      48.230      47.126      43.931      38.955      32.609    
  25.494      18.504      12.645      8.5428      6.0802      4.6217      3.8564      3.6227      3.8564      4.6215    
  6.0798      8.5428      12.646      18.508      25.497      32.609      38.950      43.922      54.993      54.996    
  52.349      47.517      41.077      33.526      25.495      17.961      11.972      8.0329      5.7811      4.5011    
  3.9272      3.9273      4.5011      5.7811      8.0330      11.973      17.963      25.497      33.526      41.074    
  47.511      52.343      61.472      59.815      55.279      48.785      41.074      32.609      24.043      16.433    
  10.776      7.3147      5.3969      4.3791      4.0646      4.3791      5.3969      7.3147      10.776      16.433    
  24.043      32.609      41.074      48.785      55.279      59.815      65.271      61.593      55.276      47.509    
  38.949      29.983      21.361      14.207      9.3105      6.5203      4.9904      4.2939      4.2939      4.9904    
  6.5202      9.3101      14.206      21.360      29.983      38.950      47.511      55.279      61.595      65.272    
  65.272      59.815      52.342      43.920      34.992      25.998      17.876      11.694      7.8419      5.7369    
  4.6231      4.2770      4.6231      5.7369      7.8416      11.693      17.875      25.998      34.993      43.922    
  52.343      59.815      65.272      67.314      50.858      44.838      37.605      29.690      21.808      14.955    
  9.9578      6.9218      5.1975      4.2811      3.9990      4.2812      5.1978      6.9222      9.9578      14.954    
  21.807      29.688      37.605      44.840      50.860      54.993      56.486      54.991      44.838      38.492    
  31.219      23.670      16.732      11.295      7.7406      5.6797      4.4955      3.9654      3.9654      4.4956    
  5.6802      7.7411      11.295      16.730      23.667      31.217      38.494      44.842      49.677      52.343    
  52.341      49.672      37.605      31.219      24.311      17.692      12.217      8.3977      6.0875      4.7039    
  3.9774      3.7553      3.9774      4.7042      6.0882      8.3982      12.216      17.689      24.307      31.218    
  37.609      42.827      46.291      47.511      46.284      42.819      29.690      23.670      17.692      12.546    
  8.7658      6.3608      4.8675      4.0075      3.6275      3.6275      4.0076      4.8681      6.3621      8.7668    
  12.544      17.688      23.665      29.689      34.996      38.955      41.077      41.074      38.949      34.992    
  21.808      16.732      12.217      8.7658      6.4575      4.9570      4.0338      3.5568      3.4116      3.5567    
  4.0338      4.9578      6.4595      8.7678      12.217      16.729      21.804      26.735      30.829      33.527    
  34.468      33.526      30.829      26.738      14.955      11.295      8.3977      6.3608      4.9570      4.0437    
  3.5255      3.2968      3.2967      3.5252      4.0433      4.9574      6.3627      8.4006      11.297      14.954    
  18.938      22.647      25.493      27.034      27.036      25.497      22.652      18.942      9.9578      7.7406    