fcc Au                                  
   4.10000000000000     
     0.000000    0.500000    0.500000
     0.500000    0.000000    0.500000
     0.500000    0.500000    0.000000
   Au
     1
Direct
  0.000000  0.000000  0.000000
 
   24   24   24
 0.83446188033E+02 0.80240333612E+02 0.71969740115E+02 0.61475404322E+02 0.50857610716E+02
 0.40592896689E+02 0.30549784688E+02 0.21253314944E+02 0.13844464906E+02 0.90345913276E+01
 0.64368281810E+01 0.50963252435E+01 0.46738766882E+01 0.50963252435E+01 0.64368281810E+01
 0.90345913276E+01 0.13844464906E+02 0.21253314944E+02 0.30549784688E+02 0.40592896689E+02
 0.50857610716E+02 0.61475404322E+02 0.71969740115E+02 0.80240333612E+02 0.80240333612E+02
 0.74528910775E+02 0.65281965243E+02 0.54994781043E+02 0.44837866428E+02 0.34840892735E+02
 0.25196091514E+02 0.16866864705E+02 0.10888685389E+02 0.74015284512E+01 0.55675556515E+01
 0.47238475596E+01 0.47238351101E+01 0.55674977570E+01 0.74013816260E+01 0.10888621754E+02
 0.16867634128E+02 0.25198584039E+02 0.34844562739E+02 0.44839703504E+02 0.54991093936E+02
 0.65272327273E+02 0.74518183422E+02 0.80235629202E+02 0.71969740115E+02 0.65281965243E+02
 0.56492024899E+02 0.47117545281E+02 0.37604614016E+02 0.28132417864E+02 0.19460669784E+02
 0.12703154300E+02 0.84063128647E+01 0.60780489392E+01 0.48571567138E+01 0.44751981041E+01
 0.48571579003E+01 0.60779287493E+01 0.84059242147E+01 0.12702884127E+02 0.19461787875E+02
 0.28135876299E+02 0.37608842981E+02 0.47118248621E+02 0.56485796580E+02 0.65270757362E+02
 0.71960790838E+02 0.74518183422E+02 0.61475404322E+02 0.54994781043E+02 0.47117545281E+02
 0.38558565270E+02 0.29689688284E+02 0.21198561021E+02 0.14151860989E+02 0.93165832291E+01
 0.65515135616E+01 0.50317112042E+01 0.43390292052E+01 0.43390723950E+01 0.50318086763E+01
 0.65514541993E+01 0.93160537576E+01 0.14151044300E+02 0.21198440405E+02 0.29691099072E+02
 0.38560782191E+02 0.47118436475E+02 0.54992998073E+02 0.61472246626E+02 0.65270757362E+02
 0.65272327273E+02 0.50857610716E+02 0.44837866428E+02 0.37604614016E+02 0.29689688284E+02
 0.21808348674E+02 0.14954835593E+02 0.99578130363E+01 0.69217822988E+01 0.51975137624E+01
 0.42811258121E+01 0.39990121286E+01 0.42812132406E+01 0.51978254570E+01 0.69222027393E+01
 0.99578047943E+01 0.14953888813E+02 0.21806660289E+02 0.29688285903E+02 0.37604647906E+02
 0.44839648343E+02 0.50860238204E+02 0.54992998073E+02 0.56485796580E+02 0.54991093936E+02
 0.40592896689E+02 0.34840892735E+02 0.28132417864E+02 0.21198561021E+02 0.14954835593E+02
 0.10189310562E+02 0.71278370440E+01 0.53132306121E+01 0.42641534465E+01 0.37977536627E+01
 0.37976812558E+01 0.42641399308E+01 0.53137196800E+01 0.71290354022E+01 0.10190706686E+02
 0.14955293094E+02 0.21197222400E+02 0.28129660231E+02 0.34838197284E+02 0.40591547676E+02
 0.44839648343E+02 0.47118436475E+02 0.47118248621E+02 0.44839703504E+02 0.30549784688E+02
 0.25196091514E+02 0.19460669784E+02 0.14151860989E+02 0.99578130363E+01 0.71278370440E+01
 0.53543624259E+01 0.42616758252E+01 0.36949296406E+01 0.35223223457E+01 0.36946103655E+01
 0.42612193415E+01 0.53543754560E+01 0.71291474849E+01 0.99605873348E+01 0.14154877131E+02
 0.19461763416E+02 0.25193688674E+02 0.30544242361E+02 0.34838197284E+02 0.37604647906E+02
 0.38560782191E+02 0.37608842981E+02 0.34844562739E+02 0.21253314944E+02 0.16866864705E+02
 0.12703154300E+02 0.93165832291E+01 0.69217822988E+01 0.53132306121E+01 0.42616758252E+01
 0.36636502036E+01 0.34002011276E+01 0.34001339938E+01 0.36631793168E+01 0.42604701777E+01
 0.53118057472E+01 0.69216625479E+01 0.93191034394E+01 0.12707730461E+02 0.16870601808E+02
 0.21253000411E+02 0.25193688674E+02 0.28129660231E+02 0.29688285903E+02 0.29691099072E+02
 0.28135876299E+02 0.25198584039E+02 0.13844464906E+02 0.10888685389E+02 0.84063128647E+01
 0.65515135616E+01 0.51975137624E+01 0.42641534465E+01 0.36949296406E+01 0.34002011276E+01
 0.33104929503E+01 0.34006048854E+01 0.36949341524E+01 0.42627679936E+01 0.51946988306E+01
 0.65489132914E+01 0.84062966548E+01 0.10892060814E+02 0.13849220448E+02 0.16870601808E+02
 0.19461763416E+02 0.21197222400E+02 0.21806660289E+02 0.21198440405E+02 0.19461787875E+02
 0.16867634128E+02 0.90345913276E+01 0.74015284512E+01 0.60780489392E+01 0.50317112042E+01
 0.42811258121E+01 0.37977536627E+01 0.35223223457E+01 0.34001339938E+01 0.34006048854E+01
 0.35236135107E+01 0.37991480924E+01 0.42811369770E+01 0.50291978335E+01 0.60737944529E+01
 0.73981830731E+01 0.90345713330E+01 0.10892060814E+02 0.12707730461E+02 0.14154877131E+02
 0.14955293094E+02 0.14953888813E+02 0.14151044300E+02 0.12702884127E+02 0.10888621754E+02
 0.64368281810E+01 0.55675556515E+01 0.48571567138E+01 0.43390292052E+01 0.39990121286E+01
 0.37976812558E+01 0.36946103655E+01 0.36631793168E+01 0.36949341524E+01 0.37991480924E+01
 0.40017777629E+01 0.43415590604E+01 0.48571768751E+01 0.55642531613E+01 0.64319981451E+01
 0.73981830731E+01 0.84062966548E+01 0.93191034394E+01 0.99605873348E+01 0.10190706686E+02
 0.99578047943E+01 0.93160537576E+01 0.84059242147E+01 0.74013816260E+01 0.50963252435E+01
 0.47238475596E+01 0.44751981041E+01 0.43390723950E+01 0.42812132406E+01 0.42641399308E+01
 0.42612193415E+01 0.42604701777E+01 0.42627679936E+01 0.42811369770E+01 0.43415590604E+01
 0.44794365387E+01 0.47271893392E+01 0.50963698111E+01 0.55642531613E+01 0.60737944529E+01
 0.65489132914E+01 0.69216625479E+01 0.71291474849E+01 0.71290354022E+01 0.69222027393E+01
 0.65514541993E+01 0.60779287493E+01 0.55674977570E+01 0.46738766882E+01 0.47238351101E+01
 0.48571579003E+01 0.50318086763E+01 0.51978254570E+01 0.53137196800E+01 0.53543754560E+01
 0.53118057472E+01 0.51946988306E+01 0.50291978335E+01 0.48571768751E+01 0.47271893392E+01
 0.46787670463E+01 0.47271893392E+01 0.48571768751E+01 0.50291978335E+01 0.51946988306E+01
 0.53118057472E+01 0.53543754560E+01 0.53137196800E+01 0.51978254570E+01 0.50318086763E+01
 0.48571579003E+01 0.47238351101E+01 0.50963252435E+01 0.55674977570E+01 0.60779287493E+01
 0.65514541993E+01 0.69222027393E+01 0.71290354022E+01 0.71291474849E+01 0.69216625479E+01
 0.65489132914E+01 0.60737944529E+01 0.55642531613E+01 0.50963698111E+01 0.47271893392E+01
 0.44794365387E+01 0.43415590604E+01 0.42811369770E+01 0.42627679936E+01 0.42604701777E+01
 0.42612193415E+01 0.42641399308E+01 0.42812132406E+01 0.43390723950E+01 0.44751981041E+01
 0.47238475596E+01 0.64368281810E+01 0.74013816260E+01 0.84059242147E+01 0.93160537576E+01
 0.99578047943E+01 0.10190706686E+02 0.99605873348E+01 0.93191034394E+01 0.84062966548E+01
 0.73981830731E+01 0.64319981451E+01 0.55642531613E+01 0.48571768751E+01 0.43415590604E+01
 0.40017777629E+01 0.37991480924E+01 0.36949341524E+01 0.36631793168E+01 0.36946103655E+01
 0.37976812558E+01 0.39990121286E+01 0.43390292052E+01 0.48571567138E+01 0.55675556515E+01
 0.90345913276E+01 0.10888621754E+02 0.12702884127E+02 0.14151044300E+02 0.14953888813E+02
 0.14955293094E+02 0.14154877131E+02 0.12707730461E+02 0.10892060814E+02 0.90345713330E+01
 0.73981830731E+01 0.60737944529E+01 0.50291978335E+01 0.42811369770E+01 0.37991480924E+01
 0.35236135107E+01 0.34006048854E+01 0.34001339938E+01 0.35223223457E+01 0.37977536627E+01
 0.42811258121E+01 0.50317112042E+01 0.60780489392E+01 0.74015284512E+01 0.13844464906E+02
 0.16867634128E+02 0.19461787875E+02 0.21198440405E+02 0.21806660289E+02 0.21197222400E+02
 0.19461763416E+02 0.16870601808E+02 0.13849220448E+02 0.10892060814E+02 0.84062966548E+01
 0.65489132914E+01 0.51946988306E+01 0.42627679936E+01 0.36949341524E+01 0.34006048854E+01
 0.33104929503E+01 0.34002011276E+01 0.36949296406E+01 0.42641534465E+01 0.51975137624E+01
 0.65515135616E+01 0.84063128647E+01 0.10888685389E+02 0.21253314944E+02 0.25198584039E+02
 0.28135876299E+02 0.29691099072E+02 0.29688285903E+02 0.28129660231E+02 0.25193688674E+02
 0.21253000411E+02 0.16870601808E+02 0.12707730461E+02 0.93191034394E+01 0.69216625479E+01
 0.53118057472E+01 0.42604701777E+01 0.36631793168E+01 0.34001339938E+01 0.34002011276E+01
 0.36636502036E+01 0.42616758252E+01 0.53132306121E+01 0.69217822988E+01 0.93165832291E+01
 0.12703154300E+02 0.16866864705E+02 0.30549784688E+02 0.34844562739E+02 0.37608842981E+02
 0.38560782191E+02 0.37604647906E+02 0.34838197284E+02 0.30544242361E+02 0.25193688674E+02
 0.19461763416E+02 0.14154877131E+02 0.99605873348E+01 0.71291474849E+01 0.53543754560E+01
 0.42612193415E+01 0.36946103655E+01 0.35223223457E+01 0.36949296406E+01 0.42616758252E+01
 0.53543624259E+01 0.71278370440E+01 0.99578130363E+01 0.14151860989E+02 0.19460669784E+02
 0.25196091514E+02 0.40592896689E+02 0.44839703504E+02 0.47118248621E+02 0.47118436475E+02
 0.44839648343E+02 0.40591547676E+02 0.34838197284E+02 0.28129660231E+02 0.21197222400E+02
 0.14955293094E+02 0.10190706686E+02 0.71290354022E+01 0.53137196800E+01 0.42641399308E+01
 0.37976812558E+01 0.37977536627E+01 0.42641534465E+01 0.53132306121E+01 0.71278370440E+01
 0.10189310562E+02 0.14954835593E+02 0.21198561021E+02 0.28132417864E+02 0.34840892735E+02
 0.50857610716E+02 0.54991093936E+02 0.56485796580E+02 0.54992998073E+02 0.50860238204E+02
 0.44839648343E+02 0.37604647906E+02 0.29688285903E+02 0.21806660289E+02 0.14953888813E+02
 0.99578047943E+01 0.69222027393E+01 0.51978254570E+01 0.42812132406E+01 0.39990121286E+01
 0.42811258121E+01 0.51975137624E+01 0.69217822988E+01 0.99578130363E+01 0.14954835593E+02
 0.21808348674E+02 0.29689688284E+02 0.37604614016E+02 0.44837866428E+02 0.61475404322E+02
 0.65272327273E+02 0.65270757362E+02 0.61472246626E+02 0.54992998073E+02 0.47118436475E+02
 0.38560782191E+02 0.29691099072E+02 0.21198440405E+02 0.14151044300E+02 0.93160537576E+01
 0.65514541993E+01 0.50318086763E+01 0.43390723950E+01 0.43390292052E+01 0.50317112042E+01
 0.65515135616E+01 0.93165832291E+01 0.14151860989E+02 0.21198561021E+02 0.29689688284E+02
 0.38558565270E+02 0.47117545281E+02 0.54994781043E+02 0.71969740115E+02 0.74518183422E+02
 0.71960790838E+02 0.65270757362E+02 0.56485796580E+02 0.47118248621E+02 0.37608842981E+02
 0.28135876299E+02 0.19461787875E+02 0.12702884127E+02 0.84059242147E+01 0.60779287493E+01
 0.48571579003E+01 0.44751981041E+01 0.48571567138E+01 0.60780489392E+01 0.84063128647E+01
 0.12703154300E+02 0.19460669784E+02 0.28132417864E+02 0.37604614016E+02 0.47117545281E+02
 0.56492024899E+02 0.65281965243E+02 0.80240333612E+02 0.80235629202E+02 0.74518183422E+02
 0.65272327273E+02 0.54991093936E+02 0.44839703504E+02 0.34844562739E+02 0.25198584039E+02
 0.16867634128E+02 0.10888621754E+02 0.74013816260E+01 0.55674977570E+01 0.47238351101E+01
 0.47238475596E+01 0.55675556515E+01 0.74015284512E+01 0.10888685389E+02 0.16866864705E+02
 0.25196091514E+02 0.34840892735E+02 0.44837866428E+02 0.54994781043E+02 0.65281965243E+02
 0.74528910775E+02 0.80240333612E+02 0.74528910775E+02 0.65281965243E+02 0.54994781043E+02
 0.44837866428E+02 0.34840892735E+02 0.25196091514E+02 0.16866864705E+02 0.10888685389E+02
 0.74015284512E+01 0.55675556515E+01 0.47238475596E+01 0.47238351101E+01 0.55674977570E+01
 0.74013816260E+01 0.10888621754E+02 0.16867634128E+02 0.25198584039E+02 0.34844562739E+02
 0.44839703504E+02 0.54991093936E+02 0.65272327273E+02 0.74518183422E+02 0.80235629202E+02
 0.74528910775E+02 0.67330422905E+02 0.57992937671E+02 0.48227725919E+02 0.38492263227E+02
 0.28861215957E+02 0.20011475876E+02 0.13060615608E+02 0.86079457009E+01 0.61979599220E+01
 0.49395561495E+01 0.45448932030E+01 0.49395598608E+01 0.61978017543E+01 0.86075221571E+01
 0.13060596564E+02 0.20013538838E+02 0.28866284574E+02 0.38497753359E+02 0.48227680860E+02
 0.57983081354E+02 0.67313952802E+02 0.74516054663E+02 0.77287169970E+02 0.65281965243E+02
 0.57992937671E+02 0.49418494360E+02 0.40405581761E+02 0.31218802067E+02 0.22394577574E+02
 0.14969601366E+02 0.97954809853E+01 0.68198002814E+01 0.52072056263E+01 0.44685873216E+01
 0.44686212969E+01 0.52072101256E+01 0.68194649158E+01 0.97946643858E+01 0.14969183006E+02
 0.22396314291E+02 0.31223163082E+02 0.40409649086E+02 0.49417451756E+02 0.57985039430E+02
 0.65271783223E+02 0.69635183090E+02 0.69639860152E+02 0.54994781043E+02 0.48227725919E+02
 0.40405581761E+02 0.32029139954E+02 0.23669854361E+02 0.16271237815E+02 0.10756735192E+02
 0.73625285364E+01 0.54716700225E+01 0.44653613275E+01 0.41540749819E+01 0.44654306608E+01
 0.54717761171E+01 0.73623099659E+01 0.10755749086E+02 0.16269791828E+02 0.23669209152E+02
 0.32030351484E+02 0.40408198940E+02 0.48230091288E+02 0.54995758271E+02 0.59814631424E+02
 0.61592675508E+02 0.59814636572E+02 0.44837866428E+02 0.38492263227E+02 0.31218802067E+02
 0.23669854361E+02 0.16732132515E+02 0.11295461470E+02 0.77406341720E+01 0.56796829991E+01
 0.44954520810E+01 0.39654267439E+01 0.39654187476E+01 0.44955906939E+01 0.56801507309E+01
 0.77411026995E+01 0.11295091780E+02 0.16730372326E+02 0.23667372923E+02 0.31217462190E+02
 0.38493777285E+02 0.44842117798E+02 0.49676852125E+02 0.52342928604E+02 0.52340920833E+02
 0.49672208575E+02 0.34840892735E+02 0.28861215957E+02 0.22394577574E+02 0.16271237815E+02
 0.11295461470E+02 0.78768707491E+01 0.57931236153E+01 0.45258652147E+01 0.38642376368E+01
 0.36623271949E+01 0.38640766192E+01 0.45258715105E+01 0.57937652475E+01 0.78782307080E+01
 0.11296770538E+02 0.16271249229E+02 0.22392795916E+02 0.28858668635E+02 0.34839301193E+02
 0.39666768317E+02 0.42821132074E+02 0.43921757481E+02 0.42820435667E+02 0.39666722256E+02
 0.25196091514E+02 0.20011475876E+02 0.14969601366E+02 0.10756735192E+02 0.77406341720E+01
 0.57931236153E+01 0.45378860828E+01 0.38209757932E+01 0.35049831230E+01 0.35048208734E+01
 0.38204536595E+01 0.45371987121E+01 0.57930475781E+01 0.77420655240E+01 0.10759617942E+02
 0.14972436893E+02 0.20012205148E+02 0.25193701977E+02 0.29784506297E+02 0.33185999413E+02
 0.34991297335E+02 0.34993071470E+02 0.33190352219E+02 0.29789071098E+02 0.16866864705E+02
 0.13060615608E+02 0.97954809853E+01 0.73625285364E+01 0.56796829991E+01 0.45258652147E+01
 0.38209757932E+01 0.34568386830E+01 0.33460042169E+01 0.34567671236E+01 0.38202804037E+01
 0.45242408502E+01 0.56779058266E+01 0.73622888995E+01 0.97979544631E+01 0.13064929173E+02
 0.16870246321E+02 0.20670531809E+02 0.23872903734E+02 0.25994588463E+02 0.26736394934E+02
 0.25997554355E+02 0.23875886306E+02 0.20670498062E+02 0.10888685389E+02 0.86079457009E+01
 0.68198002814E+01 0.54716700225E+01 0.44954520810E+01 0.38642376368E+01 0.35049831230E+01
 0.33460042169E+01 0.33463672875E+01 0.35056856117E+01 0.38642495629E+01 0.44937464951E+01
 0.54684096931E+01 0.68168747476E+01 0.86077161589E+01 0.10891795536E+02 0.13464730693E+02
 0.15936737044E+02 0.17876862145E+02 0.18939994920E+02 0.18939666319E+02 0.17875252826E+02
 0.15933121474E+02 0.13460099450E+02 0.74015284512E+01 0.61979599220E+01 0.52072056263E+01
 0.44653613275E+01 0.39654267439E+01 0.36623271949E+01 0.35048208734E+01 0.34567671236E+01
 0.35056856117E+01 0.36640279164E+01 0.39671197715E+01 0.44653633871E+01 0.52044443361E+01
 0.61934764594E+01 0.73980917788E+01 0.88157821885E+01 0.10329612840E+02 0.11698239429E+02
 0.12653750940E+02 0.12995457971E+02 0.12650454547E+02 0.11693464831E+02 0.10326164386E+02
 0.88158155950E+01 0.55675556515E+01 0.49395561495E+01 0.44685873216E+01 0.41540749819E+01
 0.39654187476E+01 0.38640766192E+01 0.38204536595E+01 0.38202804037E+01 0.38642495629E+01
 0.39671197715E+01 0.41572578196E+01 0.44713623212E+01 0.49395708649E+01 0.55642244414E+01
 0.63040578253E+01 0.70861111060E+01 0.78419756806E+01 0.84566471271E+01 0.88032568654E+01
 0.88020789086E+01 0.84545014945E+01 0.78416477007E+01 0.70889976128E+01 0.63087035754E+01
 0.47238475596E+01 0.45448932030E+01 0.44686212969E+01 0.44654306608E+01 0.44955906939E+01
 0.45258715105E+01 0.45371987121E+01 0.45242408502E+01 0.44937464951E+01 0.44653633871E+01
 0.44713623212E+01 0.45493119467E+01 0.47271645265E+01 0.50077016794E+01 0.53615394714E+01
 0.57332256965E+01 0.60573659419E+01 0.62769228173E+01 0.63549229205E+01 0.62777709967E+01
 0.60597496880E+01 0.57369056909E+01 0.53645153279E+01 0.50076780231E+01 0.47238351101E+01
 0.49395598608E+01 0.52072101256E+01 0.54717761171E+01 0.56801507309E+01 0.57937652475E+01
 0.57930475781E+01 0.56779058266E+01 0.54684096931E+01 0.52044443361E+01 0.49395708649E+01
 0.47271645265E+01 0.46034382999E+01 0.45758367879E+01 0.46231307730E+01 0.47068765224E+01
 0.47873423255E+01 0.48353672344E+01 0.48363834921E+01 0.47898046844E+01 0.47091227749E+01
 0.46231401885E+01 0.45727711694E+01 0.45987716055E+01 0.55674977570E+01 0.61978017543E+01
 0.68194649158E+01 0.73623099659E+01 0.77411026995E+01 0.78782307080E+01 0.77420655240E+01
 0.73622888995E+01 0.68168747476E+01 0.61934764594E+01 0.55642244414E+01 0.50077016794E+01
 0.45758367879E+01 0.42806788663E+01 0.41021204167E+01 0.40061096233E+01 0.39617022635E+01
 0.39494464556E+01 0.39624177249E+01 0.40061101689E+01 0.41000694841E+01 0.42769868166E+01
 0.45727894958E+01 0.50076780231E+01 0.74013816260E+01 0.86075221571E+01 0.97946643858E+01
 0.10755749086E+02 0.11295091780E+02 0.11296770538E+02 0.10759617942E+02 0.97979544631E+01
 0.86077161589E+01 0.73980917788E+01 0.63040578253E+01 0.53615394714E+01 0.46231307730E+01
 0.41021204167E+01 0.37685308505E+01 0.35777848156E+01 0.34924516179E+01 0.34921800902E+01
 0.35766528414E+01 0.37663623333E+01 0.41000236063E+01 0.46231119379E+01 0.53645712569E+01
 0.63087035754E+01 0.10888621754E+02 0.13060596564E+02 0.14969183006E+02 0.16269791828E+02
 0.16730372326E+02 0.16271249229E+02 0.14972436893E+02 0.13064929173E+02 0.10891795536E+02
 0.88157821885E+01 0.70861111060E+01 0.57332256965E+01 0.47068765224E+01 0.40061096233E+01
 0.35777848156E+01 0.33539780703E+01 0.32849457522E+01 0.33531920110E+01 0.35767868655E+01
 0.40061054194E+01 0.47089447112E+01 0.57369140767E+01 0.70891416171E+01 0.88158155950E+01
 0.16867634128E+02 0.20013538838E+02 0.22396314291E+02 0.23669209152E+02 0.23667372923E+02
 0.22392795916E+02 0.20012205148E+02 0.16870246321E+02 0.13464730693E+02 0.10329612840E+02
 0.78419756806E+01 0.60573659419E+01 0.47873423255E+01 0.39617022635E+01 0.34924516179E+01
 0.32849457522E+01 0.32848127576E+01 0.34924665407E+01 0.39626902083E+01 0.47895119216E+01
 0.60594866709E+01 0.78419334539E+01 0.10326411947E+02 0.13460099450E+02 0.25198584039E+02
 0.28866284574E+02 0.31223163082E+02 0.32030351484E+02 0.31217462190E+02 0.28858668635E+02
 0.25193701977E+02 0.20670531809E+02 0.15936737044E+02 0.11698239429E+02 0.84566471271E+01
 0.62769228173E+01 0.48353672344E+01 0.39494464556E+01 0.34921800902E+01 0.33531920110E+01
 0.34924665407E+01 0.39502142398E+01 0.48363316974E+01 0.62769499578E+01 0.84545343488E+01
 0.11694208853E+02 0.15933127952E+02 0.20670498062E+02 0.34844562739E+02 0.38497753359E+02
 0.40409649086E+02 0.40408198940E+02 0.38493777285E+02 0.34839301193E+02 0.29784506297E+02
 0.23872903734E+02 0.17876862145E+02 0.12653750940E+02 0.88032568654E+01 0.63549229205E+01
 0.48363834921E+01 0.39624177249E+01 0.35766528414E+01 0.35767868655E+01 0.39626902083E+01
 0.48363316974E+01 0.63538825997E+01 0.88010489472E+01 0.12651353427E+02 0.17876074621E+02
 0.23874985054E+02 0.29789071098E+02 0.44839703504E+02 0.48227680860E+02 0.49417451756E+02
 0.48230091288E+02 0.44842117798E+02 0.39666768317E+02 0.33185999413E+02 0.25994588463E+02
 0.18939994920E+02 0.12995457971E+02 0.88020789086E+01 0.62777709967E+01 0.47898046844E+01
 0.40061101689E+01 0.37663623333E+01 0.40061054194E+01 0.47895119216E+01 0.62769499578E+01
 0.88010489472E+01 0.12995246266E+02 0.18941557850E+02 0.25997555606E+02 0.33188431943E+02
 0.39666722256E+02 0.54991093936E+02 0.57983081354E+02 0.57985039430E+02 0.54995758271E+02
 0.49676852125E+02 0.42821132074E+02 0.34991297335E+02 0.26736394934E+02 0.18939666319E+02
 0.12650454547E+02 0.84545014945E+01 0.60597496880E+01 0.47091227749E+01 0.41000694841E+01
 0.41000236063E+01 0.47089447112E+01 0.60594866709E+01 0.84545343488E+01 0.12651353427E+02
 0.18941557850E+02 0.26738392457E+02 0.34991747329E+02 0.42818803589E+02 0.49672208575E+02
 0.65272327273E+02 0.67313952802E+02 0.65271783223E+02 0.59814631424E+02 0.52342928604E+02
 0.43921757481E+02 0.34993071470E+02 0.25997554355E+02 0.17875252826E+02 0.11693464831E+02
 0.78416477007E+01 0.57369056909E+01 0.46231401885E+01 0.42769868166E+01 0.46231119379E+01
 0.57369140767E+01 0.78419334539E+01 0.11694208853E+02 0.17876074621E+02 0.25997555606E+02
 0.34991747329E+02 0.43919779018E+02 0.52341640945E+02 0.59814636572E+02 0.74518183422E+02
 0.74516054663E+02 0.69635183090E+02 0.61592675508E+02 0.52340920833E+02 0.42820435667E+02
 0.33190352219E+02 0.23875886306E+02 0.15933121474E+02 0.10326164386E+02 0.70889976128E+01
 0.53645153279E+01 0.45727711694E+01 0.45727894958E+01 0.53645712569E+01 0.70891416171E+01
 0.10326411947E+02 0.15933127952E+02 0.23874985054E+02 0.33188431943E+02 0.42818803589E+02
 0.52341640945E+02 0.61596422296E+02 0.69639860152E+02 0.80235629202E+02 0.77287169970E+02
 0.69639860152E+02 0.59814636572E+02 0.49672208575E+02 0.39666722256E+02 0.29789071098E+02
 0.20670498062E+02 0.13460099450E+02 0.88158155950E+01 0.63087035754E+01 0.50076780231E+01
 0.45987716055E+01 0.50076780231E+01 0.63087035754E+01 0.88158155950E+01 0.13460099450E+02
 0.20670498062E+02 0.29789071098E+02 0.39666722256E+02 0.49672208575E+02 0.59814636572E+02
 0.69639860152E+02 0.77287169970E+02 0.71969740115E+02 0.65281965243E+02 0.56492024899E+02
 0.47117545281E+02 0.37604614016E+02 0.28132417864E+02 0.19460669784E+02 0.12703154300E+02
 0.84063128647E+01 0.60780489392E+01 0.48571567138E+01 0.44751981041E+01 0.48571579003E+01
 0.60779287493E+01 0.84059242147E+01 0.12702884127E+02 0.19461787875E+02 0.28135876299E+02
 0.37608842981E+02 0.47118248621E+02 0.56485796580E+02 0.65270757362E+02 0.71960790838E+02
 0.74518183422E+02 0.65281965243E+02 0.57992937671E+02 0.49418494360E+02 0.40405581761E+02
 0.31218802067E+02 0.22394577574E+02 0.14969601366E+02 0.97954809853E+01 0.68198002814E+01
 0.52072056263E+01 0.44685873216E+01 0.44686212969E+01 0.52072101256E+01 0.68194649158E+01
 0.97946643858E+01 0.14969183006E+02 0.22396314291E+02 0.31223163082E+02 0.40409649086E+02
 0.49417451756E+02 0.57985039430E+02 0.65271783223E+02 0.69635183090E+02 0.69639860152E+02
 0.56492024899E+02 0.49418494360E+02 0.41365289580E+02 0.32825972952E+02 0.24311048590E+02
 0.16733023845E+02 0.11041674393E+02 0.75198467299E+01 0.55683813727E+01 0.45303168113E+01
 0.42086161514E+01 0.45303576584E+01 0.55683524132E+01 0.75193055080E+01 0.11040283367E+02
 0.16731498027E+02 0.24311076929E+02 0.32828492335E+02 0.41369009160E+02 0.49420862273E+02
 0.56491923932E+02 0.61595327333E+02 0.63492022185E+02 0.61596422296E+02 0.47117545281E+02
 0.40405581761E+02 0.32825972952E+02 0.24973943525E+02 0.17692471365E+02 0.11907490580E+02
 0.80819588999E+01 0.58791011516E+01 0.46215248110E+01 0.40562912306E+01 0.40562954714E+01
 0.46216513121E+01 0.58793284727E+01 0.80816454649E+01 0.11905743060E+02 0.17689344106E+02
 0.24971212745E+02 0.32826325817E+02 0.40410548273E+02 0.47125836289E+02 0.52349434185E+02
 0.55279286341E+02 0.55276103008E+02 0.52341640945E+02 0.37604614016E+02 0.31218802067E+02
 0.24311048590E+02 0.17692471365E+02 0.12217351820E+02 0.83977169266E+01 0.60874744592E+01
 0.47038829166E+01 0.39773953000E+01 0.37552754188E+01 0.39773978247E+01 0.47041874403E+01
 0.60882034268E+01 0.83982239311E+01 0.12216334016E+02 0.17689288763E+02 0.24307263290E+02
 0.31217837357E+02 0.37608883536E+02 0.42826713267E+02 0.46290798823E+02 0.47511000544E+02
 0.46284486835E+02 0.42818803589E+02 0.28132417864E+02 0.22394577574E+02 0.16733023845E+02
 0.11907490580E+02 0.83977169266E+01 0.61606930861E+01 0.47511616604E+01 0.39418190750E+01
 0.35845522231E+01 0.35844435092E+01 0.39416016036E+01 0.47512377389E+01 0.61615694052E+01
 0.83992511508E+01 0.11908472124E+02 0.16732141289E+02 0.22392060535E+02 0.28130220627E+02
 0.33188274680E+02 0.36946123428E+02 0.38950511669E+02 0.38949642478E+02 0.36944709944E+02
 0.33188431943E+02 0.19460669784E+02 0.14969601366E+02 0.11041674393E+02 0.80819588999E+01
 0.60874744592E+01 0.47511616604E+01 0.39318108558E+01 0.35086872805E+01 0.33798626039E+01
 0.35083997102E+01 0.39311031740E+01 0.47503486532E+01 0.60874825510E+01 0.80835130083E+01
 0.11044307990E+02 0.14971693840E+02 0.19460672613E+02 0.23872690168E+02 0.27553410379E+02
 0.29980576771E+02 0.30827432053E+02 0.29982884690E+02 0.27556681058E+02 0.23874985054E+02
 0.12703154300E+02 0.97954809853E+01 0.75198467299E+01 0.58791011516E+01 0.47038829166E+01
 0.39418190750E+01 0.35086872805E+01 0.33172438699E+01 0.33173575240E+01 0.35086640806E+01
 0.39409572339E+01 0.47020203776E+01 0.58772153551E+01 0.75195667185E+01 0.97976437830E+01
 0.12706718292E+02 0.15935812411E+02 0.18989987016E+02 0.21358756149E+02 0.22648115224E+02
 0.22648903723E+02 0.21360019634E+02 0.18989646972E+02 0.15933127952E+02 0.84063128647E+01
 0.68198002814E+01 0.55683813727E+01 0.46215248110E+01 0.39773953000E+01 0.35845522231E+01
 0.33798626039E+01 0.33173575240E+01 0.33806224524E+01 0.35854850416E+01 0.39773926542E+01
 0.46196551631E+01 0.55650204190E+01 0.68168720602E+01 0.84059109765E+01 0.10329006380E+02
 0.12377059868E+02 0.14209499559E+02 0.15477389523E+02 0.15929513330E+02 0.15475482123E+02
 0.14205915208E+02 0.12372954556E+02 0.10326411947E+02 0.60780489392E+01 0.52072056263E+01
 0.45303168113E+01 0.40562912306E+01 0.37552754188E+01 0.35844435092E+01 0.35083997102E+01
 0.35086640806E+01 0.35854850416E+01 0.37572075836E+01 0.40581464233E+01 0.45303419688E+01
 0.52044797871E+01 0.60737502958E+01 0.70859339335E+01 0.82032434713E+01 0.93130542982E+01
 0.10220631290E+02 0.10732301313E+02 0.10730692174E+02 0.10216985385E+02 0.93100915967E+01
 0.82032773825E+01 0.70891416171E+01 0.48571567138E+01 0.44685873216E+01 0.42086161514E+01
 0.40562954714E+01 0.39773978247E+01 0.39416016036E+01 0.39311031740E+01 0.39409572339E+01
 0.39773926542E+01 0.40581464233E+01 0.42119723586E+01 0.44713686576E+01 0.48571524145E+01
 0.53614952096E+01 0.59396987869E+01 0.65177575056E+01 0.70224078870E+01 0.73746799254E+01
 0.75013159707E+01 0.73737414416E+01 0.70223941301E+01 0.65201794787E+01 0.59437620207E+01
 0.53645712569E+01 0.44751981041E+01 0.44686212969E+01 0.45303576584E+01 0.46216513121E+01
 0.47041874403E+01 0.47512377389E+01 0.47503486532E+01 0.47020203776E+01 0.46196551631E+01
 0.45303419688E+01 0.44713686576E+01 0.44793997381E+01 0.45757858346E+01 0.47557855502E+01
 0.49879043572E+01 0.52237926937E+01 0.54134528264E+01 0.55185079612E+01 0.55191273312E+01
 0.54154224873E+01 0.52267978399E+01 0.49904051101E+01 0.47557918647E+01 0.45727894958E+01
 0.48571579003E+01 0.52072101256E+01 0.55683524132E+01 0.58793284727E+01 0.60882034268E+01
 0.61615694052E+01 0.60874825510E+01 0.58772153551E+01 0.55650204190E+01 0.52044797871E+01
 0.48571524145E+01 0.45757858346E+01 0.43891906023E+01 0.42964551978E+01 0.42732793281E+01
 0.42861713691E+01 0.43060961012E+01 0.43152715964E+01 0.43075683830E+01 0.42878297117E+01
 0.42733144022E+01 0.42939316752E+01 0.43851491696E+01 0.45727711694E+01 0.60779287493E+01
 0.68194649158E+01 0.75193055080E+01 0.80816454649E+01 0.83982239311E+01 0.83992511508E+01
 0.80835130083E+01 0.75195667185E+01 0.68168720602E+01 0.60737502958E+01 0.53614952096E+01
 0.47557855502E+01 0.42964551978E+01 0.39825244690E+01 0.37873024193E+01 0.36781889108E+01
 0.36301809742E+01 0.36303562613E+01 0.36780640084E+01 0.37857709373E+01 0.39796321646E+01
 0.42939450934E+01 0.47557918647E+01 0.53645153279E+01 0.84059242147E+01 0.97946643858E+01
 0.11040283367E+02 0.11905743060E+02 0.12216334016E+02 0.11908472124E+02 0.11044307990E+02
 0.97976437830E+01 0.84059109765E+01 0.70859339335E+01 0.59396987869E+01 0.49879043572E+01
 0.42732793281E+01 0.37873024193E+01 0.34880314646E+01 0.33296987179E+01 0.32804189628E+01
 0.33289512096E+01 0.34865160708E+01 0.37857659046E+01 0.42732802527E+01 0.49904304528E+01
 0.59437620207E+01 0.70889976128E+01 0.12702884127E+02 0.14969183006E+02 0.16731498027E+02
 0.17689344106E+02 0.17689288763E+02 0.16732141289E+02 0.14971693840E+02 0.12706718292E+02
 0.10329006380E+02 0.82032434713E+01 0.65177575056E+01 0.52237926937E+01 0.42861713691E+01
 0.36781889108E+01 0.33296987179E+01 0.31739919661E+01 0.31736749149E+01 0.33290845100E+01
 0.36781899523E+01 0.42877063339E+01 0.52266916335E+01 0.65202736479E+01 0.82032773825E+01
 0.10326164386E+02 0.19461787875E+02 0.22396314291E+02 0.24311076929E+02 0.24971212745E+02
 0.24307263290E+02 0.22392060535E+02 0.19460672613E+02 0.15935812411E+02 0.12377059868E+02
 0.93130542982E+01 0.70224078870E+01 0.54134528264E+01 0.43060961012E+01 0.36301809742E+01
 0.32804189628E+01 0.31736749149E+01 0.32804734902E+01 0.36308010023E+01 0.43075530802E+01
 0.54149875169E+01 0.70224041833E+01 0.93104705776E+01 0.12372954556E+02 0.15933121474E+02
 0.28135876299E+02 0.31223163082E+02 0.32828492335E+02 0.32826325817E+02 0.31217837357E+02
 0.28130220627E+02 0.23872690168E+02 0.18989987016E+02 0.14209499559E+02 0.10220631290E+02
 0.73746799254E+01 0.55185079612E+01 0.43152715964E+01 0.36303562613E+01 0.33289512096E+01
 0.33290845100E+01 0.36308010023E+01 0.43158555968E+01 0.55184737289E+01 0.73731422602E+01
 0.10217680131E+02 0.14206739556E+02 0.18989646972E+02 0.23875886306E+02 0.37608842981E+02
 0.40409649086E+02 0.41369009160E+02 0.40410548273E+02 0.37608883536E+02 0.33188274680E+02
 0.27553410379E+02 0.21358756149E+02 0.15477389523E+02 0.10732301313E+02 0.75013159707E+01
 0.55191273312E+01 0.43075683830E+01 0.36780640084E+01 0.34865160708E+01 0.36781899523E+01
 0.43075530802E+01 0.55184737289E+01 0.74998316013E+01 0.10730800296E+02 0.15477406481E+02
 0.21361011609E+02 0.27556681058E+02 0.33190352219E+02 0.47118248621E+02 0.49417451756E+02
 0.49420862273E+02 0.47125836289E+02 0.42826713267E+02 0.36946123428E+02 0.29980576771E+02
 0.22648115224E+02 0.15929513330E+02 0.10730692174E+02 0.73737414416E+01 0.54154224873E+01
 0.42878297117E+01 0.37857709373E+01 0.37857659046E+01 0.42877063339E+01 0.54149875169E+01
 0.73731422602E+01 0.10730800296E+02 0.15931433508E+02 0.22651657118E+02 0.29983276128E+02