   1   1   1   0
  0.1723025E+02  0.2899138E-09  0.2899138E-09  0.2899138E-09  0.5000000E-15
  1.000000000000000E-004
  CAR 
 fcc Au                                  
     36.99494999     -6.32363146  301      5.35065873      1.00000000
     -6.324  0.0000E+00  0.0000E+00
     -6.179  0.0000E+00  0.0000E+00
     -6.035 -0.1077E-32 -0.1555E-33
     -5.890 -0.1359E-27 -0.1962E-28
     -5.746 -0.5990E-23 -0.8650E-24
     -5.602 -0.9217E-19 -0.1331E-19
     -5.457 -0.4782E-15 -0.6906E-16
     -5.313 -0.8797E-12 -0.1271E-12
     -5.168 -0.5548E-09 -0.8024E-10
     -5.024 -0.1183E-06 -0.1716E-07
     -4.880 -0.8282E-05 -0.1213E-05
     -4.735 -0.1767E-03 -0.2672E-04
     -4.591 -0.8577E-03 -0.1506E-03
     -4.446  0.1725E-02  0.9853E-04
     -4.302  0.1290E-01  0.1962E-02
     -4.158  0.3203E-01  0.6587E-02
     -4.013  0.5242E-01  0.1416E-01
     -3.869  0.5477E-01  0.2206E-01
     -3.725  0.5931E-01  0.3063E-01
     -3.580  0.7822E-01  0.4192E-01
     -3.436  0.1060E+00  0.5722E-01
     -3.291  0.9619E-01  0.7111E-01
     -3.147  0.6770E-01  0.8089E-01
     -3.003  0.1130E+00  0.9721E-01
     -2.858  0.1728E+00  0.1222E+00
     -2.714  0.1449E+00  0.1431E+00
     -2.569  0.1099E+00  0.1590E+00
     -2.425  0.1772E+00  0.1845E+00
     -2.281  0.1985E+00  0.2132E+00
     -2.136  0.1974E+00  0.2417E+00
     -1.992  0.2813E+00  0.2823E+00
     -1.847  0.4391E+00  0.3457E+00
     -1.703  0.5776E+00  0.4291E+00
     -1.559  0.6596E+00  0.5244E+00
     -1.414  0.9681E+00  0.6642E+00
     -1.270  0.1246E+01  0.8441E+00
     -1.125  0.1571E+01  0.1071E+01
     -0.981  0.1827E+01  0.1335E+01
     -0.837  0.1850E+01  0.1602E+01
     -0.692  0.1768E+01  0.1857E+01
     -0.548  0.1564E+01  0.2083E+01
     -0.403  0.1571E+01  0.2310E+01
     -0.259  0.1272E+01  0.2494E+01
     -0.115  0.1248E+01  0.2674E+01
      0.030  0.1703E+01  0.2920E+01
      0.174  0.1903E+01  0.3195E+01
      0.319  0.1930E+01  0.3473E+01
      0.463  0.1892E+01  0.3746E+01
      0.607  0.2190E+01  0.4063E+01
      0.752  0.2267E+01  0.4390E+01
      0.896  0.2384E+01  0.4734E+01
      1.041  0.3021E+01  0.5170E+01
      1.185  0.3172E+01  0.5628E+01
      1.329  0.2287E+01  0.5958E+01
      1.474  0.1608E+01  0.6191E+01
      1.618  0.1493E+01  0.6406E+01
      1.763  0.1686E+01  0.6650E+01
      1.907  0.1824E+01  0.6913E+01
      2.051  0.2223E+01  0.7234E+01
      2.196  0.2136E+01  0.7543E+01
      2.340  0.1746E+01  0.7795E+01
      2.484  0.1998E+01  0.8083E+01
      2.629  0.1776E+01  0.8340E+01
      2.773  0.1420E+01  0.8545E+01
      2.918  0.1745E+01  0.8797E+01
      3.062  0.1700E+01  0.9042E+01
      3.206  0.2080E+01  0.9342E+01
      3.351  0.2679E+01  0.9729E+01
      3.495  0.2567E+01  0.1010E+02
      3.640  0.1810E+01  0.1036E+02
      3.784  0.1124E+01  0.1052E+02
      3.928  0.6025E+00  0.1061E+02
      4.073  0.1504E+00  0.1063E+02
      4.217  0.4806E-01  0.1064E+02
      4.362  0.2639E+00  0.1068E+02
      4.506  0.4762E+00  0.1075E+02
      4.650  0.3518E+00  0.1080E+02
      4.795  0.1758E+00  0.1082E+02
      4.939  0.1630E+00  0.1085E+02
      5.084  0.3842E+00  0.1090E+02
      5.228  0.4470E+00  0.1097E+02
      5.372  0.2647E+00  0.1100E+02
      5.517  0.1799E+00  0.1103E+02
      5.661  0.1987E+00  0.1106E+02
      5.806  0.2058E+00  0.1109E+02
      5.950  0.3922E+00  0.1115E+02
      6.094  0.3907E+00  0.1120E+02
      6.239  0.2674E+00  0.1124E+02
      6.383  0.3160E+00  0.1129E+02
      6.528  0.2611E+00  0.1132E+02
      6.672  0.1908E+00  0.1135E+02
      6.816  0.2015E+00  0.1138E+02
      6.961  0.2714E+00  0.1142E+02
      7.105  0.3609E+00  0.1147E+02
      7.250  0.3483E+00  0.1152E+02
      7.394  0.2539E+00  0.1156E+02
      7.538  0.1473E+00  0.1158E+02
      7.683  0.1833E+00  0.1161E+02
      7.827  0.3583E+00  0.1166E+02
      7.972  0.3017E+00  0.1170E+02
      8.116  0.2128E+00  0.1173E+02
      8.260  0.1749E+00  0.1176E+02
      8.405  0.2805E+00  0.1180E+02
      8.549  0.5738E+00  0.1188E+02
      8.693  0.5654E+00  0.1196E+02
      8.838  0.2718E+00  0.1200E+02
      8.982  0.1048E+00  0.1202E+02
      9.127  0.2523E+00  0.1205E+02
      9.271  0.4478E+00  0.1212E+02
      9.415  0.3938E+00  0.1217E+02
      9.560  0.3354E+00  0.1222E+02
      9.704  0.2467E+00  0.1226E+02
      9.849  0.1459E+00  0.1228E+02
      9.993  0.1519E+00  0.1230E+02
     10.137  0.2880E+00  0.1234E+02
     10.282  0.4729E+00  0.1241E+02
     10.426  0.4069E+00  0.1247E+02
     10.571  0.3117E+00  0.1252E+02
     10.715  0.3138E+00  0.1256E+02
     10.859  0.2973E+00  0.1260E+02
     11.004  0.3727E+00  0.1266E+02
     11.148  0.4748E+00  0.1273E+02
     11.293  0.3860E+00  0.1278E+02
     11.437  0.3524E+00  0.1283E+02
     11.581  0.2765E+00  0.1287E+02
     11.726  0.1582E+00  0.1290E+02
     11.870  0.2435E+00  0.1293E+02
     12.015  0.4773E+00  0.1300E+02
     12.159  0.4071E+00  0.1306E+02
     12.303  0.9996E-01  0.1307E+02
     12.448  0.7019E-01  0.1308E+02
     12.592  0.3320E+00  0.1313E+02
     12.737  0.4201E+00  0.1319E+02
     12.881  0.2875E+00  0.1323E+02
     13.025  0.4179E+00  0.1329E+02
     13.170  0.4454E+00  0.1336E+02
     13.314  0.4417E+00  0.1342E+02
     13.459  0.6116E+00  0.1351E+02
     13.603  0.3769E+00  0.1356E+02
     13.747  0.3104E-01  0.1357E+02
     13.892  0.2719E-01  0.1357E+02
     14.036  0.3298E+00  0.1362E+02
     14.180  0.5379E+00  0.1370E+02
     14.325  0.3602E+00  0.1375E+02
     14.469  0.2567E+00  0.1379E+02
     14.614  0.3937E+00  0.1384E+02
     14.758  0.5417E+00  0.1392E+02
     14.902  0.4454E+00  0.1399E+02
     15.047  0.4190E+00  0.1405E+02
     15.191  0.4109E+00  0.1411E+02
     15.336  0.3792E+00  0.1416E+02
     15.480  0.4526E+00  0.1423E+02
     15.624  0.4486E+00  0.1429E+02
     15.769  0.4294E+00  0.1435E+02
     15.913  0.5227E+00  0.1443E+02
     16.058  0.7170E+00  0.1453E+02
     16.202  0.5816E+00  0.1462E+02
     16.346  0.2275E+00  0.1465E+02
     16.491  0.2960E+00  0.1469E+02
     16.635  0.4081E+00  0.1475E+02
     16.780  0.5120E+00  0.1482E+02
     16.924  0.7110E+00  0.1493E+02
     17.068  0.7922E+00  0.1504E+02
     17.213  0.7659E+00  0.1515E+02
     17.357  0.4118E+00  0.1521E+02
     17.502  0.1771E+00  0.1524E+02
     17.646  0.2161E+00  0.1527E+02
     17.790  0.4654E+00  0.1534E+02
     17.935  0.5646E+00  0.1542E+02
     18.079  0.4705E+00  0.1549E+02
     18.224  0.5363E+00  0.1556E+02
     18.368  0.5397E+00  0.1564E+02
     18.512  0.4398E+00  0.1570E+02
     18.657  0.4577E+00  0.1577E+02
     18.801  0.6552E+00  0.1586E+02
     18.946  0.4598E+00  0.1593E+02
     19.090  0.3676E+00  0.1598E+02
     19.234  0.5254E+00  0.1606E+02
     19.379  0.5828E+00  0.1614E+02
     19.523  0.4260E+00  0.1621E+02
     19.668  0.4288E+00  0.1627E+02
     19.812  0.6557E+00  0.1636E+02
     19.956  0.4495E+00  0.1643E+02
     20.101  0.2699E+00  0.1647E+02
     20.245  0.4901E+00  0.1654E+02
     20.389  0.7584E+00  0.1665E+02
     20.534  0.6188E+00  0.1674E+02
     20.678  0.4869E+00  0.1681E+02
     20.823  0.5945E+00  0.1689E+02
     20.967  0.6852E+00  0.1699E+02
     21.111  0.6739E+00  0.1709E+02
     21.256  0.4857E+00  0.1716E+02
     21.400  0.4809E+00  0.1723E+02
     21.545  0.5402E+00  0.1731E+02
     21.689  0.4784E+00  0.1737E+02
     21.833  0.3766E+00  0.1743E+02
     21.978  0.3153E+00  0.1747E+02
     22.122  0.3623E+00  0.1753E+02
     22.267  0.6757E+00  0.1762E+02
     22.411  0.8926E+00  0.1775E+02
     22.555  0.9353E+00  0.1789E+02
     22.700  0.8106E+00  0.1801E+02
     22.844  0.6385E+00  0.1810E+02
     22.989  0.6408E+00  0.1819E+02
     23.133  0.7074E+00  0.1829E+02
     23.277  0.8891E+00  0.1842E+02
     23.422  0.1060E+01  0.1857E+02
     23.566  0.8143E+00  0.1869E+02
     23.711  0.7124E+00  0.1879E+02
     23.855  0.7161E+00  0.1890E+02
     23.999  0.5998E+00  0.1898E+02
     24.144  0.5359E+00  0.1906E+02
     24.288  0.5625E+00  0.1914E+02
     24.433  0.6537E+00  0.1924E+02
     24.577  0.8185E+00  0.1936E+02
     24.721  0.8800E+00  0.1948E+02
     24.866  0.6611E+00  0.1958E+02
     25.010  0.4138E+00  0.1964E+02
     25.155  0.2975E+00  0.1968E+02
     25.299  0.4720E+00  0.1975E+02
     25.443  0.6613E+00  0.1984E+02
     25.588  0.6973E+00  0.1995E+02
     25.732  0.5118E+00  0.2002E+02
     25.877  0.2817E+00  0.2006E+02
     26.021  0.2591E+00  0.2010E+02
     26.165  0.2839E+00  0.2014E+02
     26.310  0.4580E+00  0.2020E+02
     26.454  0.5466E+00  0.2028E+02
     26.598  0.4494E+00  0.2035E+02
     26.743  0.4318E+00  0.2041E+02
     26.887  0.3909E+00  0.2047E+02
     27.032  0.3451E+00  0.2052E+02
     27.176  0.2816E+00  0.2056E+02
     27.320  0.1776E+00  0.2058E+02
     27.465  0.3230E+00  0.2063E+02
     27.609  0.4696E+00  0.2070E+02
     27.754  0.4436E+00  0.2076E+02
     27.898  0.5710E+00  0.2084E+02
     28.042  0.7529E+00  0.2095E+02
     28.187  0.5014E+00  0.2103E+02
     28.331  0.3216E+00  0.2107E+02
     28.476  0.2615E+00  0.2111E+02
     28.620  0.8919E-01  0.2112E+02
     28.764  0.2522E+00  0.2116E+02
     28.909  0.6542E+00  0.2125E+02
     29.053  0.6788E+00  0.2135E+02
     29.198  0.4616E+00  0.2142E+02
     29.342  0.3685E+00  0.2147E+02
     29.486  0.5649E+00  0.2155E+02
     29.631  0.8727E+00  0.2168E+02
     29.775  0.1024E+01  0.2183E+02
     29.920  0.7943E+00  0.2194E+02
     30.064  0.7132E+00  0.2204E+02
     30.208  0.6870E+00  0.2214E+02
     30.353  0.4983E+00  0.2222E+02
     30.497  0.4591E+00  0.2228E+02
     30.642  0.6023E+00  0.2237E+02
     30.786  0.6428E+00  0.2246E+02
     30.930  0.7556E+00  0.2257E+02
     31.075  0.7240E+00  0.2267E+02
     31.219  0.7232E+00  0.2278E+02
     31.364  0.8300E+00  0.2290E+02
     31.508  0.9388E+00  0.2303E+02
     31.652  0.8089E+00  0.2315E+02
     31.797  0.5346E+00  0.2323E+02
     31.941  0.4884E+00  0.2330E+02
     32.086  0.5373E+00  0.2338E+02
     32.230  0.4477E+00  0.2344E+02
     32.374  0.3649E+00  0.2349E+02
     32.519  0.4910E+00  0.2357E+02
     32.663  0.5438E+00  0.2364E+02
     32.807  0.4993E+00  0.2372E+02
     32.952  0.3519E+00  0.2377E+02
     33.096  0.1851E+00  0.2379E+02
     33.241  0.7872E-01  0.2380E+02
     33.385  0.1129E+00  0.2382E+02
     33.529  0.1693E+00  0.2385E+02
     33.674  0.2098E+00  0.2388E+02
     33.818  0.1426E+00  0.2390E+02
     33.963  0.1742E+00  0.2392E+02
     34.107  0.2233E+00  0.2395E+02
     34.251  0.8289E-01  0.2397E+02
     34.396 -0.8763E-02  0.2396E+02
     34.540 -0.4647E-02  0.2396E+02
     34.685  0.2772E-01  0.2397E+02
     34.829  0.6563E-01  0.2398E+02
     34.973  0.9167E-01  0.2399E+02
     35.118  0.6276E-01  0.2400E+02
     35.262  0.7131E-02  0.2400E+02
     35.407 -0.3475E-02  0.2400E+02
     35.551 -0.6183E-03  0.2400E+02
     35.695 -0.2694E-04  0.2400E+02
     35.840 -0.3703E-06  0.2400E+02
     35.984 -0.1702E-08  0.2400E+02
     36.129 -0.2670E-11  0.2400E+02
     36.273 -0.1439E-14  0.2400E+02
     36.417  0.0000E+00  0.2400E+02
     36.562  0.0000E+00  0.2400E+02
     36.706  0.0000E+00  0.2400E+02
     36.851  0.0000E+00  0.2400E+02
     36.995  0.0000E+00  0.2400E+02
     36.99494999     -6.32363146  301      5.35065873      1.00000000
     -6.324  0.0000E+00  0.0000E+00  0.0000E+00
     -6.179  0.0000E+00  0.0000E+00  0.0000E+00
     -6.035 -0.7210E-33 -0.4968E-35 -0.1091E-36
     -5.890 -0.9094E-28 -0.6266E-30 -0.1376E-31
     -5.746 -0.4010E-23 -0.2763E-25 -0.6067E-27
     -5.602 -0.6169E-19 -0.4251E-21 -0.9334E-23
     -5.457 -0.3201E-15 -0.2205E-17 -0.4843E-19
     -5.313 -0.5889E-12 -0.4058E-14 -0.8911E-16
     -5.168 -0.3714E-09 -0.2559E-11 -0.5623E-13
     -5.024 -0.7919E-07 -0.5462E-09 -0.1202E-10
     -4.880 -0.5543E-05 -0.3841E-07 -0.8552E-09
     -4.735 -0.1182E-03 -0.8436E-06 -0.2011E-07
     -4.591 -0.5729E-03 -0.5200E-05 -0.1831E-06
     -4.446  0.1170E-02 -0.7241E-05 -0.1029E-05
     -4.302  0.8660E-02  0.3815E-04 -0.1159E-05
     -4.158  0.2122E-01  0.3703E-03  0.1544E-04
     -4.013  0.3442E-01  0.8930E-03  0.6105E-04
     -3.869  0.3555E-01  0.1287E-02  0.1522E-03
     -3.725  0.3794E-01  0.1873E-02  0.2821E-03
     -3.580  0.4926E-01  0.3108E-02  0.5702E-03
     -3.436  0.6577E-01  0.4896E-02  0.1183E-02
     -3.291  0.5906E-01  0.4755E-02  0.1550E-02
     -3.147  0.4068E-01  0.3839E-02  0.1622E-02
     -3.003  0.6620E-01  0.7539E-02  0.3434E-02
     -2.858  0.9964E-01  0.1216E-01  0.6577E-02
     -2.714  0.8230E-01  0.1061E-01  0.6667E-02
     -2.569  0.6008E-01  0.8588E-02  0.7489E-02
     -2.425  0.9360E-01  0.1455E-01  0.1563E-01
     -2.281  0.1016E+00  0.1651E-01  0.2132E-01
     -2.136  0.9700E-01  0.1759E-01  0.2479E-01
     -1.992  0.1290E+00  0.2383E-01  0.4989E-01
     -1.847  0.1690E+00  0.2857E-01  0.1340E+00
     -1.703  0.1848E+00  0.2788E-01  0.2398E+00
     -1.559  0.1785E+00  0.2955E-01  0.3170E+00
     -1.414  0.2265E+00  0.4558E-01  0.5016E+00
     -1.270  0.2365E+00  0.5298E-01  0.7211E+00
     -1.125  0.2190E+00  0.5585E-01  0.1031E+01
     -0.981  0.1989E+00  0.5772E-01  0.1288E+01
     -0.837  0.1653E+00  0.5970E-01  0.1356E+01
     -0.692  0.1205E+00  0.5585E-01  0.1349E+01
     -0.548  0.8724E-01  0.5761E-01  0.1208E+01
     -0.403  0.6029E-01  0.6218E-01  0.1243E+01
     -0.259  0.2839E-01  0.5587E-01  0.1025E+01
     -0.115  0.1592E-01  0.6427E-01  0.1010E+01
      0.030  0.1846E-01  0.9082E-01  0.1380E+01
      0.174  0.1843E-01  0.9136E-01  0.1564E+01
      0.319  0.2093E-01  0.7933E-01  0.1612E+01
      0.463  0.2706E-01  0.6983E-01  0.1596E+01
      0.607  0.3799E-01  0.9587E-01  0.1828E+01
      0.752  0.4580E-01  0.1030E+00  0.1887E+01
      0.896  0.4629E-01  0.9269E-01  0.2020E+01
      1.041  0.4472E-01  0.1202E+00  0.2585E+01
      1.185  0.4960E-01  0.1420E+00  0.2695E+01
      1.329  0.4680E-01  0.1087E+00  0.1923E+01
      1.474  0.2986E-01  0.6907E-01  0.1369E+01
      1.618  0.1810E-01  0.7214E-01  0.1273E+01
      1.763  0.2329E-01  0.8304E-01  0.1433E+01
      1.907  0.2598E-01  0.7473E-01  0.1579E+01
      2.051  0.3005E-01  0.8038E-01  0.1948E+01
      2.196  0.2392E-01  0.5655E-01  0.1913E+01
      2.340  0.1431E-01  0.3742E-01  0.1589E+01
      2.484  0.1887E-01  0.5772E-01  0.1797E+01
      2.629  0.2077E-01  0.5526E-01  0.1590E+01
      2.773  0.1220E-01  0.3220E-01  0.1301E+01
      2.918  0.1236E-01  0.3267E-01  0.1617E+01
      3.062  0.1756E-01  0.3554E-01  0.1566E+01
      3.206  0.1825E-01  0.2832E-01  0.1951E+01
      3.351  0.1627E-01  0.2228E-01  0.2550E+01
      3.495  0.8883E-02  0.1479E-01  0.2468E+01
      3.640  0.1202E-01  0.1409E-01  0.1731E+01
      3.784  0.3701E-01  0.3209E-01  0.1004E+01
      3.928  0.4341E-01  0.4639E-01  0.4623E+00
      4.073  0.1932E-01  0.2695E-01  0.7993E-01
      4.217  0.6363E-02  0.7880E-02  0.2659E-01
      4.362  0.2954E-01  0.2376E-01  0.1851E+00
      4.506  0.5683E-01  0.4587E-01  0.3253E+00
      4.650  0.4733E-01  0.4251E-01  0.2207E+00
      4.795  0.2397E-01  0.3541E-01  0.8715E-01
      4.939  0.1397E-01  0.4831E-01  0.6427E-01
      5.084  0.4997E-01  0.7499E-01  0.1958E+00
      5.228  0.7178E-01  0.7111E-01  0.2396E+00
      5.372  0.4766E-01  0.4010E-01  0.1398E+00
      5.517  0.3210E-01  0.2969E-01  0.9163E-01
      5.661  0.2940E-01  0.4322E-01  0.9126E-01
      5.806  0.3130E-01  0.4724E-01  0.8909E-01
      5.950  0.7398E-01  0.7938E-01  0.1704E+00
      6.094  0.7630E-01  0.7806E-01  0.1681E+00
      6.239  0.4141E-01  0.6531E-01  0.1081E+00
      6.383  0.4290E-01  0.9041E-01  0.1157E+00
      6.528  0.4250E-01  0.7481E-01  0.8965E-01
      6.672  0.4454E-01  0.4084E-01  0.7018E-01
      6.816  0.5672E-01  0.3321E-01  0.7574E-01
      6.961  0.6489E-01  0.5787E-01  0.9593E-01
      7.105  0.7106E-01  0.9243E-01  0.1225E+00
      7.250  0.6090E-01  0.1042E+00  0.1072E+00
      7.394  0.5028E-01  0.7244E-01  0.7738E-01
      7.538  0.3537E-01  0.3444E-01  0.4674E-01
      7.683  0.4750E-01  0.4281E-01  0.5337E-01
      7.827  0.9280E-01  0.8665E-01  0.1017E+00
      7.972  0.8120E-01  0.7091E-01  0.8594E-01
      8.116  0.6478E-01  0.4432E-01  0.6080E-01
      8.260  0.3945E-01  0.5148E-01  0.4470E-01
      8.405  0.1019E+00  0.5033E-01  0.7284E-01
      8.549  0.2621E+00  0.5252E-01  0.1579E+00
      8.693  0.2360E+00  0.7142E-01  0.1538E+00
      8.838  0.9399E-01  0.5390E-01  0.6854E-01
      8.982  0.4676E-01  0.1695E-01  0.1749E-01
      9.127  0.9149E-01  0.5083E-01  0.5344E-01
      9.271  0.1481E+00  0.9826E-01  0.1029E+00
      9.415  0.1257E+00  0.8671E-01  0.9622E-01
      9.560  0.1012E+00  0.7746E-01  0.8185E-01
      9.704  0.9423E-01  0.4852E-01  0.4717E-01
      9.849  0.3781E-01  0.4406E-01  0.2655E-01
      9.993  0.1213E-01  0.6460E-01  0.3239E-01
     10.137  0.6532E-01  0.8924E-01  0.6041E-01
     10.282  0.1286E+00  0.1338E+00  0.9303E-01
     10.426  0.1159E+00  0.1127E+00  0.7510E-01
     10.571  0.7991E-01  0.9243E-01  0.6000E-01
     10.715  0.1052E+00  0.8198E-01  0.5115E-01
     10.859  0.1182E+00  0.6548E-01  0.4353E-01
     11.004  0.1050E+00  0.1059E+00  0.6954E-01
     11.148  0.1346E+00  0.1399E+00  0.7950E-01
     11.293  0.1081E+00  0.1142E+00  0.6634E-01
     11.437  0.7937E-01  0.1088E+00  0.7644E-01
     11.581  0.6139E-01  0.8570E-01  0.5775E-01
     11.726  0.4606E-01  0.4622E-01  0.2259E-01
     11.870  0.6744E-01  0.7293E-01  0.3581E-01
     12.015  0.1254E+00  0.1456E+00  0.7448E-01
     12.159  0.1197E+00  0.1232E+00  0.5008E-01
     12.303  0.3371E-01  0.3086E-01  0.6645E-02
     12.448  0.7277E-02  0.3183E-01  0.1172E-01
     12.592  0.8374E-01  0.1088E+00  0.4811E-01
     12.737  0.1176E+00  0.1237E+00  0.6186E-01
     12.881  0.7153E-01  0.8671E-01  0.5111E-01
     13.025  0.8171E-01  0.1346E+00  0.8900E-01
     13.170  0.7686E-01  0.1501E+00  0.9378E-01
     13.314  0.6438E-01  0.1715E+00  0.7588E-01
     13.459  0.9293E-01  0.2339E+00  0.1022E+00
     13.603  0.7185E-01  0.1310E+00  0.5951E-01
     13.747  0.1197E-01  0.6619E-02  0.2364E-02
     13.892  0.3238E-02  0.8379E-02  0.6803E-02
     14.036  0.2841E-01  0.1334E+00  0.6612E-01
     14.180  0.4914E-01  0.2217E+00  0.1012E+00
     14.325  0.5986E-01  0.1358E+00  0.5372E-01
     14.469  0.6752E-01  0.8351E-01  0.2481E-01
     14.614  0.7545E-01  0.1410E+00  0.5267E-01
     14.758  0.5767E-01  0.2178E+00  0.9526E-01
     14.902  0.2488E-01  0.1892E+00  0.8961E-01
     15.047  0.2921E-01  0.1724E+00  0.9200E-01
     15.191  0.3108E-01  0.1577E+00  0.9276E-01
     15.336  0.1953E-01  0.1469E+00  0.7589E-01
     15.480  0.3463E-01  0.1769E+00  0.8044E-01
     15.624  0.4484E-01  0.1752E+00  0.6726E-01
     15.769  0.4473E-01  0.1820E+00  0.3943E-01
     15.913  0.4682E-01  0.2236E+00  0.6762E-01
     16.058  0.3398E-01  0.2987E+00  0.1417E+00
     16.202  0.1486E-01  0.2456E+00  0.1149E+00
     16.346  0.3747E-02  0.9862E-01  0.3962E-01
     16.491  0.1409E-01  0.1244E+00  0.5477E-01
     16.635  0.2717E-01  0.1626E+00  0.7527E-01
     16.780  0.3317E-01  0.1940E+00  0.9350E-01
     16.924  0.4012E-01  0.2852E+00  0.1166E+00
     17.068  0.3902E-01  0.3331E+00  0.1279E+00
     17.213  0.3624E-01  0.3179E+00  0.1347E+00
     17.357  0.2152E-01  0.1628E+00  0.7607E-01
     17.502  0.1013E-01  0.6349E-01  0.3906E-01
     17.646  0.1112E-01  0.8729E-01  0.4031E-01
     17.790  0.1361E-01  0.1924E+00  0.8408E-01
     17.935  0.1490E-01  0.2211E+00  0.1046E+00
     18.079  0.2126E-01  0.1727E+00  0.8032E-01
     18.224  0.2356E-01  0.2072E+00  0.9443E-01
     18.368  0.1974E-01  0.2163E+00  0.9956E-01
     18.512  0.2007E-01  0.1805E+00  0.7110E-01
     18.657  0.1739E-01  0.1825E+00  0.7704E-01
     18.801  0.2035E-01  0.2525E+00  0.1166E+00
     18.946  0.1344E-01  0.1750E+00  0.8236E-01
     19.090  0.9782E-02  0.1321E+00  0.6836E-01
     19.234  0.1697E-01  0.1841E+00  0.9590E-01
     19.379  0.2171E-01  0.1848E+00  0.1151E+00
     19.523  0.1611E-01  0.1332E+00  0.7689E-01
     19.668  0.1050E-01  0.1453E+00  0.6916E-01
     19.812  0.1095E-01  0.2131E+00  0.1129E+00
     19.956  0.8233E-02  0.1338E+00  0.6979E-01
     20.101  0.2262E-02  0.6434E-01  0.2329E-01
     20.245  0.1961E-02  0.1192E+00  0.5418E-01
     20.389  0.7748E-02  0.2070E+00  0.1104E+00
     20.534  0.1127E-01  0.1754E+00  0.8642E-01
     20.678  0.1183E-01  0.1208E+00  0.6427E-01
     20.823  0.1658E-01  0.1261E+00  0.9661E-01
     20.967  0.1821E-01  0.1605E+00  0.1014E+00
     21.111  0.1169E-01  0.1533E+00  0.7978E-01
     21.256  0.5791E-02  0.8924E-01  0.6021E-01
     21.400  0.5341E-02  0.7287E-01  0.6124E-01
     21.545  0.7435E-02  0.1063E+00  0.5855E-01
     21.689  0.7961E-02  0.1136E+00  0.4576E-01
     21.833  0.5842E-02  0.6853E-01  0.3273E-01
     21.978  0.4688E-02  0.3787E-01  0.2762E-01
     22.122  0.6531E-02  0.5390E-01  0.3278E-01
     22.267  0.1456E-01  0.1619E+00  0.6908E-01
     22.411  0.2655E-01  0.2822E+00  0.9629E-01
     22.555  0.3184E-01  0.2708E+00  0.1117E+00
     22.700  0.3066E-01  0.1648E+00  0.1115E+00
     22.844  0.2453E-01  0.1369E+00  0.8830E-01
     22.989  0.1479E-01  0.1753E+00  0.7556E-01
     23.133  0.1699E-01  0.1771E+00  0.1032E+00
     23.277  0.3517E-01  0.1905E+00  0.1499E+00
     23.422  0.5380E-01  0.2130E+00  0.1801E+00
     23.566  0.4703E-01  0.1543E+00  0.1449E+00
     23.711  0.2753E-01  0.1543E+00  0.1223E+00
     23.855  0.1080E-01  0.1881E+00  0.8819E-01
     23.999  0.1020E-01  0.1724E+00  0.4734E-01
     24.144  0.1413E-01  0.1696E+00  0.5185E-01
     24.288  0.8322E-02  0.1835E+00  0.7264E-01
     24.433  0.9378E-02  0.1900E+00  0.8941E-01
     24.577  0.1654E-01  0.1735E+00  0.1193E+00
     24.721  0.2114E-01  0.1633E+00  0.1418E+00
     24.866  0.2243E-01  0.1123E+00  0.1239E+00
     25.010  0.1309E-01  0.6202E-01  0.1093E+00
     25.155  0.3076E-02  0.5386E-01  0.9277E-01
     25.299  0.4287E-02  0.9746E-01  0.9428E-01
     25.443  0.1082E-01  0.1481E+00  0.1153E+00
     25.588  0.1477E-01  0.1710E+00  0.1195E+00
     25.732  0.8400E-02  0.1244E+00  0.6437E-01
     25.877  0.3750E-02  0.5814E-01  0.2978E-01
     26.021  0.3814E-02  0.4577E-01  0.3680E-01
     26.165  0.7126E-02  0.4596E-01  0.5170E-01
     26.310  0.1620E-01  0.6510E-01  0.1072E+00
     26.454  0.2196E-01  0.6528E-01  0.1486E+00
     26.598  0.1666E-01  0.8026E-01  0.1008E+00
     26.743  0.9997E-02  0.1280E+00  0.4502E-01
     26.887  0.7064E-02  0.1167E+00  0.2748E-01
     27.032  0.1353E-01  0.1298E+00  0.1748E-01
     27.176  0.1103E-01  0.1055E+00  0.2039E-01
     27.320  0.2090E-02  0.4005E-01  0.2479E-01
     27.465  0.2248E-02  0.7870E-01  0.4984E-01
     27.609  0.3594E-02  0.1019E+00  0.6268E-01
     27.754  0.6067E-02  0.6925E-01  0.5284E-01
     27.898  0.2093E-01  0.1011E+00  0.8740E-01
     28.042  0.3023E-01  0.1325E+00  0.1254E+00
     28.187  0.1281E-01  0.9518E-01  0.7343E-01
     28.331  0.1158E-02  0.5111E-01  0.5062E-01
     28.476  0.1592E-03  0.2216E-01  0.4626E-01
     28.620  0.3452E-03  0.6308E-02  0.1466E-01
     28.764  0.1561E-02  0.3746E-01  0.4242E-01
     28.909  0.3529E-02  0.7910E-01  0.1210E+00
     29.053  0.3974E-02  0.7203E-01  0.1429E+00
     29.198  0.3248E-02  0.4750E-01  0.1052E+00
     29.342  0.4488E-02  0.2599E-01  0.7869E-01
     29.486  0.9172E-02  0.3501E-01  0.1079E+00
     29.631  0.1696E-01  0.5073E-01  0.1953E+00
     29.775  0.1728E-01  0.4975E-01  0.2740E+00
     29.920  0.9262E-02  0.5408E-01  0.2179E+00
     30.064  0.5869E-02  0.6448E-01  0.2124E+00
     30.208  0.4454E-02  0.4777E-01  0.2223E+00
     30.353  0.4058E-02  0.3034E-01  0.1577E+00
     30.497  0.4991E-02  0.2993E-01  0.1355E+00
     30.642  0.5692E-02  0.3333E-01  0.1684E+00
     30.786  0.4478E-02  0.4856E-01  0.1627E+00
     30.930  0.5407E-02  0.5473E-01  0.1843E+00
     31.075  0.1085E-01  0.3552E-01  0.1632E+00
     31.219  0.1885E-01  0.2227E-01  0.1648E+00
     31.364  0.2896E-01  0.2257E-01  0.2216E+00
     31.508  0.3423E-01  0.3986E-01  0.2364E+00
     31.652  0.2486E-01  0.5115E-01  0.1679E+00
     31.797  0.1220E-01  0.3305E-01  0.1042E+00
     31.941  0.1173E-01  0.1518E-01  0.1144E+00
     32.086  0.1347E-01  0.1242E-01  0.1232E+00
     32.230  0.1131E-01  0.1255E-01  0.9159E-01
     32.374  0.1128E-01  0.1981E-01  0.7362E-01
     32.519  0.1507E-01  0.2319E-01  0.9496E-01
     32.663  0.7873E-02  0.1301E-01  0.7770E-01
     32.807  0.4184E-02  0.1018E-01  0.5894E-01
     32.952  0.1013E-01  0.1388E-01  0.5960E-01
     33.096  0.9919E-02  0.1091E-01  0.4013E-01
     33.241  0.6308E-02  0.8121E-02  0.1234E-01
     33.385  0.7223E-02  0.1041E-01  0.1138E-01
     33.529  0.7400E-02  0.7931E-02  0.1731E-01
     33.674  0.8748E-02  0.7421E-02  0.2099E-01
     33.818  0.2857E-02  0.2484E-02  0.1180E-01
     33.963 -0.2111E-03  0.6335E-03  0.9699E-02
     34.107  0.9198E-04  0.1858E-02  0.1064E-01
     34.251  0.4874E-04  0.9452E-03  0.3322E-02
     34.396 -0.1186E-04 -0.2969E-04 -0.4409E-03
     34.540 -0.3479E-05 -0.5616E-04 -0.2257E-03
     34.685 -0.2139E-06 -0.2403E-04  0.1678E-03
     34.829 -0.4202E-08  0.4914E-04  0.1082E-02
     34.973  0.1116E-08  0.4091E-03  0.3032E-02
     35.118  0.1448E-08  0.4755E-03  0.2644E-02
     35.262  0.3000E-09  0.9225E-04  0.3882E-03
     35.407 -0.7630E-10 -0.2508E-04 -0.1413E-03
     35.551 -0.1759E-10 -0.5590E-05 -0.2765E-04
     35.695 -0.8339E-12 -0.2624E-06 -0.1246E-05
     35.840 -0.1193E-13 -0.3738E-08 -0.1741E-07
     35.984 -0.5596E-16 -0.1750E-10 -0.8068E-10
     36.129 -0.8874E-19 -0.2771E-13 -0.1272E-12
     36.273 -0.4839E-22 -0.1509E-16 -0.6888E-16
     36.417  0.0000E+00  0.0000E+00  0.0000E+00
     36.562  0.0000E+00  0.0000E+00  0.0000E+00
     36.706  0.0000E+00  0.0000E+00  0.0000E+00
     36.851  0.0000E+00  0.0000E+00  0.0000E+00
     36.995  0.0000E+00  0.0000E+00  0.0000E+00
