    1    1    1    1
  0.1723025E+02  0.2899138E-09  0.2899138E-09  0.2899138E-09  0.5000000E-15
  1.000000000000000E-004
  CAR 
 fcc Au                                  
     11    110     12
 
  0.5000000E-01  0.5000000E-01  0.5000000E-01  0.2000000E-02
    1       -4.323631   1.000000
    2        0.723160   1.000000
    3        0.781639   1.000000
    4        0.781639   1.000000
    5        2.252510   1.000000
    6        2.252510   1.000000
    7       20.824479   0.000000
    8       23.822990   0.000000
    9       24.587405   0.000000
   10       24.587405   0.000000
   11       29.384556   0.000000
   12       32.266159   0.000000
 
  0.1500000E+00  0.5000000E-01  0.5000000E-01  0.6000000E-02
    1       -3.874225   1.000000
    2        0.574309   1.000000
    3        0.917448   1.000000
    4        0.948727   1.000000
    5        2.106727   1.000000
    6        2.301224   1.000000
    7       21.092791   0.000000
    8       21.887663   0.000000
    9       24.185377   0.000000
   10       25.494556   0.000000
   11       28.737607   0.000000
   12       31.357576   0.000000
 
  0.2500000E+00  0.5000000E-01  0.5000000E-01  0.6000000E-02
    1       -2.899627   1.000000
    2        0.462116   1.000000
    3        1.066832   1.000000
    4        1.087904   1.000000
    5        2.115608   1.000000
    6        2.508471   1.000000
    7       17.944418   0.000000
    8       21.698430   0.000000
    9       24.309826   0.000000
   10       26.674575   0.000000
   11       26.821528   0.000000
   12       29.172646   0.000000
 
  0.3500000E+00  0.5000000E-01  0.5000000E-01  0.6000000E-02
    1       -2.022388   1.000000
    2        0.892017   1.000000
    3        0.975871   1.000000
    4        1.126031   1.000000
    5        2.593875   1.000000
    6        3.067255   1.000000
    7       13.919693   0.000000
    8       21.035302   0.000000
    9       23.335023   0.000000
   10       25.495924   0.000000
   11       27.986374   0.000000
   12       29.033772   0.000000
 
  0.4500000E+00  0.5000000E-01  0.5000000E-01  0.6000000E-02
    1       -1.800244   1.000000
    2        0.743796   1.000000
    3        0.811408   1.000000
    4        2.610120   1.000000
    5        3.175214   1.000000
    6        3.951023   1.000000
    7       10.149787  -0.000000
    8       20.296150   0.000000
    9       22.425452   0.000000
   10       23.527452   0.000000
   11       29.696218   0.000000
   12       29.936010   0.000000
 
 -0.4500000E+00  0.5000000E-01  0.5000000E-01  0.6000000E-02
    1       -1.794127   1.000000
    2        0.678585   1.000000
    3        0.772948   1.000000
    4        2.999941   1.000000
    5        3.451719   1.000000
    6        4.857504   1.001347
    7        8.480267  -0.000000
    8       20.093742   0.000000
    9       22.483469   0.000000
   10       22.607031   0.000000
   11       30.160589   0.000000
   12       30.231175   0.000000
 
 -0.3500000E+00  0.5000000E-01  0.5000000E-01  0.6000000E-02
    1       -1.827379   1.000000
    2        0.773436   1.000000
    3        0.880170   1.000000
    4        2.054600   1.000000
    5        3.253226   1.000000
    6        3.395354   1.000000
    7       11.321791   0.000000
    8       20.530558   0.000000
    9       22.881857   0.000000
   10       23.701412   0.000000
   11       29.636820   0.000000
   12       29.811821   0.000000
 
 -0.2500000E+00  0.5000000E-01  0.5000000E-01  0.6000000E-02
    1       -2.244777   1.000000
    2        0.710821   1.000000
    3        0.991907   1.000000
    4        1.049544   1.000000
    5        2.507779   1.000000
    6        2.763535   1.000000
    7       15.265916   0.000000
    8       21.414979   0.000000
    9       23.811184   0.000000
   10       25.631215   0.000000
   11       27.648289   0.000000
   12       29.473953   0.000000
 
 -0.1500000E+00  0.5000000E-01  0.5000000E-01  0.6000000E-02
    1       -3.258245   1.000000
    2        0.450438   1.000000
    3        1.058363   1.000000
    4        1.071158   1.000000
    5        2.072744   1.000000
    6        2.389047   1.000000
    7       19.235037   0.000000
    8       21.819110   0.000000
    9       24.320939   0.000000
   10       25.919736   0.000000
   11       27.462560   0.000000
   12       30.094502   0.000000
 
 -0.5000000E-01  0.5000000E-01  0.5000000E-01  0.6000000E-02
    1       -4.095139   1.000000
    2        0.617923   1.000000
    3        0.874577   1.000000
    4        0.880115   1.000000
    5        2.128884   1.000000
    6        2.308701   1.000000
    7       21.048571   0.000000
    8       22.907907   0.000000
    9       24.305286   0.000000
   10       24.697442   0.000000
   11       29.901120   0.000000
   12       31.526402   0.000000
 
  0.1500000E+00  0.1500000E+00  0.5000000E-01  0.6000000E-02
    1       -3.651056   1.000000
    2        0.408182   1.000000
    3        1.070305   1.000000
    4        1.073945   1.000000
    5        1.916993   1.000000
    6        2.416796   1.000000
    7       21.383727   0.000000
    8       22.053034   0.000000
    9       23.608111   0.000000
   10       24.272689   0.000000
   11       29.037250   0.000000
   12       30.844409   0.000000
 
  0.2500000E+00  0.1500000E+00  0.5000000E-01  0.1200000E-01
    1       -2.841589   1.000000
    2        0.168751   1.000000
    3        1.168075   1.000000
    4        1.345791   1.000000
    5        1.867366   1.000000
    6        2.630549   1.000000
    7       19.485700   0.000000
    8       21.304036   0.000000
    9       23.284090   0.000000
   10       24.523523   0.000000
   11       27.003837   0.000000
   12       30.034276   0.000000
 
  0.3500000E+00  0.1500000E+00  0.5000000E-01  0.1200000E-01
    1       -1.843702   1.000000
    2        0.254302   1.000000
    3        0.875172   1.000000
    4        1.356006   1.000000
    5        2.512571   1.000000
    6        3.198613   1.000000
    7       15.494986   0.000000
    8       20.746623   0.000000
    9       22.230231   0.000000
   10       24.296086   0.000000
   11       27.906473   0.000000
   12       29.759389   0.000000
 
  0.4500000E+00  0.1500000E+00  0.5000000E-01  0.1200000E-01
    1       -1.458080   1.000000
    2        0.581710   1.000000
    3        1.108157   1.000000
    4        1.262945   1.000000
    5        3.239514   1.000000
    6        4.370244   1.000000
    7       11.524483   0.000000
    8       20.299017   0.000000
    9       20.933419   0.000000
   10       23.015632   0.000000
   11       29.755221   0.000000
   12       30.820928   0.000000
 
 -0.4500000E+00  0.1500000E+00  0.5000000E-01  0.1200000E-01
    1       -1.434211   1.000000
    2        0.456501   1.000000
    3        1.064994   1.000000
    4        1.990034   1.000000
    5        3.407153   1.000000
    6        6.259444  -0.000000
    7        8.474372  -0.000000
    8       19.848276   0.000000
    9       20.571740   0.000000
   10       22.300619   0.000000
   11       30.169529   0.000000
   12       31.241662   0.000000
 
 -0.3500000E+00  0.1500000E+00  0.5000000E-01  0.1200000E-01
    1       -1.419603   1.000000
    2        0.534632   1.000000
    3        1.089583   1.000000
    4        1.670283   1.000000
    5        3.099188   1.000000
    6        5.069798   1.031614
    7       10.387405  -0.000000
    8       19.482205   0.000000
    9       21.086023   0.000000
   10       23.195391   0.000000
   11       29.385938   0.000000
   12       30.875240   0.000000
 
 -0.2500000E+00  0.1500000E+00  0.5000000E-01  0.1200000E-01
    1       -1.603907   1.000000
    2        0.529101   1.000000
    3        0.830910   1.000000
    4        1.273848   1.000000
    5        2.425557   1.000000
    6        3.730168   1.000000
    7       14.164791   0.000000
    8       19.717233   0.000000
    9       22.194180   0.000000
   10       25.144852   0.000000
   11       27.598550   0.000000
   12       29.985830   0.000000
 
 -0.1500000E+00  0.1500000E+00  0.5000000E-01  0.1200000E-01
    1       -2.490439   1.000000
    2        0.211256   1.000000
    3        1.066012   1.000000
    4        1.368781   1.000000
    5        1.860493   1.000000
    6        2.886381   1.000000
    7       18.084119   0.000000
    8       20.347830   0.000000
    9       23.870470   0.000000
   10       24.869167   0.000000
   11       28.164858   0.000000
   12       28.826161   0.000000
 
 -0.5000000E-01  0.1500000E+00  0.5000000E-01  0.1200000E-01
    1       -3.445357   1.000000
    2        0.413478   1.000000
    3        1.073592   1.000000
    4        1.083064   1.000000
    5        1.955416   1.000000
    6        2.425853   1.000000
    7       20.494576   0.000000
    8       21.534880   0.000000
    9       23.747658   0.000000
   10       25.568850   0.000000
   11       27.825165   0.000000
   12       30.776845   0.000000
 
  0.2500000E+00  0.2500000E+00  0.5000000E-01  0.6000000E-02
    1       -2.300144   1.000000
    2       -0.178331   1.000000
    3        1.318921   1.000000
    4        1.719110   1.000000
    5        1.906713   1.000000
    6        2.753047   1.000000
    7       19.926945   0.000000
    8       21.037465   0.000000
    9       22.224838   0.000000
   10       23.079703   0.000000
   11       24.051252   0.000000
   12       31.572671   0.000000
 
  0.3500000E+00  0.2500000E+00  0.5000000E-01  0.1200000E-01
    1       -1.510163   1.000000
    2       -0.397928   1.000000
    3        1.067364   1.000000
    4        2.057888   1.000000
    5        2.550785   1.000000
    6        3.219835   1.000000
    7       17.203727   0.000000
    8       19.149492   0.000000
    9       20.788001   0.000000
   10       23.444714   0.000000
   11       24.827797   0.000000
   12       31.610508   0.000000
 
  0.4500000E+00  0.2500000E+00  0.5000000E-01  0.1200000E-01
    1       -1.047344   1.000000
    2       -0.142025   1.000000
    3        0.827877   1.000000
    4        1.930380   1.000000
    5        3.323769   1.000000
    6        4.637208   1.000003
    7       13.164457   0.000000
    8       18.459575   0.000000
    9       19.065639   0.000000
   10       23.098585   0.000000
   11       28.003247   0.000000
   12       31.523776   0.000000
 
 -0.4500000E+00  0.2500000E+00  0.5000000E-01  0.1200000E-01
    1       -0.930409   1.000000
    2        0.116749   1.000000
    3        1.030037   1.000000
    4        1.737161   1.000000
    5        3.442928   1.000000
    6        7.063819  -0.000000
    7        9.613745  -0.000000
    8       17.177287   0.000000
    9       19.133251   0.000000
   10       22.725586   0.000000
   11       30.612949   0.000000
   12       32.094617   0.000000
 
 -0.3500000E+00  0.2500000E+00  0.5000000E-01  0.1200000E-01
    1       -0.764201   1.000000
    2        0.179820   1.000000
    3        1.053977   1.000000
    4        1.635075   1.000000
    5        3.055313   1.000000
    6        6.904241  -0.000000
    7       10.128958  -0.000000
    8       16.106322   0.000000
    9       20.326177   0.000000
   10       22.905577   0.000000
   11       29.801196   0.000000
   12       32.138991   0.000000
 
 -0.2500000E+00  0.2500000E+00  0.5000000E-01  0.1200000E-01
    1       -0.688415   1.000000
    2        0.249082   1.000000
    3        0.506277   1.000000
    4        1.713940   1.000000
    5        2.383607   1.000000
    6        5.117050   1.034923
    7       13.491253   0.000000
    8       16.015581   0.000000
    9       21.611204   0.000000
   10       24.278728   0.000000
   11       27.677970   0.000000
   12       31.927560   0.000000
 
 -0.1500000E+00  0.2500000E+00  0.5000000E-01  0.1200000E-01
    1       -1.455332   1.000000
    2        0.135525   1.000000
    3        0.802904   1.000000
    4        1.592133   1.000000
    5        1.996169   1.000000
    6        3.816672   1.000000
    7       15.613210   0.000000
    8       18.241542   0.000000
    9       22.657700   0.000000
   10       25.669686   0.000000
   11       26.631531   0.000000
   12       30.494704   0.000000
 
 -0.5000000E-01  0.2500000E+00  0.5000000E-01  0.1200000E-01
    1       -2.405464   1.000000
    2        0.388176   1.000000
    3        1.038407   1.000000
    4        1.183233   1.000000
    5        2.177967   1.000000
    6        2.815651   1.000000
    7       16.701660   0.000000
    8       21.371896   0.000000
    9       23.369346   0.000000
   10       25.803427   0.000000
   11       27.454752   0.000000
   12       28.988674   0.000000
 
  0.3500000E+00  0.3500000E+00  0.5000000E-01  0.6000000E-02
    1       -1.363394   1.000000
    2       -0.767354   1.000000
    3        1.935344   1.000000
    4        2.575142   1.000000
    5        3.003560   1.000000
    6        3.153914   1.000000
    7       17.128435   0.000000
    8       18.171214   0.000000
    9       18.376885   0.000000
   10       22.324294   0.000000
   11       24.232261   0.000000
   12       34.063414   0.000000
 
  0.4500000E+00  0.3500000E+00  0.5000000E-01  0.1200000E-01
    1       -1.215191   1.000000
    2       -0.873559   1.000000
    3        1.980603   1.000000
    4        2.868327   1.000000
    5        3.338293   1.000000
    6        4.696833   1.000019
    7       14.330515   0.000000
    8       16.473456   0.000000
    9       17.104095   0.000000
   10       23.322176   0.000000
   11       25.209775   0.000000
   12       33.579259   0.000000
 
 -0.4500000E+00  0.3500000E+00  0.5000000E-01  0.1200000E-01
    1       -1.050293   1.000000
    2       -0.565251   1.000000
    3        1.632123   1.000000
    4        2.572340   1.000000
    5        3.537050   1.000000
    6        7.288363  -0.000000
    7       11.167082   0.000000
    8       14.720184   0.000000
    9       17.223448   0.000000
   10       23.544200   0.000000
   11       27.923290   0.000000
   12       32.573604   0.000000
 
 -0.3500000E+00  0.3500000E+00  0.5000000E-01  0.1200000E-01
    1       -0.765613   1.000000
    2       -0.066447   1.000000
    3        1.098643   1.000000
    4        2.250656   1.000000
    5        3.223119   1.000000
    6        8.481759  -0.000000
    7       10.605350  -0.000000
    8       13.059301   0.000000
    9       18.531719   0.000000
   10       23.337602   0.000000
   11       31.137968   0.000000
   12       31.495898   0.000000
 
 -0.2500000E+00  0.3500000E+00  0.5000000E-01  0.1200000E-01
    1       -0.492201   1.000000
    2        0.223867   1.000000
    3        0.615666   1.000000
    4        1.901871   1.000000
    5        2.820123   1.000000
    6        6.727252  -0.000000
    7       11.972078   0.000000
    8       14.060827   0.000000
    9       20.313390   0.000000
   10       23.262754   0.000000
   11       29.516273   0.000000
   12       32.401405   0.000000
 
 -0.1500000E+00  0.3500000E+00  0.5000000E-01  0.1200000E-01
    1       -1.068329   1.000000
    2        0.438048   1.000000
    3        0.929119   1.000000
    4        1.415922   1.000000
    5        2.738231   1.000000
    6        5.107674   1.035443
    7       11.906823   0.000000
    8       17.755342   0.000000
    9       21.373086   0.000000
   10       23.762681   0.000000
   11       28.455103   0.000000
   12       31.361866   0.000000
 
 -0.5000000E-01  0.3500000E+00  0.5000000E-01  0.1200000E-01
    1       -1.753756   1.000000
    2        0.776520   1.000000
    3        1.017670   1.000000
    4        1.276324   1.000000
    5        2.867355   1.000000
    6        3.560745   1.000000
    7       12.672520   0.000000
    8       20.697373   0.000000
    9       22.177457   0.000000
   10       24.379261   0.000000
   11       28.816405   0.000000
   12       29.733872   0.000000
 
  0.4500000E+00  0.4500000E+00  0.5000000E-01  0.6000000E-02
    1       -1.469554   1.000000
    2       -1.156701   1.000000
    3        3.239003   1.000000
    4        3.249327   1.000000
    5        3.564710   1.000000
    6        5.212550   0.956528
    7       12.912867   0.000000
    8       15.793019   0.000000
    9       16.131144   0.000000
   10       22.627469   0.000000
   11       24.953417   0.000000
   12       34.907087   0.000000
 
 -0.4500000E+00  0.4500000E+00  0.5000000E-01  0.1200000E-01
    1       -1.396836   1.000000
    2       -1.107304   1.000000
    3        2.879044   1.000000
    4        3.195322   1.000000
    5        3.711747   1.000000
    6        7.216172  -0.000000
    7       11.053500   0.000000
    8       14.758647   0.000000
    9       15.726217   0.000000
   10       23.548714   0.000000
   11       25.522036   0.000000
   12       34.042207   0.000000
 
 -0.3500000E+00  0.4500000E+00  0.5000000E-01  0.1200000E-01
    1       -1.102382   1.000000
    2       -0.654615   1.000000
    3        1.915918   1.000000
    4        2.736948   1.000000
    5        3.535638   1.000000
    6        8.722514  -0.000000
    7       10.263995  -0.000000
    8       13.427281   0.000000
    9       16.880391   0.000000
   10       23.717873   0.000000
   11       27.921937   0.000000
   12       32.753383   0.000000
 
 -0.2500000E+00  0.4500000E+00  0.5000000E-01  0.1200000E-01
    1       -0.800154   1.000000
    2       -0.019460   1.000000
    3        1.056504   1.000000
    4        2.033762   1.000000
    5        3.345178   1.000000
    6        8.541212  -0.000000
    7        9.157639  -0.000000
    8       15.049833   0.000000
    9       18.731727   0.000000
   10       23.083633   0.000000
   11       30.847919   0.000000
   12       31.831348   0.000000
 
 -0.1500000E+00  0.4500000E+00  0.5000000E-01  0.1200000E-01
    1       -1.118972   1.000000
    2        0.289419   1.000000
    3        1.324207   1.000000
    4        1.531131   1.000000
    5        3.284750   1.000000
    6        7.063078  -0.000000
    7        8.637801  -0.000000
    8       18.139861   0.000000
    9       20.366573   0.000000
   10       22.464874   0.000000
   11       30.090522   0.000000
   12       31.735859   0.000000
 
 -0.5000000E-01  0.4500000E+00  0.5000000E-01  0.1200000E-01
    1       -1.667154   1.000000
    2        0.622319   1.000000
    3        0.887075   1.000000
    4        2.403023   1.000000
    5        3.362809   1.000000
    6        4.981603   1.012752
    7        9.177444  -0.000000
    8       20.201872   0.000000
    9       21.618772   0.000000
   10       22.766833   0.000000
   11       30.016019   0.000000
   12       30.536073   0.000000
 
 -0.4500000E+00 -0.4500000E+00  0.5000000E-01  0.6000000E-02
    1       -1.542336   1.000000
    2       -1.239526   1.000000
    3        3.352536   1.000000
    4        3.529990   1.000000
    5        3.726543   1.000000
    6        6.441003  -0.000000
    7       11.267029   0.000000
    8       15.300249   0.000000
    9       15.668896   0.000000
   10       22.747164   0.000000
   11       25.106518   0.000000
   12       34.714739   0.000000
 
 -0.3500000E+00 -0.4500000E+00  0.5000000E-01  0.1200000E-01
    1       -1.321041   1.000000
    2       -1.027656   1.000000
    3        2.525678   1.000000
    4        3.132086   1.000000
    5        3.558224   1.000000
    6        5.973266  -0.000049
    7       12.582999   0.000000
    8       15.336592   0.000000
    9       16.180927   0.000000
   10       23.451360   0.000000
   11       25.413757   0.000000
   12       33.972030   0.000000
 
 -0.2500000E+00 -0.4500000E+00  0.5000000E-01  0.1200000E-01
    1       -0.996738   1.000000
    2       -0.385985   1.000000
    3        1.206769   1.000000
    4        2.273976   1.000000
    5        3.485599   1.000000
    6        5.858717  -0.000965
    7       12.105792   0.000000
    8       16.606145   0.000000
    9       17.904852   0.000000
   10       23.281655   0.000000
   11       27.943828   0.000000
   12       32.165635   0.000000
 
 -0.1500000E+00 -0.4500000E+00  0.5000000E-01  0.1200000E-01
    1       -1.166662   1.000000
    2        0.338874   1.000000
    3        1.061377   1.000000
    4        1.450833   1.000000
    5        3.424366   1.000000
    6        5.583623  -0.034858
    7       10.489383  -0.000000
    8       19.233371   0.000000
    9       19.709087   0.000000
   10       22.537106   0.000000
   11       30.299045   0.000000
   12       31.920867   0.000000
 
 -0.3500000E+00 -0.3500000E+00  0.5000000E-01  0.6000000E-02
    1       -1.368746   1.000000
    2       -0.995851   1.000000
    3        2.697205   1.000000
    4        2.972691   1.000000
    5        3.355134   1.000000
    6        3.915182   1.000000
    7       15.083901   0.000000
    8       16.759963   0.000000
    9       16.995923   0.000000
   10       22.450143   0.000000
   11       24.657365   0.000000
   12       34.994950   0.000000
 
 -0.2500000E+00 -0.3500000E+00  0.5000000E-01  0.1200000E-01
    1       -1.205736   1.000000
    2       -0.657755   1.000000
    3        1.394943   1.000000
    4        2.475217   1.000000
    5        3.024214   1.000000
    6        3.755880   1.000000
    7       15.864569   0.000000
    8       17.828384   0.000000
    9       18.711188   0.000000
   10       23.290017   0.000000
   11       24.951569   0.000000
   12       32.706638   0.000000
 
 -0.1500000E+00 -0.3500000E+00  0.5000000E-01  0.1200000E-01
    1       -1.336753   1.000000
    2        0.087390   1.000000
    3        0.716244   1.000000
    4        1.610395   1.000000
    5        2.987426   1.000000
    6        3.743086   1.000000
    7       14.309511   0.000000
    8       19.721573   0.000000
    9       20.845389   0.000000
   10       23.272778   0.000000
   11       28.043518   0.000000
   12       30.693818   0.000000
 
 -0.2500000E+00 -0.2500000E+00  0.5000000E-01  0.6000000E-02
    1       -1.663960   1.000000
    2       -0.487497   1.000000
    3        1.403340   1.000000
    4        2.136284   1.000000
    5        2.379858   1.000000
    6        2.950286   1.000000
    7       18.657769   0.000000
    8       19.556053   0.000000
    9       20.706437   0.000000
   10       22.427705   0.000000
   11       23.728760   0.000000
   12       32.706071   0.000000
 
 -0.1500000E+00 -0.2500000E+00  0.5000000E-01  0.1200000E-01
    1       -2.138729   1.000000
    2       -0.113243   1.000000
    3        1.088708   1.000000
    4        1.675293   1.000000
    5        2.094754   1.000000
    6        2.891825   1.000000
    7       18.404763   0.000000
    8       20.410011   0.000000
    9       22.593373   0.000000
   10       23.666124   0.000000
   11       25.495729   0.000000
   12       30.591273   0.000000
 
 -0.1500000E+00 -0.1500000E+00  0.5000000E-01  0.6000000E-02
    1       -3.025439   1.000000
    2        0.131434   1.000000
    3        1.306862   1.000000
    4        1.357461   1.000000
    5        1.721341   1.000000
    6        2.570105   1.000000
    7       20.931180   0.000000
    8       22.118258   0.000000
    9       22.457881   0.000000
   10       23.509764   0.000000
   11       26.648574   0.000000
   12       30.901090   0.000000
 
  0.1500000E+00  0.1500000E+00  0.1500000E+00  0.2000000E-02
    1       -3.664328   1.000000
    2        0.560247   1.000000
    3        0.965943   1.000000
    4        0.965943   1.000000
    5        2.203638   1.000000
    6        2.203638   1.000000
    7       20.348028   0.000000
    8       21.710638   0.000000
    9       25.157372   0.000000
   10       25.157372   0.000000
   11       28.350153   0.000000
   12       30.691290   0.000000
 
  0.2500000E+00  0.1500000E+00  0.1500000E+00  0.6000000E-02
    1       -3.047705   1.000000
    2        0.359779   1.000000
    3        1.091639   1.000000
    4        1.167874   1.000000
    5        1.900608   1.000000
    6        2.580997   1.000000
    7       19.265735   0.000000
    8       21.079844   0.000000
    9       23.913345   0.000000
   10       26.066155   0.000000
   11       27.188035   0.000000
   12       30.066811   0.000000
 
  0.3500000E+00  0.1500000E+00  0.1500000E+00  0.6000000E-02
    1       -2.008076   1.000000
    2        0.207472   1.000000
    3        0.989455   1.000000
    4        1.444847   1.000000
    5        1.815169   1.000000
    6        3.304313   1.000000
    7       16.795141   0.000000
    8       19.329221   0.000000
    9       23.584891   0.000000
   10       25.349643   0.000000
   11       27.511645   0.000000
   12       29.520746   0.000000
 
  0.4500000E+00  0.1500000E+00  0.1500000E+00  0.6000000E-02
    1       -1.341405   1.000000
    2        0.580409   1.000000
    3        0.952177   1.000000
    4        1.247024   1.000000
    5        2.471553   1.000000
    6        4.349434   1.000000
    7       12.969198   0.000000
    8       18.706507   0.000000
    9       22.036911   0.000000
   10       24.644515   0.000000
   11       27.711656   0.000000
   12       30.648135   0.000000
 
 -0.4500000E+00  0.1500000E+00  0.1500000E+00  0.6000000E-02
    1       -1.306985   1.000000
    2        0.443077   1.000000
    3        1.140801   1.000000
    4        1.772610   1.000000
    5        3.144572   1.000000
    6        5.949032  -0.000098
    7        9.423559  -0.000000
    8       18.740760   0.000000
    9       21.381586   0.000000
   10       22.363231   0.000000
   11       29.919340   0.000000
   12       30.914191   0.000000
 
 -0.3500000E+00  0.1500000E+00  0.1500000E+00  0.6000000E-02
    1       -1.344606   1.000000
    2        0.417412   1.000000
    3        1.188159   1.000000
    4        1.602113   1.000000
    5        3.483081   1.000000
    6        5.925546  -0.000185
    7        9.259379  -0.000000
    8       19.505541   0.000000
    9       21.098885   0.000000
   10       21.566029   0.000000
   11       30.919535   0.000000
   12       31.093993   0.000000
 
 -0.2500000E+00  0.1500000E+00  0.1500000E+00  0.6000000E-02
    1       -1.426295   1.000000
    2        0.518311   1.000000
    3        0.736931   1.000000
    4        1.344570   1.000000
    5        3.335970   1.000000
    6        3.838631   1.000000
    7       12.840668   0.000000
    8       20.716997   0.000000
    9       20.931592   0.000000
   10       22.462485   0.000000
   11       29.829708   0.000000
   12       30.856208   0.000000
 
 -0.1500000E+00  0.1500000E+00  0.1500000E+00  0.6000000E-02
    1       -2.033080   1.000000
    2        0.013076   1.000000
    3        0.994669   1.000000
    4        1.475239   1.000000
    5        2.441119   1.000000
    6        2.893745   1.000000
    7       16.946400   0.000000
    8       21.530758   0.000000
    9       21.910680   0.000000
   10       23.642692   0.000000
   11       26.686611   0.000000
   12       30.863110   0.000000
 
  0.2500000E+00  0.2500000E+00  0.1500000E+00  0.6000000E-02
    1       -2.689929   1.000000
    2        0.251735   1.000000
    3        1.111637   1.000000
    4        1.239428   1.000000
    5        2.084911   1.000000
    6        2.627741   1.000000
    7       18.100919   0.000000
    8       21.946348   0.000000
    9       23.019267   0.000000
   10       25.294710   0.000000
   11       26.963908   0.000000
   12       30.228522   0.000000
 
  0.3500000E+00  0.2500000E+00  0.1500000E+00  0.1200000E-01
    1       -1.840069   1.000000
    2        0.003110   1.000000
    3        0.898575   1.000000
    4        1.647192   1.000000
    5        2.067902   1.000000
    6        3.283691   1.000000
    7       16.930919   0.000000
    8       19.355431   0.000000
    9       22.672957   0.000000
   10       24.661747   0.000000
   11       27.063715   0.000000
   12       29.577842   0.000000
 
  0.4500000E+00  0.2500000E+00  0.1500000E+00  0.1200000E-01
    1       -0.925123   1.000000
    2        0.026170   1.000000
    3        0.517307   1.000000
    4        1.869529   1.000000
    5        2.368469   1.000000
    6        4.439166   1.000000
    7       14.521744   0.000000
    8       17.125742   0.000000
    9       21.166008   0.000000
   10       25.327157   0.000000
   11       26.837788   0.000000
   12       31.053412   0.000000
 
 -0.4500000E+00  0.2500000E+00  0.1500000E+00  0.1200000E-01
    1       -0.790268   1.000000
    2        0.199973   1.000000
    3        0.823050   1.000000
    4        1.678107   1.000000
    5        3.046372   1.000000
    6        6.104768  -0.000001
    7       10.979433   0.000000
    8       16.887293   0.000000
    9       19.759920   0.000000
   10       23.897615   0.000000
   11       28.880784   0.000000
   12       32.476958   0.000000
 
 -0.3500000E+00  0.2500000E+00  0.1500000E+00  0.1200000E-01
    1       -0.857411   1.000000
    2        0.111729   1.000000
    3        1.151116   1.000000
    4        1.612217   1.000000
    5        3.330463   1.000000
    6        7.772656  -0.000000
    7        8.674370  -0.000000
    8       17.487598   0.000000
    9       18.735358   0.000000
   10       23.406268   0.000000
   11       29.736282   0.000000
   12       32.977457   0.000000
 
 -0.2500000E+00  0.2500000E+00  0.1500000E+00  0.1200000E-01
    1       -0.905553   1.000000
    2        0.202363   1.000000
    3        0.586544   1.000000
    4        1.801372   1.000000
    5        3.167011   1.000000
    6        5.360808   0.457116
    7       11.980456   0.000000
    8       17.747357   0.000000
    9       19.321201   0.000000
   10       23.845668   0.000000
   11       28.827814   0.000000
   12       31.471450   0.000000
 
 -0.1500000E+00  0.2500000E+00  0.1500000E+00  0.1200000E-01
    1       -1.236599   1.000000
    2       -0.220981   1.000000
    3        0.730912   1.000000
    4        1.991763   1.000000
    5        2.470222   1.000000
    6        3.793337   1.000000
    7       15.770690   0.000000
    8       18.211949   0.000000
    9       20.915094   0.000000
   10       24.602950   0.000000
   11       26.306677   0.000000