 running on    4 total cores
 distrk:  each k-point on    4 cores,    1 groups
 distr:  one band on    1 cores,    4 groups
 using from now: INCAR     
 vasp.5.4.4.18Apr17-6-g9f103f2a35 (build May 18 2018 14:42:58) complex          
  
 POSCAR found type information on POSCAR  Au
 POSCAR found :  1 types and       1 ions
 scaLAPACK will be used
 LDA part: xc-table for Ceperly-Alder, standard interpolation
 POSCAR, INCAR and KPOINTS ok, starting setup
 FFT: planning ...
 WAVECAR not read
 entering main loop
       N       E                     dE             d eps       ncg     rms          rms(c)
DAV:   1     0.295994303225E+02    0.29599E+02   -0.35765E+03  3268   0.431E+02
DAV:   2    -0.438984336170E+01   -0.33989E+02   -0.32112E+02  3052   0.141E+02
DAV:   3    -0.470855056778E+01   -0.31871E+00   -0.31859E+00  3180   0.140E+01
DAV:   4    -0.470937237405E+01   -0.82181E-03   -0.82179E-03  3156   0.759E-01
DAV:   5    -0.470937801496E+01   -0.56409E-05   -0.56412E-05  2880   0.619E-02    0.317E+00
DAV:   6    -0.441251930197E+01    0.29686E+00   -0.82494E-01  3144   0.879E+00    0.797E-01
DAV:   7    -0.438999128951E+01    0.22528E-01   -0.48264E-02  3184   0.177E+00    0.286E-01
DAV:   8    -0.438531370794E+01    0.46776E-02   -0.17488E-03  2980   0.448E-01    0.104E-02
DAV:   9    -0.438531301348E+01    0.69446E-06   -0.85981E-06  1744   0.197E-02
   1 F= -.43853130E+01 E0= -.43856040E+01  d E =0.872985E-03
 writing wavefunctions
