 vasp.5.4.4.18Apr17-6-g9f103f2a35 (build May 18 2018 14:42:58) complex          
  
 executed on             LinuxIFC date 2020.06.30  13:40:59
 running on    4 total cores
 distrk:  each k-point on    4 cores,    1 groups
 distr:  one band on NCORES_PER_BAND=   1 cores,    4 groups


--------------------------------------------------------------------------------------------------------


 INCAR:
 POTCAR:   PAW Au 04Feb1998                       
 POTCAR:   PAW Au 04Feb1998                       
   VRHFIN =Au: s1d10                                                            
   LEXCH  = CA                                                                  
   EATOM  =   929.4667 eV,   68.3139 Ry                                         
                                                                                
   TITEL  = PAW Au 04Feb1998                                                    
   LULTRA =        F    use ultrasoft PP ?                                      
   IUNSCR =        1    unscreen: 0-lin 1-nonlin 2-no                           
   RPACOR =    2.330    partial core radius                                     
   POMASS =  196.966; ZVAL   =   11.000    mass and valenz                      
   RCORE  =    2.500    outmost cutoff radius                                   
   RWIGS  =    2.840; RWIGS  =    1.503    wigner-seitz radius (au A)           
   ENMAX  =  229.869; ENMIN  =  172.402 eV                                      
   RCLOC  =    1.964    cutoff for local pot                                    
   LCOR   =        T    correct aug charges                                     
   LPAW   =        T    paw PP                                                  
   EAUG   =  356.670                                                            
   DEXC   =    -.020                                                            
   RMAX   =    3.041    core radius for proj-oper                               
   RDEP   =    2.598    core radius for depl-charge                             
   QCUT   =   -4.110; QGAM   =    8.221    optimization parameters              
                                                                                
   Description                                                                  
     l     E      TYP  RCUT    TYP  RCUT                                        
     2   .000     23  2.500                                                     
     2   .000     23  2.500                                                     
     0   .000     23  2.500                                                     
     0   .000     23  2.500                                                     
     1  -.200     23  2.500                                                     
     1   .000     23  2.500                                                     
     3   .000      7   .000                                                     
  local pseudopotential read in
  partial core-charges read in
  atomic valenz-charges read in
  non local Contribution for L=           2  read in
    real space projection operators read in
  non local Contribution for L=           2  read in
    real space projection operators read in
  non local Contribution for L=           0  read in
    real space projection operators read in
  non local Contribution for L=           0  read in
    real space projection operators read in
  non local Contribution for L=           1  read in
    real space projection operators read in
  non local Contribution for L=           1  read in
    real space projection operators read in
    PAW grid and wavefunctions read in
 
   number of l-projection  operators is LMAX  =           6
   number of lm-projection operators is LMMAX =          18
 
 PAW Au 04Feb1998                       :
 energy of atom  1       EATOM= -929.4667
 kinetic energy error for atom=    0.0706 (will be added to EATOM!!)
 
 
 POSCAR: FCC Au Bulk                             
  positions in direct lattice
  No initial velocities read in
 exchange correlation table for  LEXCH =        2
   RHO(1)=    0.500       N(1)  =     2000
   RHO(2)=  100.500       N(2)  =     4000
 


--------------------------------------------------------------------------------------------------------


 ion  position               nearest neighbor table
   1  0.000  0.000  0.000-
 
  LATTYP: Found a face centered cubic cell.
 ALAT       =     4.1000000000
  
  Lattice vectors:
  
 A1 = (   0.0000000000,   2.0500000000,   2.0500000000)
 A2 = (   2.0500000000,   0.0000000000,   2.0500000000)
 A3 = (   2.0500000000,   2.0500000000,   0.0000000000)


Analysis of symmetry for initial positions (statically):
=====================================================================
 Subroutine PRICEL returns:
 Original cell was already a primitive cell.
 

 Routine SETGRP: Setting up the symmetry group for a 
 face centered cubic supercell.


 Subroutine GETGRP returns: Found 48 space group operations
 (whereof 48 operations were pure point group operations)
 out of a pool of 48 trial point group operations.


The static configuration has the point symmetry O_h .


Analysis of symmetry for dynamics (positions and initial velocities):
=====================================================================
 Subroutine PRICEL returns:
 Original cell was already a primitive cell.
 

 Routine SETGRP: Setting up the symmetry group for a 
 face centered cubic supercell.


 Subroutine GETGRP returns: Found 48 space group operations
 (whereof 48 operations were pure point group operations)
 out of a pool of 48 trial point group operations.


The dynamic configuration has the point symmetry O_h .


 Subroutine INISYM returns: Found 48 space group operations
 (whereof 48 operations are pure point group operations),
 and found     1 'primitive' translations

 
 
 KPOINTS: 10x10x10                                

Automatic generation of k-mesh.
Space group operators:
 irot       det(A)        alpha          n_x          n_y          n_z        tau_x        tau_y        tau_z
    1     1.000000     0.000000     1.000000     0.000000     0.000000     0.000000     0.000000     0.000000
    2    -1.000000     0.000000     1.000000     0.000000     0.000000     0.000000     0.000000     0.000000
    3     1.000000   120.000000    -0.577350    -0.577350    -0.577350     0.000000     0.000000     0.000000
    4    -1.000000   120.000000    -0.577350    -0.577350    -0.577350     0.000000     0.000000     0.000000
    5     1.000000   120.000000     0.577350     0.577350     0.577350     0.000000     0.000000     0.000000
    6    -1.000000   120.000000     0.577350     0.577350     0.577350     0.000000     0.000000     0.000000
    7     1.000000    90.000000     0.000000     0.000000    -1.000000     0.000000     0.000000     0.000000
    8    -1.000000    90.000000     0.000000     0.000000    -1.000000     0.000000     0.000000     0.000000
    9     1.000000   180.000000     0.000000     0.707107     0.707107     0.000000     0.000000     0.000000
   10    -1.000000   180.000000     0.000000     0.707107     0.707107     0.000000     0.000000     0.000000
   11     1.000000    90.000000     0.000000     1.000000     0.000000     0.000000     0.000000     0.000000
   12    -1.000000    90.000000     0.000000     1.000000     0.000000     0.000000     0.000000     0.000000
   13     1.000000   180.000000     0.000000     0.000000     1.000000     0.000000     0.000000     0.000000
   14    -1.000000   180.000000     0.000000     0.000000     1.000000     0.000000     0.000000     0.000000
   15     1.000000   120.000000    -0.577350     0.577350     0.577350     0.000000     0.000000     0.000000
   16    -1.000000   120.000000    -0.577350     0.577350     0.577350     0.000000     0.000000     0.000000
   17     1.000000   120.000000    -0.577350     0.577350    -0.577350     0.000000     0.000000     0.000000
   18    -1.000000   120.000000    -0.577350     0.577350    -0.577350     0.000000     0.000000     0.000000
   19     1.000000    90.000000     0.000000     0.000000     1.000000     0.000000     0.000000     0.000000
   20    -1.000000    90.000000     0.000000     0.000000     1.000000     0.000000     0.000000     0.000000
   21     1.000000    90.000000    -1.000000     0.000000     0.000000     0.000000     0.000000     0.000000
   22    -1.000000    90.000000    -1.000000     0.000000     0.000000     0.000000     0.000000     0.000000
   23     1.000000   180.000000     0.707107     0.000000     0.707107     0.000000     0.000000     0.000000
   24    -1.000000   180.000000     0.707107     0.000000     0.707107     0.000000     0.000000     0.000000
   25     1.000000   120.000000     0.577350    -0.577350     0.577350     0.000000     0.000000     0.000000
   26    -1.000000   120.000000     0.577350    -0.577350     0.577350     0.000000     0.000000     0.000000
   27     1.000000   120.000000    -0.577350    -0.577350     0.577350     0.000000     0.000000     0.000000
   28    -1.000000   120.000000    -0.577350    -0.577350     0.577350     0.000000     0.000000     0.000000
   29     1.000000   180.000000     1.000000     0.000000     0.000000     0.000000     0.000000     0.000000
   30    -1.000000   180.000000     1.000000     0.000000     0.000000     0.000000     0.000000     0.000000
   31     1.000000    90.000000     0.000000    -1.000000     0.000000     0.000000     0.000000     0.000000
   32    -1.000000    90.000000     0.000000    -1.000000     0.000000     0.000000     0.000000     0.000000
   33     1.000000   180.000000     0.707107     0.707107     0.000000     0.000000     0.000000     0.000000
   34    -1.000000   180.000000     0.707107     0.707107     0.000000     0.000000     0.000000     0.000000
   35     1.000000    90.000000     1.000000     0.000000     0.000000     0.000000     0.000000     0.000000
   36    -1.000000    90.000000     1.000000     0.000000     0.000000     0.000000     0.000000     0.000000
   37     1.000000   120.000000     0.577350    -0.577350    -0.577350     0.000000     0.000000     0.000000
   38    -1.000000   120.000000     0.577350    -0.577350    -0.577350     0.000000     0.000000     0.000000
   39     1.000000   180.000000     0.000000     1.000000     0.000000     0.000000     0.000000     0.000000
   40    -1.000000   180.000000     0.000000     1.000000     0.000000     0.000000     0.000000     0.000000
   41     1.000000   120.000000     0.577350     0.577350    -0.577350     0.000000     0.000000     0.000000
   42    -1.000000   120.000000     0.577350     0.577350    -0.577350     0.000000     0.000000     0.000000
   43     1.000000   180.000000     0.000000    -0.707107     0.707107     0.000000     0.000000     0.000000
   44    -1.000000   180.000000     0.000000    -0.707107     0.707107     0.000000     0.000000     0.000000
   45     1.000000   180.000000     0.707107    -0.707107     0.000000     0.000000     0.000000     0.000000
   46    -1.000000   180.000000     0.707107    -0.707107     0.000000     0.000000     0.000000     0.000000
   47     1.000000   180.000000     0.707107     0.000000    -0.707107     0.000000     0.000000     0.000000
   48    -1.000000   180.000000     0.707107     0.000000    -0.707107     0.000000     0.000000     0.000000
 
 Subroutine IBZKPT returns following result:
 ===========================================
 
 Found    110 irreducible k-points:
 
 Following reciprocal coordinates:
            Coordinates               Weight
  0.050000  0.050000  0.050000     96.000000
  0.150000  0.050000  0.050000    288.000000
  0.250000  0.050000  0.050000    288.000000
  0.350000  0.050000  0.050000    288.000000
  0.450000  0.050000  0.050000    288.000000
 -0.450000  0.050000  0.050000    288.000000
 -0.350000  0.050000  0.050000    288.000000
 -0.250000  0.050000  0.050000    288.000000
 -0.150000  0.050000  0.050000    288.000000
 -0.050000  0.050000  0.050000    288.000000
  0.150000  0.150000  0.050000    288.000000
  0.250000  0.150000  0.050000    576.000000
  0.350000  0.150000  0.050000    576.000000
  0.450000  0.150000  0.050000    576.000000
 -0.450000  0.150000  0.050000    576.000000
 -0.350000  0.150000  0.050000    576.000000
 -0.250000  0.150000  0.050000    576.000000
 -0.150000  0.150000  0.050000    576.000000
 -0.050000  0.150000  0.050000    576.000000
  0.250000  0.250000  0.050000    288.000000
  0.350000  0.250000  0.050000    576.000000
  0.450000  0.250000  0.050000    576.000000
 -0.450000  0.250000  0.050000    576.000000
 -0.350000  0.250000  0.050000    576.000000
 -0.250000  0.250000  0.050000    576.000000
 -0.150000  0.250000  0.050000    576.000000
 -0.050000  0.250000  0.050000    576.000000
  0.350000  0.350000  0.050000    288.000000
  0.450000  0.350000  0.050000    576.000000
 -0.450000  0.350000  0.050000    576.000000
 -0.350000  0.350000  0.050000    576.000000
 -0.250000  0.350000  0.050000    576.000000
 -0.150000  0.350000  0.050000    576.000000
 -0.050000  0.350000  0.050000    576.000000
  0.450000  0.450000  0.050000    288.000000
 -0.450000  0.450000  0.050000    576.000000
 -0.350000  0.450000  0.050000    576.000000
 -0.250000  0.450000  0.050000    576.000000
 -0.150000  0.450000  0.050000    576.000000
 -0.050000  0.450000  0.050000    576.000000
 -0.450000 -0.450000  0.050000    288.000000
 -0.350000 -0.450000  0.050000    576.000000
 -0.250000 -0.450000  0.050000    576.000000
 -0.150000 -0.450000  0.050000    576.000000
 -0.350000 -0.350000  0.050000    288.000000
 -0.250000 -0.350000  0.050000    576.000000
 -0.150000 -0.350000  0.050000    576.000000
 -0.250000 -0.250000  0.050000    288.000000
 -0.150000 -0.250000  0.050000    576.000000
 -0.150000 -0.150000  0.050000    288.000000
  0.150000  0.150000  0.150000     96.000000
  0.250000  0.150000  0.150000    288.000000
  0.350000  0.150000  0.150000    288.000000
  0.450000  0.150000  0.150000    288.000000
 -0.450000  0.150000  0.150000    288.000000
 -0.350000  0.150000  0.150000    288.000000
 -0.250000  0.150000  0.150000    288.000000
 -0.150000  0.150000  0.150000    288.000000
  0.250000  0.250000  0.150000    288.000000
  0.350000  0.250000  0.150000    576.000000
  0.450000  0.250000  0.150000    576.000000
 -0.450000  0.250000  0.150000    576.000000
 -0.350000  0.250000  0.150000    576.000000
 -0.250000  0.250000  0.150000    576.000000
 -0.150000  0.250000  0.150000    576.000000
  0.350000  0.350000  0.150000    288.000000
  0.450000  0.350000  0.150000    576.000000
 -0.450000  0.350000  0.150000    576.000000
 -0.350000  0.350000  0.150000    576.000000
 -0.250000  0.350000  0.150000    576.000000
 -0.150000  0.350000  0.150000    576.000000
  0.450000  0.450000  0.150000    288.000000
 -0.450000  0.450000  0.150000    576.000000
 -0.350000  0.450000  0.150000    576.000000
 -0.250000  0.450000  0.150000    576.000000
 -0.150000  0.450000  0.150000    576.000000
 -0.450000 -0.450000  0.150000    288.000000
 -0.350000 -0.450000  0.150000    576.000000
 -0.250000 -0.450000  0.150000    576.000000
 -0.350000 -0.350000  0.150000    288.000000
 -0.250000 -0.350000  0.150000    576.000000
 -0.250000 -0.250000  0.150000    288.000000
  0.250000  0.250000  0.250000     96.000000
  0.350000  0.250000  0.250000    288.000000
  0.450000  0.250000  0.250000    288.000000
 -0.450000  0.250000  0.250000    288.000000
 -0.350000  0.250000  0.250000    288.000000
 -0.250000  0.250000  0.250000    288.000000
  0.350000  0.350000  0.250000    288.000000
  0.450000  0.350000  0.250000    576.000000
 -0.450000  0.350000  0.250000    576.000000
 -0.350000  0.350000  0.250000    576.000000
 -0.250000  0.350000  0.250000    576.000000
  0.450000  0.450000  0.250000    288.000000
 -0.450000  0.450000  0.250000    576.000000
 -0.350000  0.450000  0.250000    576.000000
 -0.250000  0.450000  0.250000    576.000000
 -0.450000 -0.450000  0.250000    288.000000
 -0.350000 -0.450000  0.250000    576.000000
 -0.350000 -0.350000  0.250000    288.000000
  0.350000  0.350000  0.350000     96.000000
  0.450000  0.350000  0.350000    288.000000
 -0.450000  0.350000  0.350000    288.000000
 -0.350000  0.350000  0.350000    288.000000
  0.450000  0.450000  0.350000    288.000000
 -0.450000  0.450000  0.350000    576.000000
 -0.350000  0.450000  0.350000    576.000000
 -0.450000 -0.450000  0.350000    288.000000
  0.450000  0.450000  0.450000     96.000000
 -0.450000  0.450000  0.450000    288.000000
 
 Following cartesian coordinates:
            Coordinates               Weight
  0.050000  0.050000  0.050000     96.000000
 -0.050000  0.150000  0.150000    288.000000
 -0.150000  0.250000  0.250000    288.000000
 -0.250000  0.350000  0.350000    288.000000
 -0.350000  0.450000  0.450000    288.000000
  0.550000 -0.450000 -0.450000    288.000000
  0.450000 -0.350000 -0.350000    288.000000
  0.350000 -0.250000 -0.250000    288.000000
  0.250000 -0.150000 -0.150000    288.000000
  0.150000 -0.050000 -0.050000    288.000000
  0.050000  0.050000  0.250000    288.000000
 -0.050000  0.150000  0.350000    576.000000
 -0.150000  0.250000  0.450000    576.000000
 -0.250000  0.350000  0.550000    576.000000
  0.650000 -0.550000 -0.350000    576.000000
  0.550000 -0.450000 -0.250000    576.000000
  0.450000 -0.350000 -0.150000    576.000000
  0.350000 -0.250000 -0.050000    576.000000
  0.250000 -0.150000  0.050000    576.000000
  0.050000  0.050000  0.450000    288.000000
 -0.050000  0.150000  0.550000    576.000000
 -0.150000  0.250000  0.650000    576.000000
  0.750000 -0.650000 -0.250000    576.000000
  0.650000 -0.550000 -0.150000    576.000000
  0.550000 -0.450000 -0.050000    576.000000
  0.450000 -0.350000  0.050000    576.000000
  0.350000 -0.250000  0.150000    576.000000
  0.050000  0.050000  0.650000    288.000000
 -0.050000  0.150000  0.750000    576.000000
  0.850000 -0.750000 -0.150000    576.000000
  0.750000 -0.650000 -0.050000    576.000000
  0.650000 -0.550000  0.050000    576.000000
  0.550000 -0.450000  0.150000    576.000000
  0.450000 -0.350000  0.250000    576.000000
  0.050000  0.050000  0.850000    288.000000
  0.950000 -0.850000 -0.050000    576.000000
  0.850000 -0.750000  0.050000    576.000000
  0.750000 -0.650000  0.150000    576.000000
  0.650000 -0.550000  0.250000    576.000000
  0.550000 -0.450000  0.350000    576.000000
  0.050000  0.050000 -0.950000    288.000000
 -0.050000  0.150000 -0.850000    576.000000
 -0.150000  0.250000 -0.750000    576.000000
 -0.250000  0.350000 -0.650000    576.000000
  0.050000  0.050000 -0.750000    288.000000
 -0.050000  0.150000 -0.650000    576.000000
 -0.150000  0.250000 -0.550000    576.000000
  0.050000  0.050000 -0.550000    288.000000
 -0.050000  0.150000 -0.450000    576.000000
  0.050000  0.050000 -0.350000    288.000000
  0.150000  0.150000  0.150000     96.000000
  0.050000  0.250000  0.250000    288.000000
 -0.050000  0.350000  0.350000    288.000000
 -0.150000  0.450000  0.450000    288.000000
  0.750000 -0.450000 -0.450000    288.000000
  0.650000 -0.350000 -0.350000    288.000000
  0.550000 -0.250000 -0.250000    288.000000
  0.450000 -0.150000 -0.150000    288.000000
  0.150000  0.150000  0.350000    288.000000
  0.050000  0.250000  0.450000    576.000000
 -0.050000  0.350000  0.550000    576.000000
  0.850000 -0.550000 -0.350000    576.000000
  0.750000 -0.450000 -0.250000    576.000000
  0.650000 -0.350000 -0.150000    576.000000
  0.550000 -0.250000 -0.050000    576.000000
  0.150000  0.150000  0.550000    288.000000
  0.050000  0.250000  0.650000    576.000000
  0.950000 -0.650000 -0.250000    576.000000
  0.850000 -0.550000 -0.150000    576.000000
  0.750000 -0.450000 -0.050000    576.000000
  0.650000 -0.350000  0.050000    576.000000
  0.150000  0.150000  0.750000    288.000000
  1.050000 -0.750000 -0.150000    576.000000
  0.950000 -0.650000 -0.050000    576.000000
  0.850000 -0.550000  0.050000    576.000000
  0.750000 -0.450000  0.150000    576.000000
  0.150000  0.150000 -1.050000    288.000000
  0.050000  0.250000 -0.950000    576.000000
 -0.050000  0.350000 -0.850000    576.000000
  0.150000  0.150000 -0.850000    288.000000
  0.050000  0.250000 -0.750000    576.000000
  0.150000  0.150000 -0.650000    288.000000
  0.250000  0.250000  0.250000     96.000000
  0.150000  0.350000  0.350000    288.000000
  0.050000  0.450000  0.450000    288.000000
  0.950000 -0.450000 -0.450000    288.000000
  0.850000 -0.350000 -0.350000    288.000000
  0.750000 -0.250000 -0.250000    288.000000
  0.250000  0.250000  0.450000    288.000000
  0.150000  0.350000  0.550000    576.000000
  1.050000 -0.550000 -0.350000    576.000000
  0.950000 -0.450000 -0.250000    576.000000
  0.850000 -0.350000 -0.150000    576.000000
  0.250000  0.250000  0.650000    288.000000
  1.150000 -0.650000 -0.250000    576.000000
  1.050000 -0.550000 -0.150000    576.000000
  0.950000 -0.450000 -0.050000    576.000000
  0.250000  0.250000 -1.150000    288.000000
  0.150000  0.350000 -1.050000    576.000000
  0.250000  0.250000 -0.950000    288.000000
  0.350000  0.350000  0.350000     96.000000
  0.250000  0.450000  0.450000    288.000000
  1.150000 -0.450000 -0.450000    288.000000
  1.050000 -0.350000 -0.350000    288.000000
  0.350000  0.350000  0.550000    288.000000
  1.250000 -0.550000 -0.350000    576.000000
  1.150000 -0.450000 -0.250000    576.000000
  0.350000  0.350000 -1.250000    288.000000
  0.450000  0.450000  0.450000     96.000000
  1.350000 -0.450000 -0.450000    288.000000
 


--------------------------------------------------------------------------------------------------------




 Dimension of arrays:
   k-points           NKPTS =    110   k-points in BZ     NKDIM =    110   number of bands    NBANDS=     12
   number of dos      NEDOS =    301   number of ions     NIONS =      1
   non local maximal  LDIM  =      6   non local SUM 2l+1 LMDIM =     18
   total plane-waves  NPLWV =   1728
   max r-space proj   IRMAX =      1   max aug-charges    IRDMAX=   6332
   dimension x,y,z NGX =    12 NGY =   12 NGZ =   12
   dimension x,y,z NGXF=    24 NGYF=   24 NGZF=   24
   support grid    NGXF=    24 NGYF=   24 NGZF=   24
   ions per type =               1
   NGX,Y,Z   is equivalent  to a cutoff of   6.88,  6.88,  6.88 a.u.
   NGXF,Y,Z  is equivalent  to a cutoff of  13.76, 13.76, 13.76 a.u.

 SYSTEM =  fcc Au                                  
 POSCAR =  FCC Au Bulk                             

 Startparameter for this run:
   NWRITE =      2    write-flag & timer
   PREC   = normal    normal or accurate (medium, high low for compatibility)
   ISTART =      0    job   : 0-new  1-cont  2-samecut
   ICHARG =      2    charge: 1-file 2-atom 10-const
   ISPIN  =      1    spin polarized calculation?
   LNONCOLLINEAR =      F non collinear calculations
   LSORBIT =      F    spin-orbit coupling
   INIWAV =      1    electr: 0-lowe 1-rand  2-diag
   LASPH  =      F    aspherical Exc in radial PAW
   METAGGA=      F    non-selfconsistent MetaGGA calc.

 Electronic Relaxation 1
   ENCUT  =  229.9 eV  16.89 Ry    4.11 a.u.   3.58  3.58  3.58*2*pi/ulx,y,z
   ENINI  =  229.9     initial cutoff
   ENAUG  =  356.7 eV  augmentation charge cutoff
   NELM   =     60;   NELMIN=  2; NELMDL= -5     # of ELM steps 
   EDIFF  = 0.1E-03   stopping-criterion for ELM
   LREAL  =      F    real-space projection
   NLSPLINE    = F    spline interpolate recip. space projectors
   LCOMPAT=      F    compatible to vasp.4.4
   GGA_COMPAT  = T    GGA compatible to vasp.4.4-vasp.4.6
   LMAXPAW     = -100 max onsite density
   LMAXMIX     =    2 max onsite mixed and CHGCAR
   VOSKOWN=      0    Vosko Wilk Nusair interpolation
   ROPT   =    0.00000
 Ionic relaxation
   EDIFFG = 0.1E-02   stopping-criterion for IOM
   NSW    =      0    number of steps for IOM
   NBLOCK =      1;   KBLOCK =      1    inner block; outer block 
   IBRION =     -1    ionic relax: 0-MD 1-quasi-New 2-CG
   NFREE  =      0    steps in history (QN), initial steepest desc. (CG)
   ISIF   =      2    stress and relaxation
   IWAVPR =     10    prediction:  0-non 1-charg 2-wave 3-comb
   ISYM   =      2    0-nonsym 1-usesym 2-fastsym
   LCORR  =      T    Harris-Foulkes like correction to forces

   POTIM  = 0.5000    time-step for ionic-motion
   TEIN   =    0.0    initial temperature
   TEBEG  =    0.0;   TEEND  =   0.0 temperature during run
   SMASS  =  -3.00    Nose mass-parameter (am)
   estimated Nose-frequenzy (Omega)   =  0.10E-29 period in steps =****** mass=  -0.192E-27a.u.
   SCALEE = 1.0000    scale energy and forces
   NPACO  =    256;   APACO  = 16.0  distance and # of slots for P.C.
   PSTRESS=    0.0 pullay stress

  Mass of Ions in am
   POMASS = 196.97
  Ionic Valenz
   ZVAL   =  11.00
  Atomic Wigner-Seitz radii
   RWIGS  =   1.50
  virtual crystal weights 
   VCA    =   1.00
   NELECT =      11.0000    total number of electrons
   NUPDOWN=      -1.0000    fix difference up-down

 DOS related values:
   EMIN   =  10.00;   EMAX   =-10.00  energy-range for DOS
   EFERMI =   0.00
   ISMEAR =     1;   SIGMA  =   0.20  broadening in eV -4-tet -1-fermi 0-gaus

 Electronic relaxation 2 (details)
   IALGO  =     38    algorithm
   LDIAG  =      T    sub-space diagonalisation (order eigenvalues)
   LSUBROT=      F    optimize rotation matrix (better conditioning)
   TURBO    =      0    0=normal 1=particle mesh
   IRESTART =      0    0=no restart 2=restart with 2 vectors
   NREBOOT  =      0    no. of reboots
   NMIN     =      0    reboot dimension
   EREF     =   0.00    reference energy to select bands
   IMIX   =      4    mixing-type and parameters
     AMIX     =   0.40;   BMIX     =  1.00
     AMIX_MAG =   1.60;   BMIX_MAG =  1.00
     AMIN     =   0.10
     WC   =   100.;   INIMIX=   1;  MIXPRE=   1;  MAXMIX= -45

 Intra band minimization:
   WEIMIN = 0.0000     energy-eigenvalue tresh-hold
   EBREAK =  0.21E-05  absolut break condition
   DEPER  =   0.30     relativ break condition  

   TIME   =   0.40     timestep for ELM

  volume/ion in A,a.u.               =      17.23       116.28
  Fermi-wavevector in a.u.,A,eV,Ry     =   1.409641  2.663835 27.035971  1.987088
  Thomas-Fermi vector in A             =   2.531676
 
 Write flags
   LWAVE        =      T    write WAVECAR
   LDOWNSAMPLE  =      F    k-point downsampling of WAVECAR
   LCHARG       =      T    write CHGCAR
   LVTOT        =      F    write LOCPOT, total local potential
   LVHAR        =      F    write LOCPOT, Hartree potential only
   LELF         =      F    write electronic localiz. function (ELF)
   LORBIT       =      0    0 simple, 1 ext, 2 COOP (PROOUT), +10 PAW based schemes


 Dipole corrections
   LMONO  =      F    monopole corrections only (constant potential shift)
   LDIPOL =      F    correct potential (dipole corrections)
   IDIPOL =      0    1-x, 2-y, 3-z, 4-all directions 
   EPSILON=  1.0000000 bulk dielectric constant

 Exchange correlation treatment:
   GGA     =    --    GGA type
   LEXCH   =     2    internal setting for exchange type
   VOSKOWN=      0    Vosko Wilk Nusair interpolation
   LHFCALC =     F    Hartree Fock is set to
   LHFONE  =     F    Hartree Fock one center treatment
   AEXX    =    0.0000 exact exchange contribution

 Linear response parameters
   LEPSILON=     F    determine dielectric tensor
   LRPA    =     F    only Hartree local field effects (RPA)
   LNABLA  =     F    use nabla operator in PAW spheres
   LVEL    =     F    velocity operator in full k-point grid
   LINTERFAST=   F  fast interpolation
   KINTER  =     0    interpolate to denser k-point grid
   CSHIFT  =0.1000    complex shift for real part using Kramers Kronig
   OMEGAMAX=  -1.0    maximum frequency
   DEG_THRESHOLD= 0.2000000E-02 threshold for treating states as degnerate
   RTIME   =   -0.100 relaxation time in fs
  (WPLASMAI=    0.000 imaginary part of plasma frequency in eV, 0.658/RTIME)
   DFIELD  = 0.0000000 0.0000000 0.0000000 field for delta impulse in time
 
 Orbital magnetization related:
   ORBITALMAG=     F  switch on orbital magnetization
   LCHIMAG   =     F  perturbation theory with respect to B field
   DQ        =  0.001000  dq finite difference perturbation B field
   LLRAUG    =     F  two centre corrections for induced B field



--------------------------------------------------------------------------------------------------------


 Static calculation
 charge density and potential will be updated during run
 non-spin polarized calculation
 Variant of blocked Davidson
 Davidson routine will perform the subspace rotation
 perform sub-space diagonalisation
    after iterative eigenvector-optimisation
 modified Broyden-mixing scheme, WC =      100.0
 initial mixing is a Kerker type mixing with AMIX =  0.4000 and BMIX =      1.0000
 Hartree-type preconditioning will be used
 using additional bands            6
 reciprocal scheme for non local part
 use partial core corrections
 calculate Harris-corrections to forces 
   (improved forces if not selfconsistent)
 use of overlap-Matrix (Vanderbilt PP)
 Methfessel and Paxton  Order N= 1 SIGMA  =   0.20


--------------------------------------------------------------------------------------------------------


  energy-cutoff  :      229.87
  volume of cell :       17.23
      direct lattice vectors                 reciprocal lattice vectors
     0.000000000  2.050000000  2.050000000    -0.243902439  0.243902439  0.243902439
     2.050000000  0.000000000  2.050000000     0.243902439 -0.243902439  0.243902439
     2.050000000  2.050000000  0.000000000     0.243902439  0.243902439 -0.243902439

  length of vectors
     2.899137803  2.899137803  2.899137803     0.422451416  0.422451416  0.422451416


 
 k-points in units of 2pi/SCALE and weight: 10x10x10                                
   0.05000000  0.05000000  0.05000000       0.002
  -0.05000000  0.15000000  0.15000000       0.006
  -0.15000000  0.25000000  0.25000000       0.006
  -0.25000000  0.35000000  0.35000000       0.006
  -0.35000000  0.45000000  0.45000000       0.006
   0.55000000 -0.45000000 -0.45000000       0.006
   0.45000000 -0.35000000 -0.35000000       0.006
   0.35000000 -0.25000000 -0.25000000       0.006
   0.25000000 -0.15000000 -0.15000000       0.006
   0.15000000 -0.05000000 -0.05000000       0.006
   0.05000000  0.05000000  0.25000000       0.006
  -0.05000000  0.15000000  0.35000000       0.012
  -0.15000000  0.25000000  0.45000000       0.012
  -0.25000000  0.35000000  0.55000000       0.012
   0.65000000 -0.55000000 -0.35000000       0.012
   0.55000000 -0.45000000 -0.25000000       0.012
   0.45000000 -0.35000000 -0.15000000       0.012
   0.35000000 -0.25000000 -0.05000000       0.012
   0.25000000 -0.15000000  0.05000000       0.012
   0.05000000  0.05000000  0.45000000       0.006
  -0.05000000  0.15000000  0.55000000       0.012
  -0.15000000  0.25000000  0.65000000       0.012
   0.75000000 -0.65000000 -0.25000000       0.012
   0.65000000 -0.55000000 -0.15000000       0.012
   0.55000000 -0.45000000 -0.05000000       0.012
   0.45000000 -0.35000000  0.05000000       0.012
   0.35000000 -0.25000000  0.15000000       0.012
   0.05000000  0.05000000  0.65000000       0.006
  -0.05000000  0.15000000  0.75000000       0.012
   0.85000000 -0.75000000 -0.15000000       0.012
   0.75000000 -0.65000000 -0.05000000       0.012
   0.65000000 -0.55000000  0.05000000       0.012
   0.55000000 -0.45000000  0.15000000       0.012
   0.45000000 -0.35000000  0.25000000       0.012
   0.05000000  0.05000000  0.85000000       0.006
   0.95000000 -0.85000000 -0.05000000       0.012
   0.85000000 -0.75000000  0.05000000       0.012
   0.75000000 -0.65000000  0.15000000       0.012
   0.65000000 -0.55000000  0.25000000       0.012
   0.55000000 -0.45000000  0.35000000       0.012
   0.05000000  0.05000000 -0.95000000       0.006
  -0.05000000  0.15000000 -0.85000000       0.012
  -0.15000000  0.25000000 -0.75000000       0.012
  -0.25000000  0.35000000 -0.65000000       0.012
   0.05000000  0.05000000 -0.75000000       0.006
  -0.05000000  0.15000000 -0.65000000       0.012
  -0.15000000  0.25000000 -0.55000000       0.012
   0.05000000  0.05000000 -0.55000000       0.006
  -0.05000000  0.15000000 -0.45000000       0.012
   0.05000000  0.05000000 -0.35000000       0.006
   0.15000000  0.15000000  0.15000000       0.002
   0.05000000  0.25000000  0.25000000       0.006
  -0.05000000  0.35000000  0.35000000       0.006
  -0.15000000  0.45000000  0.45000000       0.006
   0.75000000 -0.45000000 -0.45000000       0.006
   0.65000000 -0.35000000 -0.35000000       0.006
   0.55000000 -0.25000000 -0.25000000       0.006
   0.45000000 -0.15000000 -0.15000000       0.006
   0.15000000  0.15000000  0.35000000       0.006
   0.05000000  0.25000000  0.45000000       0.012
  -0.05000000  0.35000000  0.55000000       0.012
   0.85000000 -0.55000000 -0.35000000       0.012
   0.75000000 -0.45000000 -0.25000000       0.012
   0.65000000 -0.35000000 -0.15000000       0.012
   0.55000000 -0.25000000 -0.05000000       0.012
   0.15000000  0.15000000  0.55000000       0.006
   0.05000000  0.25000000  0.65000000       0.012
   0.95000000 -0.65000000 -0.25000000       0.012
   0.85000000 -0.55000000 -0.15000000       0.012
   0.75000000 -0.45000000 -0.05000000       0.012
   0.65000000 -0.35000000  0.05000000       0.012
   0.15000000  0.15000000  0.75000000       0.006
   1.05000000 -0.75000000 -0.15000000       0.012
   0.95000000 -0.65000000 -0.05000000       0.012
   0.85000000 -0.55000000  0.05000000       0.012
   0.75000000 -0.45000000  0.15000000       0.012
   0.15000000  0.15000000 -1.05000000       0.006
   0.05000000  0.25000000 -0.95000000       0.012
  -0.05000000  0.35000000 -0.85000000       0.012
   0.15000000  0.15000000 -0.85000000       0.006
   0.05000000  0.25000000 -0.75000000       0.012
   0.15000000  0.15000000 -0.65000000       0.006
   0.25000000  0.25000000  0.25000000       0.002
   0.15000000  0.35000000  0.35000000       0.006
   0.05000000  0.45000000  0.45000000       0.006
   0.95000000 -0.45000000 -0.45000000       0.006
   0.85000000 -0.35000000 -0.35000000       0.006
   0.75000000 -0.25000000 -0.25000000       0.006
   0.25000000  0.25000000  0.45000000       0.006
   0.15000000  0.35000000  0.55000000       0.012
   1.05000000 -0.55000000 -0.35000000       0.012
   0.95000000 -0.45000000 -0.25000000       0.012
   0.85000000 -0.35000000 -0.15000000       0.012
   0.25000000  0.25000000  0.65000000       0.006
   1.15000000 -0.65000000 -0.25000000       0.012
   1.05000000 -0.55000000 -0.15000000       0.012
   0.95000000 -0.45000000 -0.05000000       0.012
   0.25000000  0.25000000 -1.15000000       0.006
   0.15000000  0.35000000 -1.05000000       0.012
   0.25000000  0.25000000 -0.95000000       0.006
   0.35000000  0.35000000  0.35000000       0.002
   0.25000000  0.45000000  0.45000000       0.006
   1.15000000 -0.45000000 -0.45000000       0.006
   1.05000000 -0.35000000 -0.35000000       0.006
   0.35000000  0.35000000  0.55000000       0.006
   1.25000000 -0.55000000 -0.35000000       0.012
   1.15000000 -0.45000000 -0.25000000       0.012
   0.35000000  0.35000000 -1.25000000       0.006
   0.45000000  0.45000000  0.45000000       0.002
   1.35000000 -0.45000000 -0.45000000       0.006
 
 k-points in reciprocal lattice and weights: 10x10x10                                
   0.05000000  0.05000000  0.05000000       0.002
   0.15000000  0.05000000  0.05000000       0.006
   0.25000000  0.05000000  0.05000000       0.006
   0.35000000  0.05000000  0.05000000       0.006
   0.45000000  0.05000000  0.05000000       0.006
  -0.45000000  0.05000000  0.05000000       0.006
  -0.35000000  0.05000000  0.05000000       0.006
  -0.25000000  0.05000000  0.05000000       0.006
  -0.15000000  0.05000000  0.05000000       0.006
  -0.05000000  0.05000000  0.05000000       0.006
   0.15000000  0.15000000  0.05000000       0.006
   0.25000000  0.15000000  0.05000000       0.012
   0.35000000  0.15000000  0.05000000       0.012
   0.45000000  0.15000000  0.05000000       0.012
  -0.45000000  0.15000000  0.05000000       0.012
  -0.35000000  0.15000000  0.05000000       0.012
  -0.25000000  0.15000000  0.05000000       0.012
  -0.15000000  0.15000000  0.05000000       0.012
  -0.05000000  0.15000000  0.05000000       0.012
   0.25000000  0.25000000  0.05000000       0.006
   0.35000000  0.25000000  0.05000000       0.012
   0.45000000  0.25000000  0.05000000       0.012
  -0.45000000  0.25000000  0.05000000       0.012
  -0.35000000  0.25000000  0.05000000       0.012
  -0.25000000  0.25000000  0.05000000       0.012
  -0.15000000  0.25000000  0.05000000       0.012
  -0.05000000  0.25000000  0.05000000       0.012
   0.35000000  0.35000000  0.05000000       0.006
   0.45000000  0.35000000  0.05000000       0.012
  -0.45000000  0.35000000  0.05000000       0.012
  -0.35000000  0.35000000  0.05000000       0.012
  -0.25000000  0.35000000  0.05000000       0.012
  -0.15000000  0.35000000  0.05000000       0.012
  -0.05000000  0.35000000  0.05000000       0.012
   0.45000000  0.45000000  0.05000000       0.006
  -0.45000000  0.45000000  0.05000000       0.012
  -0.35000000  0.45000000  0.05000000       0.012
  -0.25000000  0.45000000  0.05000000       0.012
  -0.15000000  0.45000000  0.05000000       0.012
  -0.05000000  0.45000000  0.05000000       0.012
  -0.45000000 -0.45000000  0.05000000       0.006
  -0.35000000 -0.45000000  0.05000000       0.012
  -0.25000000 -0.45000000  0.05000000       0.012
  -0.15000000 -0.45000000  0.05000000       0.012
  -0.35000000 -0.35000000  0.05000000       0.006
  -0.25000000 -0.35000000  0.05000000       0.012
  -0.15000000 -0.35000000  0.05000000       0.012
  -0.25000000 -0.25000000  0.05000000       0.006
  -0.15000000 -0.25000000  0.05000000       0.012
  -0.15000000 -0.15000000  0.05000000       0.006
   0.15000000  0.15000000  0.15000000       0.002
   0.25000000  0.15000000  0.15000000       0.006
   0.35000000  0.15000000  0.15000000       0.006
   0.45000000  0.15000000  0.15000000       0.006
  -0.45000000  0.15000000  0.15000000       0.006
  -0.35000000  0.15000000  0.15000000       0.006
  -0.25000000  0.15000000  0.15000000       0.006
  -0.15000000  0.15000000  0.15000000       0.006
   0.25000000  0.25000000  0.15000000       0.006
   0.35000000  0.25000000  0.15000000       0.012
   0.45000000  0.25000000  0.15000000       0.012
  -0.45000000  0.25000000  0.15000000       0.012
  -0.35000000  0.25000000  0.15000000       0.012
  -0.25000000  0.25000000  0.15000000       0.012
  -0.15000000  0.25000000  0.15000000       0.012
   0.35000000  0.35000000  0.15000000       0.006
   0.45000000  0.35000000  0.15000000       0.012
  -0.45000000  0.35000000  0.15000000       0.012
  -0.35000000  0.35000000  0.15000000       0.012
  -0.25000000  0.35000000  0.15000000       0.012
  -0.15000000  0.35000000  0.15000000       0.012
   0.45000000  0.45000000  0.15000000       0.006
  -0.45000000  0.45000000  0.15000000       0.012
  -0.35000000  0.45000000  0.15000000       0.012
  -0.25000000  0.45000000  0.15000000       0.012
  -0.15000000  0.45000000  0.15000000       0.012
  -0.45000000 -0.45000000  0.15000000       0.006
  -0.35000000 -0.45000000  0.15000000       0.012
  -0.25000000 -0.45000000  0.15000000       0.012
  -0.35000000 -0.35000000  0.15000000       0.006
  -0.25000000 -0.35000000  0.15000000       0.012
  -0.25000000 -0.25000000  0.15000000       0.006
   0.25000000  0.25000000  0.25000000       0.002
   0.35000000  0.25000000  0.25000000       0.006
   0.45000000  0.25000000  0.25000000       0.006
  -0.45000000  0.25000000  0.25000000       0.006
  -0.35000000  0.25000000  0.25000000       0.006
  -0.25000000  0.25000000  0.25000000       0.006
   0.35000000  0.35000000  0.25000000       0.006
   0.45000000  0.35000000  0.25000000       0.012
  -0.45000000  0.35000000  0.25000000       0.012
  -0.35000000  0.35000000  0.25000000       0.012
  -0.25000000  0.35000000  0.25000000       0.012
   0.45000000  0.45000000  0.25000000       0.006
  -0.45000000  0.45000000  0.25000000       0.012
  -0.35000000  0.45000000  0.25000000       0.012
  -0.25000000  0.45000000  0.25000000       0.012
  -0.45000000 -0.45000000  0.25000000       0.006
  -0.35000000 -0.45000000  0.25000000       0.012
  -0.35000000 -0.35000000  0.25000000       0.006
   0.35000000  0.35000000  0.35000000       0.002
   0.45000000  0.35000000  0.35000000       0.006
  -0.45000000  0.35000000  0.35000000       0.006
  -0.35000000  0.35000000  0.35000000       0.006
   0.45000000  0.45000000  0.35000000       0.006
  -0.45000000  0.45000000  0.35000000       0.012
  -0.35000000  0.45000000  0.35000000       0.012
  -0.45000000 -0.45000000  0.35000000       0.006
   0.45000000  0.45000000  0.45000000       0.002
  -0.45000000  0.45000000  0.45000000       0.006
 
 position of ions in fractional coordinates (direct lattice) 
   0.00000000  0.00000000  0.00000000
 
 position of ions in cartesian coordinates  (Angst):
   0.00000000  0.00000000  0.00000000
 


--------------------------------------------------------------------------------------------------------


 k-point  1 :   0.0500 0.0500 0.0500  plane waves:     137
 k-point  2 :   0.1500 0.0500 0.0500  plane waves:     141
 k-point  3 :   0.2500 0.0500 0.0500  plane waves:     143
 k-point  4 :   0.3500 0.0500 0.0500  plane waves:     141
 k-point  5 :   0.4500 0.0500 0.0500  plane waves:     142
 k-point  6 :  -0.4500 0.0500 0.0500  plane waves:     138
 k-point  7 :  -0.3500 0.0500 0.0500  plane waves:     143
 k-point  8 :  -0.2500 0.0500 0.0500  plane waves:     141
 k-point  9 :  -0.1500 0.0500 0.0500  plane waves:     141
 k-point 10 :  -0.0500 0.0500 0.0500  plane waves:     141
 k-point 11 :   0.1500 0.1500 0.0500  plane waves:     141
 k-point 12 :   0.2500 0.1500 0.0500  plane waves:     139
 k-point 13 :   0.3500 0.1500 0.0500  plane waves:     140
 k-point 14 :   0.4500 0.1500 0.0500  plane waves:     140
 k-point 15 :  -0.4500 0.1500 0.0500  plane waves:     134
 k-point 16 :  -0.3500 0.1500 0.0500  plane waves:     137
 k-point 17 :  -0.2500 0.1500 0.0500  plane waves:     139
 k-point 18 :  -0.1500 0.1500 0.0500  plane waves:     140
 k-point 19 :  -0.0500 0.1500 0.0500  plane waves:     140
 k-point 20 :   0.2500 0.2500 0.0500  plane waves:     135
 k-point 21 :   0.3500 0.2500 0.0500  plane waves:     139
 k-point 22 :   0.4500 0.2500 0.0500  plane waves:     137
 k-point 23 :  -0.4500 0.2500 0.0500  plane waves:     134
 k-point 24 :  -0.3500 0.2500 0.0500  plane waves:     133
 k-point 25 :  -0.2500 0.2500 0.0500  plane waves:     137
 k-point 26 :  -0.1500 0.2500 0.0500  plane waves:     140
 k-point 27 :  -0.0500 0.2500 0.0500  plane waves:     141
 k-point 28 :   0.3500 0.3500 0.0500  plane waves:     133
 k-point 29 :   0.4500 0.3500 0.0500  plane waves:     133
 k-point 30 :  -0.4500 0.3500 0.0500  plane waves:     133
 k-point 31 :  -0.3500 0.3500 0.0500  plane waves:     135
 k-point 32 :  -0.2500 0.3500 0.0500  plane waves:     133
 k-point 33 :  -0.1500 0.3500 0.0500  plane waves:     136
 k-point 34 :  -0.0500 0.3500 0.0500  plane waves:     142
 k-point 35 :   0.4500 0.4500 0.0500  plane waves:     135
 k-point 36 :  -0.4500 0.4500 0.0500  plane waves:     133
 k-point 37 :  -0.3500 0.4500 0.0500  plane waves:     133
 k-point 38 :  -0.2500 0.4500 0.0500  plane waves:     133
 k-point 39 :  -0.1500 0.4500 0.0500  plane waves:     135
 k-point 40 :  -0.0500 0.4500 0.0500  plane waves:     137
 k-point 41 :  -0.4500-0.4500 0.0500  plane waves:     132
 k-point 42 :  -0.3500-0.4500 0.0500  plane waves:     133
 k-point 43 :  -0.2500-0.4500 0.0500  plane waves:     137
 k-point 44 :  -0.1500-0.4500 0.0500  plane waves:     136
 k-point 45 :  -0.3500-0.3500 0.0500  plane waves:     133
 k-point 46 :  -0.2500-0.3500 0.0500  plane waves:     135
 k-point 47 :  -0.1500-0.3500 0.0500  plane waves:     139
 k-point 48 :  -0.2500-0.2500 0.0500  plane waves:     135
 k-point 49 :  -0.1500-0.2500 0.0500  plane waves:     138
 k-point 50 :  -0.1500-0.1500 0.0500  plane waves:     137
 k-point 51 :   0.1500 0.1500 0.1500  plane waves:     144
 k-point 52 :   0.2500 0.1500 0.1500  plane waves:     142
 k-point 53 :   0.3500 0.1500 0.1500  plane waves:     140
 k-point 54 :   0.4500 0.1500 0.1500  plane waves:     139
 k-point 55 :  -0.4500 0.1500 0.1500  plane waves:     133
 k-point 56 :  -0.3500 0.1500 0.1500  plane waves:     134
 k-point 57 :  -0.2500 0.1500 0.1500  plane waves:     140
 k-point 58 :  -0.1500 0.1500 0.1500  plane waves:     140
 k-point 59 :   0.2500 0.2500 0.1500  plane waves:     140
 k-point 60 :   0.3500 0.2500 0.1500  plane waves:     139
 k-point 61 :   0.4500 0.2500 0.1500  plane waves:     140
 k-point 62 :  -0.4500 0.2500 0.1500  plane waves:     135
 k-point 63 :  -0.3500 0.2500 0.1500  plane waves:     135
 k-point 64 :  -0.2500 0.2500 0.1500  plane waves:     138
 k-point 65 :  -0.1500 0.2500 0.1500  plane waves:     137
 k-point 66 :   0.3500 0.3500 0.1500  plane waves:     138
 k-point 67 :   0.4500 0.3500 0.1500  plane waves:     138
 k-point 68 :  -0.4500 0.3500 0.1500  plane waves:     134
 k-point 69 :  -0.3500 0.3500 0.1500  plane waves:     137
 k-point 70 :  -0.2500 0.3500 0.1500  plane waves:     137
 k-point 71 :  -0.1500 0.3500 0.1500  plane waves:     138
 k-point 72 :   0.4500 0.4500 0.1500  plane waves:     135
 k-point 73 :  -0.4500 0.4500 0.1500  plane waves:     132
 k-point 74 :  -0.3500 0.4500 0.1500  plane waves:     133
 k-point 75 :  -0.2500 0.4500 0.1500  plane waves:     134
 k-point 76 :  -0.1500 0.4500 0.1500  plane waves:     136
 k-point 77 :  -0.4500-0.4500 0.1500  plane waves:     132
 k-point 78 :  -0.3500-0.4500 0.1500  plane waves:     133
 k-point 79 :  -0.2500-0.4500 0.1500  plane waves:     134
 k-point 80 :  -0.3500-0.3500 0.1500  plane waves:     133
 k-point 81 :  -0.2500-0.3500 0.1500  plane waves:     134
 k-point 82 :  -0.2500-0.2500 0.1500  plane waves:     137
 k-point 83 :   0.2500 0.2500 0.2500  plane waves:     144
 k-point 84 :   0.3500 0.2500 0.2500  plane waves:     140
 k-point 85 :   0.4500 0.2500 0.2500  plane waves:     137
 k-point 86 :  -0.4500 0.2500 0.2500  plane waves:     135
 k-point 87 :  -0.3500 0.2500 0.2500  plane waves:     131
 k-point 88 :  -0.2500 0.2500 0.2500  plane waves:     136
 k-point 89 :   0.3500 0.3500 0.2500  plane waves:     142
 k-point 90 :   0.4500 0.3500 0.2500  plane waves:     141
 k-point 91 :  -0.4500 0.3500 0.2500  plane waves:     134
 k-point 92 :  -0.3500 0.3500 0.2500  plane waves:     133
 k-point 93 :  -0.2500 0.3500 0.2500  plane waves:     134
 k-point 94 :   0.4500 0.4500 0.2500  plane waves:     138
 k-point 95 :  -0.4500 0.4500 0.2500  plane waves:     135
 k-point 96 :  -0.3500 0.4500 0.2500  plane waves:     134
 k-point 97 :  -0.2500 0.4500 0.2500  plane waves:     136
 k-point 98 :  -0.4500-0.4500 0.2500  plane waves:     132
 k-point 99 :  -0.3500-0.4500 0.2500  plane waves:     134
 k-point ** :  -0.3500-0.3500 0.2500  plane waves:     134
 k-point ** :   0.3500 0.3500 0.3500  plane waves:     144
 k-point ** :   0.4500 0.3500 0.3500  plane waves:     139
 k-point ** :  -0.4500 0.3500 0.3500  plane waves:     133
 k-point ** :  -0.3500 0.3500 0.3500  plane waves:     135
 k-point ** :   0.4500 0.4500 0.3500  plane waves:     140
 k-point ** :  -0.4500 0.4500 0.3500  plane waves:     136
 k-point ** :  -0.3500 0.4500 0.3500  plane waves:     135
 k-point ** :  -0.4500-0.4500 0.3500  plane waves:     134
 k-point ** :   0.4500 0.4500 0.4500  plane waves:     138
 k-point ** :  -0.4500 0.4500 0.4500  plane waves:     136

 maximum and minimum number of plane-waves per node :       144      131

 maximum number of plane-waves:       144
 maximum index in each direction: 
   IXMAX=    4   IYMAX=    4   IZMAX=    3
   IXMIN=   -4   IYMIN=   -4   IZMIN=   -4


 serial   3D FFT for wavefunctions
 parallel 3D FFT for charge:
    minimum data exchange during FFTs selected (reduces bandwidth)


 total amount of memory used by VASP MPI-rank0    33732. kBytes
=======================================================================

   base      :      30000. kBytes
   nonl-proj :       2283. kBytes
   fftplans  :        238. kBytes
   grid      :        331. kBytes
   one-center:         15. kBytes
   wavefun   :        865. kBytes
 
     INWAV:  cpu time    0.0008: real time    0.0000
 Broyden mixing: mesh for mixing (old mesh)
   NGX =  7   NGY =  7   NGZ =  7
  (NGX  = 24   NGY  = 24   NGZ  = 24)
  gives a total of    343 points

 initial charge density was supplied:
 charge density of overlapping atoms calculated
 number of electron      11.0000000 magnetization 
 keeping initial charge density in first step


--------------------------------------------------------------------------------------------------------


 Maximum index for augmentation-charges         1485 (set IRDMAX)


--------------------------------------------------------------------------------------------------------


 First call to EWALD:  gamma=   0.686
 Maximum number of real-space cells 3x 3x 3
 Maximum number of reciprocal cells 3x 3x 3

    FEWALD:  cpu time    0.0024: real time    0.0022


--------------------------------------- Iteration      1(   1)  ---------------------------------------


    POTLOK:  cpu time    0.0015: real time    0.0027
    SETDIJ:  cpu time    0.0018: real time    0.0018
     EDDAV:  cpu time    0.2682: real time    0.2745
       DOS:  cpu time    0.0015: real time    0.0014
    --------------------------------------------
      LOOP:  cpu time    0.2731: real time    0.2805

 eigenvalue-minimisations  :  3268
 total energy-change (2. order) : 0.2959943E+02  (-0.3576527E+03)
 number of electron      11.0000000 magnetization 
 augmentation part       11.0000000 magnetization 

 Free energy of the ion-electron system (eV)
  ---------------------------------------------------
  alpha Z        PSCENC =       106.66585453
  Ewald energy   TEWEN  =      -974.21287850
  -Hartree energ DENC   =      -124.29355371
  -exchange      EXHF   =         0.00000000
  -V(xc)+E(xc)   XCENC  =        16.27378209
  PAW double counting   =       746.10209728     -725.46159323
  entropy T*S    EENTRO =        -0.00119725
  eigenvalues    EBANDS =        55.13076932
  atomic energy  EATOM  =       929.39614979
  Solvation  Ediel_sol  =         0.00000000
  ---------------------------------------------------
  free energy    TOTEN  =        29.59943032 eV

  energy without entropy =       29.60062758  energy(sigma->0) =       29.59982941


--------------------------------------------------------------------------------------------------------




--------------------------------------- Iteration      1(   2)  ---------------------------------------


     EDDAV:  cpu time    0.2372: real time    0.2429
       DOS:  cpu time    0.0014: real time    0.0014
    --------------------------------------------
      LOOP:  cpu time    0.2387: real time    0.2443

 eigenvalue-minimisations  :  3052
 total energy-change (2. order) :-0.3398927E+02  (-0.3211169E+02)
 number of electron      11.0000000 magnetization 
 augmentation part       11.0000000 magnetization 

 Free energy of the ion-electron system (eV)
  ---------------------------------------------------
  alpha Z        PSCENC =       106.66585453
  Ewald energy   TEWEN  =      -974.21287850
  -Hartree energ DENC   =      -124.29355371
  -exchange      EXHF   =         0.00000000
  -V(xc)+E(xc)   XCENC  =        16.27378209
  PAW double counting   =       746.10209728     -725.46159323
  entropy T*S    EENTRO =        -0.00048884
  eigenvalues    EBANDS =        21.14078722
  atomic energy  EATOM  =       929.39614979
  Solvation  Ediel_sol  =         0.00000000
  ---------------------------------------------------
  free energy    TOTEN  =        -4.38984336 eV

  energy without entropy =       -4.38935453  energy(sigma->0) =       -4.38968042


--------------------------------------------------------------------------------------------------------




--------------------------------------- Iteration      1(   3)  ---------------------------------------


     EDDAV:  cpu time    0.2143: real time    0.2186
       DOS:  cpu time    0.0015: real time    0.0015
    --------------------------------------------
      LOOP:  cpu time    0.2158: real time    0.2200

 eigenvalue-minimisations  :  3180
 total energy-change (2. order) :-0.3187072E+00  (-0.3185946E+00)
 number of electron      11.0000000 magnetization 
 augmentation part       11.0000000 magnetization 

 Free energy of the ion-electron system (eV)
  ---------------------------------------------------
  alpha Z        PSCENC =       106.66585453
  Ewald energy   TEWEN  =      -974.21287850
  -Hartree energ DENC   =      -124.29355371
  -exchange      EXHF   =         0.00000000
  -V(xc)+E(xc)   XCENC  =        16.27378209
  PAW double counting   =       746.10209728     -725.46159323
  entropy T*S    EENTRO =        -0.00041987
  eigenvalues    EBANDS =        20.82201104
  atomic energy  EATOM  =       929.39614979
  Solvation  Ediel_sol  =         0.00000000
  ---------------------------------------------------
  free energy    TOTEN  =        -4.70855057 eV

  energy without entropy =       -4.70813070  energy(sigma->0) =       -4.70841061


--------------------------------------------------------------------------------------------------------




--------------------------------------- Iteration      1(   4)  ---------------------------------------


     EDDAV:  cpu time    0.2161: real time    0.2205
       DOS:  cpu time    0.0015: real time    0.0015
    --------------------------------------------
      LOOP:  cpu time    0.2176: real time    0.2220

 eigenvalue-minimisations  :  3156
 total energy-change (2. order) :-0.8218063E-03  (-0.8217862E-03)
 number of electron      11.0000000 magnetization 
 augmentation part       11.0000000 magnetization 

 Free energy of the ion-electron system (eV)
  ---------------------------------------------------
  alpha Z        PSCENC =       106.66585453
  Ewald energy   TEWEN  =      -974.21287850
  -Hartree energ DENC   =      -124.29355371
  -exchange      EXHF   =         0.00000000
  -V(xc)+E(xc)   XCENC  =        16.27378209
  PAW double counting   =       746.10209728     -725.46159323
  entropy T*S    EENTRO =        -0.00041949
  eigenvalues    EBANDS =        20.82118886
  atomic energy  EATOM  =       929.39614979
  Solvation  Ediel_sol  =         0.00000000
  ---------------------------------------------------
  free energy    TOTEN  =        -4.70937237 eV

  energy without entropy =       -4.70895289  energy(sigma->0) =       -4.70923255


--------------------------------------------------------------------------------------------------------




--------------------------------------- Iteration      1(   5)  ---------------------------------------


     EDDAV:  cpu time    0.2083: real time    0.2128
       DOS:  cpu time    0.0014: real time    0.0014
    CHARGE:  cpu time    0.0047: real time    0.0047
    MIXING:  cpu time    0.0002: real time    0.0003
    --------------------------------------------
      LOOP:  cpu time    0.2147: real time    0.2192

 eigenvalue-minimisations  :  2880
 total energy-change (2. order) :-0.5640909E-05  (-0.5641227E-05)
 number of electron      11.0000055 magnetization 
 augmentation part        3.8230200 magnetization 

 Broyden mixing:
  rms(total) = 0.31676E+00    rms(broyden)= 0.31646E+00
  rms(prec ) = 0.13122E+01
  weight for this iteration     100.00

 Free energy of the ion-electron system (eV)
  ---------------------------------------------------
  alpha Z        PSCENC =       106.66585453
  Ewald energy   TEWEN  =      -974.21287850
  -Hartree energ DENC   =      -124.29355371
  -exchange      EXHF   =         0.00000000
  -V(xc)+E(xc)   XCENC  =        16.27378209
  PAW double counting   =       746.10209728     -725.46159323
  entropy T*S    EENTRO =        -0.00041948
  eigenvalues    EBANDS =        20.82118321
  atomic energy  EATOM  =       929.39614979
  Solvation  Ediel_sol  =         0.00000000
  ---------------------------------------------------
  free energy    TOTEN  =        -4.70937801 eV

  energy without entropy =       -4.70895853  energy(sigma->0) =       -4.70923819


--------------------------------------------------------------------------------------------------------




--------------------------------------- Iteration      1(   6)  ---------------------------------------


    POTLOK:  cpu time    0.0014: real time    0.0014
    SETDIJ:  cpu time    0.0012: real time    0.0012
     EDDAV:  cpu time    0.2317: real time    0.2368
       DOS:  cpu time    0.0015: real time    0.0015
    CHARGE:  cpu time    0.0040: real time    0.0040
    MIXING:  cpu time    0.0005: real time    0.0005
    --------------------------------------------
      LOOP:  cpu time    0.2402: real time    0.2453

 eigenvalue-minimisations  :  3144
 total energy-change (2. order) : 0.2968587E+00  (-0.8249439E-01)
 number of electron      11.0000058 magnetization 
 augmentation part        3.9686981 magnetization 

 Broyden mixing:
  rms(total) = 0.79734E-01    rms(broyden)= 0.79687E-01
  rms(prec ) = 0.31584E+00
  weight for this iteration     100.00

 eigenvalues of (default mixing * dielectric matrix)
  average eigenvalue GAMMA=   1.2307
  1.2307

 Free energy of the ion-electron system (eV)
  ---------------------------------------------------
  alpha Z        PSCENC =       106.66585453
  Ewald energy   TEWEN  =      -974.21287850
  -Hartree energ DENC   =      -116.19613282
  -exchange      EXHF   =         0.00000000
  -V(xc)+E(xc)   XCENC  =        15.86317520
  PAW double counting   =       739.11571520     -719.72146969
  entropy T*S    EENTRO =         0.00089185
  eigenvalues    EBANDS =        14.67617514
  atomic energy  EATOM  =       929.39614979
  Solvation  Ediel_sol  =         0.00000000
  ---------------------------------------------------
  free energy    TOTEN  =        -4.41251930 eV

  energy without entropy =       -4.41341116  energy(sigma->0) =       -4.41281659


--------------------------------------------------------------------------------------------------------




--------------------------------------- Iteration      1(   7)  ---------------------------------------


    POTLOK:  cpu time    0.0014: real time    0.0015
    SETDIJ:  cpu time    0.0012: real time    0.0012
     EDDAV:  cpu time    0.2147: real time    0.2189
       DOS:  cpu time    0.0018: real time    0.0017
    CHARGE:  cpu time    0.0047: real time    0.0047
    MIXING:  cpu time    0.0004: real time    0.0004
    --------------------------------------------
      LOOP:  cpu time    0.2242: real time    0.2285

 eigenvalue-minimisations  :  3184
 total energy-change (2. order) : 0.2252801E-01  (-0.4826382E-02)
 number of electron      11.0000058 magnetization 
 augmentation part        4.0008942 magnetization 

 Broyden mixing:
  rms(total) = 0.28565E-01    rms(broyden)= 0.28553E-01
  rms(prec ) = 0.67374E-01
  weight for this iteration     100.00

 eigenvalues of (default mixing * dielectric matrix)
  average eigenvalue GAMMA=   1.7797
  1.1957  2.3636

 Free energy of the ion-electron system (eV)
  ---------------------------------------------------
  alpha Z        PSCENC =       106.66585453
  Ewald energy   TEWEN  =      -974.21287850
  -Hartree energ DENC   =      -113.80067452
  -exchange      EXHF   =         0.00000000
  -V(xc)+E(xc)   XCENC  =        15.73761172
  PAW double counting   =       742.39691541     -723.79462553
  entropy T*S    EENTRO =         0.00088196
  eigenvalues    EBANDS =        13.22077386
  atomic energy  EATOM  =       929.39614979
  Solvation  Ediel_sol  =         0.00000000
  ---------------------------------------------------
  free energy    TOTEN  =        -4.38999129 eV

  energy without entropy =       -4.39087325  energy(sigma->0) =       -4.39028528


--------------------------------------------------------------------------------------------------------




--------------------------------------- Iteration      1(   8)  ---------------------------------------


    POTLOK:  cpu time    0.0017: real time    0.0020
    SETDIJ:  cpu time    0.0014: real time    0.0014
     EDDAV:  cpu time    0.2225: real time    0.2276
       DOS:  cpu time    0.0016: real time    0.0015
    CHARGE:  cpu time    0.0043: real time    0.0044
    MIXING:  cpu time    0.0003: real time    0.0004
    --------------------------------------------
      LOOP:  cpu time    0.2319: real time    0.2372

 eigenvalue-minimisations  :  2980
 total energy-change (2. order) : 0.4677582E-02  (-0.1748798E-03)
 number of electron      11.0000058 magnetization 
 augmentation part        4.0000874 magnetization 

 Broyden mixing:
  rms(total) = 0.10440E-02    rms(broyden)= 0.10367E-02
  rms(prec ) = 0.24867E-02
  weight for this iteration     100.00

 eigenvalues of (default mixing * dielectric matrix)
  average eigenvalue GAMMA=   1.6614
  1.2046  1.3253  2.4542

 Free energy of the ion-electron system (eV)
  ---------------------------------------------------
  alpha Z        PSCENC =       106.66585453
  Ewald energy   TEWEN  =      -974.21287850
  -Hartree energ DENC   =      -113.07295616
  -exchange      EXHF   =         0.00000000
  -V(xc)+E(xc)   XCENC  =        15.69497300
  PAW double counting   =       749.37918076     -731.42196052
  entropy T*S    EENTRO =         0.00087397
  eigenvalues    EBANDS =        13.18544943
  atomic energy  EATOM  =       929.39614979
  Solvation  Ediel_sol  =         0.00000000
  ---------------------------------------------------
  free energy    TOTEN  =        -4.38531371 eV

  energy without entropy =       -4.38618768  energy(sigma->0) =       -4.38560503


--------------------------------------------------------------------------------------------------------




--------------------------------------- Iteration      1(   9)  ---------------------------------------


    POTLOK:  cpu time    0.0015: real time    0.0016
    SETDIJ:  cpu time    0.0012: real time    0.0012
     EDDAV:  cpu time    0.1555: real time    0.1602
       DOS:  cpu time    0.0015: real time    0.0014
    --------------------------------------------
      LOOP:  cpu time    0.1597: real time    0.1644

 eigenvalue-minimisations  :  1744
 total energy-change (2. order) : 0.6944591E-06  (-0.8598147E-06)
 number of electron      11.0000058 magnetization 
 augmentation part        4.0000874 magnetization 

 Free energy of the ion-electron system (eV)
  ---------------------------------------------------
  alpha Z        PSCENC =       106.66585453
  Ewald energy   TEWEN  =      -974.21287850
  -Hartree energ DENC   =      -113.05242377
  -exchange      EXHF   =         0.00000000
  -V(xc)+E(xc)   XCENC  =        15.69374647
  PAW double counting   =       750.02216710     -732.07455427
  entropy T*S    EENTRO =         0.00087298
  eigenvalues    EBANDS =        13.17575266
  atomic energy  EATOM  =       929.39614979
  Solvation  Ediel_sol  =         0.00000000
  ---------------------------------------------------
  free energy    TOTEN  =        -4.38531301 eV

  energy without entropy =       -4.38618600  energy(sigma->0) =       -4.38560401


--------------------------------------------------------------------------------------------------------




 average (electrostatic) potential at core
  the test charge radii are     1.2098
  (the norm of the test charge is              1.0000)
       1 -45.9380
 
 
 
 E-fermi :   5.3507     XC(G=0): -12.9202     alpha+bet :-10.1786


 k-point     1 :       0.0500    0.0500    0.0500
  band No.  band energies     occupation 
      1      -4.3236      2.00000
      2       0.7232      2.00000
      3       0.7816      2.00000
      4       0.7816      2.00000
      5       2.2525      2.00000
      6       2.2525      2.00000
      7      20.8245      0.00000
      8      23.8230      0.00000
      9      24.5874      0.00000
     10      24.5874      0.00000
     11      29.3846      0.00000
     12      32.2662      0.00000

 k-point     2 :       0.1500    0.0500    0.0500
  band No.  band energies     occupation 
      1      -3.8742      2.00000
      2       0.5743      2.00000
      3       0.9174      2.00000
      4       0.9487      2.00000
      5       2.1067      2.00000
      6       2.3012      2.00000
      7      21.0928      0.00000
      8      21.8877      0.00000
      9      24.1854      0.00000
     10      25.4946      0.00000
     11      28.7376      0.00000
     12      31.3576      0.00000

 k-point     3 :       0.2500    0.0500    0.0500
  band No.  band energies     occupation 
      1      -2.8996      2.00000
      2       0.4621      2.00000
      3       1.0668      2.00000
      4       1.0879      2.00000
      5       2.1156      2.00000
      6       2.5085      2.00000
      7      17.9444      0.00000
      8      21.6984      0.00000
      9      24.3098      0.00000
     10      26.6746      0.00000
     11      26.8215      0.00000
     12      29.1726      0.00000

 k-point     4 :       0.3500    0.0500    0.0500
  band No.  band energies     occupation 
      1      -2.0224      2.00000
      2       0.8920      2.00000
      3       0.9759      2.00000
      4       1.1260      2.00000
      5       2.5939      2.00000
      6       3.0673      2.00000
      7      13.9197      0.00000
      8      21.0353      0.00000
      9      23.3350      0.00000
     10      25.4959      0.00000
     11      27.9864      0.00000
     12      29.0338      0.00000

 k-point     5 :       0.4500    0.0500    0.0500
  band No.  band energies     occupation 
      1      -1.8002      2.00000
      2       0.7438      2.00000
      3       0.8114      2.00000
      4       2.6101      2.00000
      5       3.1752      2.00000
      6       3.9510      2.00000
      7      10.1498     -0.00000
      8      20.2961      0.00000
      9      22.4255      0.00000
     10      23.5275      0.00000
     11      29.6962      0.00000
     12      29.9360      0.00000

 k-point     6 :      -0.4500    0.0500    0.0500
  band No.  band energies     occupation 
      1      -1.7941      2.00000
      2       0.6786      2.00000
      3       0.7729      2.00000
      4       2.9999      2.00000
      5       3.4517      2.00000
      6       4.8575      2.00269
      7       8.4803     -0.00000
      8      20.0937      0.00000
      9      22.4835      0.00000
     10      22.6070      0.00000
     11      30.1606      0.00000
     12      30.2312      0.00000

 k-point     7 :      -0.3500    0.0500    0.0500
  band No.  band energies     occupation 
      1      -1.8274      2.00000
      2       0.7734      2.00000
      3       0.8802      2.00000
      4       2.0546      2.00000
      5       3.2532      2.00000
      6       3.3954      2.00000
      7      11.3218      0.00000
      8      20.5306      0.00000
      9      22.8819      0.00000
     10      23.7014      0.00000
     11      29.6368      0.00000
     12      29.8118      0.00000

 k-point     8 :      -0.2500    0.0500    0.0500
  band No.  band energies     occupation 
      1      -2.2448      2.00000
      2       0.7108      2.00000
      3       0.9919      2.00000
      4       1.0495      2.00000
      5       2.5078      2.00000
      6       2.7635      2.00000
      7      15.2659      0.00000
      8      21.4150      0.00000
      9      23.8112      0.00000
     10      25.6312      0.00000
     11      27.6483      0.00000
     12      29.4740      0.00000

 k-point     9 :      -0.1500    0.0500    0.0500
  band No.  band energies     occupation 
      1      -3.2582      2.00000
      2       0.4504      2.00000
      3       1.0584      2.00000
      4       1.0712      2.00000
      5       2.0727      2.00000
      6       2.3890      2.00000
      7      19.2350      0.00000
      8      21.8191      0.00000
      9      24.3209      0.00000
     10      25.9197      0.00000
     11      27.4626      0.00000
     12      30.0945      0.00000

 k-point    10 :      -0.0500    0.0500    0.0500
  band No.  band energies     occupation 
      1      -4.0951      2.00000
      2       0.6179      2.00000
      3       0.8746      2.00000
      4       0.8801      2.00000
      5       2.1289      2.00000
      6       2.3087      2.00000
      7      21.0486      0.00000
      8      22.9079      0.00000
      9      24.3053      0.00000
     10      24.6974      0.00000
     11      29.9011      0.00000
     12      31.5264      0.00000

 k-point    11 :       0.1500    0.1500    0.0500
  band No.  band energies     occupation 
      1      -3.6511      2.00000
      2       0.4082      2.00000
      3       1.0703      2.00000
      4       1.0739      2.00000
      5       1.9170      2.00000
      6       2.4168      2.00000
      7      21.3837      0.00000
      8      22.0530      0.00000
      9      23.6081      0.00000
     10      24.2727      0.00000
     11      29.0373      0.00000
     12      30.8444      0.00000

 k-point    12 :       0.2500    0.1500    0.0500
  band No.  band energies     occupation 
      1      -2.8416      2.00000
      2       0.1688      2.00000
      3       1.1681      2.00000
      4       1.3458      2.00000
      5       1.8674      2.00000
      6       2.6305      2.00000
      7      19.4857      0.00000
      8      21.3040      0.00000
      9      23.2841      0.00000
     10      24.5235      0.00000
     11      27.0038      0.00000
     12      30.0343      0.00000

 k-point    13 :       0.3500    0.1500    0.0500
  band No.  band energies     occupation 
      1      -1.8437      2.00000
      2       0.2543      2.00000
      3       0.8752      2.00000
      4       1.3560      2.00000
      5       2.5126      2.00000
      6       3.1986      2.00000
      7      15.4950      0.00000
      8      20.7466      0.00000
      9      22.2302      0.00000
     10      24.2961      0.00000
     11      27.9065      0.00000
     12      29.7594      0.00000

 k-point    14 :       0.4500    0.1500    0.0500
  band No.  band energies     occupation 
      1      -1.4581      2.00000
      2       0.5817      2.00000
      3       1.1082      2.00000
      4       1.2629      2.00000
      5       3.2395      2.00000
      6       4.3702      2.00000
      7      11.5245      0.00000
      8      20.2990      0.00000
      9      20.9334      0.00000
     10      23.0156      0.00000
     11      29.7552      0.00000
     12      30.8209      0.00000

 k-point    15 :      -0.4500    0.1500    0.0500
  band No.  band energies     occupation 
      1      -1.4342      2.00000
      2       0.4565      2.00000
      3       1.0650      2.00000
      4       1.9900      2.00000
      5       3.4072      2.00000
      6       6.2594     -0.00000
      7       8.4744     -0.00000
      8      19.8483      0.00000
      9      20.5717      0.00000
     10      22.3006      0.00000
     11      30.1695      0.00000
     12      31.2417      0.00000

 k-point    16 :      -0.3500    0.1500    0.0500
  band No.  band energies     occupation 
      1      -1.4196      2.00000
      2       0.5346      2.00000
      3       1.0896      2.00000
      4       1.6703      2.00000
      5       3.0992      2.00000
      6       5.0698      2.06323
      7      10.3874     -0.00000
      8      19.4822      0.00000
      9      21.0860      0.00000
     10      23.1954      0.00000
     11      29.3859      0.00000
     12      30.8752      0.00000

 k-point    17 :      -0.2500    0.1500    0.0500
  band No.  band energies     occupation 
      1      -1.6039      2.00000
      2       0.5291      2.00000
      3       0.8309      2.00000
      4       1.2738      2.00000
      5       2.4256      2.00000
      6       3.7302      2.00000
      7      14.1648      0.00000
      8      19.7172      0.00000
      9      22.1942      0.00000
     10      25.1449      0.00000
     11      27.5986      0.00000
     12      29.9858      0.00000

 k-point    18 :      -0.1500    0.1500    0.0500
  band No.  band energies     occupation 
      1      -2.4904      2.00000
      2       0.2113      2.00000
      3       1.0660      2.00000
      4       1.3688      2.00000
      5       1.8605      2.00000
      6       2.8864      2.00000
      7      18.0841      0.00000
      8      20.3478      0.00000
      9      23.8705      0.00000
     10      24.8692      0.00000
     11      28.1649      0.00000
     12      28.8262      0.00000

 k-point    19 :      -0.0500    0.1500    0.0500
  band No.  band energies     occupation 
      1      -3.4454      2.00000
      2       0.4135      2.00000
      3       1.0736      2.00000
      4       1.0831      2.00000
      5       1.9554      2.00000
      6       2.4259      2.00000
      7      20.4946      0.00000
      8      21.5349      0.00000
      9      23.7477      0.00000
     10      25.5689      0.00000
     11      27.8252      0.00000
     12      30.7768      0.00000

 k-point    20 :       0.2500    0.2500    0.0500
  band No.  band energies     occupation 
      1      -2.3001      2.00000
      2      -0.1783      2.00000
      3       1.3189      2.00000
      4       1.7191      2.00000
      5       1.9067      2.00000
      6       2.7530      2.00000
      7      19.9269      0.00000
      8      21.0375      0.00000
      9      22.2248      0.00000
     10      23.0797      0.00000
     11      24.0513      0.00000
     12      31.5727      0.00000

 k-point    21 :       0.3500    0.2500    0.0500
  band No.  band energies     occupation 
      1      -1.5102      2.00000
      2      -0.3979      2.00000
      3       1.0674      2.00000
      4       2.0579      2.00000
      5       2.5508      2.00000
      6       3.2198      2.00000
      7      17.2037      0.00000
      8      19.1495      0.00000
      9      20.7880      0.00000
     10      23.4447      0.00000
     11      24.8278      0.00000
     12      31.6105      0.00000

 k-point    22 :       0.4500    0.2500    0.0500
  band No.  band energies     occupation 
      1      -1.0473      2.00000
      2      -0.1420      2.00000
      3       0.8279      2.00000
      4       1.9304      2.00000
      5       3.3238      2.00000
      6       4.6372      2.00001
      7      13.1645      0.00000
      8      18.4596      0.00000
      9      19.0656      0.00000
     10      23.0986      0.00000
     11      28.0032      0.00000
     12      31.5238      0.00000

 k-point    23 :      -0.4500    0.2500    0.0500
  band No.  band energies     occupation 
      1      -0.9304      2.00000
      2       0.1167      2.00000
      3       1.0300      2.00000
      4       1.7372      2.00000
      5       3.4429      2.00000
      6       7.0638     -0.00000
      7       9.6137     -0.00000
      8      17.1773      0.00000
      9      19.1333      0.00000
     10      22.7256      0.00000
     11      30.6129      0.00000
     12      32.0946      0.00000

 k-point    24 :      -0.3500    0.2500    0.0500
  band No.  band energies     occupation 
      1      -0.7642      2.00000
      2       0.1798      2.00000
      3       1.0540      2.00000
      4       1.6351      2.00000
      5       3.0553      2.00000
      6       6.9042     -0.00000
      7      10.1290     -0.00000
      8      16.1063      0.00000
      9      20.3262      0.00000
     10      22.9056      0.00000
     11      29.8012      0.00000
     12      32.1390      0.00000

 k-point    25 :      -0.2500    0.2500    0.0500
  band No.  band energies     occupation 
      1      -0.6884      2.00000
      2       0.2491      2.00000
      3       0.5063      2.00000
      4       1.7139      2.00000
      5       2.3836      2.00000
      6       5.1171      2.06985
      7      13.4913      0.00000
      8      16.0156      0.00000
      9      21.6112      0.00000
     10      24.2787      0.00000
     11      27.6780      0.00000
     12      31.9276      0.00000

 k-point    26 :      -0.1500    0.2500    0.0500
  band No.  band energies     occupation 
      1      -1.4553      2.00000
      2       0.1355      2.00000
      3       0.8029      2.00000
      4       1.5921      2.00000
      5       1.9962      2.00000
      6       3.8167      2.00000
      7      15.6132      0.00000
      8      18.2415      0.00000
      9      22.6577      0.00000
     10      25.6697      0.00000
     11      26.6315      0.00000
     12      30.4947      0.00000

 k-point    27 :      -0.0500    0.2500    0.0500
  band No.  band energies     occupation 
      1      -2.4055      2.00000
      2       0.3882      2.00000
      3       1.0384      2.00000
      4       1.1832      2.00000
      5       2.1780      2.00000
      6       2.8157      2.00000
      7      16.7017      0.00000
      8      21.3719      0.00000
      9      23.3693      0.00000
     10      25.8034      0.00000
     11      27.4548      0.00000
     12      28.9887      0.00000

 k-point    28 :       0.3500    0.3500    0.0500
  band No.  band energies     occupation 
      1      -1.3634      2.00000
      2      -0.7674      2.00000
      3       1.9353      2.00000
      4       2.5751      2.00000
      5       3.0036      2.00000
      6       3.1539      2.00000
      7      17.1284      0.00000
      8      18.1712      0.00000
      9      18.3769      0.00000
     10      22.3243      0.00000
     11      24.2323      0.00000
     12      34.0634      0.00000

 k-point    29 :       0.4500    0.3500    0.0500
  band No.  band energies     occupation 
      1      -1.2152      2.00000
      2      -0.8736      2.00000
      3       1.9806      2.00000
      4       2.8683      2.00000
      5       3.3383      2.00000
      6       4.6968      2.00004
      7      14.3305      0.00000
      8      16.4735      0.00000
      9      17.1041      0.00000
     10      23.3222      0.00000
     11      25.2098      0.00000
     12      33.5793      0.00000

 k-point    30 :      -0.4500    0.3500    0.0500
  band No.  band energies     occupation 
      1      -1.0503      2.00000
      2      -0.5653      2.00000
      3       1.6321      2.00000
      4       2.5723      2.00000
      5       3.5370      2.00000
      6       7.2884     -0.00000
      7      11.1671      0.00000
      8      14.7202      0.00000
      9      17.2234      0.00000
     10      23.5442      0.00000
     11      27.9233      0.00000
     12      32.5736      0.00000

 k-point    31 :      -0.3500    0.3500    0.0500
  band No.  band energies     occupation 
      1      -0.7656      2.00000
      2      -0.0664      2.00000
      3       1.0986      2.00000
      4       2.2507      2.00000
      5       3.2231      2.00000
      6       8.4818     -0.00000
      7      10.6054     -0.00000
      8      13.0593      0.00000
      9      18.5317      0.00000
     10      23.3376      0.00000
     11      31.1380      0.00000
     12      31.4959      0.00000

 k-point    32 :      -0.2500    0.3500    0.0500
  band No.  band energies     occupation 
      1      -0.4922      2.00000
      2       0.2239      2.00000
      3       0.6157      2.00000
      4       1.9019      2.00000
      5       2.8201      2.00000
      6       6.7273     -0.00000
      7      11.9721      0.00000
      8      14.0608      0.00000
      9      20.3134      0.00000
     10      23.2628      0.00000
     11      29.5163      0.00000
     12      32.4014      0.00000

 k-point    33 :      -0.1500    0.3500    0.0500
  band No.  band energies     occupation 
      1      -1.0683      2.00000
      2       0.4380      2.00000
[...]
      1      -0.7640      2.00000
      2      -0.2390      2.00000
      3       1.0312      2.00000
      4       2.3279      2.00000
      5       3.4500      2.00000
      6       8.0609     -0.00000
      7      10.4241     -0.00000
      8      14.6694      0.00000
      9      17.0554      0.00000
     10      24.4356      0.00000
     11      29.3776      0.00000
     12      31.3429      0.00000

 k-point    94 :       0.4500    0.4500    0.2500
  band No.  band energies     occupation 
      1      -1.1345      2.00000
      2       0.1956      2.00000
      3       0.8506      2.00000
      4       1.6129      2.00000
      5       3.4925      2.00000
      6       5.0030      2.03381
      7      11.7359      0.00000
      8      19.0209      0.00000
      9      19.8100      0.00000
     10      22.2063      0.00000
     11      29.9497      0.00000
     12      31.5981      0.00000

 k-point    95 :      -0.4500    0.4500    0.2500
  band No.  band energies     occupation 
      1      -0.7661      2.00000
      2      -0.0696      2.00000
      3       0.7701      2.00000
      4       2.1089      2.00000
      5       3.3581      2.00000
      6       6.6206     -0.00000
      7      11.0849      0.00000
      8      16.4589      0.00000
      9      17.8135      0.00000
     10      24.0801      0.00000
     11      29.1149      0.00000
     12      31.4968      0.00000

 k-point    96 :      -0.3500    0.4500    0.2500
  band No.  band energies     occupation 
      1      -0.3894      2.00000
      2      -0.0116      2.00000
      3       0.4349      2.00000
      4       2.2206      2.00000
      5       3.4970      2.00000
      6       8.4160     -0.00000
      7      11.4515      0.00000
      8      13.3097      0.00000
      9      16.1109      0.00000
     10      26.7122      0.00000
     11      28.3518      0.00000
     12      31.5939      0.00000

 k-point    97 :      -0.2500    0.4500    0.2500
  band No.  band energies     occupation 
      1      -0.5094      2.00000
      2      -0.0048      2.00000
      3       0.5905      2.00000
      4       2.1775      2.00000
      5       3.7063      2.00000
      6       9.6518     -0.00000
      7      11.1382      0.00000
      8      12.4650      0.00000
      9      15.1375      0.00000
     10      27.4655      0.00000
     11      28.9639      0.00000
     12      30.3145      0.00000

 k-point    98 :      -0.4500   -0.4500    0.2500
  band No.  band energies     occupation 
      1      -0.9708      2.00000
      2      -0.2723      2.00000
      3       1.3808      2.00000
      4       2.2586      2.00000
      5       3.4669      2.00000
      6       7.9247     -0.00000
      7      10.0504     -0.00000
      8      14.8073      0.00000
      9      18.3720      0.00000
     10      22.8240      0.00000
     11      29.6228      0.00000
     12      32.6407      0.00000

 k-point    99 :      -0.3500   -0.4500    0.2500
  band No.  band energies     occupation 
      1      -0.8012      2.00000
      2      -0.3111      2.00000
      3       1.2319      2.00000
      4       2.4069      2.00000
      5       3.5048      2.00000
      6       9.2659     -0.00000
      7      10.2195     -0.00000
      8      13.0491      0.00000
      9      16.7387      0.00000
     10      24.6782      0.00000
     11      29.6137      0.00000
     12      31.1416      0.00000

 k-point   100 :      -0.3500   -0.3500    0.2500
  band No.  band energies     occupation 
      1      -0.9868      2.00000
      2      -0.3625      2.00000
      3       1.5737      2.00000
      4       2.5097      2.00000
      5       3.3456      2.00000
      6       9.1008     -0.00000
      7       9.8877     -0.00000
      8      13.0945      0.00000
      9      18.0845      0.00000
     10      23.0428      0.00000
     11      29.5646      0.00000
     12      32.8369      0.00000

 k-point   101 :       0.3500    0.3500    0.3500
  band No.  band energies     occupation 
      1      -1.9622      2.00000
      2       0.8761      2.00000
      3       0.8761      2.00000
      4       1.7559      2.00000
      5       2.9589      2.00000
      6       2.9589      2.00000
      7      12.5557      0.00000
      8      20.7522      0.00000
      9      24.1176      0.00000
     10      24.1176      0.00000
     11      29.3215      0.00000
     12      29.3515      0.00000

 k-point   102 :       0.4500    0.3500    0.3500
  band No.  band energies     occupation 
      1      -1.6201      2.00000
      2       0.6995      2.00000
      3       0.9863      2.00000
      4       1.6764      2.00000
      5       2.8555      2.00000
      6       4.1958      2.00000
      7      11.4617      0.00000
      8      20.1087      0.00000
      9      21.6961      0.00000
     10      24.1277      0.00000
     11      28.7953      0.00000
     12      30.1403      0.00000

 k-point   103 :      -0.4500    0.3500    0.3500
  band No.  band energies     occupation 
      1      -0.9262      2.00000
      2       0.3378      2.00000
      3       1.1354      2.00000
      4       1.4327      2.00000
      5       2.8346      2.00000
      6       5.9125     -0.00052
      7      10.9484      0.00000
      8      16.8565      0.00000
      9      21.8655      0.00000
     10      22.3936      0.00000
     11      29.3097      0.00000
     12      31.3914      0.00000

 k-point   104 :      -0.3500    0.3500    0.3500
  band No.  band energies     occupation 
      1      -0.6613      2.00000
      2       0.1697      2.00000
      3       0.8771      2.00000
      4       2.0409      2.00000
      5       2.9764      2.00000
      6       7.5416     -0.00000
      7      11.3005      0.00000
      8      13.3830      0.00000
      9      20.1086      0.00000
     10      22.5199      0.00000
     11      31.0410      0.00000
     12      32.1261      0.00000

 k-point   105 :       0.4500    0.4500    0.3500
  band No.  band energies     occupation 
      1      -1.6168      2.00000
      2       0.6135      2.00000
      3       0.9876      2.00000
      4       1.8730      2.00000
      5       3.4341      2.00000
      6       4.5106      2.00000
      7      10.2187     -0.00000
      8      20.3946      0.00000
      9      21.8671      0.00000
     10      22.3474      0.00000
     11      30.3540      0.00000
     12      30.5992      0.00000

 k-point   106 :      -0.4500    0.4500    0.3500
  band No.  band energies     occupation 
      1      -1.1584      2.00000
      2       0.3191      2.00000
      3       1.2725      2.00000
      4       1.4830      2.00000
      5       3.2947      2.00000
      6       6.2783     -0.00000
      7       9.4515     -0.00000
      8      18.8281      0.00000
      9      19.7697      0.00000
     10      22.9760      0.00000
     11      29.6841      0.00000
     12      31.9767      0.00000

 k-point   107 :      -0.3500    0.4500    0.3500
  band No.  band energies     occupation 
      1      -0.5752      2.00000
      2      -0.0093      2.00000
      3       0.8747      2.00000
      4       1.8876      2.00000
      5       3.2545      2.00000
      6       8.0992     -0.00000
      7       9.4878     -0.00000
      8      15.4662      0.00000
      9      18.3974      0.00000
     10      24.0206      0.00000
     11      29.6674      0.00000
     12      33.5797      0.00000

 k-point   108 :      -0.4500   -0.4500    0.3500
  band No.  band energies     occupation 
      1      -1.0467      2.00000
      2       0.2370      2.00000
      3       1.3302      2.00000
      4       1.4630      2.00000
      5       3.3909      2.00000
      6       7.5158     -0.00000
      7       8.4931     -0.00000
      8      17.6006      0.00000
      9      20.5698      0.00000
     10      21.8018      0.00000
     11      31.1946      0.00000
     12      31.4499      0.00000

 k-point   109 :       0.4500    0.4500    0.4500
  band No.  band energies     occupation 
      1      -1.8595      2.00000
      2       0.7391      2.00000
      3       0.7391      2.00000
      4       3.3866      2.00000
      5       3.3866      2.00000
      6       3.8710      2.00000
      7       9.1260     -0.00000
      8      20.1136      0.00000
      9      22.9887      0.00000
     10      22.9887      0.00000
     11      29.9688      0.00000
     12      29.9688      0.00000

 k-point   110 :      -0.4500    0.4500    0.4500
  band No.  band energies     occupation 
      1      -1.6059      2.00000
      2       0.5712      2.00000
      3       0.9102      2.00000
      4       2.4144      2.00000
      5       3.3648      2.00000
      6       5.6888     -0.03792
      7       8.4903     -0.00000
      8      20.0063      0.00000
      9      21.4425      0.00000
     10      22.4079      0.00000
     11      30.3179      0.00000
     12      30.4791      0.00000


--------------------------------------------------------------------------------------------------------


 soft charge-density along one line, spin component           1
         0         1         2         3         4         5         6         7         8         9
 total charge-density along one line
 
 pseudopotential strength for first ion, spin component:           1
 -9.857   0.000  -0.000   0.000   0.000   0.000  -0.000   0.000  -0.000   0.000  -0.088   0.000   0.000   0.000  -0.000   0.000
 -0.000   0.000  -9.857   0.000  -0.000   0.000  -0.000   0.000   0.000   0.000   0.000   0.000  -0.088   0.000   0.000   0.000
  0.000   0.000  -0.000   0.000  -9.840   0.000  -0.000   0.000   0.000   0.000  -0.000   0.000   0.000   0.000  -0.090   0.000
 -0.000   0.000  -0.000   0.000  -0.000   0.000  -9.857   0.000  -0.000   0.000   0.000   0.000   0.000   0.000   0.000   0.000
 -0.000   0.000   0.000   0.000   0.000   0.000  -0.000   0.000  -9.840   0.000   0.000   0.000  -0.000   0.000  -0.000   0.000
 -0.088   0.000   0.000   0.000  -0.000   0.000   0.000   0.000   0.000   0.000   0.282   0.000  -0.000   0.000   0.000   0.000
  0.000   0.000  -0.088   0.000   0.000   0.000   0.000   0.000  -0.000   0.000  -0.000   0.000   0.282   0.000  -0.000   0.000
 -0.000   0.000   0.000   0.000  -0.090   0.000   0.000   0.000  -0.000   0.000   0.000   0.000  -0.000   0.000   0.283   0.000
  0.000   0.000   0.000   0.000   0.000   0.000  -0.088   0.000   0.000   0.000  -0.000   0.000  -0.000   0.000  -0.000   0.000
  0.000   0.000  -0.000   0.000  -0.000   0.000   0.000   0.000  -0.090   0.000  -0.000   0.000   0.000   0.000   0.000   0.000
  0.000   0.000   0.000   0.000  -0.000   0.000   0.000   0.000   0.000   0.000   0.000   0.000   0.000   0.000  -0.000   0.000
 -0.000   0.000  -0.000   0.000   0.000   0.000  -0.000   0.000  -0.000   0.000   0.000   0.000   0.000   0.000   0.000   0.000
 -0.000   0.000  -0.000   0.000  -0.000   0.000   0.000   0.000  -0.000   0.000   0.000   0.000  -0.000   0.000  -0.000   0.000
  0.000   0.000  -0.000   0.000   0.000   0.000  -0.000   0.000  -0.000   0.000  -0.000   0.000   0.000   0.000  -0.000   0.000
 -0.000   0.000   0.000   0.000  -0.000   0.000  -0.000   0.000   0.000   0.000   0.000   0.000  -0.000   0.000  -0.000   0.000
  0.000   0.000   0.000   0.000   0.000   0.000  -0.000   0.000   0.000   0.000  -0.000   0.000  -0.000   0.000  -0.000   0.000
 -0.000   0.000   0.000   0.000  -0.000   0.000   0.000   0.000   0.000   0.000   0.000   0.000  -0.000   0.000   0.000   0.000
  0.000   0.000  -0.000   0.000   0.000   0.000   0.000   0.000  -0.000   0.000  -0.000   0.000   0.000   0.000  -0.000   0.000
 total augmentation occupancy for first ion, spin component:           1
  1.903  -0.000   0.000   0.000   0.000  -0.039  -0.000   0.000   0.000  -0.000   0.000   0.000   0.000   0.000   0.000   0.000
 -0.000   1.903   0.000   0.000  -0.000  -0.000  -0.039   0.000   0.000  -0.000   0.000   0.000   0.000   0.000   0.000   0.000
  0.000   0.000   1.951   0.000   0.000  -0.000  -0.000  -0.086  -0.000  -0.000   0.000   0.000   0.000   0.000   0.000   0.000
  0.000  -0.000  -0.000   1.903  -0.000   0.000   0.000  -0.000  -0.039  -0.000  -0.000   0.000   0.000   0.000   0.000   0.000
  0.000   0.000   0.000  -0.000   1.951   0.000  -0.000   0.000  -0.000  -0.086  -0.000   0.000   0.000   0.000   0.000   0.000
 -0.039   0.000   0.000   0.000   0.000   0.200   0.000   0.000   0.000  -0.000   0.000   0.000   0.000   0.000   0.000   0.000
 -0.000  -0.039   0.000   0.000   0.000  -0.000   0.200  -0.000   0.000   0.000   0.000   0.000   0.000   0.000   0.000   0.000
  0.000   0.000  -0.086   0.000   0.000   0.000   0.000   0.160   0.000   0.000  -0.000   0.000   0.000   0.000   0.000   0.000
  0.000  -0.000  -0.000  -0.039  -0.000   0.000   0.000  -0.000   0.200  -0.000   0.000   0.000   0.000   0.000   0.000   0.000
  0.000  -0.000  -0.000   0.000  -0.086  -0.000   0.000   0.000   0.000   0.160   0.000  -0.000   0.000   0.000   0.000   0.000
  0.000  -0.000   0.000  -0.000   0.000   0.000   0.000  -0.000  -0.000   0.000   1.072  -0.377   0.000   0.000   0.000   0.000
  0.000   0.000   0.000   0.000   0.000   0.000   0.000   0.000   0.000   0.000  -0.377   0.246   0.000   0.000   0.000   0.000
  0.000   0.000   0.000   0.000   0.000   0.000   0.000   0.000   0.000   0.000   0.000   0.000   0.162  -0.000   0.000  -0.012
  0.000   0.000   0.000   0.000   0.000   0.000   0.000   0.000   0.000   0.000   0.000   0.000   0.000   0.162  -0.000  -0.000
  0.000   0.000   0.000   0.000   0.000   0.000   0.000   0.000   0.000   0.000   0.000   0.000  -0.000   0.000   0.162  -0.000
  0.000   0.000   0.000   0.000   0.000   0.000   0.000   0.000   0.000   0.000   0.000   0.000  -0.012  -0.000  -0.000   0.001
  0.000   0.000   0.000   0.000   0.000   0.000   0.000   0.000   0.000   0.000   0.000   0.000   0.000  -0.012   0.000   0.000
  0.000   0.000   0.000   0.000   0.000   0.000   0.000   0.000   0.000   0.000   0.000   0.000   0.000   0.000  -0.012   0.000


------------------------ aborting loop because EDIFF is reached ----------------------------------------


    CHARGE:  cpu time    0.0049: real time    0.0049
    FORLOC:  cpu time    0.0002: real time    0.0001
    FORNL :  cpu time    0.0088: real time    0.0089
    STRESS:  cpu time    0.0573: real time    0.0575
    FORCOR:  cpu time    0.0010: real time    0.0010
    FORHAR:  cpu time    0.0007: real time    0.0007
    MIXING:  cpu time    0.0003: real time    0.0003
    OFIELD:  cpu time    0.0000: real time    0.0000

  FORCE on cell =-STRESS in cart. coord.  units (eV):
  Direction    XX          YY          ZZ          XY          YZ          ZX
  --------------------------------------------------------------------------------------
  Alpha Z   106.66585   106.66585   106.66585
  Ewald    -324.73764  -324.73764  -324.73764     0.00000     0.00000    -0.00000
  Hartree    37.68806    37.68806    37.68806    -0.00000    -0.00000    -0.00000
  E(xc)     -48.98735   -48.98735   -48.98735     0.00001     0.00001     0.00001
  Local      81.68849    81.68849    81.68849     0.00016     0.00016     0.00016
  n-local   -49.68975   -46.83959   -50.61921     0.60500    -0.67031     0.01090
  augment    42.49516    42.49516    42.49516    -0.00002    -0.00002    -0.00002
  Kinetic   153.34115   152.17769   154.37135    -0.43068     0.23225     0.01069
  Fock        0.00000     0.00000     0.00000     0.00000     0.00000     0.00000
  -------------------------------------------------------------------------------------
  Total      -0.94021    -0.94021    -0.94021     0.00000     0.00000    -0.00000
  in kB     -87.42671   -87.42671   -87.42671     0.00000     0.00000    -0.00000
  external pressure =      -87.43 kB  Pullay stress =        0.00 kB


 VOLUME and BASIS-vectors are now :
 -----------------------------------------------------------------------------
  energy-cutoff  :      229.87
  volume of cell :       17.23
      direct lattice vectors                 reciprocal lattice vectors
     0.000000000  2.050000000  2.050000000    -0.243902439  0.243902439  0.243902439
     2.050000000  0.000000000  2.050000000     0.243902439 -0.243902439  0.243902439
     2.050000000  2.050000000  0.000000000     0.243902439  0.243902439 -0.243902439

  length of vectors
     2.899137803  2.899137803  2.899137803     0.422451416  0.422451416  0.422451416


 FORCES acting on ions
    electron-ion (+dipol)            ewald-force                    non-local-force                 convergence-correction
 -----------------------------------------------------------------------------------------------
   0.651E-15 0.609E-15 0.295E-14   0.579E-15 0.909E-15 -.693E-15   -.132E-22 0.132E-22 0.132E-22   0.664E-14 -.109E-14 -.580E-14
 -----------------------------------------------------------------------------------------------
   0.651E-15 0.609E-15 0.295E-14   0.579E-15 0.909E-15 -.693E-15   -.132E-22 0.132E-22 0.132E-22   0.664E-14 -.109E-14 -.580E-14
 
 
 POSITION                                       TOTAL-FORCE (eV/Angst)
 -----------------------------------------------------------------------------------
      0.00000      0.00000      0.00000         0.000000     -0.000000      0.000000
 -----------------------------------------------------------------------------------
    total drift:                                0.000000      0.000000     -0.000000


--------------------------------------------------------------------------------------------------------



  FREE ENERGIE OF THE ION-ELECTRON SYSTEM (eV)
  ---------------------------------------------------
  free  energy   TOTEN  =        -4.38531301 eV

  energy  without entropy=       -4.38618600  energy(sigma->0) =       -4.38560401
 


--------------------------------------------------------------------------------------------------------


    POTLOK:  cpu time    0.0030: real time    0.0031


--------------------------------------------------------------------------------------------------------


 writing wavefunctions
     LOOP+:  cpu time    2.1668: real time    2.2323
    4ORBIT:  cpu time    0.0000: real time    0.0000

volume of typ            1:    82.5 %
 
total charge     
 
# of ion       s       p       d       tot
------------------------------------------
    1        0.588   0.439   8.858   9.884
 
orbital moment (x)
 
# of ion     s             p             d             tot
-----------------------------------------------------------------
    1     0.000000E+00 -0.619006E-09  0.119078E-07  0.112888E-07
 
orbital moment (y)
 
# of ion     s             p             d             tot
-----------------------------------------------------------------
    1     0.000000E+00 -0.671052E-08  0.496255E-09 -0.621426E-08
 
orbital moment (z)
 
# of ion     s             p             d             tot
-----------------------------------------------------------------
    1     0.000000E+00  0.292751E-08  0.733320E-08  0.102607E-07
 

 total amount of memory used by VASP MPI-rank0    33732. kBytes
=======================================================================

   base      :      30000. kBytes
   nonl-proj :       2283. kBytes
   fftplans  :        238. kBytes
   grid      :        331. kBytes
   one-center:         15. kBytes
   wavefun   :        865. kBytes
 
  
  
 General timing and accounting informations for this job:
 ========================================================
  
                  Total CPU time used (sec):        2.785
                            User time (sec):        2.267
                          System time (sec):        0.518
                         Elapsed time (sec):        2.917
  
                   Maximum memory used (kb):       61928.
                   Average memory used (kb):           0.
  
                          Minor page faults:        21739
                          Major page faults:            0
                 Voluntary context switches:         1935
