PROCAR new format
# of k-points:  110         # of bands:   12         # of ions:    1

 k-point     1 :    0.05000000 0.05000000 0.05000000     weight = 0.00200000

band     1 # energy   -4.32363146 # occ.  2.00000000
 
ion      s      p      d    tot
    1  0.669  0.005  0.000  0.674
 
band     2 # energy    0.72316032 # occ.  2.00000000
 
ion      s      p      d    tot
    1  0.000  0.001  0.942  0.943
 
band     3 # energy    0.78163908 # occ.  2.00000000
 
ion      s      p      d    tot
    1  0.000  0.000  0.945  0.945
 
band     4 # energy    0.78163909 # occ.  2.00000000
 
ion      s      p      d    tot
    1  0.000  0.000  0.945  0.945
 
band     5 # energy    2.25250956 # occ.  2.00000000
 
ion      s      p      d    tot
    1  0.000  0.000  0.966  0.966
 
band     6 # energy    2.25250956 # occ.  2.00000000
 
ion      s      p      d    tot
    1  0.000  0.000  0.966  0.966
 
band     7 # energy   20.82447888 # occ.  0.00000000
 
ion      s      p      d    tot
    1  0.000  0.000  0.011  0.011
 
band     8 # energy   23.82299026 # occ.  0.00000000
 
ion      s      p      d    tot
    1  0.014  0.216  0.014  0.245
 
band     9 # energy   24.58740468 # occ.  0.00000000
 
ion      s      p      d    tot
    1  0.000  0.234  0.008  0.242
 
band    10 # energy   24.58740468 # occ.  0.00000000
 
ion      s      p      d    tot
    1  0.000  0.234  0.008  0.242
 
band    11 # energy   29.38455570 # occ.  0.00000000
 
ion      s      p      d    tot
    1  0.048  0.059  0.014  0.120
 
band    12 # energy   32.26615947 # occ.  0.00000000
 
ion      s      p      d    tot
    1  0.012  0.142  0.375  0.528
 

 k-point     2 :    0.15000000 0.05000000 0.05000000     weight = 0.00600000

band     1 # energy   -3.87422464 # occ.  2.00000000
 
ion      s      p      d    tot
    1  0.644  0.028  0.004  0.676
 
band     2 # energy    0.57430923 # occ.  2.00000000
 
ion      s      p      d    tot
    1  0.000  0.006  0.928  0.934
 
band     3 # energy    0.91744847 # occ.  2.00000000
 
ion      s      p      d    tot
    1  0.000  0.000  0.945  0.945
 
band     4 # energy    0.94872731 # occ.  2.00000000
 
ion      s      p      d    tot
    1  0.001  0.004  0.939  0.944
 
band     5 # energy    2.10672714 # occ.  2.00000000
 
ion      s      p      d    tot
    1  0.000  0.000  0.960  0.960
 
band     6 # energy    2.30122385 # occ.  2.00000000
 
ion      s      p      d    tot
    1  0.000  0.000  0.964  0.964
 
band     7 # energy   21.09279089 # occ.  0.00000000
 
ion      s      p      d    tot
    1  0.007  0.058  0.097  0.163
 
band     8 # energy   21.88766325 # occ.  0.00000000
 
ion      s      p      d    tot
    1  0.043  0.172  0.029  0.244
 
band     9 # energy   24.18537731 # occ.  0.00000000
 
ion      s      p      d    tot
    1  0.000  0.296  0.053  0.350
 
band    10 # energy   25.49455617 # occ.  0.00000000
 
ion      s      p      d    tot
    1  0.000  0.229  0.037  0.266
 
band    11 # energy   28.73760707 # occ.  0.00000000
 
ion      s      p      d    tot
    1  0.002  0.286  0.139  0.426
 
band    12 # energy   31.35757576 # occ.  0.00000000
 
ion      s      p      d    tot
    1  0.001  0.161  0.221  0.384
 

 k-point     3 :    0.25000000 0.05000000 0.05000000     weight = 0.00600000

band     1 # energy   -2.89962745 # occ.  2.00000000
 
ion      s      p      d    tot
    1  0.567  0.065  0.060  0.692
 
band     2 # energy    0.46211567 # occ.  2.00000000
 
ion      s      p      d    tot
    1  0.017  0.036  0.852  0.905
 
band     3 # energy    1.06683205 # occ.  2.00000000
 
ion      s      p      d    tot
    1  0.002  0.008  0.930  0.939
 
band     4 # energy    1.08790397 # occ.  2.00000000
 
ion      s      p      d    tot
    1  0.000  0.000  0.944  0.944
 
band     5 # energy    2.11560789 # occ.  2.00000000
 
ion      s      p      d    tot
    1  0.000  0.001  0.952  0.954
 
band     6 # energy    2.50847117 # occ.  2.00000000
 
ion      s      p      d    tot
    1  0.003  0.003  0.954  0.960
 
band     7 # energy   17.94441822 # occ.  0.00000000
 
ion      s      p      d    tot
    1  0.106  0.290  0.159  0.554
 
band     8 # energy   21.69843031 # occ.  0.00000000
 
ion      s      p      d    tot
    1  0.004  0.035  0.104  0.144
 
band     9 # energy   24.30982627 # occ.  0.00000000
 
ion      s      p      d    tot
    1  0.003  0.390  0.107  0.501
 
band    10 # energy   26.67457511 # occ.  0.00000000
 
ion      s      p      d    tot
    1  0.000  0.356  0.116  0.472
 
band    11 # energy   26.82152767 # occ.  0.00000000
 
ion      s      p      d    tot
    1  0.021  0.189  0.035  0.245
 
band    12 # energy   29.17264641 # occ.  0.00000000
 
ion      s      p      d    tot
    1  0.000  0.205  0.213  0.418
 

 k-point     4 :    0.35000000 0.05000000 0.05000000     weight = 0.00600000

band     1 # energy   -2.02238756 # occ.  2.00000000
 
ion      s      p      d    tot
    1  0.378  0.049  0.338  0.765
 
band     2 # energy    0.89201734 # occ.  2.00000000
 
ion      s      p      d    tot
    1  0.013  0.016  0.898  0.927
 
band     3 # energy    0.97587081 # occ.  2.00000000
 
ion      s      p      d    tot
    1  0.000  0.000  0.939  0.939
 
band     4 # energy    1.12603142 # occ.  2.00000000
 
ion      s      p      d    tot
    1  0.092  0.143  0.588  0.823
 
band     5 # energy    2.59387537 # occ.  2.00000000
 
ion      s      p      d    tot
    1  0.000  0.002  0.956  0.958
 
band     6 # energy    3.06725488 # occ.  2.00000000
 
ion      s      p      d    tot
    1  0.016  0.016  0.924  0.956
 
band     7 # energy   13.91969279 # occ.  0.00000000
 
ion      s      p      d    tot
    1  0.199  0.296  0.201  0.695
 
band     8 # energy   21.03530226 # occ.  0.00000000
 
ion      s      p      d    tot
    1  0.001  0.040  0.069  0.110
 
band     9 # energy   23.33502324 # occ.  0.00000000
 
ion      s      p      d    tot
    1  0.010  0.479  0.092  0.581
 
band    10 # energy   25.49592355 # occ.  0.00000000
 
ion      s      p      d    tot
    1  0.000  0.539  0.081  0.620
 
band    11 # energy   27.98637361 # occ.  0.00000000
 
ion      s      p      d    tot
    1  0.030  0.072  0.137  0.238
 
band    12 # energy   29.03377170 # occ.  0.00000000
 
ion      s      p      d    tot
    1  0.000  0.003  0.351  0.354
 

 k-point     5 :    0.45000000 0.05000000 0.05000000     weight = 0.00600000

band     1 # energy   -1.80024422 # occ.  2.00000000
 
ion      s      p      d    tot
    1  0.228  0.011  0.591  0.830
 
band     2 # energy    0.74379555 # occ.  2.00000000
 
ion      s      p      d    tot
    1  0.000  0.001  0.932  0.933
 
band     3 # energy    0.81140842 # occ.  2.00000000
 
ion      s      p      d    tot
    1  0.000  0.000  0.935  0.936
 
band     4 # energy    2.61012040 # occ.  2.00000000
 
ion      s      p      d    tot
    1  0.060  0.215  0.532  0.807
 
band     5 # energy    3.17521418 # occ.  2.00000000
 
ion      s      p      d    tot
    1  0.000  0.001  0.968  0.969
 
band     6 # energy    3.95102291 # occ.  2.00000000
 
ion      s      p      d    tot
    1  0.072  0.168  0.614  0.854
 
band     7 # energy   10.14978708 # occ. -0.00000000
 
ion      s      p      d    tot
    1  0.338  0.184  0.273  0.795
 
band     8 # energy   20.29614954 # occ.  0.00000000
 
ion      s      p      d    tot
    1  0.000  0.029  0.027  0.056
 
band     9 # energy   22.42545164 # occ.  0.00000000
 
ion      s      p      d    tot
    1  0.010  0.501  0.043  0.553
 
band    10 # energy   23.52745247 # occ.  0.00000000
 
ion      s      p      d    tot
    1  0.000  0.518  0.028  0.546
 
band    11 # energy   29.69621834 # occ.  0.00000000
 
ion      s      p      d    tot
    1  0.018  0.010  0.381  0.409
 
band    12 # energy   29.93600970 # occ.  0.00000000
 
ion      s      p      d    tot
    1  0.000  0.005  0.507  0.512
 

 k-point     6 :   -0.45000000 0.05000000 0.05000000     weight = 0.00600000

band     1 # energy   -1.79412730 # occ.  2.00000000
 
ion      s      p      d    tot
    1  0.200  0.003  0.639  0.842
 
band     2 # energy    0.67858525 # occ.  2.00000000
 
ion      s      p      d    tot
    1  0.000  0.001  0.931  0.932
 
band     3 # energy    0.77294808 # occ.  2.00000000
 
ion      s      p      d    tot
    1  0.000  0.001  0.934  0.935
 
band     4 # energy    2.99994079 # occ.  2.00000000
 
ion      s      p      d    tot
    1  0.002  0.118  0.770  0.891
 
band     5 # energy    3.45171931 # occ.  2.00000000
 
ion      s      p      d    tot
    1  0.000  0.000  0.976  0.976
 
band     6 # energy    4.85750364 # occ.  2.00269485
 
ion      s      p      d    tot
    1  0.011  0.453  0.221  0.685
 
band     7 # energy    8.48026691 # occ. -0.00000000
 
ion      s      p      d    tot
    1  0.485  0.018  0.376  0.879
 
band     8 # energy   20.09374221 # occ.  0.00000000
 
ion      s      p      d    tot
    1  0.000  0.024  0.016  0.039
 
band     9 # energy   22.48346872 # occ.  0.00000000
 
ion      s      p      d    tot
    1  0.010  0.503  0.028  0.541
 
band    10 # energy   22.60703077 # occ.  0.00000000
 
ion      s      p      d    tot
    1  0.000  0.518  0.016  0.533
 
band    11 # energy   30.16058927 # occ.  0.00000000
 
ion      s      p      d    tot
    1  0.000  0.002  0.508  0.510
 
band    12 # energy   30.23117536 # occ.  0.00000000
 
ion      s      p      d    tot
    1  0.002  0.001  0.518  0.521
 

 k-point     7 :   -0.35000000 0.05000000 0.05000000     weight = 0.00600000

band     1 # energy   -1.82737865 # occ.  2.00000000
 
ion      s      p      d    tot
    1  0.261  0.019  0.536  0.816
 
band     2 # energy    0.77343561 # occ.  2.00000000
 
ion      s      p      d    tot
    1  0.000  0.000  0.933  0.934
 
band     3 # energy    0.88016980 # occ.  2.00000000
 
ion      s      p      d    tot
    1  0.000  0.002  0.935  0.937
 
band     4 # energy    2.05459950 # occ.  2.00000000
 
ion      s      p      d    tot
    1  0.096  0.212  0.483  0.791
 
band     5 # energy    3.25322561 # occ.  2.00000000
 
ion      s      p      d    tot
    1  0.000  0.001  0.971  0.972
 
band     6 # energy    3.39535391 # occ.  2.00000000
 
ion      s      p      d    tot
    1  0.057  0.094  0.746  0.898
 
band     7 # energy   11.32179061 # occ.  0.00000000
 
ion      s      p      d    tot
    1  0.283  0.239  0.239  0.761
 
band     8 # energy   20.53055843 # occ.  0.00000000
 
ion      s      p      d    tot
    1  0.000  0.024  0.029  0.053
 
band     9 # energy   22.88185732 # occ.  0.00000000
 
ion      s      p      d    tot
    1  0.000  0.517  0.061  0.578
 
band    10 # energy   23.70141155 # occ.  0.00000000
 
ion      s      p      d    tot
    1  0.014  0.496  0.063  0.572
 
band    11 # energy   29.63682032 # occ.  0.00000000
 
ion      s      p      d    tot
    1  0.006  0.033  0.391  0.430
 
band    12 # energy   29.81182100 # occ.  0.00000000
 
ion      s      p      d    tot
    1  0.000  0.003  0.362  0.365
 

 k-point     8 :   -0.25000000 0.05000000 0.05000000     weight = 0.00600000

band     1 # energy   -2.24477652 # occ.  2.00000000
 
ion      s      p      d    tot
    1  0.451  0.063  0.220  0.734
 
band     2 # energy    0.71082108 # occ.  2.00000000
 
ion      s      p      d    tot
    1  0.064  0.091  0.705  0.861
 
band     3 # energy    0.99190719 # occ.  2.00000000
 
ion      s      p      d    tot
    1  0.005  0.012  0.911  0.929
 
band     4 # energy    1.04954372 # occ.  2.00000000
 
ion      s      p      d    tot
    1  0.000  0.003  0.938  0.941
 
band     5 # energy    2.50777892 # occ.  2.00000000
 
ion      s      p      d    tot
    1  0.012  0.012  0.924  0.949
 
band     6 # energy    2.76353504 # occ.  2.00000000
 
ion      s      p      d    tot
    1  0.000  0.002  0.962  0.964
 
band     7 # energy   15.26591605 # occ.  0.00000000
 
ion      s      p      d    tot
    1  0.164  0.306  0.187  0.657
 
band     8 # energy   21.41497889 # occ.  0.00000000
 
ion      s      p      d    tot
    1  0.001  0.020  0.072  0.093
 
band     9 # energy   23.81118356 # occ.  0.00000000
 
ion      s      p      d    tot
    1  0.000  0.486  0.135  0.621
 
band    10 # energy   25.63121525 # occ.  0.00000000
 
ion      s      p      d    tot
    1  0.026  0.461  0.103  0.590
 
band    11 # energy   27.64828919 # occ.  0.00000000
 
ion      s      p      d    tot
    1  0.008  0.151  0.124  0.283
 
band    12 # energy   29.47395261 # occ.  0.00000000
 
ion      s      p      d    tot
    1  0.000  0.027  0.181  0.208
 

 k-point     9 :   -0.15000000 0.05000000 0.05000000     weight = 0.00600000

band     1 # energy   -3.25824473 # occ.  2.00000000
 
ion      s      p      d    tot
    1  0.601  0.054  0.027  0.683
 
band     2 # energy    0.45043838 # occ.  2.00000000
 
ion      s      p      d    tot
    1  0.007  0.019  0.893  0.918
 
band     3 # energy    1.05836337 # occ.  2.00000000
 
ion      s      p      d    tot
    1  0.001  0.004  0.937  0.942
 
band     4 # energy    1.07115815 # occ.  2.00000000
 
ion      s      p      d    tot
    1  0.000  0.004  0.940  0.944
 
band     5 # energy    2.07274365 # occ.  2.00000000
 
ion      s      p      d    tot
    1  0.002  0.002  0.949  0.953
 
band     6 # energy    2.38904750 # occ.  2.00000000
 
ion      s      p      d    tot
    1  0.000  0.001  0.962  0.962
 
band     7 # energy   19.23503675 # occ.  0.00000000
 
ion      s      p      d    tot
    1  0.079  0.268  0.145  0.491
 
band     8 # energy   21.81910979 # occ.  0.00000000
 
ion      s      p      d    tot
    1  0.006  0.005  0.070  0.082
 
band     9 # energy   24.32093926 # occ.  0.00000000
 
ion      s      p      d    tot
    1  0.000  0.377  0.123  0.500
 
band    10 # energy   25.91973597 # occ.  0.00000000
 
ion      s      p      d    tot
    1  0.000  0.230  0.073  0.304
 
band    11 # energy   27.46255981 # occ.  0.00000000
 
ion      s      p      d    tot
    1  0.025  0.338  0.063  0.426
 
band    12 # energy   30.09450155 # occ.  0.00000000
 
ion      s      p      d    tot
    1  0.000  0.114  0.160  0.274
 

 k-point    10 :   -0.05000000 0.05000000 0.05000000     weight = 0.00600000

band     1 # energy   -4.09513860 # occ.  2.00000000
 
ion      s      p      d    tot
    1  0.657  0.017  0.001  0.675
 
band     2 # energy    0.61792321 # occ.  2.00000000
 
ion      s      p      d    tot
    1  0.000  0.002  0.937  0.939
 
band     3 # energy    0.87457672 # occ.  2.00000000
 
ion      s      p      d    tot
    1  0.000  0.002  0.943  0.945
 
band     4 # energy    0.88011454 # occ.  2.00000000
 
ion      s      p      d    tot
    1  0.000  0.002  0.943  0.945
 
band     5 # energy    2.12888400 # occ.  2.00000000
 
ion      s      p      d    tot
    1  0.000  0.000  0.961  0.961
 
band     6 # energy    2.30870082 # occ.  2.00000000
 
ion      s      p      d    tot
    1  0.000  0.000  0.966  0.966
 
band     7 # energy   21.04857059 # occ.  0.00000000
 
ion      s      p      d    tot
    1  0.000  0.005  0.043  0.047
 
band     8 # energy   22.90790725 # occ.  0.00000000
 
ion      s      p      d    tot
    1  0.033  0.200  0.031  0.264
 
band     9 # energy   24.30528632 # occ.  0.00000000
 
ion      s      p      d    tot
    1  0.000  0.278  0.044  0.322
 
band    10 # energy   24.69744239 # occ.  0.00000000
 
ion      s      p      d    tot
    1  0.003  0.235  0.029  0.267
 
band    11 # energy   29.90112036 # occ.  0.00000000
 
ion      s      p      d    tot
    1  0.003  0.248  0.104  0.355
 
band    12 # energy   31.52640179 # occ.  0.00000000
 
ion      s      p      d    tot
    1  0.000  0.155  0.318  0.474
 

 k-point    11 :    0.15000000 0.15000000 0.05000000     weight = 0.00600000

band     1 # energy   -3.65105608 # occ.  2.00000000
 
ion      s      p      d    tot
    1  0.631  0.039  0.006  0.676
 
band     2 # energy    0.40818168 # occ.  2.00000000
 
ion      s      p      d    tot
    1  0.000  0.002  0.930  0.932
 
band     3 # energy    1.07030491 # occ.  2.00000000
 
ion      s      p      d    tot
    1  0.000  0.006  0.938  0.944
 
band     4 # energy    1.07394516 # occ.  2.00000000
 
ion      s      p      d    tot
    1  0.000  0.005  0.939  0.944
 
band     5 # energy    1.91699269 # occ.  2.00000000
 
ion      s      p      d    tot
    1  0.003  0.001  0.948  0.952
 
band     6 # energy    2.41679622 # occ.  2.00000000
 
ion      s      p      d    tot
    1  0.000  0.000  0.967  0.967
 
band     7 # energy   21.38372722 # occ.  0.00000000
 
ion      s      p      d    tot
    1  0.007  0.054  0.112  0.173
 
band     8 # energy   22.05303410 # occ.  0.00000000
 
ion      s      p      d    tot
    1  0.045  0.155  0.048  0.249
 
band     9 # energy   23.60811090 # occ.  0.00000000
 
ion      s      p      d    tot
    1  0.000  0.350  0.100  0.450
 
band    10 # energy   24.27268932 # occ.  0.00000000
 
ion      s      p      d    tot
    1  0.006  0.246  0.075  0.327
 
band    11 # energy   29.03725025 # occ.  0.00000000
 
ion      s      p      d    tot
    1  0.048  0.471  0.068  0.587
 
band    12 # energy   30.84440873 # occ.  0.00000000
 
ion      s      p      d    tot
    1  0.000  0.116  0.184  0.300
 

 k-point    12 :    0.25000000 0.15000000 0.05000000     weight = 0.01200000

band     1 # energy   -2.84158889 # occ.  2.00000000
 
ion      s      p      d    tot
    1  0.573  0.076  0.035  0.684
 
band     2 # energy    0.16875069 # occ.  2.00000000
 
ion      s      p      d    tot
    1  0.001  0.009  0.910  0.920
 
band     3 # energy    1.16807539 # occ.  2.00000000
 
ion      s      p      d    tot
    1  0.000  0.008  0.929  0.937
 
band     4 # energy    1.34579064 # occ.  2.00000000
 
ion      s      p      d    tot
    1  0.000  0.007  0.938  0.944
 
band     5 # energy    1.86736559 # occ.  2.00000000
 
ion      s      p      d    tot
    1  0.013  0.010  0.918  0.941
 
band     6 # energy    2.63054920 # occ.  2.00000000
 
ion      s      p      d    tot
    1  0.003  0.002  0.960  0.965
 
band     7 # energy   19.48569969 # occ.  0.00000000
 
ion      s      p      d    tot
    1  0.087  0.280  0.129  0.496
 
band     8 # energy   21.30403627 # occ.  0.00000000
 
ion      s      p      d    tot
    1  0.008  0.213  0.199  0.420
 
band     9 # energy   23.28408955 # occ.  0.00000000
 
ion      s      p      d    tot
    1  0.000  0.219  0.085  0.304
 
band    10 # energy   24.52352294 # occ.  0.00000000
 
ion      s      p      d    tot
    1  0.003  0.154  0.125  0.282
 
band    11 # energy   27.00383706 # occ.  0.00000000
 
ion      s      p      d    tot
    1  0.091  0.543  0.022  0.656
 
band    12 # energy   30.03427560 # occ.  0.00000000
 
ion      s      p      d    tot
    1  0.003  0.124  0.160  0.287
 

 k-point    13 :    0.35000000 0.15000000 0.05000000     weight = 0.01200000

band     1 # energy   -1.84370180 # occ.  2.00000000
 
ion      s      p      d    tot
    1  0.422  0.085  0.227  0.733
 
band     2 # energy    0.25430189 # occ.  2.00000000
 
ion      s      p      d    tot
    1  0.039  0.058  0.781  0.879
 
band     3 # energy    0.87517237 # occ.  2.00000000
 
ion      s      p      d    tot
    1  0.001  0.006  0.918  0.925
 
band     4 # energy    1.35600645 # occ.  2.00000000
 
ion      s      p      d    tot
    1  0.002  0.007  0.932  0.941
 
band     5 # energy    2.51257123 # occ.  2.00000000
 
ion      s      p      d    tot
    1  0.025  0.026  0.887  0.938
 
band     6 # energy    3.19861257 # occ.  2.00000000
 
ion      s      p      d    tot
    1  0.028  0.021  0.906  0.954
 
band     7 # energy   15.49498633 # occ.  0.00000000
 
ion      s      p      d    tot
    1  0.164  0.324  0.169  0.658
 
band     8 # energy   20.74662261 # occ.  0.00000000
 
ion      s      p      d    tot
    1  0.010  0.289  0.184  0.483
 
band     9 # energy   22.23023058 # occ.  0.00000000
 
ion      s      p      d    tot
    1  0.011  0.218  0.090  0.319
 
band    10 # energy   24.29608577 # occ.  0.00000000
 
ion      s      p      d    tot
    1  0.043  0.306  0.162  0.512
 
band    11 # energy   27.90647339 # occ.  0.00000000
 
ion      s      p      d    tot
    1  0.017  0.376  0.017  0.409
 
band    12 # energy   29.75938939 # occ.  0.00000000
 
ion      s      p      d    tot
    1  0.010  0.015  0.228  0.253
 

 k-point    14 :    0.45000000 0.15000000 0.05000000     weight = 0.01200000

band     1 # energy   -1.45808020 # occ.  2.00000000
 
ion      s      p      d    tot
    1  0.226  0.035  0.560  0.821
 
band     2 # energy    0.58170992 # occ.  2.00000000
 
ion      s      p      d    tot
    1  0.000  0.008  0.907  0.916
 
band     3 # energy    1.10815736 # occ.  2.00000000
 
ion      s      p      d    tot
    1  0.028  0.065  0.797  0.890
 
band     4 # energy    1.26294526 # occ.  2.00000000
 
ion      s      p      d    tot
    1  0.040  0.080  0.760  0.880
 
band     5 # energy    3.23951359 # occ.  2.00000000
 
ion      s      p      d    tot
    1  0.004  0.012  0.947  0.964
 
band     6 # energy    4.37024445 # occ.  2.00000000
 
ion      s      p      d    tot
    1  0.113  0.131  0.632  0.876
 
band     7 # energy   11.52448345 # occ.  0.00000000
 
ion      s      p      d    tot
    1  0.270  0.265  0.210  0.745
 
band     8 # energy   20.29901736 # occ.  0.00000000
 
ion      s      p      d    tot
    1  0.004  0.231  0.141  0.376
 
band     9 # energy   20.93341915 # occ.  0.00000000
 
ion      s      p      d    tot
    1  0.029  0.334  0.093  0.456
 
band    10 # energy   23.01563184 # occ.  0.00000000
 
ion      s      p      d    tot
    1  0.023  0.404  0.097  0.524
 
band    11 # energy   29.75522104 # occ.  0.00000000
 
ion      s      p      d    tot
    1  0.006  0.062  0.240  0.308
 
band    12 # energy   30.82092782 # occ.  0.00000000
 
ion      s      p      d    tot
    1  0.008  0.055  0.328  0.391
 

 k-point    15 :   -0.45000000 0.15000000 0.05000000     weight = 0.01200000

band     1 # energy   -1.43421086 # occ.  2.00000000
 
ion      s      p      d    tot
    1  0.171  0.019  0.656  0.846
 
band     2 # energy    0.45650147 # occ.  2.00000000
 
ion      s      p      d    tot
    1  0.000  0.008  0.905  0.913
 
band     3 # energy    1.06499432 # occ.  2.00000000
 
ion      s      p      d    tot
    1  0.000  0.004  0.930  0.935
 
band     4 # energy    1.99003379 # occ.  2.00000000
 
ion      s      p      d    tot
    1  0.003  0.153  0.700  0.855
 
band     5 # energy    3.40715278 # occ.  2.00000000
 
ion      s      p      d    tot
    1  0.000  0.000  0.973  0.974
 
band     6 # energy    6.25944350 # occ. -0.00000000
 
ion      s      p      d    tot
    1  0.021  0.399  0.313  0.733
 
band     7 # energy    8.47437178 # occ. -0.00000000
 
ion      s      p      d    tot
    1  0.484  0.036  0.339  0.859
 
band     8 # energy   19.84827644 # occ.  0.00000000
 
ion      s      p      d    tot
    1  0.013  0.198  0.128  0.339
 
band     9 # energy   20.57173976 # occ.  0.00000000
 
ion      s      p      d    tot
    1  0.032  0.399  0.101  0.532
 
band    10 # energy   22.30061894 # occ.  0.00000000
 
ion      s      p      d    tot
    1  0.002  0.410  0.024  0.437
 
band    11 # energy   30.16952884 # occ.  0.00000000
 
ion      s      p      d    tot
    1  0.014  0.004  0.431  0.449
 
band    12 # energy   31.24166220 # occ.  0.00000000
 
ion      s      p      d    tot
    1  0.002  0.006  0.361  0.369
 

 k-point    16 :   -0.35000000 0.15000000 0.05000000     weight = 0.01200000

band     1 # energy   -1.41960305 # occ.  2.00000000
 
ion      s      p      d    tot
    1  0.198  0.028  0.608  0.834
 
band     2 # energy    0.53463155 # occ.  2.00000000
 
ion      s      p      d    tot
    1  0.000  0.006  0.912  0.918
 
band     3 # energy    1.08958277 # occ.  2.00000000
 
ion      s      p      d    tot
    1  0.000  0.005  0.929  0.934
 
band     4 # energy    1.67028257 # occ.  2.00000000
 
ion      s      p      d    tot
    1  0.040  0.165  0.627  0.831
 
band     5 # energy    3.09918805 # occ.  2.00000000
 
ion      s      p      d    tot
    1  0.001  0.007  0.956  0.963
 
band     6 # energy    5.06979814 # occ.  2.06322751
 
ion      s      p      d    tot
    1  0.132  0.174  0.541  0.847
 
band     7 # energy   10.38740524 # occ. -0.00000000
 
ion      s      p      d    tot
    1  0.311  0.220  0.244  0.775
 
band     8 # energy   19.48220459 # occ.  0.00000000
 
ion      s      p      d    tot
    1  0.023  0.319  0.156  0.498
 
band     9 # energy   21.08602285 # occ.  0.00000000
 
ion      s      p      d    tot
    1  0.021  0.222  0.059  0.303
 
band    10 # energy   23.19539139 # occ.  0.00000000
 
ion      s      p      d    tot
    1  0.002  0.463  0.060  0.525
 
band    11 # energy   29.38593769 # occ.  0.00000000
 
ion      s      p      d    tot
    1  0.016  0.025  0.297  0.338
 
band    12 # energy   30.87524033 # occ.  0.00000000
 
ion      s      p      d    tot
    1  0.000  0.024  0.395  0.419
 

 k-point    17 :   -0.25000000 0.15000000 0.05000000     weight = 0.01200000

band     1 # energy   -1.60390721 # occ.  2.00000000
 
ion      s      p      d    tot
    1  0.352  0.071  0.342  0.765
 
band     2 # energy    0.52910103 # occ.  2.00000000
 
ion      s      p      d    tot
    1  0.050  0.072  0.753  0.876
 
band     3 # energy    0.83091011 # occ.  2.00000000
 
ion      s      p      d    tot
    1  0.011  0.037  0.850  0.898
 
band     4 # energy    1.27384791 # occ.  2.00000000
 
ion      s      p      d    tot
    1  0.004  0.007  0.926  0.936
 
band     5 # energy    2.42555746 # occ.  2.00000000
 
ion      s      p      d    tot
    1  0.006  0.011  0.930  0.948
 
band     6 # energy    3.73016771 # occ.  2.00000000
 
ion      s      p      d    tot
    1  0.063  0.042  0.834  0.939
 
band     7 # energy   14.16479052 # occ.  0.00000000
 
ion      s      p      d    tot
    1  0.198  0.310  0.180  0.688
 
band     8 # energy   19.71723305 # occ.  0.00000000
 
ion      s      p      d    tot
    1  0.020  0.326  0.202  0.549
 
band     9 # energy   22.19418034 # occ.  0.00000000
 
ion      s      p      d    tot
    1  0.017  0.185  0.041  0.244
 
band    10 # energy   25.14485184 # occ.  0.00000000
 
ion      s      p      d    tot
    1  0.012  0.399  0.131  0.543
 
band    11 # energy   27.59855017 # occ.  0.00000000
 
ion      s      p      d    tot
    1  0.003  0.172  0.091  0.265
 
band    12 # energy   29.98583008 # occ.  0.00000000
 
ion      s      p      d    tot
    1  0.007  0.081  0.316  0.405
 

 k-point    18 :   -0.15000000 0.15000000 0.05000000     weight = 0.01200000

band     1 # energy   -2.49043938 # occ.  2.00000000
 
ion      s      p      d    tot
    1  0.542  0.086  0.064  0.692
 
band     2 # energy    0.21125561 # occ.  2.00000000
 
ion      s      p      d    tot
    1  0.003  0.021  0.889  0.913
 
band     3 # energy    1.06601169 # occ.  2.00000000
 
ion      s      p      d    tot
    1  0.002  0.013  0.916  0.930
 
band     4 # energy    1.36878126 # occ.  2.00000000
 
ion      s      p      d    tot
    1  0.000  0.002  0.942  0.945
 
band     5 # energy    1.86049266 # occ.  2.00000000
 
ion      s      p      d    tot
    1  0.006  0.006  0.933  0.944
 
band     6 # energy    2.88638143 # occ.  2.00000000
 
ion      s      p      d    tot
    1  0.016  0.011  0.933  0.960
 
band     7 # energy   18.08411867 # occ.  0.00000000
 
ion      s      p      d    tot
    1  0.124  0.292  0.130  0.546
 
band     8 # energy   20.34782993 # occ.  0.00000000
 
ion      s      p      d    tot
    1  0.009  0.284  0.241  0.534
 
band     9 # energy   23.87047005 # occ.  0.00000000
 
ion      s      p      d    tot
    1  0.007  0.187  0.044  0.239
 
band    10 # energy   24.86916728 # occ.  0.00000000
 
ion      s      p      d    tot
    1  0.014  0.143  0.063  0.220
 
band    11 # energy   28.16485798 # occ.  0.00000000
 
ion      s      p      d    tot
    1  0.026  0.483  0.042  0.550
 
band    12 # energy   28.82616140 # occ.  0.00000000
 
ion      s      p      d    tot
    1  0.001  0.211  0.225  0.437
 

 k-point    19 :   -0.05000000 0.15000000 0.05000000     weight = 0.01200000

band     1 # energy   -3.44535655 # occ.  2.00000000
 
ion      s      p      d    tot
    1  0.618  0.048  0.012  0.678
 
band     2 # energy    0.41347791 # occ.  2.00000000
 
ion      s      p      d    tot
    1  0.001  0.008  0.919  0.927
 
band     3 # energy    1.07359236 # occ.  2.00000000
 
ion      s      p      d    tot
    1  0.001  0.007  0.933  0.942
 
band     4 # energy    1.08306378 # occ.  2.00000000
 
ion      s      p      d    tot
    1  0.000  0.003  0.941  0.945
 
band     5 # energy    1.95541605 # occ.  2.00000000
 
ion      s      p      d    tot
    1  0.002  0.001  0.949  0.952
 
band     6 # energy    2.42585303 # occ.  2.00000000
 
ion      s      p      d    tot
    1  0.001  0.001  0.962  0.964
 
band     7 # energy   20.49457563 # occ.  0.00000000
 
ion      s      p      d    tot
    1  0.060  0.229  0.119  0.407
 
band     8 # energy   21.53487963 # occ.  0.00000000
 
ion      s      p      d    tot
    1  0.012  0.067  0.109  0.189
 
band     9 # energy   23.74765817 # occ.  0.00000000
 
ion      s      p      d    tot
    1  0.000  0.310  0.062  0.371
 
band    10 # energy   25.56885044 # occ.  0.00000000
 
ion      s      p      d    tot
    1  0.000  0.215  0.088  0.303
 
band    11 # energy   27.82516533 # occ.  0.00000000
 
ion      s      p      d    tot
    1  0.026  0.336  0.060  0.422
 
band    12 # energy   30.77684452 # occ.  0.00000000
 
ion      s      p      d    tot
    1  0.009  0.279  0.189  0.477
 

 k-point    20 :    0.25000000 0.25000000 0.05000000     weight = 0.00600000

band     1 # energy   -2.30014351 # occ.  2.00000000
 
ion      s      p      d    tot
    1  0.512  0.097  0.083  0.692
 
band     2 # energy   -0.17833105 # occ.  2.00000000
 
ion      s      p      d    tot
    1  0.000  0.002  0.914  0.916
 